<event>
 7    1  0.2323330E-008  0.4614232E+02  0.7816164E-02  0.1320468E+00
        -11   -1    0    0    0    0  0.00000000000E+00  0.00000000000E+00  0.45593999997E+02  0.45594000000E+02  0.51100000000E-03 0.  1.
         11   -1    0    0    0    0 -0.00000000000E+00 -0.00000000000E+00 -0.45593999997E+02  0.45594000000E+02  0.51100000000E-03 0. -1.
    9900012    2    1    2    0    0 -0.30935302234E+02 -0.26650756472E+02  0.19022558711E+02  0.46142317801E+02  0.10000000366E+02 0.  0.
         12    1    1    2    0    0  0.30935302234E+02  0.26650756472E+02 -0.19022558711E+02  0.45045682199E+02  0.00000000000E+00 0. -1.
         11    1    3    3    0    0 -0.10781108820E+02 -0.15240371426E+02  0.67466727607E+01  0.19849907360E+02  0.51100000000E-03 0. -1.
        -11    1    3    3    0    0 -0.87684431498E+01 -0.51590824535E+01  0.65323571288E+01  0.12090219889E+02  0.51100000000E-03 0.  1.
         12    1    3    3    0    0 -0.11385750264E+02 -0.62513025931E+01  0.57435288213E+01  0.14202190553E+02  0.00000000000E+00 0. -1.
</event>
<event>
 7    1  0.2323330E-008  0.4614232E+02  0.7816164E-02  0.1320468E+00
        -11   -1    0    0    0    0  0.00000000000E+00  0.00000000000E+00  0.45593999997E+02  0.45594000000E+02  0.51100000000E-03 0.  1.
         11   -1    0    0    0    0 -0.00000000000E+00 -0.00000000000E+00 -0.45593999997E+02  0.45594000000E+02  0.51100000000E-03 0. -1.
    9900012    2    1    2    0    0  0.29359137947E+02  0.32117347273E+02  0.11646052102E+02  0.46142317561E+02  0.99999981730E+01 0.  0.
         12    1    1    2    0    0 -0.29359137947E+02 -0.32117347273E+02 -0.11646052102E+02  0.45045682439E+02  0.00000000000E+00 0. -1.
         11    1    3    3    0    0  0.22376997222E+02  0.20478562068E+02  0.10584827246E+02  0.32126936940E+02  0.51100000000E-03 0. -1.
        -11    1    3    3    0    0  0.48643781697E+01  0.60288429905E+01  0.18581468414E+01  0.79662935376E+01  0.51100000000E-03 0.  1.
         12    1    3    3    0    0  0.21177625553E+01  0.56099422148E+01 -0.79692198515E+00  0.60490870835E+01  0.00000000000E+00 0. -1.
</event>
<event>
 7    1  0.2323330E-008  0.4614232E+02  0.7816164E-02  0.1320468E+00
        -11   -1    0    0    0    0  0.00000000000E+00  0.00000000000E+00  0.45593999997E+02  0.45594000000E+02  0.51100000000E-03 0. -1.
         11   -1    0    0    0    0 -0.00000000000E+00 -0.00000000000E+00 -0.45593999997E+02  0.45594000000E+02  0.51100000000E-03 0.  1.
    9900012    2    1    2    0    0  0.12875296401E+02 -0.28792257750E+02 -0.32161252506E+02  0.46142317337E+02  0.99999961370E+01 0.  0.
         12    1    1    2    0    0 -0.12875296401E+02  0.28792257750E+02  0.32161252506E+02  0.45045682663E+02  0.00000000000E+00 0. -1.
         11    1    3    3    0    0 -0.38527605214E+00  0.43638908405E+00 -0.31129390095E+00  0.66013424613E+00  0.51100000000E-03 0. -1.
        -11    1    3    3    0    0  0.68864664578E+01 -0.95027979699E+01 -0.11229013527E+02  0.16242454697E+02  0.51100000000E-03 0.  1.
         12    1    3    3    0    0  0.63741059949E+01 -0.19725848864E+02 -0.20620945078E+02  0.29239728394E+02  0.00000000000E+00 0. -1.
</event>
<event>
 7    1  0.2323330E-008  0.4614231E+02  0.7816164E-02  0.1320468E+00
        -11   -1    0    0    0    0  0.00000000000E+00  0.00000000000E+00  0.45593999997E+02  0.45594000000E+02  0.51100000000E-03 0. -1.
         11   -1    0    0    0    0 -0.00000000000E+00 -0.00000000000E+00 -0.45593999997E+02  0.45594000000E+02  0.51100000000E-03 0.  1.
    9900012    2    1    2    0    0 -0.17821530750E+02 -0.30499337625E+02 -0.27951696607E+02  0.46142313225E+02  0.99999586358E+01 0.  0.
         12    1    1    2    0    0  0.17821530750E+02  0.30499337625E+02  0.27951696607E+02  0.45045686775E+02  0.00000000000E+00 0. -1.
         11    1    3    3    0    0 -0.63662541869E+00 -0.12889974939E+00  0.58555583420E+00  0.87451870489E+00  0.51100000000E-03 0. -1.
        -11    1    3    3    0    0 -0.23471102349E+01 -0.76518793696E+01 -0.66587393295E+01  0.10411483759E+02  0.51100000000E-03 0.  1.
        -12    1    3    3    0    0 -0.14837795096E+02 -0.22718558506E+02 -0.21878513112E+02  0.34856310761E+02  0.00000000000E+00 0.  1.
</event>
<event>
 7    1  0.2323330E-008  0.4614232E+02  0.7816164E-02  0.1320468E+00
        -11   -1    0    0    0    0  0.00000000000E+00  0.00000000000E+00  0.45593999997E+02  0.45594000000E+02  0.51100000000E-03 0.  1.
         11   -1    0    0    0    0 -0.00000000000E+00 -0.00000000000E+00 -0.45593999997E+02  0.45594000000E+02  0.51100000000E-03 0. -1.
    9900012    2    1    2    0    0 -0.33761281523E+02 -0.28053104622E+02  0.10114974401E+02  0.46142317453E+02  0.99999971907E+01 0.  0.
         12    1    1    2    0    0  0.33761281523E+02  0.28053104622E+02 -0.10114974401E+02  0.45045682547E+02  0.00000000000E+00 0. -1.
         11    1    3    3    0    0 -0.11625991616E+02 -0.41362481856E+01  0.22379258485E+01  0.12541153953E+02  0.51100000000E-03 0. -1.
        -11    1    3    3    0    0 -0.89116335615E+01 -0.84238705011E+01  0.22321138398E+01  0.12464394867E+02  0.51100000000E-03 0.  1.
         12    1    3    3    0    0 -0.13223656346E+02 -0.15492985935E+02  0.56449347125E+01  0.21136768633E+02  0.00000000000E+00 0. -1.
</event>
<event>
 7    1  0.2323330E-008  0.4614232E+02  0.7816164E-02  0.1320468E+00
        -11   -1    0    0    0    0  0.00000000000E+00  0.00000000000E+00  0.45593999997E+02  0.45594000000E+02  0.51100000000E-03 0. -1.
         11   -1    0    0    0    0 -0.00000000000E+00 -0.00000000000E+00 -0.45593999997E+02  0.45594000000E+02  0.51100000000E-03 0.  1.
    9900012    2    1    2    0    0  0.44445300271E+02  0.70462881481E+01  0.20195323363E+01  0.46142318701E+02  0.10000008567E+02 0.  0.
         12    1    1    2    0    0 -0.44445300271E+02 -0.70462881481E+01 -0.20195323363E+01  0.45045681299E+02  0.00000000000E+00 0. -1.
         11    1    3    3    0    0  0.37798692074E+01  0.15087065856E+01  0.20773750952E+01  0.45693647626E+01  0.51100000000E-03 0. -1.
        -11    1    3    3    0    0  0.15041352210E+02  0.30861138309E+01  0.30189165359E+01  0.15648649532E+02  0.51100000000E-03 0.  1.
         12    1    3    3    0    0  0.25624078854E+02  0.24514677316E+01 -0.30767592948E+01  0.25924304406E+02  0.00000000000E+00 0. -1.
</event>
<event>
 7    1  0.2323330E-008  0.4614232E+02  0.7816164E-02  0.1320468E+00
        -11   -1    0    0    0    0  0.00000000000E+00  0.00000000000E+00  0.45593999997E+02  0.45594000000E+02  0.51100000000E-03 0.  1.
         11   -1    0    0    0    0 -0.00000000000E+00 -0.00000000000E+00 -0.45593999997E+02  0.45594000000E+02  0.51100000000E-03 0. -1.
    9900012    2    1    2    0    0  0.22958669563E+02  0.33136568317E+01  0.38613892724E+02  0.46142317177E+02  0.99999946706E+01 0.  0.
         12    1    1    2    0    0 -0.22958669563E+02 -0.33136568317E+01 -0.38613892724E+02  0.45045682823E+02  0.00000000000E+00 0. -1.
         11    1    3    3    0    0  0.47570930508E+01  0.22590308029E+01  0.53175560062E+01  0.74839532737E+01  0.51100000000E-03 0. -1.
        -11    1    3    3    0    0  0.96764242441E+01 -0.21611404754E+01  0.22106641593E+02  0.24228233883E+02  0.51100000000E-03 0.  1.
        -12    1    3    3    0    0  0.85251522682E+01  0.32157665042E+01  0.11189695125E+02  0.14430130020E+02  0.00000000000E+00 0.  1.
</event>
<event>
 7    1  0.2323330E-008  0.4614231E+02  0.7816164E-02  0.1320468E+00
        -11   -1    0    0    0    0  0.00000000000E+00  0.00000000000E+00  0.45593999997E+02  0.45594000000E+02  0.51100000000E-03 0. -1.
         11   -1    0    0    0    0 -0.00000000000E+00 -0.00000000000E+00 -0.45593999997E+02  0.45594000000E+02  0.51100000000E-03 0.  1.
    9900012    2    1    2    0    0 -0.81080081759E+01  0.44251108446E+02 -0.22833719186E+01  0.46142310056E+02  0.99999297350E+01 0.  0.
         12    1    1    2    0    0  0.81080081759E+01 -0.44251108446E+02  0.22833719186E+01  0.45045689944E+02  0.00000000000E+00 0. -1.
         11    1    3    3    0    0 -0.45351150204E+01  0.19535656702E+02  0.20561964851E+01  0.20160285099E+02  0.51100000000E-03 0. -1.
        -11    1    3    3    0    0 -0.43940243333E+01  0.24168991898E+02 -0.37987843966E+01  0.24857159580E+02  0.51100000000E-03 0.  1.
         12    1    3    3    0    0  0.82113117780E+00  0.54645984526E+00 -0.54078400704E+00  0.11248653768E+01  0.00000000000E+00 0. -1.
</event>
<event>
 7    1  0.2323330E-008  0.4614232E+02  0.7816164E-02  0.1320468E+00
        -11   -1    0    0    0    0  0.00000000000E+00  0.00000000000E+00  0.45593999997E+02  0.45594000000E+02  0.51100000000E-03 0. -1.
         11   -1    0    0    0    0 -0.00000000000E+00 -0.00000000000E+00 -0.45593999997E+02  0.45594000000E+02  0.51100000000E-03 0.  1.
    9900012    2    1    2    0    0  0.22178769981E+02 -0.36362799737E+02 -0.14661598270E+02  0.46142317561E+02  0.99999981766E+01 0.  0.
         12    1    1    2    0    0 -0.22178769981E+02  0.36362799737E+02  0.14661598270E+02  0.45045682439E+02  0.00000000000E+00 0. -1.
         11    1    3    3    0    0  0.12467571872E+02 -0.25580817444E+02 -0.89667210860E+01  0.29836565767E+02  0.51100000000E-03 0. -1.
        -11    1    3    3    0    0  0.94101682807E+01 -0.10983212182E+02 -0.46380356039E+01  0.15188600707E+02  0.51100000000E-03 0.  1.
         12    1    3    3    0    0  0.30102982826E+00  0.20122988969E+00 -0.10568415798E+01  0.11171510869E+01  0.00000000000E+00 0. -1.
</event>
<event>
 7    1  0.2323330E-008  0.4614232E+02  0.7816164E-02  0.1320468E+00
        -11   -1    0    0    0    0  0.00000000000E+00  0.00000000000E+00  0.45593999997E+02  0.45594000000E+02  0.51100000000E-03 0. -1.
         11   -1    0    0    0    0 -0.00000000000E+00 -0.00000000000E+00 -0.45593999997E+02  0.45594000000E+02  0.51100000000E-03 0.  1.
    9900012    2    1    2    0    0 -0.23911116626E+01  0.26540684847E+02 -0.36317877221E+02  0.46142316822E+02  0.99999914335E+01 0.  0.
         12    1    1    2    0    0  0.23911116626E+01 -0.26540684847E+02  0.36317877221E+02  0.45045683178E+02  0.00000000000E+00 0. -1.
         11    1    3    3    0    0 -0.17912642547E+01  0.96029711809E+01 -0.18761815653E+02  0.21152574548E+02  0.51100000000E-03 0. -1.
        -11    1    3    3    0    0 -0.15035145778E+01  0.13104255426E+02 -0.16046305517E+02  0.20771759371E+02  0.51100000000E-03 0.  1.
         12    1    3    3    0    0  0.90366716997E+00  0.38334582404E+01 -0.15097560504E+01  0.42179829026E+01  0.00000000000E+00 0. -1.
</event>
<event>
 7    1  0.2323330E-008  0.4614232E+02  0.7816164E-02  0.1320468E+00
        -11   -1    0    0    0    0  0.00000000000E+00  0.00000000000E+00  0.45593999997E+02  0.45594000000E+02  0.51100000000E-03 0.  1.
         11   -1    0    0    0    0 -0.00000000000E+00 -0.00000000000E+00 -0.45593999997E+02  0.45594000000E+02  0.51100000000E-03 0. -1.
    9900012    2    1    2    0    0 -0.41472029767E+02 -0.33778342219E+00  0.17580375135E+02  0.46142323842E+02  0.10000055450E+02 0.  0.
         12    1    1    2    0    0  0.41472029767E+02  0.33778342219E+00 -0.17580375135E+02  0.45045676158E+02  0.00000000000E+00 0. -1.
         11    1    3    3    0    0 -0.35286283444E+02  0.12788723291E+01  0.11359307830E+02  0.37091659283E+02  0.51100000000E-03 0. -1.
        -11    1    3    3    0    0 -0.19730354130E+01 -0.42081998366E+00  0.10494691116E+01  0.22740588991E+01  0.51100000000E-03 0.  1.
         12    1    3    3    0    0 -0.42127109105E+01 -0.11958357676E+01  0.51715981933E+01  0.67766056601E+01  0.00000000000E+00 0. -1.
</event>
<event>
 7    1  0.2323330E-008  0.4614232E+02  0.7816164E-02  0.1320468E+00
        -11   -1    0    0    0    0  0.00000000000E+00  0.00000000000E+00  0.45593999997E+02  0.45594000000E+02  0.51100000000E-03 0.  1.
         11   -1    0    0    0    0 -0.00000000000E+00 -0.00000000000E+00 -0.45593999997E+02  0.45594000000E+02  0.51100000000E-03 0. -1.
    9900012    2    1    2    0    0 -0.21898158804E+02 -0.39287576814E+02  0.24638051647E+01  0.46142318889E+02  0.10000010281E+02 0.  0.
         12    1    1    2    0    0  0.21898158804E+02  0.39287576814E+02 -0.24638051647E+01  0.45045681111E+02  0.00000000000E+00 0. -1.
         11    1    3    3    0    0 -0.18870076456E+01 -0.43759856874E+01  0.31112040315E+01  0.56911896276E+01  0.51100000000E-03 0. -1.
        -11    1    3    3    0    0 -0.13383534699E+02 -0.24266274911E+02  0.13886075921E+01  0.27747059852E+02  0.51100000000E-03 0.  1.
         12    1    3    3    0    0 -0.66276164594E+01 -0.10645316215E+02 -0.20360064589E+01  0.12704069409E+02  0.00000000000E+00 0. -1.
</event>
<event>
 7    1  0.2323330E-008  0.4614232E+02  0.7816164E-02  0.1320468E+00
        -11   -1    0    0    0    0  0.00000000000E+00  0.00000000000E+00  0.45593999997E+02  0.45594000000E+02  0.51100000000E-03 0. -1.
         11   -1    0    0    0    0 -0.00000000000E+00 -0.00000000000E+00 -0.45593999997E+02  0.45594000000E+02  0.51100000000E-03 0.  1.
    9900012    2    1    2    0    0 -0.32017435017E+02  0.32586844381E+01 -0.31517905275E+02  0.46142317385E+02  0.99999965728E+01 0.  0.
         12    1    1    2    0    0  0.32017435017E+02 -0.32586844381E+01  0.31517905275E+02  0.45045682615E+02  0.00000000000E+00 0. -1.
         11    1    3    3    0    0 -0.13959564084E+01  0.69905716927E-01 -0.48935650900E+01  0.50892593424E+01  0.51100000000E-03 0. -1.
        -11    1    3    3    0    0 -0.45170124356E+01  0.24385246272E+01 -0.44614847837E+01  0.68010771527E+01  0.51100000000E-03 0.  1.
         12    1    3    3    0    0 -0.26104466173E+02  0.75025409391E+00 -0.22162855401E+02  0.34251980890E+02  0.00000000000E+00 0. -1.
</event>
<event>
 7    1  0.2323330E-008  0.4614232E+02  0.7816164E-02  0.1320468E+00
        -11   -1    0    0    0    0  0.00000000000E+00  0.00000000000E+00  0.45593999997E+02  0.45594000000E+02  0.51100000000E-03 0.  1.
         11   -1    0    0    0    0 -0.00000000000E+00 -0.00000000000E+00 -0.45593999997E+02  0.45594000000E+02  0.51100000000E-03 0. -1.
    9900012    2    1    2    0    0  0.28549553257E+02 -0.34422994579E+02  0.53938712050E+01  0.46142318813E+02  0.10000009596E+02 0.  0.
         12    1    1    2    0    0 -0.28549553257E+02  0.34422994579E+02 -0.53938712050E+01  0.45045681187E+02  0.00000000000E+00 0. -1.
         11    1    3    3    0    0  0.10368198808E+02 -0.76135858992E+01 -0.66741295728E+00  0.12880670677E+02  0.51100000000E-03 0. -1.
        -11    1    3    3    0    0  0.13139698623E+02 -0.15512283244E+02  0.40292276048E+01  0.20724798834E+02  0.51100000000E-03 0.  1.
         12    1    3    3    0    0  0.50416558255E+01 -0.11297125436E+02  0.20320565575E+01  0.12536849302E+02  0.00000000000E+00 0. -1.
</event>
<event>
 7    1  0.2323330E-008  0.4614232E+02  0.7816164E-02  0.1320468E+00
        -11   -1    0    0    0    0  0.00000000000E+00  0.00000000000E+00  0.45593999997E+02  0.45594000000E+02  0.51100000000E-03 0.  1.
         11   -1    0    0    0    0 -0.00000000000E+00 -0.00000000000E+00 -0.45593999997E+02  0.45594000000E+02  0.51100000000E-03 0. -1.
    9900012    2    1    2    0    0 -0.43108102085E+02 -0.15664205391E+01  0.12975032170E+02  0.46142316538E+02  0.99999888509E+01 0.  0.
         12    1    1    2    0    0  0.43108102085E+02  0.15664205391E+01 -0.12975032170E+02  0.45045683462E+02  0.00000000000E+00 0. -1.
         11    1    3    3    0    0 -0.84018356420E+01 -0.62787362475E+00 -0.62885791913E+00  0.84486998992E+01  0.51100000000E-03 0. -1.
        -11    1    3    3    0    0 -0.28702392542E+02 -0.67084099667E+00  0.88883914685E+01  0.30054631398E+02  0.51100000000E-03 0.  1.
        -12    1    3    3    0    0 -0.60038739010E+01 -0.26770591766E+00  0.47154986208E+01  0.76389852415E+01  0.00000000000E+00 0.  1.
</event>
<event>
 7    1  0.2323330E-008  0.4614232E+02  0.7816164E-02  0.1320468E+00
        -11   -1    0    0    0    0  0.00000000000E+00  0.00000000000E+00  0.45593999997E+02  0.45594000000E+02  0.51100000000E-03 0.  1.
         11   -1    0    0    0    0 -0.00000000000E+00 -0.00000000000E+00 -0.45593999997E+02  0.45594000000E+02  0.51100000000E-03 0. -1.
    9900012    2    1    2    0    0 -0.23594322961E+02  0.23005716620E+02  0.30710880223E+02  0.46142320548E+02  0.10000025414E+02 0.  0.
         12    1    1    2    0    0  0.23594322961E+02 -0.23005716620E+02 -0.30710880223E+02  0.45045679452E+02  0.00000000000E+00 0. -1.
         11    1    3    3    0    0 -0.33239965170E+01  0.25866423780E+01  0.44958176728E+01  0.61605233905E+01  0.51100000000E-03 0. -1.
        -11    1    3    3    0    0 -0.16276207384E+02  0.19894012627E+02  0.24785314879E+02  0.35707121127E+02  0.51100000000E-03 0.  1.
        -12    1    3    3    0    0 -0.39941190604E+01  0.52506161493E+00  0.14297476709E+01  0.42746760311E+01  0.00000000000E+00 0.  1.
</event>
<event>
 7    1  0.2323330E-008  0.4614232E+02  0.7816164E-02  0.1320468E+00
        -11   -1    0    0    0    0  0.00000000000E+00  0.00000000000E+00  0.45593999997E+02  0.45594000000E+02  0.51100000000E-03 0.  1.
         11   -1    0    0    0    0 -0.00000000000E+00 -0.00000000000E+00 -0.45593999997E+02  0.45594000000E+02  0.51100000000E-03 0. -1.
    9900012    2    1    2    0    0  0.29604453429E+02 -0.98576124139E+01  0.32488726023E+02  0.46142317588E+02  0.99999984242E+01 0.  0.
         12    1    1    2    0    0 -0.29604453429E+02  0.98576124139E+01 -0.32488726023E+02  0.45045682412E+02  0.00000000000E+00 0. -1.
         11    1    3    3    0    0  0.30334799686E+01 -0.35468179615E+01  0.22871392421E+01  0.51973959389E+01  0.51100000000E-03 0. -1.
        -11    1    3    3    0    0  0.62227827479E+00 -0.85483361525E+00  0.65055158007E+00  0.12414460844E+01  0.51100000000E-03 0.  1.
        -12    1    3    3    0    0  0.25948695185E+02 -0.54559608371E+01  0.29551035201E+02  0.39703475565E+02  0.00000000000E+00 0.  1.
</event>
<event>
 7    1  0.2323330E-008  0.4614232E+02  0.7816164E-02  0.1320468E+00
        -11   -1    0    0    0    0  0.00000000000E+00  0.00000000000E+00  0.45593999997E+02  0.45594000000E+02  0.51100000000E-03 0.  1.
         11   -1    0    0    0    0 -0.00000000000E+00 -0.00000000000E+00 -0.45593999997E+02  0.45594000000E+02  0.51100000000E-03 0. -1.
    9900012    2    1    2    0    0  0.85682980480E+00 -0.23645483821E+02  0.38331063220E+02  0.46142317965E+02  0.10000001860E+02 0.  0.
         12    1    1    2    0    0 -0.85682980480E+00  0.23645483821E+02 -0.38331063220E+02  0.45045682035E+02  0.00000000000E+00 0. -1.
         11    1    3    3    0    0 -0.14955855201E+01 -0.41510959907E+01  0.47615301193E+01  0.64915747943E+01  0.51100000000E-03 0. -1.
        -11    1    3    3    0    0 -0.14747195712E+01 -0.99768264328E+01  0.11386543530E+02  0.15210694833E+02  0.51100000000E-03 0.  1.
         12    1    3    3    0    0  0.38271348960E+01 -0.95175613975E+01  0.22182989571E+02  0.24440048338E+02  0.00000000000E+00 0. -1.
</event>
<event>
 7    1  0.2323330E-008  0.4614232E+02  0.7816164E-02  0.1320468E+00
        -11   -1    0    0    0    0  0.00000000000E+00  0.00000000000E+00  0.45593999997E+02  0.45594000000E+02  0.51100000000E-03 0.  1.
         11   -1    0    0    0    0 -0.00000000000E+00 -0.00000000000E+00 -0.45593999997E+02  0.45594000000E+02  0.51100000000E-03 0. -1.
    9900012    2    1    2    0    0  0.36072043323E+02  0.11602813446E+02  0.24357666984E+02  0.46142317296E+02  0.99999957616E+01 0.  0.
         12    1    1    2    0    0 -0.36072043323E+02 -0.11602813446E+02 -0.24357666984E+02  0.45045682704E+02  0.00000000000E+00 0. -1.
         11    1    3    3    0    0  0.68192465479E+01  0.10734570109E+01  0.69650611794E+00  0.69382673968E+01  0.51100000000E-03 0. -1.
        -11    1    3    3    0    0  0.22726281818E+02  0.67085328177E+01  0.17864268134E+02  0.29675248508E+02  0.51100000000E-03 0.  1.
         12    1    3    3    0    0  0.65265149572E+01  0.38208236178E+01  0.57968927322E+01  0.95288013912E+01  0.00000000000E+00 0. -1.
</event>
<event>
 7    1  0.2323330E-008  0.4614232E+02  0.7816164E-02  0.1320468E+00
        -11   -1    0    0    0    0  0.00000000000E+00  0.00000000000E+00  0.45593999997E+02  0.45594000000E+02  0.51100000000E-03 0.  1.
         11   -1    0    0    0    0 -0.00000000000E+00 -0.00000000000E+00 -0.45593999997E+02  0.45594000000E+02  0.51100000000E-03 0. -1.
    9900012    2    1    2    0    0  0.62419457654E+00  0.21392023917E+02  0.39637170287E+02  0.46142316805E+02  0.99999912831E+01 0.  0.
         12    1    1    2    0    0 -0.62419457654E+00 -0.21392023917E+02 -0.39637170287E+02  0.45045683195E+02  0.00000000000E+00 0. -1.
         11    1    3    3    0    0 -0.29722109774E+00  0.31974291725E+00 -0.22864752230E+00  0.49280408343E+00  0.51100000000E-03 0. -1.
        -11    1    3    3    0    0  0.27933926164E+01  0.11514483799E+02  0.27227792699E+02  0.29694091583E+02  0.51100000000E-03 0.  1.
        -12    1    3    3    0    0 -0.18719769421E+01  0.95577972011E+01  0.12638025111E+02  0.15955421138E+02  0.00000000000E+00 0.  1.
</event>
<event>
 7    1  0.2323330E-008  0.4614232E+02  0.7816164E-02  0.1320468E+00
        -11   -1    0    0    0    0  0.00000000000E+00  0.00000000000E+00  0.45593999997E+02  0.45594000000E+02  0.51100000000E-03 0.  1.
         11   -1    0    0    0    0 -0.00000000000E+00 -0.00000000000E+00 -0.45593999997E+02  0.45594000000E+02  0.51100000000E-03 0. -1.
    9900012    2    1    2    0    0  0.32597905615E+02  0.20456660682E+02  0.23409718569E+02  0.46142319405E+02  0.10000014995E+02 0.  0.
         12    1    1    2    0    0 -0.32597905615E+02 -0.20456660682E+02 -0.23409718569E+02  0.45045680595E+02  0.00000000000E+00 0. -1.
         11    1    3    3    0    0  0.18317001680E+02  0.12860628195E+02  0.12491201308E+02  0.25630809946E+02  0.51100000000E-03 0. -1.
        -11    1    3    3    0    0  0.14515543162E+02  0.66224440438E+01  0.89272769882E+01  0.18282615598E+02  0.51100000000E-03 0.  1.
         12    1    3    3    0    0 -0.23463922727E+00  0.97358844357E+00  0.19912402721E+01  0.22288938615E+01  0.00000000000E+00 0. -1.
</event>
<event>
 7    1  0.2323330E-008  0.4614232E+02  0.7816164E-02  0.1320468E+00
        -11   -1    0    0    0    0  0.00000000000E+00  0.00000000000E+00  0.45593999997E+02  0.45594000000E+02  0.51100000000E-03 0. -1.
         11   -1    0    0    0    0 -0.00000000000E+00 -0.00000000000E+00 -0.45593999997E+02  0.45594000000E+02  0.51100000000E-03 0.  1.
    9900012    2    1    2    0    0 -0.99439275397E+00 -0.39154415847E+02 -0.22249862946E+02  0.46142317650E+02  0.99999989844E+01 0.  0.
         12    1    1    2    0    0  0.99439275397E+00  0.39154415847E+02  0.22249862946E+02  0.45045682350E+02  0.00000000000E+00 0. -1.
         11    1    3    3    0    0  0.21300820866E-02 -0.59844368034E+01 -0.51590216482E+01  0.79012019984E+01  0.51100000000E-03 0.  1.
        -11    1    3    3    0    0  0.28360275284E+00 -0.32854935599E+01 -0.49747709842E+01  0.59685211786E+01  0.51100000000E-03 0. -1.
        -12    1    3    3    0    0 -0.12801255889E+01 -0.29884485484E+02 -0.12116070314E+02  0.32272594473E+02  0.00000000000E+00 0.  1.
</event>
<event>
 7    1  0.2323330E-008  0.4614232E+02  0.7816164E-02  0.1320468E+00
        -11   -1    0    0    0    0  0.00000000000E+00  0.00000000000E+00  0.45593999997E+02  0.45594000000E+02  0.51100000000E-03 0. -1.
         11   -1    0    0    0    0 -0.00000000000E+00 -0.00000000000E+00 -0.45593999997E+02  0.45594000000E+02  0.51100000000E-03 0.  1.
    9900012    2    1    2    0    0 -0.26601581515E+02  0.28182753975E+02 -0.22960872791E+02  0.46142318298E+02  0.10000004892E+02 0.  0.
         12    1    1    2    0    0  0.26601581515E+02 -0.28182753975E+02  0.22960872791E+02  0.45045681702E+02  0.00000000000E+00 0. -1.
         11    1    3    3    0    0 -0.15049709949E+02  0.11009883146E+02 -0.13754609434E+02  0.23171115151E+02  0.51100000000E-03 0. -1.
        -11    1    3    3    0    0 -0.69975446094E+01  0.89808698371E+01 -0.69210830569E+01  0.13323777412E+02  0.51100000000E-03 0.  1.
         12    1    3    3    0    0 -0.45543269570E+01  0.81920009920E+01 -0.22851803003E+01  0.96474257338E+01  0.00000000000E+00 0. -1.
</event>
<event>
 7    1  0.2323330E-008  0.4614232E+02  0.7816164E-02  0.1320468E+00
        -11   -1    0    0    0    0  0.00000000000E+00  0.00000000000E+00  0.45593999997E+02  0.45594000000E+02  0.51100000000E-03 0.  1.
         11   -1    0    0    0    0 -0.00000000000E+00 -0.00000000000E+00 -0.45593999997E+02  0.45594000000E+02  0.51100000000E-03 0. -1.
    9900012    2    1    2    0    0  0.19945451115E+02 -0.40856868286E+01  0.40182081421E+02  0.46142317362E+02  0.99999963577E+01 0.  0.
         12    1    1    2    0    0 -0.19945451115E+02  0.40856868286E+01 -0.40182081421E+02  0.45045682638E+02  0.00000000000E+00 0. -1.
         11    1    3    3    0    0  0.67028278087E+00 -0.18915304173E+01  0.36133827835E+01  0.41332434875E+01  0.51100000000E-03 0. -1.
        -11    1    3    3    0    0  0.12258716788E+02  0.11308277316E+01  0.27091356748E+02  0.29757293548E+02  0.51100000000E-03 0.  1.
        -12    1    3    3    0    0  0.70164515468E+01 -0.33249841430E+01  0.94773418896E+01  0.12251780326E+02  0.00000000000E+00 0.  1.
</event>
<event>
 7    1  0.2323330E-008  0.4614232E+02  0.7816164E-02  0.1320468E+00
        -11   -1    0    0    0    0  0.00000000000E+00  0.00000000000E+00  0.45593999997E+02  0.45594000000E+02  0.51100000000E-03 0.  1.
         11   -1    0    0    0    0 -0.00000000000E+00 -0.00000000000E+00 -0.45593999997E+02  0.45594000000E+02  0.51100000000E-03 0. -1.
    9900012    2    1    2    0    0 -0.16967312065E+01 -0.39403931464E+02  0.21761534590E+02  0.46142322079E+02  0.10000039375E+02 0.  0.
         12    1    1    2    0    0  0.16967312065E+01  0.39403931464E+02 -0.21761534590E+02  0.45045677921E+02  0.00000000000E+00 0. -1.
         11    1    3    3    0    0 -0.30769801789E+00 -0.55811631774E+01  0.12490184599E+00  0.55910340023E+01  0.51100000000E-03 0. -1.
        -11    1    3    3    0    0 -0.32150575579E+01 -0.21019424975E+02  0.11938386993E+02  0.24386018651E+02  0.51100000000E-03 0.  1.
         12    1    3    3    0    0  0.18260243693E+01 -0.12803343312E+02  0.96982457516E+01  0.16165269426E+02  0.00000000000E+00 0. -1.
</event>
<event>
 7    1  0.2323330E-008  0.4614232E+02  0.7816164E-02  0.1320468E+00
        -11   -1    0    0    0    0  0.00000000000E+00  0.00000000000E+00  0.45593999997E+02  0.45594000000E+02  0.51100000000E-03 0. -1.
         11   -1    0    0    0    0 -0.00000000000E+00 -0.00000000000E+00 -0.45593999997E+02  0.45594000000E+02  0.51100000000E-03 0.  1.
    9900012    2    1    2    0    0 -0.12334007247E+00  0.20958577556E+02 -0.39872751573E+02  0.46142317588E+02  0.99999984246E+01 0.  0.
         12    1    1    2    0    0  0.12334007247E+00 -0.20958577556E+02  0.39872751573E+02  0.45045682412E+02  0.00000000000E+00 0. -1.
         11    1    3    3    0    0  0.86009049354E+00  0.80410098941E+01 -0.78697090850E+01  0.11284055881E+02  0.51100000000E-03 0. -1.
        -11    1    3    3    0    0  0.98627146072E+00  0.99417917870E+01 -0.20334348631E+02  0.22656074017E+02  0.51100000000E-03 0.  1.
        -12    1    3    3    0    0 -0.19697020267E+01  0.29757758753E+01 -0.11668693856E+02  0.12202187691E+02  0.00000000000E+00 0.  1.
</event>
<event>
 7    1  0.2323330E-008  0.4614232E+02  0.7816164E-02  0.1320468E+00
        -11   -1    0    0    0    0  0.00000000000E+00  0.00000000000E+00  0.45593999997E+02  0.45594000000E+02  0.51100000000E-03 0. -1.
         11   -1    0    0    0    0 -0.00000000000E+00 -0.00000000000E+00 -0.45593999997E+02  0.45594000000E+02  0.51100000000E-03 0.  1.
    9900012    2    1    2    0    0  0.11345891649E+02  0.30173974268E+01 -0.43488844105E+02  0.46142317564E+02  0.99999982052E+01 0.  0.
         12    1    1    2    0    0 -0.11345891649E+02 -0.30173974268E+01  0.43488844105E+02  0.45045682436E+02  0.00000000000E+00 0. -1.
         11    1    3    3    0    0  0.12126155141E+02  0.12663411333E+01 -0.29163839979E+02  0.31609758319E+02  0.51100000000E-03 0. -1.
        -11    1    3    3    0    0 -0.13245743187E+00  0.28929750311E-01 -0.62141586327E+01  0.62156375116E+01  0.51100000000E-03 0.  1.
         12    1    3    3    0    0 -0.64780606031E+00  0.17221265432E+01 -0.81108454926E+01  0.83169217338E+01  0.00000000000E+00 0. -1.
</event>
<event>
 7    1  0.2323330E-008  0.4614232E+02  0.7816164E-02  0.1320468E+00
        -11   -1    0    0    0    0  0.00000000000E+00  0.00000000000E+00  0.45593999997E+02  0.45594000000E+02  0.51100000000E-03 0.  1.
         11   -1    0    0    0    0 -0.00000000000E+00 -0.00000000000E+00 -0.45593999997E+02  0.45594000000E+02  0.51100000000E-03 0. -1.
    9900012    2    1    2    0    0 -0.40823630270E+02 -0.14322177873E+02  0.12546714726E+02  0.46142316323E+02  0.99999868894E+01 0.  0.
         12    1    1    2    0    0  0.40823630270E+02  0.14322177873E+02 -0.12546714726E+02  0.45045683677E+02  0.00000000000E+00 0. -1.
         11    1    3    3    0    0 -0.20653513282E+02 -0.33867035308E+01  0.71488913250E+01  0.22116600533E+02  0.51100000000E-03 0. -1.
        -11    1    3    3    0    0 -0.10235745686E+02 -0.34361454340E+01  0.39397912233E+01  0.11493456414E+02  0.51100000000E-03 0.  1.
         12    1    3    3    0    0 -0.99343713021E+01 -0.74993289086E+01  0.14580321776E+01  0.12532259376E+02  0.00000000000E+00 0. -1.
</event>
<event>
 7    1  0.2323330E-008  0.4614232E+02  0.7816164E-02  0.1320468E+00
        -11   -1    0    0    0    0  0.00000000000E+00  0.00000000000E+00  0.45593999997E+02  0.45594000000E+02  0.51100000000E-03 0. -1.
         11   -1    0    0    0    0 -0.00000000000E+00 -0.00000000000E+00 -0.45593999997E+02  0.45594000000E+02  0.51100000000E-03 0.  1.
    9900012    2    1    2    0    0 -0.10282766156E+02 -0.24561431679E+02 -0.36333378902E+02  0.46142316207E+02  0.99999858246E+01 0.  0.
         12    1    1    2    0    0  0.10282766156E+02  0.24561431679E+02  0.36333378902E+02  0.45045683793E+02  0.00000000000E+00 0. -1.
         11    1    3    3    0    0 -0.25542601713E+01 -0.85267144113E+01 -0.19603073781E+02  0.21529273225E+02  0.51100000000E-03 0. -1.
        -11    1    3    3    0    0 -0.73632689506E+01 -0.14091445210E+02 -0.15844949574E+02  0.22446580697E+02  0.51100000000E-03 0.  1.
         12    1    3    3    0    0 -0.36523703360E+00 -0.19432720583E+01 -0.88535554736E+00  0.21664622841E+01  0.00000000000E+00 0. -1.
</event>
<event>
 7    1  0.2323330E-008  0.4614232E+02  0.7816164E-02  0.1320468E+00
        -11   -1    0    0    0    0  0.00000000000E+00  0.00000000000E+00  0.45593999997E+02  0.45594000000E+02  0.51100000000E-03 0.  1.
         11   -1    0    0    0    0 -0.00000000000E+00 -0.00000000000E+00 -0.45593999997E+02  0.45594000000E+02  0.51100000000E-03 0. -1.
    9900012    2    1    2    0    0 -0.11738829224E+02 -0.19959326983E+02  0.38638563899E+02  0.46142318017E+02  0.10000002331E+02 0.  0.
         12    1    1    2    0    0  0.11738829224E+02  0.19959326983E+02 -0.38638563899E+02  0.45045681983E+02  0.00000000000E+00 0. -1.
         11    1    3    3    0    0 -0.29026243719E+01 -0.23427228750E+01  0.81456688404E+01  0.89591015081E+01  0.51100000000E-03 0. -1.
        -11    1    3    3    0    0 -0.96947099776E+01 -0.17804994945E+02  0.29892523080E+02  0.36118806498E+02  0.51100000000E-03 0.  1.
         12    1    3    3    0    0  0.85850512537E+00  0.18839083630E+00  0.60037197866E+00  0.10644100104E+01  0.00000000000E+00 0. -1.
</event>
<event>
 7    1  0.2323330E-008  0.4614232E+02  0.7816164E-02  0.1320468E+00
        -11   -1    0    0    0    0  0.00000000000E+00  0.00000000000E+00  0.45593999997E+02  0.45594000000E+02  0.51100000000E-03 0.  1.
         11   -1    0    0    0    0 -0.00000000000E+00 -0.00000000000E+00 -0.45593999997E+02  0.45594000000E+02  0.51100000000E-03 0. -1.
    9900012    2    1    2    0    0 -0.36179905851E+02 -0.16714679013E+02  0.20993984308E+02  0.46142318087E+02  0.10000002973E+02 0.  0.
         12    1    1    2    0    0  0.36179905851E+02  0.16714679013E+02 -0.20993984308E+02  0.45045681913E+02  0.00000000000E+00 0. -1.
         11    1    3    3    0    0 -0.71037265095E+01 -0.61617326861E+01  0.81129507659E+01  0.12419736326E+02  0.51100000000E-03 0.  1.
        -11    1    3    3    0    0 -0.65688640898E+01 -0.21123462544E+01  0.46231228422E+01  0.83057358015E+01  0.51100000000E-03 0. -1.
        -12    1    3    3    0    0 -0.22507315251E+02 -0.84406000720E+01  0.82579107001E+01  0.25416845960E+02  0.00000000000E+00 0.  1.
</event>
<event>
 7    1  0.2323330E-008  0.4614232E+02  0.7816164E-02  0.1320468E+00
        -11   -1    0    0    0    0  0.00000000000E+00  0.00000000000E+00  0.45593999997E+02  0.45594000000E+02  0.51100000000E-03 0.  1.
         11   -1    0    0    0    0 -0.00000000000E+00 -0.00000000000E+00 -0.45593999997E+02  0.45594000000E+02  0.51100000000E-03 0. -1.
    9900012    2    1    2    0    0  0.41535294146E+02  0.16163643552E+02  0.65321829971E+01  0.46142318216E+02  0.10000004144E+02 0.  0.
         12    1    1    2    0    0 -0.41535294146E+02 -0.16163643552E+02 -0.65321829971E+01  0.45045681784E+02  0.00000000000E+00 0. -1.
         11    1    3    3    0    0  0.28363717228E+02  0.11095088385E+02  0.26414479034E+01  0.30570879747E+02  0.51100000000E-03 0.  1.
        -11    1    3    3    0    0  0.36594532432E+01 -0.94038009979E+00  0.15237407948E+01  0.40740273738E+01  0.51100000000E-03 0. -1.
         12    1    3    3    0    0  0.95121236756E+01  0.60089352673E+01  0.23669942988E+01  0.11497411095E+02  0.00000000000E+00 0. -1.
</event>
<event>
 7    1  0.2323330E-008  0.4614232E+02  0.7816164E-02  0.1320468E+00
        -11   -1    0    0    0    0  0.00000000000E+00  0.00000000000E+00  0.45593999997E+02  0.45594000000E+02  0.51100000000E-03 0.  1.
         11   -1    0    0    0    0 -0.00000000000E+00 -0.00000000000E+00 -0.45593999997E+02  0.45594000000E+02  0.51100000000E-03 0. -1.
    9900012    2    1    2    0    0  0.26283865613E+02  0.34969422169E+02  0.10742969279E+02  0.46142317995E+02  0.10000002130E+02 0.  0.
         12    1    1    2    0    0 -0.26283865613E+02 -0.34969422169E+02 -0.10742969279E+02  0.45045682005E+02  0.00000000000E+00 0. -1.
         11    1    3    3    0    0  0.54443057709E+01  0.83539486617E+01 -0.80253546276E+00  0.10003648684E+02  0.51100000000E-03 0. -1.
        -11    1    3    3    0    0  0.10608690586E+02  0.17757860080E+02  0.62774074433E+01  0.21616932137E+02  0.51100000000E-03 0.  1.
         12    1    3    3    0    0  0.10230869257E+02  0.88576134271E+01  0.52680972989E+01  0.14521737173E+02  0.00000000000E+00 0. -1.
</event>
<event>
 7    1  0.2323330E-008  0.4614232E+02  0.7816164E-02  0.1320468E+00
        -11   -1    0    0    0    0  0.00000000000E+00  0.00000000000E+00  0.45593999997E+02  0.45594000000E+02  0.51100000000E-03 0.  1.
         11   -1    0    0    0    0 -0.00000000000E+00 -0.00000000000E+00 -0.45593999997E+02  0.45594000000E+02  0.51100000000E-03 0. -1.
    9900012    2    1    2    0    0 -0.33271758429E+02 -0.17703431089E+02  0.24671687902E+02  0.46142316908E+02  0.99999922200E+01 0.  0.
         12    1    1    2    0    0  0.33271758429E+02  0.17703431089E+02 -0.24671687902E+02  0.45045683092E+02  0.00000000000E+00 0. -1.
         11    1    3    3    0    0 -0.21503504697E+01 -0.12850583533E+01  0.60522583602E+00  0.25771458413E+01  0.51100000000E-03 0. -1.
        -11    1    3    3    0    0 -0.23898793863E+02 -0.16189689368E+02  0.21090802058E+02  0.35750249253E+02  0.51100000000E-03 0.  1.
         12    1    3    3    0    0 -0.72226140963E+01 -0.22868336762E+00  0.29756600082E+01  0.78149218135E+01  0.00000000000E+00 0. -1.
</event>
<event>
 7    1  0.2323330E-008  0.4614232E+02  0.7816164E-02  0.1320468E+00
        -11   -1    0    0    0    0  0.00000000000E+00  0.00000000000E+00  0.45593999997E+02  0.45594000000E+02  0.51100000000E-03 0.  1.
         11   -1    0    0    0    0 -0.00000000000E+00 -0.00000000000E+00 -0.45593999997E+02  0.45594000000E+02  0.51100000000E-03 0. -1.
    9900012    2    1    2    0    0 -0.20525664746E+02 -0.39694723269E+02 -0.56691684496E+01  0.46142318303E+02  0.10000004939E+02 0.  0.
         12    1    1    2    0    0  0.20525664746E+02  0.39694723269E+02  0.56691684496E+01  0.45045681697E+02  0.00000000000E+00 0. -1.
         11    1    3    3    0    0 -0.11170761946E+02 -0.17294046024E+02 -0.41136590288E+01  0.20995050398E+02  0.51100000000E-03 0. -1.
        -11    1    3    3    0    0 -0.85981811830E+01 -0.16849892107E+02  0.10975523312E+01  0.18948672910E+02  0.51100000000E-03 0.  1.
        -12    1    3    3    0    0 -0.75672161704E+00 -0.55507851375E+01 -0.26530617520E+01  0.61985949947E+01  0.00000000000E+00 0.  1.
</event>
<event>
 7    1  0.2323330E-008  0.4614232E+02  0.7816164E-02  0.1320468E+00
        -11   -1    0    0    0    0  0.00000000000E+00  0.00000000000E+00  0.45593999997E+02  0.45594000000E+02  0.51100000000E-03 0. -1.
         11   -1    0    0    0    0 -0.00000000000E+00 -0.00000000000E+00 -0.45593999997E+02  0.45594000000E+02  0.51100000000E-03 0.  1.
    9900012    2    1    2    0    0  0.29068393454E+02 -0.21010018351E+02 -0.27252912475E+02  0.46142316439E+02  0.99999879437E+01 0.  0.
         12    1    1    2    0    0 -0.29068393454E+02  0.21010018351E+02  0.27252912475E+02  0.45045683561E+02  0.00000000000E+00 0. -1.
         11    1    3    3    0    0  0.52785386386E+01 -0.48236254286E+01 -0.83647479506E+01  0.11004514572E+02  0.51100000000E-03 0. -1.
        -11    1    3    3    0    0  0.40993535724E+01 -0.52560807386E+01 -0.70226452946E+01  0.96823877033E+01  0.51100000000E-03 0.  1.
        -12    1    3    3    0    0  0.19690501243E+02 -0.10930312184E+02 -0.11865519230E+02  0.25455414163E+02  0.00000000000E+00 0.  1.
</event>
<event>
 7    1  0.2323330E-008  0.4614232E+02  0.7816164E-02  0.1320468E+00
        -11   -1    0    0    0    0  0.00000000000E+00  0.00000000000E+00  0.45593999997E+02  0.45594000000E+02  0.51100000000E-03 0.  1.
         11   -1    0    0    0    0 -0.00000000000E+00 -0.00000000000E+00 -0.45593999997E+02  0.45594000000E+02  0.51100000000E-03 0. -1.
    9900012    2    1    2    0    0  0.15758312961E+02  0.40832111275E+02  0.10654930408E+02  0.46142320068E+02  0.10000021038E+02 0.  0.
         12    1    1    2    0    0 -0.15758312961E+02 -0.40832111275E+02 -0.10654930408E+02  0.45045679932E+02  0.00000000000E+00 0. -1.
         11    1    3    3    0    0  0.68002718195E+01  0.12736312635E+02  0.72068174679E+01  0.16136777083E+02  0.51100000000E-03 0. -1.
        -11    1    3    3    0    0  0.87597565868E+01  0.25311366830E+02  0.19949965131E+01  0.26858492840E+02  0.51100000000E-03 0.  1.
        -12    1    3    3    0    0  0.19828455423E+00  0.27844318090E+01  0.14531164268E+01  0.31470501447E+01  0.00000000000E+00 0.  1.
</event>
<event>
 7    1  0.2323330E-008  0.4614233E+02  0.7816164E-02  0.1320468E+00
        -11   -1    0    0    0    0  0.00000000000E+00  0.00000000000E+00  0.45593999997E+02  0.45594000000E+02  0.51100000000E-03 0. -1.
         11   -1    0    0    0    0 -0.00000000000E+00 -0.00000000000E+00 -0.45593999997E+02  0.45594000000E+02  0.51100000000E-03 0.  1.
    9900012    2    1    2    0    0 -0.31874885509E+02 -0.30404564340E+02 -0.94162832777E+01  0.46142331510E+02  0.10000125376E+02 0.  0.
         12    1    1    2    0    0  0.31874885509E+02  0.30404564340E+02  0.94162832777E+01  0.45045668490E+02  0.00000000000E+00 0. -1.
         11    1    3    3    0    0 -0.77390466941E+00 -0.10435858638E+01  0.10680416976E+01  0.16818778854E+01  0.51100000000E-03 0. -1.
        -11    1    3    3    0    0 -0.25508484506E+01 -0.17277742547E+01 -0.24193194308E+01  0.39172871305E+01  0.51100000000E-03 0.  1.
        -12    1    3    3    0    0 -0.28550132389E+02 -0.27633204222E+02 -0.80650055444E+01  0.40543166495E+02  0.00000000000E+00 0.  1.
</event>
<event>
 7    1  0.2323330E-008  0.4614232E+02  0.7816164E-02  0.1320468E+00
        -11   -1    0    0    0    0  0.00000000000E+00  0.00000000000E+00  0.45593999997E+02  0.45594000000E+02  0.51100000000E-03 0.  1.
         11   -1    0    0    0    0 -0.00000000000E+00 -0.00000000000E+00 -0.45593999997E+02  0.45594000000E+02  0.51100000000E-03 0. -1.
    9900012    2    1    2    0    0  0.40642397622E+02 -0.24737721434E+01  0.19266278719E+02  0.46142317312E+02  0.99999959092E+01 0.  0.
         12    1    1    2    0    0 -0.40642397622E+02  0.24737721434E+01 -0.19266278719E+02  0.45045682688E+02  0.00000000000E+00 0. -1.
         11    1    3    3    0    0  0.17962415764E+02  0.80368126498E+00  0.44002922507E+01  0.18510992837E+02  0.51100000000E-03 0. -1.
        -11    1    3    3    0    0  0.29977876354E+01 -0.18441255604E+01  0.28297813842E+01  0.45161037114E+01  0.51100000000E-03 0.  1.
        -12    1    3    3    0    0  0.19682194223E+02 -0.14333278480E+01  0.12036205084E+02  0.23115220764E+02  0.00000000000E+00 0.  1.
</event>
<event>
 7    1  0.2323330E-008  0.4614232E+02  0.7816164E-02  0.1320468E+00
        -11   -1    0    0    0    0  0.00000000000E+00  0.00000000000E+00  0.45593999997E+02  0.45594000000E+02  0.51100000000E-03 0. -1.
         11   -1    0    0    0    0 -0.00000000000E+00 -0.00000000000E+00 -0.45593999997E+02  0.45594000000E+02  0.51100000000E-03 0.  1.
    9900012    2    1    2    0    0 -0.60411103977E+00 -0.16887958698E+02 -0.41755782083E+02  0.46142318337E+02  0.10000005250E+02 0.  0.
         12    1    1    2    0    0  0.60411103977E+00  0.16887958698E+02  0.41755782083E+02  0.45045681663E+02  0.00000000000E+00 0. -1.
         11    1    3    3    0    0 -0.10965181936E+01 -0.53036365865E+01 -0.43822705129E+01  0.69667214886E+01  0.51100000000E-03 0. -1.
        -11    1    3    3    0    0 -0.12118772170E+00 -0.34145019637E+01 -0.13887362987E+02  0.14301481081E+02  0.51100000000E-03 0.  1.
         12    1    3    3    0    0  0.61359487555E+00 -0.81698201481E+01 -0.23486148583E+02  0.24874115767E+02  0.00000000000E+00 0. -1.
</event>
<event>
 7    1  0.2323330E-008  0.4614232E+02  0.7816164E-02  0.1320468E+00
        -11   -1    0    0    0    0  0.00000000000E+00  0.00000000000E+00  0.45593999997E+02  0.45594000000E+02  0.51100000000E-03 0.  1.
         11   -1    0    0    0    0 -0.00000000000E+00 -0.00000000000E+00 -0.45593999997E+02  0.45594000000E+02  0.51100000000E-03 0. -1.
    9900012    2    1    2    0    0 -0.60140545469E+01  0.21220149461E+02  0.39276582352E+02  0.46142317449E+02  0.99999971558E+01 0.  0.
         12    1    1    2    0    0  0.60140545469E+01 -0.21220149461E+02 -0.39276582352E+02  0.45045682551E+02  0.00000000000E+00 0. -1.
         11    1    3    3    0    0 -0.23084476780E+01  0.13025519579E+02  0.15016268465E+02  0.20012031628E+02  0.51100000000E-03 0. -1.
        -11    1    3    3    0    0 -0.87951420197E+00  0.87569763413E+00  0.77728520276E+01  0.78713163119E+01  0.51100000000E-03 0.  1.
        -12    1    3    3    0    0 -0.28260926670E+01  0.73189322483E+01  0.16487461859E+02  0.18258969510E+02  0.00000000000E+00 0.  1.
</event>
<event>
 7    1  0.2323330E-008  0.4614231E+02  0.7816164E-02  0.1320468E+00
        -11   -1    0    0    0    0  0.00000000000E+00  0.00000000000E+00  0.45593999997E+02  0.45594000000E+02  0.51100000000E-03 0. -1.
         11   -1    0    0    0    0 -0.00000000000E+00 -0.00000000000E+00 -0.45593999997E+02  0.45594000000E+02  0.51100000000E-03 0.  1.
    9900012    2    1    2    0    0  0.16438535563E+02 -0.26138459635E+01 -0.41857569898E+02  0.46142314303E+02  0.99999684645E+01 0.  0.
         12    1    1    2    0    0 -0.16438535563E+02  0.26138459635E+01  0.41857569898E+02  0.45045685697E+02  0.00000000000E+00 0. -1.
         11    1    3    3    0    0  0.44632540935E+01  0.52878264968E+00 -0.44080270422E+01  0.62953118159E+01  0.51100000000E-03 0. -1.
        -11    1    3    3    0    0  0.68288499297E+00  0.12607306610E+01 -0.52334848872E+01  0.54263374425E+01  0.51100000000E-03 0.  1.
        -12    1    3    3    0    0  0.11292396477E+02 -0.44033592741E+01 -0.32216057968E+02  0.34420665044E+02  0.00000000000E+00 0.  1.
</event>
<event>
 7    1  0.2323330E-008  0.4614232E+02  0.7816164E-02  0.1320468E+00
        -11   -1    0    0    0    0  0.00000000000E+00  0.00000000000E+00  0.45593999997E+02  0.45594000000E+02  0.51100000000E-03 0.  1.
         11   -1    0    0    0    0 -0.00000000000E+00 -0.00000000000E+00 -0.45593999997E+02  0.45594000000E+02  0.51100000000E-03 0. -1.
    9900012    2    1    2    0    0  0.13949441360E+02  0.42551687619E+02 -0.48867604038E+01  0.46142318068E+02  0.10000002798E+02 0.  0.
         12    1    1    2    0    0 -0.13949441360E+02 -0.42551687619E+02  0.48867604038E+01  0.45045681932E+02  0.00000000000E+00 0. -1.
         11    1    3    3    0    0  0.41269796519E+01  0.50530484708E+01 -0.17684180788E+01  0.67596274053E+01  0.51100000000E-03 0. -1.
        -11    1    3    3    0    0  0.98768745367E+01  0.26865825881E+02 -0.24601810501E+01  0.28729388123E+02  0.51100000000E-03 0.  1.
        -12    1    3    3    0    0 -0.54412828562E-01  0.10632813267E+02 -0.65816127494E+00  0.10653302539E+02  0.00000000000E+00 0.  1.
</event>
<event>
 7    1  0.2323330E-008  0.4614232E+02  0.7816164E-02  0.1320468E+00
        -11   -1    0    0    0    0  0.00000000000E+00  0.00000000000E+00  0.45593999997E+02  0.45594000000E+02  0.51100000000E-03 0. -1.
         11   -1    0    0    0    0 -0.00000000000E+00 -0.00000000000E+00 -0.45593999997E+02  0.45594000000E+02  0.51100000000E-03 0.  1.
    9900012    2    1    2    0    0  0.80711694097E+01 -0.39215575498E+02  0.20642392734E+02  0.46142317465E+02  0.99999973005E+01 0.  0.
         12    1    1    2    0    0 -0.80711694097E+01  0.39215575498E+02 -0.20642392734E+02  0.45045682535E+02  0.00000000000E+00 0. -1.
         11    1    3    3    0    0  0.20449318219E+01 -0.16157166729E+02  0.40145509438E+01  0.16773562603E+02  0.51100000000E-03 0.  1.
        -11    1    3    3    0    0  0.58545843373E+01 -0.14885898369E+02  0.10216433147E+02  0.18980032522E+02  0.51100000000E-03 0. -1.
        -12    1    3    3    0    0  0.17165325049E+00 -0.81725103995E+01  0.64114086433E+01  0.10388722340E+02  0.00000000000E+00 0.  1.
</event>
<event>
 7    1  0.2323330E-008  0.4614232E+02  0.7816164E-02  0.1320468E+00
        -11   -1    0    0    0    0  0.00000000000E+00  0.00000000000E+00  0.45593999997E+02  0.45594000000E+02  0.51100000000E-03 0.  1.
         11   -1    0    0    0    0 -0.00000000000E+00 -0.00000000000E+00 -0.45593999997E+02  0.45594000000E+02  0.51100000000E-03 0. -1.
    9900012    2    1    2    0    0  0.29729446889E+02 -0.25102278080E+02  0.22696899094E+02  0.46142316460E+02  0.99999881366E+01 0.  0.
         12    1    1    2    0    0 -0.29729446889E+02  0.25102278080E+02 -0.22696899094E+02  0.45045683540E+02  0.00000000000E+00 0. -1.
         11    1    3    3    0    0  0.36656925566E+01 -0.48668582152E+01  0.26653474167E+01  0.66503900577E+01  0.51100000000E-03 0. -1.
        -11    1    3    3    0    0  0.13013204527E+02 -0.55271584770E+01  0.61261321244E+01  0.15408519330E+02  0.51100000000E-03 0.  1.
        -12    1    3    3    0    0  0.13050549805E+02 -0.14708261387E+02  0.13905419553E+02  0.24083407072E+02  0.00000000000E+00 0.  1.
</event>
<event>
 7    1  0.2323330E-008  0.4614232E+02  0.7816164E-02  0.1320468E+00
        -11   -1    0    0    0    0  0.00000000000E+00  0.00000000000E+00  0.45593999997E+02  0.45594000000E+02  0.51100000000E-03 0.  1.
         11   -1    0    0    0    0 -0.00000000000E+00 -0.00000000000E+00 -0.45593999997E+02  0.45594000000E+02  0.51100000000E-03 0. -1.
    9900012    2    1    2    0    0 -0.34761713007E+02 -0.16421943231E+02  0.23474591961E+02  0.46142318981E+02  0.10000011125E+02 0.  0.
         12    1    1    2    0    0  0.34761713007E+02  0.16421943231E+02 -0.23474591961E+02  0.45045681019E+02  0.00000000000E+00 0. -1.
         11    1    3    3    0    0 -0.78938679137E+01 -0.27252360995E+01  0.88278006236E+01  0.12151959782E+02  0.51100000000E-03 0.  1.
        -11    1    3    3    0    0 -0.10585334816E+02 -0.34933857770E+01  0.77437618992E+01  0.13572726549E+02  0.51100000000E-03 0. -1.
        -12    1    3    3    0    0 -0.16282510277E+02 -0.10203321355E+02  0.69030294387E+01  0.20417632650E+02  0.00000000000E+00 0.  1.
</event>
<event>
 7    1  0.2323330E-008  0.4614232E+02  0.7816164E-02  0.1320468E+00
        -11   -1    0    0    0    0  0.00000000000E+00  0.00000000000E+00  0.45593999997E+02  0.45594000000E+02  0.51100000000E-03 0. -1.
         11   -1    0    0    0    0 -0.00000000000E+00 -0.00000000000E+00 -0.45593999997E+02  0.45594000000E+02  0.51100000000E-03 0.  1.
    9900012    2    1    2    0    0  0.23305382387E+02 -0.96026442994E+01 -0.37333121082E+02  0.46142317017E+02  0.99999932129E+01 0.  0.
         12    1    1    2    0    0 -0.23305382387E+02  0.96026442994E+01  0.37333121082E+02  0.45045682983E+02  0.00000000000E+00 0. -1.
         11    1    3    3    0    0  0.51049571394E+00 -0.21644820158E+01 -0.31319057564E+01  0.38411485520E+01  0.51100000000E-03 0. -1.
        -11    1    3    3    0    0  0.67131652219E+01  0.88776209930E+00 -0.87244751085E+01  0.11044056095E+02  0.51100000000E-03 0.  1.
        -12    1    3    3    0    0  0.16081721451E+02 -0.83259243829E+01 -0.25476740217E+02  0.31257112370E+02  0.00000000000E+00 0.  1.
</event>
<event>
 7    1  0.2323330E-008  0.4614232E+02  0.7816164E-02  0.1320468E+00
        -11   -1    0    0    0    0  0.00000000000E+00  0.00000000000E+00  0.45593999997E+02  0.45594000000E+02  0.51100000000E-03 0.  1.
         11   -1    0    0    0    0 -0.00000000000E+00 -0.00000000000E+00 -0.45593999997E+02  0.45594000000E+02  0.51100000000E-03 0. -1.
    9900012    2    1    2    0    0 -0.18407375009E+02  0.12382667256E+02  0.39203974221E+02  0.46142317656E+02  0.99999990378E+01 0.  0.
         12    1    1    2    0    0  0.18407375009E+02 -0.12382667256E+02 -0.39203974221E+02  0.45045682344E+02  0.00000000000E+00 0. -1.
         11    1    3    3    0    0 -0.45859244788E+01  0.69376473712E+01  0.10315467332E+02  0.13250302673E+02  0.51100000000E-03 0. -1.
        -11    1    3    3    0    0 -0.59827349507E+00 -0.61252793110E+00  0.37736653644E+01  0.38695829472E+01  0.51100000000E-03 0.  1.
        -12    1    3    3    0    0 -0.13223177036E+02  0.60575478164E+01  0.25114841525E+02  0.29022432036E+02  0.00000000000E+00 0.  1.
</event>
<event>
 7    1  0.2323330E-008  0.4614232E+02  0.7816164E-02  0.1320468E+00
        -11   -1    0    0    0    0  0.00000000000E+00  0.00000000000E+00  0.45593999997E+02  0.45594000000E+02  0.51100000000E-03 0.  1.
         11   -1    0    0    0    0 -0.00000000000E+00 -0.00000000000E+00 -0.45593999997E+02  0.45594000000E+02  0.51100000000E-03 0. -1.
    9900012    2    1    2    0    0 -0.32812794578E+01  0.39138906340E+02  0.22056581871E+02  0.46142316653E+02  0.99999898984E+01 0.  0.
         12    1    1    2    0    0  0.32812794578E+01 -0.39138906340E+02 -0.22056581871E+02  0.45045683347E+02  0.00000000000E+00 0. -1.
         11    1    3    3    0    0 -0.44956601647E+01  0.96940137025E+01  0.72638440036E+01  0.12920847184E+02  0.51100000000E-03 0.  1.
        -11    1    3    3    0    0  0.43437652704E-01 -0.80676950815E-01  0.29270374429E+00  0.30671052005E+00  0.51100000000E-03 0. -1.
        -12    1    3    3    0    0  0.11709430542E+01  0.29525569588E+02  0.14500034123E+02  0.32914758949E+02  0.00000000000E+00 0.  1.
</event>
<event>
 7    1  0.2323330E-008  0.4614232E+02  0.7816164E-02  0.1320468E+00
        -11   -1    0    0    0    0  0.00000000000E+00  0.00000000000E+00  0.45593999997E+02  0.45594000000E+02  0.51100000000E-03 0.  1.
         11   -1    0    0    0    0 -0.00000000000E+00 -0.00000000000E+00 -0.45593999997E+02  0.45594000000E+02  0.51100000000E-03 0. -1.
    9900012    2    1    2    0    0  0.35488166978E+02  0.26793884525E+02  0.71965960443E+01  0.46142320540E+02  0.10000025338E+02 0.  0.
         12    1    1    2    0    0 -0.35488166978E+02 -0.26793884525E+02 -0.71965960443E+01  0.45045679460E+02  0.00000000000E+00 0. -1.
         11    1    3    3    0    0  0.88712047689E+01  0.97820293300E+01  0.10555624080E+01  0.13247663346E+02  0.51100000000E-03 0. -1.
        -11    1    3    3    0    0  0.11764894275E+02  0.45880831313E+01  0.16047594784E+00  0.12628895316E+02  0.51100000000E-03 0.  1.
        -12    1    3    3    0    0  0.14852067935E+02  0.12423772064E+02  0.59805576884E+01  0.20265761878E+02  0.00000000000E+00 0.  1.
</event>
<event>
 7    1  0.2323330E-008  0.4614232E+02  0.7816164E-02  0.1320468E+00
        -11   -1    0    0    0    0  0.00000000000E+00  0.00000000000E+00  0.45593999997E+02  0.45594000000E+02  0.51100000000E-03 0.  1.
         11   -1    0    0    0    0 -0.00000000000E+00 -0.00000000000E+00 -0.45593999997E+02  0.45594000000E+02  0.51100000000E-03 0. -1.
    9900012    2    1    2    0    0  0.25478238938E+02 -0.34581034312E+02  0.13569270053E+02  0.46142315598E+02  0.99999802737E+01 0.  0.
         12    1    1    2    0    0 -0.25478238938E+02  0.34581034312E+02 -0.13569270053E+02  0.45045684402E+02  0.00000000000E+00 0. -1.
         11    1    3    3    0    0  0.59978671691E+01 -0.11461836452E+02  0.11831684187E+01  0.12990303815E+02  0.51100000000E-03 0. -1.
        -11    1    3    3    0    0  0.14759652433E+02 -0.13776077694E+02  0.93701926916E+01  0.22258215740E+02  0.51100000000E-03 0.  1.
        -12    1    3    3    0    0  0.47207193363E+01 -0.93431201658E+01  0.30159089431E+01  0.10893796044E+02  0.00000000000E+00 0.  1.
</event>
<event>
 7    1  0.2323330E-008  0.4614232E+02  0.7816164E-02  0.1320468E+00
        -11   -1    0    0    0    0  0.00000000000E+00  0.00000000000E+00  0.45593999997E+02  0.45594000000E+02  0.51100000000E-03 0.  1.
         11   -1    0    0    0    0 -0.00000000000E+00 -0.00000000000E+00 -0.45593999997E+02  0.45594000000E+02  0.51100000000E-03 0. -1.
    9900012    2    1    2    0    0 -0.23080289285E+02 -0.10361798949E+01  0.38669630265E+02  0.46142315111E+02  0.99999758365E+01 0.  0.
         12    1    1    2    0    0  0.23080289285E+02  0.10361798949E+01 -0.38669630265E+02  0.45045684889E+02  0.00000000000E+00 0. -1.
         11    1    3    3    0    0 -0.43165961866E+01  0.11343062463E+01  0.60170987804E+01  0.74916707945E+01  0.51100000000E-03 0. -1.
        -11    1    3    3    0    0 -0.10288763281E+02  0.27928302064E+01  0.19649137564E+02  0.22355025334E+02  0.51100000000E-03 0.  1.
         12    1    3    3    0    0 -0.84749298169E+01 -0.49633163476E+01  0.13003393921E+02  0.16295618983E+02  0.00000000000E+00 0. -1.
</event>
<event>
 7    1  0.2323330E-008  0.4614232E+02  0.7816164E-02  0.1320468E+00
        -11   -1    0    0    0    0  0.00000000000E+00  0.00000000000E+00  0.45593999997E+02  0.45594000000E+02  0.51100000000E-03 0.  1.
         11   -1    0    0    0    0 -0.00000000000E+00 -0.00000000000E+00 -0.45593999997E+02  0.45594000000E+02  0.51100000000E-03 0. -1.
    9900012    2    1    2    0    0  0.21717688787E+01  0.58838718562E-01  0.44993260328E+02  0.46142317443E+02  0.99999970999E+01 0.  0.
         12    1    1    2    0    0 -0.21717688787E+01 -0.58838718562E-01 -0.44993260328E+02  0.45045682557E+02  0.00000000000E+00 0. -1.
         11    1    3    3    0    0  0.50617138420E+01 -0.92331559383E+00  0.29257150811E+02  0.29706132911E+02  0.51100000000E-03 0. -1.
        -11    1    3    3    0    0 -0.84147587010E+00  0.15919366664E+01  0.11979956948E+02  0.12114524865E+02  0.51100000000E-03 0.  1.
         12    1    3    3    0    0 -0.20484690932E+01 -0.60978235400E+00  0.37561525695E+01  0.43216596662E+01  0.00000000000E+00 0. -1.
</event>
<event>
 7    1  0.2323330E-008  0.4614232E+02  0.7816164E-02  0.1320468E+00
        -11   -1    0    0    0    0  0.00000000000E+00  0.00000000000E+00  0.45593999997E+02  0.45594000000E+02  0.51100000000E-03 0.  1.
         11   -1    0    0    0    0 -0.00000000000E+00 -0.00000000000E+00 -0.45593999997E+02  0.45594000000E+02  0.51100000000E-03 0. -1.
    9900012    2    1    2    0    0 -0.61376802268E+01 -0.82563788825E+01  0.43855154698E+02  0.46142317583E+02  0.99999983755E+01 0.  0.
         12    1    1    2    0    0  0.61376802268E+01  0.82563788825E+01 -0.43855154698E+02  0.45045682417E+02  0.00000000000E+00 0. -1.
         11    1    3    3    0    0 -0.35268979513E+01 -0.20928406291E+01  0.11889482210E+02  0.12576914508E+02  0.51100000000E-03 0. -1.
        -11    1    3    3    0    0 -0.53271903927E+01 -0.31825187453E+01  0.19497107071E+02  0.20460805640E+02  0.51100000000E-03 0.  1.
         12    1    3    3    0    0  0.27164081173E+01 -0.29810195081E+01  0.12468565417E+02  0.13104597434E+02  0.00000000000E+00 0. -1.
</event>
<event>
 7    1  0.2323330E-008  0.4614232E+02  0.7816164E-02  0.1320468E+00
        -11   -1    0    0    0    0  0.00000000000E+00  0.00000000000E+00  0.45593999997E+02  0.45594000000E+02  0.51100000000E-03 0. -1.
         11   -1    0    0    0    0 -0.00000000000E+00 -0.00000000000E+00 -0.45593999997E+02  0.45594000000E+02  0.51100000000E-03 0.  1.
    9900012    2    1    2    0    0  0.59226693465E+01 -0.28386336099E+02 -0.34471023573E+02  0.46142317016E+02  0.99999932094E+01 0.  0.
         12    1    1    2    0    0 -0.59226693465E+01  0.28386336099E+02  0.34471023573E+02  0.45045682984E+02  0.00000000000E+00 0. -1.
         11    1    3    3    0    0  0.42641227312E+01 -0.20721871643E+02 -0.19176670152E+02  0.28553868135E+02  0.51100000000E-03 0. -1.
        -11    1    3    3    0    0  0.13287258635E+01 -0.72536581384E+01 -0.10885313954E+02  0.13148046583E+02  0.51100000000E-03 0.  1.
         12    1    3    3    0    0  0.32982075184E+00 -0.41080631732E+00 -0.44090394666E+01  0.44404022990E+01  0.00000000000E+00 0. -1.
</event>
<event>
 7    1  0.2323330E-008  0.4614232E+02  0.7816164E-02  0.1320468E+00
        -11   -1    0    0    0    0  0.00000000000E+00  0.00000000000E+00  0.45593999997E+02  0.45594000000E+02  0.51100000000E-03 0.  1.
         11   -1    0    0    0    0 -0.00000000000E+00 -0.00000000000E+00 -0.45593999997E+02  0.45594000000E+02  0.51100000000E-03 0. -1.
    9900012    2    1    2    0    0 -0.24937610708E+02  0.21493083084E+02  0.30745347935E+02  0.46142317988E+02  0.10000002069E+02 0.  0.
         12    1    1    2    0    0  0.24937610708E+02 -0.21493083084E+02 -0.30745347935E+02  0.45045682012E+02  0.00000000000E+00 0. -1.
         11    1    3    3    0    0 -0.11533433074E+02  0.57207630277E+01  0.16277621894E+02  0.20753510134E+02  0.51100000000E-03 0. -1.
        -11    1    3    3    0    0 -0.78680747705E+01  0.74311378042E+01  0.81892434984E+01  0.13571739719E+02  0.51100000000E-03 0.  1.
         12    1    3    3    0    0 -0.55361028636E+01  0.83411822522E+01  0.62784825426E+01  0.11817068136E+02  0.00000000000E+00 0. -1.
</event>
<event>
 7    1  0.2323330E-008  0.4614232E+02  0.7816164E-02  0.1320468E+00
        -11   -1    0    0    0    0  0.00000000000E+00  0.00000000000E+00  0.45593999997E+02  0.45594000000E+02  0.51100000000E-03 0.  1.
         11   -1    0    0    0    0 -0.00000000000E+00 -0.00000000000E+00 -0.45593999997E+02  0.45594000000E+02  0.51100000000E-03 0. -1.
    9900012    2    1    2    0    0 -0.25037948802E+02 -0.71566676402E+01  0.36755907255E+02  0.46142317742E+02  0.99999998294E+01 0.  0.
         12    1    1    2    0    0  0.25037948802E+02  0.71566676402E+01 -0.36755907255E+02  0.45045682258E+02  0.00000000000E+00 0. -1.
         11    1    3    3    0    0 -0.45829008421E+00 -0.21583791595E+01  0.29648001125E+01  0.36957638406E+01  0.51100000000E-03 0. -1.
        -11    1    3    3    0    0 -0.15095239685E+02 -0.50752575792E+01  0.18073617212E+02  0.24089004546E+02  0.51100000000E-03 0.  1.
        -12    1    3    3    0    0 -0.94844190330E+01  0.76969098450E-01  0.15717489930E+02  0.18357549356E+02  0.00000000000E+00 0.  1.
</event>
<event>
 7    1  0.2323330E-008  0.4614232E+02  0.7816164E-02  0.1320468E+00
        -11   -1    0    0    0    0  0.00000000000E+00  0.00000000000E+00  0.45593999997E+02  0.45594000000E+02  0.51100000000E-03 0.  1.
         11   -1    0    0    0    0 -0.00000000000E+00 -0.00000000000E+00 -0.45593999997E+02  0.45594000000E+02  0.51100000000E-03 0. -1.
    9900012    2    1    2    0    0  0.12203057580E+02 -0.28075185504E+02  0.33045161270E+02  0.46142319421E+02  0.10000015139E+02 0.  0.
         12    1    1    2    0    0 -0.12203057580E+02  0.28075185504E+02 -0.33045161270E+02  0.45045680579E+02  0.00000000000E+00 0. -1.
         11    1    3    3    0    0 -0.72136502506E+00 -0.41645343431E+00  0.25397603537E+00  0.87080712560E+00  0.51100000000E-03 0. -1.
        -11    1    3    3    0    0  0.43869220852E+01 -0.56820268918E+01  0.46219489666E+01  0.85377355014E+01  0.51100000000E-03 0.  1.
         12    1    3    3    0    0  0.85375005201E+01 -0.21976705178E+02  0.28169236269E+02  0.36733776794E+02  0.00000000000E+00 0. -1.
</event>
<event>
 7    1  0.2323330E-008  0.4614232E+02  0.7816164E-02  0.1320468E+00
        -11   -1    0    0    0    0  0.00000000000E+00  0.00000000000E+00  0.45593999997E+02  0.45594000000E+02  0.51100000000E-03 0. -1.
         11   -1    0    0    0    0 -0.00000000000E+00 -0.00000000000E+00 -0.45593999997E+02  0.45594000000E+02  0.51100000000E-03 0.  1.
    9900012    2    1    2    0    0 -0.15165100010E+02 -0.38334618345E+02 -0.18154620592E+02  0.46142317956E+02  0.10000001778E+02 0.  0.
         12    1    1    2    0    0  0.15165100010E+02  0.38334618345E+02  0.18154620592E+02  0.45045682044E+02  0.00000000000E+00 0. -1.
         11    1    3    3    0    0 -0.53264761086E+01 -0.80725948766E+01 -0.19558368178E+01  0.98672911022E+01  0.51100000000E-03 0. -1.
        -11    1    3    3    0    0 -0.89581603739E+01 -0.19120041241E+02 -0.88223615435E+01  0.22883589706E+02  0.51100000000E-03 0.  1.
         12    1    3    3    0    0 -0.88046352733E+00 -0.11141982227E+02 -0.73764222305E+01  0.13391437148E+02  0.00000000000E+00 0. -1.
</event>
<event>
 7    1  0.2323330E-008  0.4614232E+02  0.7816164E-02  0.1320468E+00
        -11   -1    0    0    0    0  0.00000000000E+00  0.00000000000E+00  0.45593999997E+02  0.45594000000E+02  0.51100000000E-03 0.  1.
         11   -1    0    0    0    0 -0.00000000000E+00 -0.00000000000E+00 -0.45593999997E+02  0.45594000000E+02  0.51100000000E-03 0. -1.
    9900012    2    1    2    0    0 -0.43229262468E+02 -0.18224806694E+00  0.12661404146E+02  0.46142317600E+02  0.99999985326E+01 0.  0.
         12    1    1    2    0    0  0.43229262468E+02  0.18224806694E+00 -0.12661404146E+02  0.45045682400E+02  0.00000000000E+00 0. -1.
         11    1    3    3    0    0 -0.11291715655E+02 -0.18699066886E+01  0.43066512719E+00  0.11453596211E+02  0.51100000000E-03 0. -1.
        -11    1    3    3    0    0 -0.17978746164E+02  0.30079454126E+01  0.49439435581E+01  0.18887181564E+02  0.51100000000E-03 0.  1.
        -12    1    3    3    0    0 -0.13958800649E+02 -0.13202867909E+01  0.72867954605E+01  0.15801539825E+02  0.00000000000E+00 0.  1.
</event>
<event>
 7    1  0.2323330E-008  0.4614232E+02  0.7816164E-02  0.1320468E+00
        -11   -1    0    0    0    0  0.00000000000E+00  0.00000000000E+00  0.45593999997E+02  0.45594000000E+02  0.51100000000E-03 0.  1.
         11   -1    0    0    0    0 -0.00000000000E+00 -0.00000000000E+00 -0.45593999997E+02  0.45594000000E+02  0.51100000000E-03 0. -1.
    9900012    2    1    2    0    0  0.41476623433E+02  0.13057640715E+02  0.11760156567E+02  0.46142317023E+02  0.99999932652E+01 0.  0.
         12    1    1    2    0    0 -0.41476623433E+02 -0.13057640715E+02 -0.11760156567E+02  0.45045682977E+02  0.00000000000E+00 0. -1.
         11    1    3    3    0    0  0.33927057839E+00  0.30915346428E+00 -0.90751310333E+00  0.10169860784E+01  0.51100000000E-03 0. -1.
        -11    1    3    3    0    0  0.15921261803E+02  0.69295785657E+01  0.38503849153E+01  0.17785699333E+02  0.51100000000E-03 0.  1.
        -12    1    3    3    0    0  0.25216091052E+02  0.58189086851E+01  0.88172847550E+01  0.27339631612E+02  0.00000000000E+00 0.  1.
</event>
<event>
 7    1  0.2323330E-008  0.4614232E+02  0.7816164E-02  0.1320468E+00
        -11   -1    0    0    0    0  0.00000000000E+00  0.00000000000E+00  0.45593999997E+02  0.45594000000E+02  0.51100000000E-03 0.  1.
         11   -1    0    0    0    0 -0.00000000000E+00 -0.00000000000E+00 -0.45593999997E+02  0.45594000000E+02  0.51100000000E-03 0. -1.
    9900012    2    1    2    0    0 -0.44492365421E+02  0.68257065324E+01 -0.17183216583E+01  0.46142317857E+02  0.10000000874E+02 0.  0.
         12    1    1    2    0    0  0.44492365421E+02 -0.68257065324E+01  0.17183216583E+01  0.45045682143E+02  0.00000000000E+00 0. -1.
         11    1    3    3    0    0 -0.50988586321E+00  0.72266705336E+00 -0.91565176861E+00  0.12730474013E+01  0.51100000000E-03 0. -1.
        -11    1    3    3    0    0 -0.24654374152E+02  0.63993207477E+01 -0.16087078413E+01  0.25522096545E+02  0.51100000000E-03 0.  1.
        -12    1    3    3    0    0 -0.19328105405E+02 -0.29628126869E+00  0.80603795157E+00  0.19347173911E+02  0.00000000000E+00 0.  1.
</event>
<event>
 7    1  0.2323330E-008  0.4614231E+02  0.7816164E-02  0.1320468E+00
        -11   -1    0    0    0    0  0.00000000000E+00  0.00000000000E+00  0.45593999997E+02  0.45594000000E+02  0.51100000000E-03 0. -1.
         11   -1    0    0    0    0 -0.00000000000E+00 -0.00000000000E+00 -0.45593999997E+02  0.45594000000E+02  0.51100000000E-03 0.  1.
    9900012    2    1    2    0    0 -0.27039128814E+02  0.33377255811E+02  0.13563136686E+02  0.46142307983E+02  0.99999108387E+01 0.  0.
         12    1    1    2    0    0  0.27039128814E+02 -0.33377255811E+02 -0.13563136686E+02  0.45045692017E+02  0.00000000000E+00 0. -1.
         11    1    3    3    0    0 -0.48391441069E+01  0.54792756970E+01  0.51916408299E+01  0.89662094900E+01  0.51100000000E-03 0. -1.
        -11    1    3    3    0    0 -0.19660966448E+02  0.26811702202E+02  0.87719584552E+01  0.34385581747E+02  0.51100000000E-03 0.  1.
        -12    1    3    3    0    0 -0.25390182585E+01  0.10862779119E+01 -0.40046259942E+00  0.27905167465E+01  0.00000000000E+00 0.  1.
</event>
<event>
 7    1  0.2323330E-008  0.4614232E+02  0.7816164E-02  0.1320468E+00
        -11   -1    0    0    0    0  0.00000000000E+00  0.00000000000E+00  0.45593999997E+02  0.45594000000E+02  0.51100000000E-03 0.  1.
         11   -1    0    0    0    0 -0.00000000000E+00 -0.00000000000E+00 -0.45593999997E+02  0.45594000000E+02  0.51100000000E-03 0. -1.
    9900012    2    1    2    0    0  0.36685469540E+02  0.25481474053E+02  0.58296026068E+01  0.46142318056E+02  0.10000002687E+02 0.  0.
         12    1    1    2    0    0 -0.36685469540E+02 -0.25481474053E+02 -0.58296026068E+01  0.45045681944E+02  0.00000000000E+00 0. -1.
         11    1    3    3    0    0  0.51682652328E+01  0.25545847856E+01  0.21795940097E+01  0.61633999750E+01  0.51100000000E-03 0. -1.
        -11    1    3    3    0    0  0.21791378650E+02  0.11102922887E+02  0.31686617088E+01  0.24661295533E+02  0.51100000000E-03 0.  1.
         12    1    3    3    0    0  0.97258256574E+01  0.11823966381E+02  0.48134688832E+00  0.15317622548E+02  0.00000000000E+00 0. -1.
</event>
<event>
 7    1  0.2323330E-008  0.4614232E+02  0.7816164E-02  0.1320468E+00
        -11   -1    0    0    0    0  0.00000000000E+00  0.00000000000E+00  0.45593999997E+02  0.45594000000E+02  0.51100000000E-03 0. -1.
         11   -1    0    0    0    0 -0.00000000000E+00 -0.00000000000E+00 -0.45593999997E+02  0.45594000000E+02  0.51100000000E-03 0.  1.
    9900012    2    1    2    0    0  0.44276609602E+02 -0.81535176872E+01 -0.14884460308E+01  0.46142317853E+02  0.10000000836E+02 0.  0.
         12    1    1    2    0    0 -0.44276609602E+02  0.81535176872E+01  0.14884460308E+01  0.45045682147E+02  0.00000000000E+00 0. -1.
         11    1    3    3    0    0  0.74316852589E+01  0.15373832539E+01  0.16360782697E+01  0.77633913609E+01  0.51100000000E-03 0. -1.
        -11    1    3    3    0    0  0.11645141872E+02 -0.46406957836E+01 -0.15278694890E+01  0.12628530081E+02  0.51100000000E-03 0.  1.
         12    1    3    3    0    0  0.25199782471E+02 -0.50502051575E+01 -0.15966548115E+01  0.25750396411E+02  0.00000000000E+00 0. -1.
</event>
<event>
 7    1  0.2323330E-008  0.4614232E+02  0.7816164E-02  0.1320468E+00
        -11   -1    0    0    0    0  0.00000000000E+00  0.00000000000E+00  0.45593999997E+02  0.45594000000E+02  0.51100000000E-03 0.  1.
         11   -1    0    0    0    0 -0.00000000000E+00 -0.00000000000E+00 -0.45593999997E+02  0.45594000000E+02  0.51100000000E-03 0. -1.
    9900012    2    1    2    0    0  0.40498760698E+02 -0.19496431858E+02  0.29754390494E+01  0.46142315292E+02  0.99999774812E+01 0.  0.
         12    1    1    2    0    0 -0.40498760698E+02  0.19496431858E+02 -0.29754390494E+01  0.45045684708E+02  0.00000000000E+00 0. -1.
         11    1    3    3    0    0  0.73802806444E-01 -0.17303585200E+01  0.33028175805E+00  0.17631431487E+01  0.51100000000E-03 0. -1.
        -11    1    3    3    0    0  0.30850595197E+02 -0.11874653401E+02  0.21320970378E+01  0.33125706867E+02  0.51100000000E-03 0.  1.
         12    1    3    3    0    0  0.95743626952E+01 -0.58914199372E+01  0.51306025355E+00  0.11253465276E+02  0.00000000000E+00 0. -1.
</event>
<event>
 7    1  0.2323330E-008  0.4614232E+02  0.7816164E-02  0.1320468E+00
        -11   -1    0    0    0    0  0.00000000000E+00  0.00000000000E+00  0.45593999997E+02  0.45594000000E+02  0.51100000000E-03 0. -1.
         11   -1    0    0    0    0 -0.00000000000E+00 -0.00000000000E+00 -0.45593999997E+02  0.45594000000E+02  0.51100000000E-03 0.  1.
    9900012    2    1    2    0    0 -0.24922568190E+02 -0.17176736580E+02 -0.33360739004E+02  0.46142316615E+02  0.99999895512E+01 0.  0.
         12    1    1    2    0    0  0.24922568190E+02  0.17176736580E+02  0.33360739004E+02  0.45045683385E+02  0.00000000000E+00 0. -1.
         11    1    3    3    0    0 -0.63281366111E+01  0.76561163031E-01 -0.66034513075E+01  0.91464060708E+01  0.51100000000E-03 0. -1.
        -11    1    3    3    0    0 -0.30222613506E+01 -0.22067232467E+01 -0.54957938747E+01  0.66488677031E+01  0.51100000000E-03 0.  1.
        -12    1    3    3    0    0 -0.15572170228E+02 -0.15046574496E+02 -0.21261493822E+02  0.30347042841E+02  0.00000000000E+00 0.  1.
</event>
<event>
 7    1  0.2323330E-008  0.4614232E+02  0.7816164E-02  0.1320468E+00
        -11   -1    0    0    0    0  0.00000000000E+00  0.00000000000E+00  0.45593999997E+02  0.45594000000E+02  0.51100000000E-03 0.  1.
         11   -1    0    0    0    0 -0.00000000000E+00 -0.00000000000E+00 -0.45593999997E+02  0.45594000000E+02  0.51100000000E-03 0. -1.
    9900012    2    1    2    0    0  0.13303360522E+02  0.16026855985E+02  0.39940880635E+02  0.46142318077E+02  0.10000002881E+02 0.  0.
         12    1    1    2    0    0 -0.13303360522E+02 -0.16026855985E+02 -0.39940880635E+02  0.45045681923E+02  0.00000000000E+00 0. -1.
         11    1    3    3    0    0 -0.40427218522E+00  0.13285035870E+01  0.51895160151E+00  0.14824536439E+01  0.51100000000E-03 0. -1.
        -11    1    3    3    0    0  0.95532836692E+01  0.13007850461E+02  0.27034327160E+02  0.31485302091E+02  0.51100000000E-03 0.  1.
         12    1    3    3    0    0  0.41543490385E+01  0.16905019375E+01  0.12387601874E+02  0.13174562342E+02  0.00000000000E+00 0. -1.
</event>
<event>
 7    1  0.2323330E-008  0.4614232E+02  0.7816164E-02  0.1320468E+00
        -11   -1    0    0    0    0  0.00000000000E+00  0.00000000000E+00  0.45593999997E+02  0.45594000000E+02  0.51100000000E-03 0. -1.
         11   -1    0    0    0    0 -0.00000000000E+00 -0.00000000000E+00 -0.45593999997E+02  0.45594000000E+02  0.51100000000E-03 0.  1.
    9900012    2    1    2    0    0  0.25573975765E+01  0.13047207306E+02 -0.43038861465E+02  0.46142317665E+02  0.99999991204E+01 0.  0.
         12    1    1    2    0    0 -0.25573975765E+01 -0.13047207306E+02  0.43038861465E+02  0.45045682335E+02  0.00000000000E+00 0. -1.
         11    1    3    3    0    0  0.78192873509E+00  0.18044391670E+01 -0.14469482992E+01  0.24415308509E+01  0.51100000000E-03 0. -1.
        -11    1    3    3    0    0 -0.13310654472E+01  0.28376307732E+00 -0.10502904326E+02  0.10590715568E+02  0.51100000000E-03 0.  1.
        -12    1    3    3    0    0  0.31065342886E+01  0.10959005062E+02 -0.31089008840E+02  0.33110071246E+02  0.00000000000E+00 0.  1.
</event>
<event>
 7    1  0.2323330E-008  0.4614232E+02  0.7816164E-02  0.1320468E+00
        -11   -1    0    0    0    0  0.00000000000E+00  0.00000000000E+00  0.45593999997E+02  0.45594000000E+02  0.51100000000E-03 0.  1.
         11   -1    0    0    0    0 -0.00000000000E+00 -0.00000000000E+00 -0.45593999997E+02  0.45594000000E+02  0.51100000000E-03 0. -1.
    9900012    2    1    2    0    0 -0.30571259274E+02  0.86818970760E+01  0.31923913685E+02  0.46142317683E+02  0.99999992832E+01 0.  0.
         12    1    1    2    0    0  0.30571259274E+02 -0.86818970760E+01 -0.31923913685E+02  0.45045682317E+02  0.00000000000E+00 0. -1.
         11    1    3    3    0    0 -0.54436725426E+01  0.10215457691E+01  0.91299921941E+01  0.10678664909E+02  0.51100000000E-03 0. -1.
        -11    1    3    3    0    0 -0.45997926688E+01 -0.69110261730E+00  0.19626291826E+01  0.50485274083E+01  0.51100000000E-03 0.  1.
        -12    1    3    3    0    0 -0.20527794063E+02  0.83514539243E+01  0.20831292309E+02  0.30415125365E+02  0.00000000000E+00 0.  1.
</event>
<event>
 7    1  0.2323330E-008  0.4614232E+02  0.7816164E-02  0.1320468E+00
        -11   -1    0    0    0    0  0.00000000000E+00  0.00000000000E+00  0.45593999997E+02  0.45594000000E+02  0.51100000000E-03 0.  1.
         11   -1    0    0    0    0 -0.00000000000E+00 -0.00000000000E+00 -0.45593999997E+02  0.45594000000E+02  0.51100000000E-03 0. -1.
    9900012    2    1    2    0    0  0.14034481231E+02  0.38350494197E+02  0.19010163461E+02  0.46142318926E+02  0.10000010627E+02 0.  0.
         12    1    1    2    0    0 -0.14034481231E+02 -0.38350494197E+02 -0.19010163461E+02  0.45045681074E+02  0.00000000000E+00 0. -1.
         11    1    3    3    0    0  0.13251848759E+01  0.73823162250E+01  0.68088448324E+00  0.75311560694E+01  0.51100000000E-03 0. -1.
        -11    1    3    3    0    0  0.35854743118E+01  0.16044951795E+02  0.99405950321E+01  0.19212275607E+02  0.51100000000E-03 0.  1.
        -12    1    3    3    0    0  0.91238220433E+01  0.14923226177E+02  0.83886839453E+01  0.19398887250E+02  0.00000000000E+00 0.  1.
</event>
<event>
 7    1  0.2323330E-008  0.4614232E+02  0.7816164E-02  0.1320468E+00
        -11   -1    0    0    0    0  0.00000000000E+00  0.00000000000E+00  0.45593999997E+02  0.45594000000E+02  0.51100000000E-03 0. -1.
         11   -1    0    0    0    0 -0.00000000000E+00 -0.00000000000E+00 -0.45593999997E+02  0.45594000000E+02  0.51100000000E-03 0.  1.
    9900012    2    1    2    0    0  0.16793644928E+02 -0.40868958937E+02 -0.87644271810E+01  0.46142317650E+02  0.99999989882E+01 0.  0.
         12    1    1    2    0    0 -0.16793644928E+02  0.40868958937E+02  0.87644271810E+01  0.45045682350E+02  0.00000000000E+00 0. -1.
         11    1    3    3    0    0  0.48049514539E+01 -0.69021378167E+01 -0.21850273002E+01  0.86891547045E+01  0.51100000000E-03 0. -1.
        -11    1    3    3    0    0  0.11897644676E+02 -0.31847998560E+02 -0.79669750586E+01  0.34918786534E+02  0.51100000000E-03 0.  1.
        -12    1    3    3    0    0  0.91048798233E-01 -0.21188225598E+01  0.13875751779E+01  0.25343764120E+01  0.00000000000E+00 0.  1.
</event>
<event>
 7    1  0.2323330E-008  0.4614232E+02  0.7816164E-02  0.1320468E+00
        -11   -1    0    0    0    0  0.00000000000E+00  0.00000000000E+00  0.45593999997E+02  0.45594000000E+02  0.51100000000E-03 0. -1.
         11   -1    0    0    0    0 -0.00000000000E+00 -0.00000000000E+00 -0.45593999997E+02  0.45594000000E+02  0.51100000000E-03 0.  1.
    9900012    2    1    2    0    0 -0.35369283889E+01  0.40895432861E+02 -0.18551747368E+02  0.46142316281E+02  0.99999865039E+01 0.  0.
         12    1    1    2    0    0  0.35369283889E+01 -0.40895432861E+02  0.18551747368E+02  0.45045683719E+02  0.00000000000E+00 0. -1.
         11    1    3    3    0    0 -0.56737402947E-01  0.93350123024E+01 -0.70880808103E+01  0.11721201459E+02  0.51100000000E-03 0. -1.
        -11    1    3    3    0    0 -0.47276302720E+01  0.21671442087E+02 -0.56781869471E+01  0.22896368651E+02  0.51100000000E-03 0.  1.
         12    1    3    3    0    0  0.12474392860E+01  0.98889784710E+01 -0.57854796109E+01  0.11524746171E+02  0.00000000000E+00 0. -1.
</event>
<event>
 7    1  0.2323330E-008  0.4614232E+02  0.7816164E-02  0.1320468E+00
        -11   -1    0    0    0    0  0.00000000000E+00  0.00000000000E+00  0.45593999997E+02  0.45594000000E+02  0.51100000000E-03 0.  1.
         11   -1    0    0    0    0 -0.00000000000E+00 -0.00000000000E+00 -0.45593999997E+02  0.45594000000E+02  0.51100000000E-03 0. -1.
    9900012    2    1    2    0    0 -0.25585521990E+02 -0.36506412056E+02  0.64634679902E+01  0.46142317908E+02  0.10000001338E+02 0.  0.
         12    1    1    2    0    0  0.25585521990E+02  0.36506412056E+02 -0.64634679902E+01  0.45045682092E+02  0.00000000000E+00 0. -1.
         11    1    3    3    0    0 -0.30467440520E+01 -0.45788273180E+00  0.33398142880E+00  0.30990078688E+01  0.51100000000E-03 0. -1.
        -11    1    3    3    0    0 -0.12858335037E+02 -0.20092901032E+02  0.20728545456E+01  0.23944898790E+02  0.51100000000E-03 0.  1.
         12    1    3    3    0    0 -0.96804429010E+01 -0.15955628292E+02  0.40566320158E+01  0.19098411250E+02  0.00000000000E+00 0. -1.
</event>
<event>
 7    1  0.2323330E-008  0.4614232E+02  0.7816164E-02  0.1320468E+00
        -11   -1    0    0    0    0  0.00000000000E+00  0.00000000000E+00  0.45593999997E+02  0.45594000000E+02  0.51100000000E-03 0. -1.
         11   -1    0    0    0    0 -0.00000000000E+00 -0.00000000000E+00 -0.45593999997E+02  0.45594000000E+02  0.51100000000E-03 0.  1.
    9900012    2    1    2    0    0  0.35701888337E+02  0.68552774611E+01 -0.26598759924E+02  0.46142315529E+02  0.99999796476E+01 0.  0.
         12    1    1    2    0    0 -0.35701888337E+02 -0.68552774611E+01  0.26598759924E+02  0.45045684471E+02  0.00000000000E+00 0. -1.
         11    1    3    3    0    0  0.85163394683E+01  0.52107427066E+00 -0.21935135118E+01  0.88097138502E+01  0.51100000000E-03 0. -1.
        -11    1    3    3    0    0  0.77192334091E+01  0.16895571957E+01 -0.44402661553E+01  0.90640571343E+01  0.51100000000E-03 0.  1.
         12    1    3    3    0    0  0.19466315460E+02  0.46446459947E+01 -0.19964980257E+02  0.28268544545E+02  0.00000000000E+00 0. -1.
</event>
<event>
 7    1  0.2323330E-008  0.4614232E+02  0.7816164E-02  0.1320468E+00
        -11   -1    0    0    0    0  0.00000000000E+00  0.00000000000E+00  0.45593999997E+02  0.45594000000E+02  0.51100000000E-03 0. -1.
         11   -1    0    0    0    0 -0.00000000000E+00 -0.00000000000E+00 -0.45593999997E+02  0.45594000000E+02  0.51100000000E-03 0.  1.
    9900012    2    1    2    0    0  0.44161001258E+02 -0.82824238004E+01 -0.32126239023E+01  0.46142317316E+02  0.99999959426E+01 0.  0.
         12    1    1    2    0    0 -0.44161001258E+02  0.82824238004E+01  0.32126239023E+01  0.45045682684E+02  0.00000000000E+00 0. -1.
         11    1    3    3    0    0  0.12236146171E+01  0.66341360671E+00  0.76564969191E+00  0.15885748508E+01  0.51100000000E-03 0. -1.
        -11    1    3    3    0    0  0.41447831999E+02 -0.76599503551E+01 -0.27613758728E+01  0.42240061717E+02  0.51100000000E-03 0.  1.
        -12    1    3    3    0    0  0.14895546414E+01 -0.12858870520E+01 -0.12168977214E+01  0.23136807482E+01  0.00000000000E+00 0.  1.
</event>
<event>
 7    1  0.2323330E-008  0.4614232E+02  0.7816164E-02  0.1320468E+00
        -11   -1    0    0    0    0  0.00000000000E+00  0.00000000000E+00  0.45593999997E+02  0.45594000000E+02  0.51100000000E-03 0. -1.
         11   -1    0    0    0    0 -0.00000000000E+00 -0.00000000000E+00 -0.45593999997E+02  0.45594000000E+02  0.51100000000E-03 0.  1.
    9900012    2    1    2    0    0 -0.49923847915E+01 -0.26340680954E+02 -0.36198869161E+02  0.46142317548E+02  0.99999980588E+01 0.  0.
         12    1    1    2    0    0  0.49923847915E+01  0.26340680954E+02  0.36198869161E+02  0.45045682452E+02  0.00000000000E+00 0. -1.
         11    1    3    3    0    0  0.44792817748E+00 -0.98746391628E+00  0.18020270091E+00  0.10991805642E+01  0.51100000000E-03 0. -1.
        -11    1    3    3    0    0 -0.46524595814E+01 -0.11580282705E+02 -0.14012506941E+02  0.18764292652E+02  0.51100000000E-03 0.  1.
         12    1    3    3    0    0 -0.78785338761E+00 -0.13772934332E+02 -0.22366564921E+02  0.26278844332E+02  0.00000000000E+00 0. -1.
</event>
<event>
 7    1  0.2323330E-008  0.4614232E+02  0.7816164E-02  0.1320468E+00
        -11   -1    0    0    0    0  0.00000000000E+00  0.00000000000E+00  0.45593999997E+02  0.45594000000E+02  0.51100000000E-03 0.  1.
         11   -1    0    0    0    0 -0.00000000000E+00 -0.00000000000E+00 -0.45593999997E+02  0.45594000000E+02  0.51100000000E-03 0. -1.
    9900012    2    1    2    0    0  0.97986732890E+01  0.36706052406E+02  0.24202587072E+02  0.46142317605E+02  0.99999985729E+01 0.  0.
         12    1    1    2    0    0 -0.97986732890E+01 -0.36706052406E+02 -0.24202587072E+02  0.45045682395E+02  0.00000000000E+00 0. -1.
         11    1    3    3    0    0  0.31385929764E+01  0.37157846045E+01  0.25023029886E+01  0.54698575490E+01  0.51100000000E-03 0. -1.
        -11    1    3    3    0    0  0.15662594358E+01  0.26113311238E+01  0.92634122156E-01  0.30464405788E+01  0.51100000000E-03 0.  1.
        -12    1    3    3    0    0  0.50938208767E+01  0.30378936678E+02  0.21607649962E+02  0.37626019477E+02  0.00000000000E+00 0.  1.
</event>
<event>
 7    1  0.2323330E-008  0.4614232E+02  0.7816164E-02  0.1320468E+00
        -11   -1    0    0    0    0  0.00000000000E+00  0.00000000000E+00  0.45593999997E+02  0.45594000000E+02  0.51100000000E-03 0.  1.
         11   -1    0    0    0    0 -0.00000000000E+00 -0.00000000000E+00 -0.45593999997E+02  0.45594000000E+02  0.51100000000E-03 0. -1.
    9900012    2    1    2    0    0  0.85515316429E+01  0.26652613226E+02  0.35293384330E+02  0.46142318046E+02  0.10000002598E+02 0.  0.
         12    1    1    2    0    0 -0.85515316429E+01 -0.26652613226E+02 -0.35293384330E+02  0.45045681954E+02  0.00000000000E+00 0. -1.
         11    1    3    3    0    0  0.58332567377E+01  0.86291502693E+01  0.93359053515E+01  0.13987431770E+02  0.51100000000E-03 0. -1.
        -11    1    3    3    0    0  0.31826967994E+01  0.50277760505E+01  0.74251150063E+01  0.95152731989E+01  0.51100000000E-03 0.  1.
         12    1    3    3    0    0 -0.46442189415E+00  0.12995686906E+02  0.18532363972E+02  0.22639613077E+02  0.00000000000E+00 0. -1.
</event>
<event>
 7    1  0.2323330E-008  0.4614232E+02  0.7816164E-02  0.1320468E+00
        -11   -1    0    0    0    0  0.00000000000E+00  0.00000000000E+00  0.45593999997E+02  0.45594000000E+02  0.51100000000E-03 0.  1.
         11   -1    0    0    0    0 -0.00000000000E+00 -0.00000000000E+00 -0.45593999997E+02  0.45594000000E+02  0.51100000000E-03 0. -1.
    9900012    2    1    2    0    0 -0.41886591804E+01 -0.23333625788E+02  0.38302880014E+02  0.46142316794E+02  0.99999911803E+01 0.  0.
         12    1    1    2    0    0  0.41886591804E+01  0.23333625788E+02 -0.38302880014E+02  0.45045683206E+02  0.00000000000E+00 0. -1.
         11    1    3    3    0    0 -0.59881283881E+00 -0.46644742094E+01  0.28457034845E+01  0.54967194806E+01  0.51100000000E-03 0. -1.
        -11    1    3    3    0    0 -0.60139632680E+00  0.29643897415E+00  0.12649619321E+01  0.14316712465E+01  0.51100000000E-03 0.  1.
        -12    1    3    3    0    0 -0.29884500148E+01 -0.18965590553E+02  0.34192214597E+02  0.39213926067E+02  0.00000000000E+00 0.  1.
</event>
<event>
 7    1  0.2323330E-008  0.4614232E+02  0.7816164E-02  0.1320468E+00
        -11   -1    0    0    0    0  0.00000000000E+00  0.00000000000E+00  0.45593999997E+02  0.45594000000E+02  0.51100000000E-03 0. -1.
         11   -1    0    0    0    0 -0.00000000000E+00 -0.00000000000E+00 -0.45593999997E+02  0.45594000000E+02  0.51100000000E-03 0.  1.
    9900012    2    1    2    0    0  0.42321543906E+02  0.12291649935E+02 -0.93228568954E+01  0.46142318771E+02  0.10000009205E+02 0.  0.
         12    1    1    2    0    0 -0.42321543906E+02 -0.12291649935E+02  0.93228568954E+01  0.45045681229E+02  0.00000000000E+00 0. -1.
         11    1    3    3    0    0  0.19760269402E+02  0.42850538686E+01 -0.26375552133E+01  0.20390846752E+02  0.51100000000E-03 0.  1.
        -11    1    3    3    0    0  0.95609954257E+01  0.48517947525E+01 -0.61564446578E+01  0.12363428203E+02  0.51100000000E-03 0. -1.
         12    1    3    3    0    0  0.13000279079E+02  0.31548013139E+01 -0.52885702425E+00  0.13388043815E+02  0.00000000000E+00 0. -1.
</event>
<event>
 7    1  0.2323330E-008  0.4614232E+02  0.7816164E-02  0.1320468E+00
        -11   -1    0    0    0    0  0.00000000000E+00  0.00000000000E+00  0.45593999997E+02  0.45594000000E+02  0.51100000000E-03 0.  1.
         11   -1    0    0    0    0 -0.00000000000E+00 -0.00000000000E+00 -0.45593999997E+02  0.45594000000E+02  0.51100000000E-03 0. -1.
    9900012    2    1    2    0    0  0.35203541631E+02  0.24832085451E+02  0.13160227266E+02  0.46142318821E+02  0.10000009662E+02 0.  0.
         12    1    1    2    0    0 -0.35203541631E+02 -0.24832085451E+02 -0.13160227266E+02  0.45045681179E+02  0.00000000000E+00 0. -1.
         11    1    3    3    0    0  0.23563005123E+01  0.19408488189E+01  0.23961417637E+01  0.38807913954E+01  0.51100000000E-03 0. -1.
        -11    1    3    3    0    0  0.28287360377E+02  0.22744452328E+02  0.98289917068E+01  0.37604440523E+02  0.51100000000E-03 0.  1.
        -12    1    3    3    0    0  0.45598807416E+01  0.14678430407E+00  0.93509379594E+00  0.46570869025E+01  0.00000000000E+00 0.  1.
</event>
<event>
 7    1  0.2323330E-008  0.4614232E+02  0.7816164E-02  0.1320468E+00
        -11   -1    0    0    0    0  0.00000000000E+00  0.00000000000E+00  0.45593999997E+02  0.45594000000E+02  0.51100000000E-03 0.  1.
         11   -1    0    0    0    0 -0.00000000000E+00 -0.00000000000E+00 -0.45593999997E+02  0.45594000000E+02  0.51100000000E-03 0. -1.
    9900012    2    1    2    0    0 -0.20340041257E+02 -0.22817641901E+02  0.33087027893E+02  0.46142317909E+02  0.10000001349E+02 0.  0.
         12    1    1    2    0    0  0.20340041257E+02  0.22817641901E+02 -0.33087027893E+02  0.45045682091E+02  0.00000000000E+00 0. -1.
         11    1    3    3    0    0 -0.24818426194E+01 -0.29433668748E+01  0.38385764300E+01  0.54366920657E+01  0.51100000000E-03 0. -1.
        -11    1    3    3    0    0 -0.90383878574E+01 -0.66669567392E+01  0.18101186075E+02  0.21302434246E+02  0.51100000000E-03 0.  1.
        -12    1    3    3    0    0 -0.88198107804E+01 -0.13207318287E+02  0.11147265387E+02  0.19403191597E+02  0.00000000000E+00 0.  1.
</event>
<event>
 7    1  0.2323330E-008  0.4614232E+02  0.7816164E-02  0.1320468E+00
        -11   -1    0    0    0    0  0.00000000000E+00  0.00000000000E+00  0.45593999997E+02  0.45594000000E+02  0.51100000000E-03 0.  1.
         11   -1    0    0    0    0 -0.00000000000E+00 -0.00000000000E+00 -0.45593999997E+02  0.45594000000E+02  0.51100000000E-03 0. -1.
    9900012    2    1    2    0    0 -0.29405754042E+02 -0.96642194344E+01  0.32726410232E+02  0.46142318357E+02  0.10000005430E+02 0.  0.
         12    1    1    2    0    0  0.29405754042E+02  0.96642194344E+01 -0.32726410232E+02  0.45045681643E+02  0.00000000000E+00 0. -1.
         11    1    3    3    0    0 -0.65958234788E+01 -0.26907961426E+01  0.86816537433E+01  0.11230155085E+02  0.51100000000E-03 0. -1.
        -11    1    3    3    0    0 -0.23376078413E+02 -0.68247363816E+01  0.22113496395E+02  0.32894145250E+02  0.51100000000E-03 0.  1.
        -12    1    3    3    0    0  0.56614785051E+00 -0.14868691013E+00  0.19312600940E+01  0.20180180219E+01  0.00000000000E+00 0.  1.
</event>
<event>
 7    1  0.2323330E-008  0.4614233E+02  0.7816164E-02  0.1320468E+00
        -11   -1    0    0    0    0  0.00000000000E+00  0.00000000000E+00  0.45593999997E+02  0.45594000000E+02  0.51100000000E-03 0.  1.
         11   -1    0    0    0    0 -0.00000000000E+00 -0.00000000000E+00 -0.45593999997E+02  0.45594000000E+02  0.51100000000E-03 0. -1.
    9900012    2    1    2    0    0  0.29560314112E+02 -0.26823210311E+02  0.20876200805E+02  0.46142328268E+02  0.10000095806E+02 0.  0.
         12    1    1    2    0    0 -0.29560314112E+02  0.26823210311E+02 -0.20876200805E+02  0.45045671732E+02  0.00000000000E+00 0. -1.
         11    1    3    3    0    0  0.12248241881E+02 -0.11132628185E+02  0.75032718112E+01  0.18172889908E+02  0.51100000000E-03 0. -1.
        -11    1    3    3    0    0  0.15708837680E+02 -0.11096433787E+02  0.83220405451E+01  0.20956020213E+02  0.51100000000E-03 0.  1.
         12    1    3    3    0    0  0.16032345508E+01 -0.45941483389E+01  0.50508884483E+01  0.70134181468E+01  0.00000000000E+00 0. -1.
</event>
<event>
 7    1  0.2323330E-008  0.4614232E+02  0.7816164E-02  0.1320468E+00
        -11   -1    0    0    0    0  0.00000000000E+00  0.00000000000E+00  0.45593999997E+02  0.45594000000E+02  0.51100000000E-03 0. -1.
         11   -1    0    0    0    0 -0.00000000000E+00 -0.00000000000E+00 -0.45593999997E+02  0.45594000000E+02  0.51100000000E-03 0.  1.
    9900012    2    1    2    0    0 -0.32812191553E+02  0.56855438417E+01 -0.30333942949E+02  0.46142318540E+02  0.10000007106E+02 0.  0.
         12    1    1    2    0    0  0.32812191553E+02 -0.56855438417E+01  0.30333942949E+02  0.45045681460E+02  0.00000000000E+00 0. -1.
         11    1    3    3    0    0 -0.20284808897E+02  0.17971081590E+01 -0.12322969235E+02  0.23802492323E+02  0.51100000000E-03 0.  1.
        -11    1    3    3    0    0 -0.14965127669E+01  0.10371706276E+01 -0.26237246814E+01  0.31936193945E+01  0.51100000000E-03 0. -1.
        -12    1    3    3    0    0 -0.11030869889E+02  0.28512650551E+01 -0.15387249033E+02  0.19146206823E+02  0.00000000000E+00 0.  1.
</event>
<event>
 7    1  0.2323330E-008  0.4614232E+02  0.7816164E-02  0.1320468E+00
        -11   -1    0    0    0    0  0.00000000000E+00  0.00000000000E+00  0.45593999997E+02  0.45594000000E+02  0.51100000000E-03 0. -1.
         11   -1    0    0    0    0 -0.00000000000E+00 -0.00000000000E+00 -0.45593999997E+02  0.45594000000E+02  0.51100000000E-03 0.  1.
    9900012    2    1    2    0    0  0.37637080888E+02  0.84729660623E+01 -0.23254515617E+02  0.46142317540E+02  0.99999979879E+01 0.  0.
         12    1    1    2    0    0 -0.37637080888E+02 -0.84729660623E+01  0.23254515617E+02  0.45045682460E+02  0.00000000000E+00 0. -1.
         11    1    3    3    0    0  0.37206933475E+01  0.29952360443E+01 -0.45498566573E+01  0.65966805145E+01  0.51100000000E-03 0. -1.
        -11    1    3    3    0    0  0.26226814845E+02  0.25814104478E+01 -0.12077436997E+02  0.28989204568E+02  0.51100000000E-03 0.  1.
        -12    1    3    3    0    0  0.76895726950E+01  0.28963195702E+01 -0.66272219629E+01  0.10556432457E+02  0.00000000000E+00 0.  1.
</event>
<event>
 7    1  0.2323330E-008  0.4614232E+02  0.7816164E-02  0.1320468E+00
        -11   -1    0    0    0    0  0.00000000000E+00  0.00000000000E+00  0.45593999997E+02  0.45594000000E+02  0.51100000000E-03 0. -1.
         11   -1    0    0    0    0 -0.00000000000E+00 -0.00000000000E+00 -0.45593999997E+02  0.45594000000E+02  0.51100000000E-03 0.  1.
    9900012    2    1    2    0    0 -0.21362000330E+02 -0.42131527862E+01 -0.39433839452E+02  0.46142318649E+02  0.10000008097E+02 0.  0.
         12    1    1    2    0    0  0.21362000330E+02  0.42131527862E+01  0.39433839452E+02  0.45045681351E+02  0.00000000000E+00 0. -1.
         11    1    3    3    0    0 -0.10877836266E+02 -0.12302653387E+01 -0.26538539190E+02  0.28707750473E+02  0.51100000000E-03 0. -1.
        -11    1    3    3    0    0 -0.55130755274E+01 -0.32535123316E+01 -0.93141961753E+01  0.11301928814E+02  0.51100000000E-03 0.  1.
        -12    1    3    3    0    0 -0.49710885366E+01  0.27062488418E+00 -0.35811040862E+01  0.61326393619E+01  0.00000000000E+00 0.  1.
</event>
<event>
 7    1  0.2323330E-008  0.4614232E+02  0.7816164E-02  0.1320468E+00
        -11   -1    0    0    0    0  0.00000000000E+00  0.00000000000E+00  0.45593999997E+02  0.45594000000E+02  0.51100000000E-03 0. -1.
         11   -1    0    0    0    0 -0.00000000000E+00 -0.00000000000E+00 -0.45593999997E+02  0.45594000000E+02  0.51100000000E-03 0.  1.
    9900012    2    1    2    0    0  0.30022373271E+02  0.13821842753E+02 -0.30606001260E+02  0.46142317110E+02  0.99999940622E+01 0.  0.
         12    1    1    2    0    0 -0.30022373271E+02 -0.13821842753E+02  0.30606001260E+02  0.45045682890E+02  0.00000000000E+00 0. -1.
         11    1    3    3    0    0  0.94742257946E+01  0.73505325536E+01 -0.14879855113E+02  0.19110242585E+02  0.51100000000E-03 0. -1.
        -11    1    3    3    0    0  0.40449539076E+01  0.30133704195E+01 -0.26734202277E+01  0.57086976951E+01  0.51100000000E-03 0.  1.
        -12    1    3    3    0    0  0.16503193568E+02  0.34579397796E+01 -0.13052725920E+02  0.21323376830E+02  0.00000000000E+00 0.  1.
</event>
<event>
 7    1  0.2323330E-008  0.4614232E+02  0.7816164E-02  0.1320468E+00
        -11   -1    0    0    0    0  0.00000000000E+00  0.00000000000E+00  0.45593999997E+02  0.45594000000E+02  0.51100000000E-03 0.  1.
         11   -1    0    0    0    0 -0.00000000000E+00 -0.00000000000E+00 -0.45593999997E+02  0.45594000000E+02  0.51100000000E-03 0. -1.
    9900012    2    1    2    0    0 -0.26603109095E+02  0.36346440959E+02  0.56940359902E+00  0.46142318694E+02  0.10000008508E+02 0.  0.
         12    1    1    2    0    0  0.26603109095E+02 -0.36346440959E+02 -0.56940359902E+00  0.45045681306E+02  0.00000000000E+00 0. -1.
         11    1    3    3    0    0 -0.29145469271E+01  0.69048810582E+01  0.19346386265E+01  0.77404646562E+01  0.51100000000E-03 0. -1.
        -11    1    3    3    0    0 -0.12715735181E+02  0.20772388283E+02 -0.43758222207E-01  0.24355368016E+02  0.51100000000E-03 0.  1.
         12    1    3    3    0    0 -0.10972826987E+02  0.86691716177E+01 -0.13214768053E+01  0.14046486022E+02  0.00000000000E+00 0. -1.
</event>
<event>
 7    1  0.2323330E-008  0.4614232E+02  0.7816164E-02  0.1320468E+00
        -11   -1    0    0    0    0  0.00000000000E+00  0.00000000000E+00  0.45593999997E+02  0.45594000000E+02  0.51100000000E-03 0.  1.
         11   -1    0    0    0    0 -0.00000000000E+00 -0.00000000000E+00 -0.45593999997E+02  0.45594000000E+02  0.51100000000E-03 0. -1.
    9900012    2    1    2    0    0  0.22727936974E+02 -0.36636244197E+02  0.13051434847E+02  0.46142318081E+02  0.10000002918E+02 0.  0.
         12    1    1    2    0    0 -0.22727936974E+02  0.36636244197E+02 -0.13051434847E+02  0.45045681919E+02  0.00000000000E+00 0. -1.
         11    1    3    3    0    0  0.45039656255E+01 -0.13640305785E+02  0.10033004163E+01  0.14399661810E+02  0.51100000000E-03 0. -1.
        -11    1    3    3    0    0  0.83193489056E+00 -0.10521555679E+01  0.83914533936E+00  0.15821858813E+01  0.51100000000E-03 0.  1.
        -12    1    3    3    0    0  0.17392036458E+02 -0.21943782845E+02  0.11208989091E+02  0.30160470390E+02  0.00000000000E+00 0.  1.
</event>
<event>
 7    1  0.2323330E-008  0.4614232E+02  0.7816164E-02  0.1320468E+00
        -11   -1    0    0    0    0  0.00000000000E+00  0.00000000000E+00  0.45593999997E+02  0.45594000000E+02  0.51100000000E-03 0. -1.
         11   -1    0    0    0    0 -0.00000000000E+00 -0.00000000000E+00 -0.45593999997E+02  0.45594000000E+02  0.51100000000E-03 0.  1.
    9900012    2    1    2    0    0  0.19192243544E+02  0.21252737609E+02 -0.34772008958E+02  0.46142315688E+02  0.99999810977E+01 0.  0.
         12    1    1    2    0    0 -0.19192243544E+02 -0.21252737609E+02  0.34772008958E+02  0.45045684312E+02  0.00000000000E+00 0. -1.
         11    1    3    3    0    0  0.10010371899E+02  0.74110140957E+01 -0.13044534982E+02  0.18035813501E+02  0.51100000000E-03 0.  1.
        -11    1    3    3    0    0  0.63340395845E+01  0.43106286682E+01 -0.73036438578E+01  0.10585121201E+02  0.51100000000E-03 0. -1.
         12    1    3    3    0    0  0.28478320605E+01  0.95310948447E+01 -0.14423830118E+02  0.17521380986E+02  0.00000000000E+00 0. -1.
</event>
<event>
 7    1  0.2323330E-008  0.4614232E+02  0.7816164E-02  0.1320468E+00
        -11   -1    0    0    0    0  0.00000000000E+00  0.00000000000E+00  0.45593999997E+02  0.45594000000E+02  0.51100000000E-03 0. -1.
         11   -1    0    0    0    0 -0.00000000000E+00 -0.00000000000E+00 -0.45593999997E+02  0.45594000000E+02  0.51100000000E-03 0.  1.
    9900012    2    1    2    0    0  0.18509249560E+02  0.12657278011E+02 -0.39068075691E+02  0.46142317142E+02  0.99999943583E+01 0.  0.
         12    1    1    2    0    0 -0.18509249560E+02 -0.12657278011E+02  0.39068075691E+02  0.45045682858E+02  0.00000000000E+00 0. -1.
         11    1    3    3    0    0  0.23827655790E+00  0.17311717891E+01 -0.80841267536E+00  0.19254253547E+01  0.51100000000E-03 0. -1.
        -11    1    3    3    0    0  0.16647872919E+02  0.84888919056E+01 -0.28948863013E+02  0.34456488917E+02  0.51100000000E-03 0.  1.
        -12    1    3    3    0    0  0.16231000828E+01  0.24372143165E+01 -0.93108000028E+01  0.97604028706E+01  0.00000000000E+00 0.  1.
</event>
<event>
 7    1  0.2323330E-008  0.4614232E+02  0.7816164E-02  0.1320468E+00
        -11   -1    0    0    0    0  0.00000000000E+00  0.00000000000E+00  0.45593999997E+02  0.45594000000E+02  0.51100000000E-03 0.  1.
         11   -1    0    0    0    0 -0.00000000000E+00 -0.00000000000E+00 -0.45593999997E+02  0.45594000000E+02  0.51100000000E-03 0. -1.
    9900012    2    1    2    0    0 -0.26295178360E+02  0.29325362830E+02  0.21856354712E+02  0.46142317061E+02  0.99999936189E+01 0.  0.
         12    1    1    2    0    0  0.26295178360E+02 -0.29325362830E+02 -0.21856354712E+02  0.45045682939E+02  0.00000000000E+00 0. -1.
         11    1    3    3    0    0 -0.25226835538E+01  0.23106318227E+01  0.58840174032E+00  0.34711912367E+01  0.51100000000E-03 0. -1.
        -11    1    3    3    0    0 -0.11519030255E+02  0.15179132990E+02  0.65241886462E+01  0.20140982451E+02  0.51100000000E-03 0.  1.
        -12    1    3    3    0    0 -0.12253464552E+02  0.11835598017E+02  0.14743764325E+02  0.22530143373E+02  0.00000000000E+00 0.  1.
</event>
<event>
 7    1  0.2323330E-008  0.4614232E+02  0.7816164E-02  0.1320468E+00
        -11   -1    0    0    0    0  0.00000000000E+00  0.00000000000E+00  0.45593999997E+02  0.45594000000E+02  0.51100000000E-03 0.  1.
         11   -1    0    0    0    0 -0.00000000000E+00 -0.00000000000E+00 -0.45593999997E+02  0.45594000000E+02  0.51100000000E-03 0. -1.
    9900012    2    1    2    0    0 -0.23352949199E+02  0.32259041339E+02  0.21050118531E+02  0.46142317914E+02  0.10000001396E+02 0.  0.
         12    1    1    2    0    0  0.23352949199E+02 -0.32259041339E+02 -0.21050118531E+02  0.45045682086E+02  0.00000000000E+00 0. -1.
         11    1    3    3    0    0 -0.59174917217E+01  0.35211728751E+01  0.47914069802E+01  0.83888585519E+01  0.51100000000E-03 0. -1.
        -11    1    3    3    0    0 -0.15192629596E+02  0.23620526199E+02  0.15603008201E+02  0.32127855782E+02  0.51100000000E-03 0.  1.
        -12    1    3    3    0    0 -0.22428278809E+01  0.51173422653E+01  0.65570334995E+00  0.56256035807E+01  0.00000000000E+00 0.  1.
</event>
<event>
 7    1  0.2323330E-008  0.4614232E+02  0.7816164E-02  0.1320468E+00
        -11   -1    0    0    0    0  0.00000000000E+00  0.00000000000E+00  0.45593999997E+02  0.45594000000E+02  0.51100000000E-03 0.  1.
         11   -1    0    0    0    0 -0.00000000000E+00 -0.00000000000E+00 -0.45593999997E+02  0.45594000000E+02  0.51100000000E-03 0. -1.
    9900012    2    1    2    0    0  0.32299274810E+02 -0.17065453985E+02  0.26356031742E+02  0.46142320050E+02  0.10000020870E+02 0.  0.
         12    1    1    2    0    0 -0.32299274810E+02  0.17065453985E+02 -0.26356031742E+02  0.45045679950E+02  0.00000000000E+00 0. -1.
         11    1    3    3    0    0  0.67203267313E+01 -0.72932127137E+01  0.78358780453E+01  0.12639411698E+02  0.51100000000E-03 0. -1.
        -11    1    3    3    0    0  0.15128318560E+02 -0.28922174380E+01  0.99262740470E+01  0.18323805851E+02  0.51100000000E-03 0.  1.
        -12    1    3    3    0    0  0.10450629519E+02 -0.68800238333E+01  0.85938796499E+01  0.15179102501E+02  0.00000000000E+00 0.  1.
</event>
<event>
 7    1  0.2323330E-008  0.4614232E+02  0.7816164E-02  0.1320468E+00
        -11   -1    0    0    0    0  0.00000000000E+00  0.00000000000E+00  0.45593999997E+02  0.45594000000E+02  0.51100000000E-03 0. -1.
         11   -1    0    0    0    0 -0.00000000000E+00 -0.00000000000E+00 -0.45593999997E+02  0.45594000000E+02  0.51100000000E-03 0.  1.
    9900012    2    1    2    0    0 -0.15383328529E+02 -0.34609442522E+02 -0.24385509562E+02  0.46142318909E+02  0.10000010469E+02 0.  0.
         12    1    1    2    0    0  0.15383328529E+02  0.34609442522E+02  0.24385509562E+02  0.45045681091E+02  0.00000000000E+00 0. -1.
         11    1    3    3    0    0 -0.50077705840E+01 -0.14109462947E+02 -0.13225112361E+02  0.19976443830E+02  0.51100000000E-03 0. -1.
        -11    1    3    3    0    0 -0.76316280632E+00 -0.50172270622E+01 -0.44374470244E+01  0.67413590038E+01  0.51100000000E-03 0.  1.
        -12    1    3    3    0    0 -0.96123951390E+01 -0.15482752512E+02 -0.67229501767E+01  0.19424516075E+02  0.00000000000E+00 0.  1.
</event>
<event>
 7    1  0.2323330E-008  0.4614232E+02  0.7816164E-02  0.1320468E+00
        -11   -1    0    0    0    0  0.00000000000E+00  0.00000000000E+00  0.45593999997E+02  0.45594000000E+02  0.51100000000E-03 0.  1.
         11   -1    0    0    0    0 -0.00000000000E+00 -0.00000000000E+00 -0.45593999997E+02  0.45594000000E+02  0.51100000000E-03 0. -1.
    9900012    2    1    2    0    0  0.32881044654E+02 -0.20870154033E+02  0.22635971032E+02  0.46142316395E+02  0.99999875396E+01 0.  0.
         12    1    1    2    0    0 -0.32881044654E+02  0.20870154033E+02 -0.22635971032E+02  0.45045683605E+02  0.00000000000E+00 0. -1.
         11    1    3    3    0    0  0.13446649434E+02 -0.12617787029E+02  0.11584215589E+02  0.21776477712E+02  0.51100000000E-03 0. -1.
        -11    1    3    3    0    0  0.40468778317E+00 -0.36482033568E-01  0.14803573870E+01  0.15351095710E+01  0.51100000000E-03 0.  1.
        -12    1    3    3    0    0  0.19029707437E+02 -0.82158849712E+01  0.95713980566E+01  0.22830729111E+02  0.00000000000E+00 0.  1.
</event>
<event>
 7    1  0.2323330E-008  0.4614231E+02  0.7816164E-02  0.1320468E+00
        -11   -1    0    0    0    0  0.00000000000E+00  0.00000000000E+00  0.45593999997E+02  0.45594000000E+02  0.51100000000E-03 0. -1.
         11   -1    0    0    0    0 -0.00000000000E+00 -0.00000000000E+00 -0.45593999997E+02  0.45594000000E+02  0.51100000000E-03 0.  1.
    9900012    2    1    2    0    0  0.24498892967E+02  0.35348469079E+02 -0.13394169014E+02  0.46142314453E+02  0.99999698355E+01 0.  0.
         12    1    1    2    0    0 -0.24498892967E+02 -0.35348469079E+02  0.13394169014E+02  0.45045685547E+02  0.00000000000E+00 0. -1.
         11    1    3    3    0    0  0.50480395644E+01  0.10974799039E+02 -0.74252171470E-01  0.12080332406E+02  0.51100000000E-03 0. -1.
        -11    1    3    3    0    0  0.11209987512E+02  0.15016993018E+02 -0.95707112642E+01  0.21042158009E+02  0.51100000000E-03 0.  1.
        -12    1    3    3    0    0  0.82408658904E+01  0.93566770214E+01 -0.37492055781E+01  0.13019824038E+02  0.00000000000E+00 0.  1.
</event>
<event>
 7    1  0.2323330E-008  0.4614232E+02  0.7816164E-02  0.1320468E+00
        -11   -1    0    0    0    0  0.00000000000E+00  0.00000000000E+00  0.45593999997E+02  0.45594000000E+02  0.51100000000E-03 0.  1.
         11   -1    0    0    0    0 -0.00000000000E+00 -0.00000000000E+00 -0.45593999997E+02  0.45594000000E+02  0.51100000000E-03 0. -1.
    9900012    2    1    2    0    0 -0.24045667262E+02  0.29787128481E+02  0.23741237645E+02  0.46142317609E+02  0.99999986095E+01 0.  0.
         12    1    1    2    0    0  0.24045667262E+02 -0.29787128481E+02 -0.23741237645E+02  0.45045682391E+02  0.00000000000E+00 0. -1.
         11    1    3    3    0    0 -0.12720091447E+02  0.12649196161E+02  0.94112164954E+01  0.20257687087E+02  0.51100000000E-03 0. -1.
        -11    1    3    3    0    0 -0.12092242880E+02  0.16272210659E+02  0.14128614337E+02  0.24710825987E+02  0.51100000000E-03 0.  1.
         12    1    3    3    0    0  0.76666706476E+00  0.86572166082E+00  0.20140681230E+00  0.11738045349E+01  0.00000000000E+00 0. -1.
</event>
<event>
 7    1  0.2323330E-008  0.4614232E+02  0.7816164E-02  0.1320468E+00
        -11   -1    0    0    0    0  0.00000000000E+00  0.00000000000E+00  0.45593999997E+02  0.45594000000E+02  0.51100000000E-03 0.  1.
         11   -1    0    0    0    0 -0.00000000000E+00 -0.00000000000E+00 -0.45593999997E+02  0.45594000000E+02  0.51100000000E-03 0. -1.
    9900012    2    1    2    0    0 -0.21286574692E+02 -0.21330565313E+02  0.33481369758E+02  0.46142318747E+02  0.10000008989E+02 0.  0.
         12    1    1    2    0    0  0.21286574692E+02  0.21330565313E+02 -0.33481369758E+02  0.45045681253E+02  0.00000000000E+00 0. -1.
         11    1    3    3    0    0 -0.96365991879E+01 -0.64022623781E+01  0.10645124907E+02  0.15721694948E+02  0.51100000000E-03 0. -1.
        -11    1    3    3    0    0 -0.89057296458E+01 -0.59526918248E+01  0.12147019926E+02  0.16195575131E+02  0.51100000000E-03 0.  1.
         12    1    3    3    0    0 -0.27442458586E+01 -0.89756111096E+01  0.10689224925E+02  0.14225048668E+02  0.00000000000E+00 0. -1.
</event>
<event>
 7    1  0.2323330E-008  0.4614232E+02  0.7816164E-02  0.1320468E+00
        -11   -1    0    0    0    0  0.00000000000E+00  0.00000000000E+00  0.45593999997E+02  0.45594000000E+02  0.51100000000E-03 0. -1.
         11   -1    0    0    0    0 -0.00000000000E+00 -0.00000000000E+00 -0.45593999997E+02  0.45594000000E+02  0.51100000000E-03 0.  1.
    9900012    2    1    2    0    0  0.29219050329E+02 -0.20895343737E+02 -0.27179867723E+02  0.46142317616E+02  0.99999986745E+01 0.  0.
         12    1    1    2    0    0 -0.29219050329E+02  0.20895343737E+02  0.27179867723E+02  0.45045682384E+02  0.00000000000E+00 0. -1.
         11    1    3    3    0    0  0.12621263173E+02 -0.67211001708E+01 -0.13761725115E+02  0.19845769070E+02  0.51100000000E-03 0. -1.
        -11    1    3    3    0    0  0.33769126521E+01 -0.39631278328E+01 -0.60165598866E+00  0.52413654202E+01  0.51100000000E-03 0.  1.
        -12    1    3    3    0    0  0.13220874504E+02 -0.10211115734E+02 -0.12816486619E+02  0.21055183125E+02  0.00000000000E+00 0.  1.
</event>
<event>
 7    1  0.2323330E-008  0.4614232E+02  0.7816164E-02  0.1320468E+00
        -11   -1    0    0    0    0  0.00000000000E+00  0.00000000000E+00  0.45593999997E+02  0.45594000000E+02  0.51100000000E-03 0.  1.
         11   -1    0    0    0    0 -0.00000000000E+00 -0.00000000000E+00 -0.45593999997E+02  0.45594000000E+02  0.51100000000E-03 0. -1.
    9900012    2    1    2    0    0  0.37918936535E+02 -0.23534456749E+02  0.61153163644E+01  0.46142317669E+02  0.99999991608E+01 0.  0.
         12    1    1    2    0    0 -0.37918936535E+02  0.23534456749E+02 -0.61153163644E+01  0.45045682331E+02  0.00000000000E+00 0. -1.
         11    1    3    3    0    0  0.39299504212E+01 -0.32970549017E+01 -0.59622420462E+00  0.51643552261E+01  0.51100000000E-03 0. -1.
        -11    1    3    3    0    0  0.32083961055E+02 -0.20979330096E+02  0.67952797702E+01  0.38931846549E+02  0.51100000000E-03 0.  1.
        -12    1    3    3    0    0  0.19050250586E+01  0.74192824844E+00 -0.83739201177E-01  0.20461158945E+01  0.00000000000E+00 0.  1.
</event>
<event>
 7    1  0.2323330E-008  0.4614232E+02  0.7816164E-02  0.1320468E+00
        -11   -1    0    0    0    0  0.00000000000E+00  0.00000000000E+00  0.45593999997E+02  0.45594000000E+02  0.51100000000E-03 0.  1.
         11   -1    0    0    0    0 -0.00000000000E+00 -0.00000000000E+00 -0.45593999997E+02  0.45594000000E+02  0.51100000000E-03 0. -1.
    9900012    2    1    2    0    0 -0.34576471479E+01 -0.21561437335E+01  0.44860998738E+02  0.46142317772E+02  0.10000000102E+02 0.  0.
         12    1    1    2    0    0  0.34576471479E+01  0.21561437335E+01 -0.44860998738E+02  0.45045682228E+02  0.00000000000E+00 0. -1.
         11    1    3    3    0    0  0.84972043866E+00  0.68171239833E+00  0.67153771396E+01  0.68031644847E+01  0.51100000000E-03 0. -1.
        -11    1    3    3    0    0  0.18134317053E+01 -0.18331248216E+01  0.19936930377E+02  0.20102986701E+02  0.51100000000E-03 0.  1.
        -12    1    3    3    0    0 -0.61207992918E+01 -0.10047313102E+01  0.18208691221E+02  0.19236166587E+02  0.00000000000E+00 0.  1.
</event>
<event>
 7    1  0.2323330E-008  0.4614232E+02  0.7816164E-02  0.1320468E+00
        -11   -1    0    0    0    0  0.00000000000E+00  0.00000000000E+00  0.45593999997E+02  0.45594000000E+02  0.51100000000E-03 0.  1.
         11   -1    0    0    0    0 -0.00000000000E+00 -0.00000000000E+00 -0.45593999997E+02  0.45594000000E+02  0.51100000000E-03 0. -1.
    9900012    2    1    2    0    0 -0.23914657526E+02  0.34201555771E+02  0.16954535602E+02  0.46142317197E+02  0.99999948524E+01 0.  0.
         12    1    1    2    0    0  0.23914657526E+02 -0.34201555771E+02 -0.16954535602E+02  0.45045682803E+02  0.00000000000E+00 0. -1.
         11    1    3    3    0    0 -0.26610388620E+01  0.28279250731E+01 -0.45296366228E+00  0.39094071654E+01  0.51100000000E-03 0.  1.
        -11    1    3    3    0    0 -0.22235405526E+01  0.52054709438E+01  0.38829953546E+00  0.56737850793E+01  0.51100000000E-03 0. -1.
        -12    1    3    3    0    0 -0.19030078112E+02  0.26168159754E+02  0.17019199728E+02  0.36559124952E+02  0.00000000000E+00 0.  1.
</event>
<event>
 7    1  0.2323330E-008  0.4614232E+02  0.7816164E-02  0.1320468E+00
        -11   -1    0    0    0    0  0.00000000000E+00  0.00000000000E+00  0.45593999997E+02  0.45594000000E+02  0.51100000000E-03 0.  1.
         11   -1    0    0    0    0 -0.00000000000E+00 -0.00000000000E+00 -0.45593999997E+02  0.45594000000E+02  0.51100000000E-03 0. -1.
    9900012    2    1    2    0    0  0.32332611348E+02 -0.22652704456E+02  0.21692632932E+02  0.46142322081E+02  0.10000039389E+02 0.  0.
         12    1    1    2    0    0 -0.32332611348E+02  0.22652704456E+02 -0.21692632932E+02  0.45045677919E+02  0.00000000000E+00 0. -1.
         11    1    3    3    0    0  0.16718047479E+02 -0.11001864566E+02  0.10123775529E+02  0.22428218089E+02  0.51100000000E-03 0. -1.
        -11    1    3    3    0    0  0.12358307924E+02 -0.61815113934E+01  0.53571982674E+01  0.14820203486E+02  0.51100000000E-03 0.  1.
         12    1    3    3    0    0  0.32562559451E+01 -0.54693284963E+01  0.62116591355E+01  0.88939005052E+01  0.00000000000E+00 0. -1.
</event>
<event>
 7    1  0.2323330E-008  0.4614232E+02  0.7816164E-02  0.1320468E+00
        -11   -1    0    0    0    0  0.00000000000E+00  0.00000000000E+00  0.45593999997E+02  0.45594000000E+02  0.51100000000E-03 0.  1.
         11   -1    0    0    0    0 -0.00000000000E+00 -0.00000000000E+00 -0.45593999997E+02  0.45594000000E+02  0.51100000000E-03 0. -1.
    9900012    2    1    2    0    0  0.10618549018E+01  0.43975040043E+02  0.97047317099E+01  0.46142317630E+02  0.99999988033E+01 0.  0.
         12    1    1    2    0    0 -0.10618549018E+01 -0.43975040043E+02 -0.97047317099E+01  0.45045682370E+02  0.00000000000E+00 0. -1.
         11    1    3    3    0    0  0.15546214517E+01  0.63287843051E+01 -0.76668219573E-02  0.65169331499E+01  0.51100000000E-03 0. -1.
        -11    1    3    3    0    0  0.44537230913E+00  0.25670787818E+02  0.29580655857E+01  0.25844493726E+02  0.51100000000E-03 0.  1.
        -12    1    3    3    0    0 -0.93813885909E+00  0.11975467920E+02  0.67543329461E+01  0.13780890754E+02  0.00000000000E+00 0.  1.
</event>
<event>
 7    1  0.2323330E-008  0.4614232E+02  0.7816164E-02  0.1320468E+00
        -11   -1    0    0    0    0  0.00000000000E+00  0.00000000000E+00  0.45593999997E+02  0.45594000000E+02  0.51100000000E-03 0.  1.
         11   -1    0    0    0    0 -0.00000000000E+00 -0.00000000000E+00 -0.45593999997E+02  0.45594000000E+02  0.51100000000E-03 0. -1.
    9900012    2    1    2    0    0  0.13901751364E+02  0.40659390639E+02  0.13515502779E+02  0.46142317038E+02  0.99999934086E+01 0.  0.
         12    1    1    2    0    0 -0.13901751364E+02 -0.40659390639E+02 -0.13515502779E+02  0.45045682962E+02  0.00000000000E+00 0. -1.
         11    1    3    3    0    0 -0.92088200886E+00  0.20115590472E+01  0.15117346242E+01  0.26795028102E+01  0.51100000000E-03 0. -1.
        -11    1    3    3    0    0  0.60938887671E+01  0.22010243413E+02  0.47765740119E+01  0.23332422827E+02  0.51100000000E-03 0.  1.
        -12    1    3    3    0    0  0.87287446057E+01  0.16637588179E+02  0.72271941427E+01  0.20130391401E+02  0.00000000000E+00 0.  1.
</event>
<event>
 7    1  0.2323330E-008  0.4614232E+02  0.7816164E-02  0.1320468E+00
        -11   -1    0    0    0    0  0.00000000000E+00  0.00000000000E+00  0.45593999997E+02  0.45594000000E+02  0.51100000000E-03 0. -1.
         11   -1    0    0    0    0 -0.00000000000E+00 -0.00000000000E+00 -0.45593999997E+02  0.45594000000E+02  0.51100000000E-03 0.  1.
    9900012    2    1    2    0    0 -0.11732502166E+02  0.38157089690E+02 -0.20868598036E+02  0.46142317802E+02  0.10000000375E+02 0.  0.
         12    1    1    2    0    0  0.11732502166E+02 -0.38157089690E+02  0.20868598036E+02  0.45045682198E+02  0.00000000000E+00 0. -1.
         11    1    3    3    0    0  0.95105737052E+00  0.27229981189E+01 -0.31915353883E+01  0.43017586257E+01  0.51100000000E-03 0. -1.
        -11    1    3    3    0    0 -0.80848034189E+01  0.19694323936E+02 -0.12282075554E+02  0.24578035353E+02  0.51100000000E-03 0.  1.
        -12    1    3    3    0    0 -0.45987561174E+01  0.15739767635E+02 -0.53949870935E+01  0.17262523824E+02  0.00000000000E+00 0.  1.
</event>
<event>
 7    1  0.2323330E-008  0.4614232E+02  0.7816164E-02  0.1320468E+00
        -11   -1    0    0    0    0  0.00000000000E+00  0.00000000000E+00  0.45593999997E+02  0.45594000000E+02  0.51100000000E-03 0.  1.
         11   -1    0    0    0    0 -0.00000000000E+00 -0.00000000000E+00 -0.45593999997E+02  0.45594000000E+02  0.51100000000E-03 0. -1.
    9900012    2    1    2    0    0  0.71475221336E+01  0.30351401840E+02  0.32508749902E+02  0.46142317782E+02  0.10000000188E+02 0.  0.
         12    1    1    2    0    0 -0.71475221336E+01 -0.30351401840E+02 -0.32508749902E+02  0.45045682218E+02  0.00000000000E+00 0. -1.
         11    1    3    3    0    0 -0.13935184082E+01  0.34498119683E+01  0.47194132296E+01  0.60096553698E+01  0.51100000000E-03 0. -1.
        -11    1    3    3    0    0  0.71168609408E+01  0.26320210566E+02  0.25236462930E+02  0.37152150077E+02  0.51100000000E-03 0.  1.
        -12    1    3    3    0    0  0.14241796010E+01  0.58137930628E+00  0.25528737427E+01  0.29805123352E+01  0.00000000000E+00 0.  1.
</event>
<event>
 7    1  0.2323330E-008  0.4614232E+02  0.7816164E-02  0.1320468E+00
        -11   -1    0    0    0    0  0.00000000000E+00  0.00000000000E+00  0.45593999997E+02  0.45594000000E+02  0.51100000000E-03 0. -1.
         11   -1    0    0    0    0 -0.00000000000E+00 -0.00000000000E+00 -0.45593999997E+02  0.45594000000E+02  0.51100000000E-03 0.  1.
    9900012    2    1    2    0    0 -0.38485297790E+02  0.23327915365E+02 -0.19503377387E+01  0.46142316538E+02  0.99999888482E+01 0.  0.
         12    1    1    2    0    0  0.38485297790E+02 -0.23327915365E+02  0.19503377387E+01  0.45045683462E+02  0.00000000000E+00 0. -1.
         11    1    3    3    0    0 -0.12879299314E+01  0.39132115803E+01 -0.26861951069E+00  0.41284555324E+01  0.51100000000E-03 0. -1.
        -11    1    3    3    0    0 -0.25844807019E+02  0.13754702259E+02 -0.17358500305E+01  0.29328468416E+02  0.51100000000E-03 0.  1.
         12    1    3    3    0    0 -0.11352560840E+02  0.56600015258E+01  0.54131802453E-01  0.12685392590E+02  0.00000000000E+00 0. -1.
</event>
<event>
 7    1  0.2323330E-008  0.4614231E+02  0.7816164E-02  0.1320468E+00
        -11   -1    0    0    0    0  0.00000000000E+00  0.00000000000E+00  0.45593999997E+02  0.45594000000E+02  0.51100000000E-03 0.  1.
         11   -1    0    0    0    0 -0.00000000000E+00 -0.00000000000E+00 -0.45593999997E+02  0.45594000000E+02  0.51100000000E-03 0. -1.
    9900012    2    1    2    0    0 -0.13252319026E+02  0.25070137871E+02  0.34999686035E+02  0.46142314357E+02  0.99999689599E+01 0.  0.
         12    1    1    2    0    0  0.13252319026E+02 -0.25070137871E+02 -0.34999686035E+02  0.45045685643E+02  0.00000000000E+00 0. -1.
         11    1    3    3    0    0 -0.11434909896E+02  0.15783645230E+02  0.22490516790E+02  0.29760779002E+02  0.51100000000E-03 0.  1.
        -11    1    3    3    0    0 -0.21863268022E+01  0.56910229861E+01  0.10757857210E+02  0.12365244014E+02  0.51100000000E-03 0. -1.
        -12    1    3    3    0    0  0.36891767227E+00  0.35954696555E+01  0.17513120361E+01  0.40162913416E+01  0.00000000000E+00 0.  1.
</event>
<event>
 7    1  0.2323330E-008  0.4614232E+02  0.7816164E-02  0.1320468E+00
        -11   -1    0    0    0    0  0.00000000000E+00  0.00000000000E+00  0.45593999997E+02  0.45594000000E+02  0.51100000000E-03 0.  1.
         11   -1    0    0    0    0 -0.00000000000E+00 -0.00000000000E+00 -0.45593999997E+02  0.45594000000E+02  0.51100000000E-03 0. -1.
    9900012    2    1    2    0    0 -0.29204778426E+02  0.13905969213E+02  0.31349934468E+02  0.46142318145E+02  0.10000003498E+02 0.  0.
         12    1    1    2    0    0  0.29204778426E+02 -0.13905969213E+02 -0.31349934468E+02  0.45045681855E+02  0.00000000000E+00 0. -1.
         11    1    3    3    0    0 -0.88092361658E+01  0.27288285383E+00  0.73938107210E+01  0.11504153342E+02  0.51100000000E-03 0. -1.
        -11    1    3    3    0    0 -0.10809020248E+02  0.99535452871E+01  0.15230949144E+02  0.21163406971E+02  0.51100000000E-03 0.  1.
        -12    1    3    3    0    0 -0.95865220123E+01  0.36795410719E+01  0.87251746022E+01  0.13474757832E+02  0.00000000000E+00 0.  1.
</event>
<event>
 7    1  0.2323330E-008  0.4614232E+02  0.7816164E-02  0.1320468E+00
        -11   -1    0    0    0    0  0.00000000000E+00  0.00000000000E+00  0.45593999997E+02  0.45594000000E+02  0.51100000000E-03 0. -1.
         11   -1    0    0    0    0 -0.00000000000E+00 -0.00000000000E+00 -0.45593999997E+02  0.45594000000E+02  0.51100000000E-03 0.  1.
    9900012    2    1    2    0    0 -0.28849687753E+02 -0.19405951649E+02 -0.28639448688E+02  0.46142318032E+02  0.10000002470E+02 0.  0.
         12    1    1    2    0    0  0.28849687753E+02  0.19405951649E+02  0.28639448688E+02  0.45045681968E+02  0.00000000000E+00 0. -1.
         11    1    3    3    0    0 -0.28674705880E+02 -0.17442763851E+02 -0.27441406276E+02  0.43353426009E+02  0.51100000000E-03 0.  1.
        -11    1    3    3    0    0 -0.36927017394E+00 -0.67700043542E-01  0.20021269264E+00  0.42547519396E+00  0.51100000000E-03 0. -1.
        -12    1    3    3    0    0  0.19428830127E+00 -0.18954877540E+01 -0.13982551047E+01  0.23634168289E+01  0.00000000000E+00 0.  1.
</event>
<event>
 7    1  0.2323330E-008  0.4614232E+02  0.7816164E-02  0.1320468E+00
        -11   -1    0    0    0    0  0.00000000000E+00  0.00000000000E+00  0.45593999997E+02  0.45594000000E+02  0.51100000000E-03 0.  1.
         11   -1    0    0    0    0 -0.00000000000E+00 -0.00000000000E+00 -0.45593999997E+02  0.45594000000E+02  0.51100000000E-03 0. -1.
    9900012    2    1    2    0    0 -0.79053768178E+01  0.33109665899E+02  0.29502011134E+02  0.46142316306E+02  0.99999867266E+01 0.  0.
         12    1    1    2    0    0  0.79053768178E+01 -0.33109665899E+02 -0.29502011134E+02  0.45045683694E+02  0.00000000000E+00 0. -1.
         11    1    3    3    0    0 -0.77731033996E+01  0.13675751001E+02  0.11986411001E+02  0.19776788184E+02  0.51100000000E-03 0. -1.
        -11    1    3    3    0    0 -0.16735782843E+01  0.94092531411E+01  0.81445367384E+01  0.12556607340E+02  0.51100000000E-03 0.  1.
         12    1    3    3    0    0  0.15413048660E+01  0.10024661756E+02  0.93710633942E+01  0.13808920782E+02  0.00000000000E+00 0. -1.
</event>
<event>
 7    1  0.2323330E-008  0.4614232E+02  0.7816164E-02  0.1320468E+00
        -11   -1    0    0    0    0  0.00000000000E+00  0.00000000000E+00  0.45593999997E+02  0.45594000000E+02  0.51100000000E-03 0.  1.
         11   -1    0    0    0    0 -0.00000000000E+00 -0.00000000000E+00 -0.45593999997E+02  0.45594000000E+02  0.51100000000E-03 0. -1.
    9900012    2    1    2    0    0 -0.13597003515E+02  0.38821495909E+02  0.18361001035E+02  0.46142318651E+02  0.10000008119E+02 0.  0.
         12    1    1    2    0    0  0.13597003515E+02 -0.38821495909E+02 -0.18361001035E+02  0.45045681349E+02  0.00000000000E+00 0. -1.
         11    1    3    3    0    0 -0.64537586222E+01  0.87974888031E+01  0.68201669709E+01  0.12867069883E+02  0.51100000000E-03 0. -1.
        -11    1    3    3    0    0 -0.19901988140E+00  0.52441938671E+01  0.49788938810E+00  0.52715341536E+01  0.51100000000E-03 0.  1.
        -12    1    3    3    0    0 -0.69442250113E+01  0.24779813238E+02  0.11042944676E+02  0.28003714615E+02  0.00000000000E+00 0.  1.
</event>
<event>
 7    1  0.2323330E-008  0.4614232E+02  0.7816164E-02  0.1320468E+00
        -11   -1    0    0    0    0  0.00000000000E+00  0.00000000000E+00  0.45593999997E+02  0.45594000000E+02  0.51100000000E-03 0.  1.
         11   -1    0    0    0    0 -0.00000000000E+00 -0.00000000000E+00 -0.45593999997E+02  0.45594000000E+02  0.51100000000E-03 0. -1.
    9900012    2    1    2    0    0 -0.41821383664E+01  0.17765551101E+02  0.41182622240E+02  0.46142318056E+02  0.10000002691E+02 0.  0.
         12    1    1    2    0    0  0.41821383664E+01 -0.17765551101E+02 -0.41182622240E+02  0.45045681944E+02  0.00000000000E+00 0. -1.
         11    1    3    3    0    0 -0.22831120279E+01  0.11453907224E+02  0.14762402797E+02  0.18823738413E+02  0.51100000000E-03 0. -1.
        -11    1    3    3    0    0 -0.20306777690E+01  0.29382336841E+01  0.13418919733E+02  0.13886118121E+02  0.51100000000E-03 0.  1.
         12    1    3    3    0    0  0.13165143052E+00  0.33734101928E+01  0.13001299709E+02  0.13432461523E+02  0.00000000000E+00 0. -1.
</event>
<event>
 7    1  0.2323330E-008  0.4614232E+02  0.7816164E-02  0.1320468E+00
        -11   -1    0    0    0    0  0.00000000000E+00  0.00000000000E+00  0.45593999997E+02  0.45594000000E+02  0.51100000000E-03 0.  1.
         11   -1    0    0    0    0 -0.00000000000E+00 -0.00000000000E+00 -0.45593999997E+02  0.45594000000E+02  0.51100000000E-03 0. -1.
    9900012    2    1    2    0    0 -0.18730428096E+02 -0.29632262079E+02  0.28288047768E+02  0.46142317198E+02  0.99999948609E+01 0.  0.
         12    1    1    2    0    0  0.18730428096E+02  0.29632262079E+02 -0.28288047768E+02  0.45045682802E+02  0.00000000000E+00 0. -1.
         11    1    3    3    0    0 -0.18346439680E+01 -0.36576445448E+01  0.63558285903E+01  0.75591560002E+01  0.51100000000E-03 0. -1.
        -11    1    3    3    0    0 -0.13447757803E+02 -0.24052980384E+02  0.17481625151E+02  0.32634265328E+02  0.51100000000E-03 0.  1.
         12    1    3    3    0    0 -0.34480263250E+01 -0.19216371504E+01  0.44505940269E+01  0.59488958696E+01  0.00000000000E+00 0. -1.
</event>
<event>
 7    1  0.2323330E-008  0.4614232E+02  0.7816164E-02  0.1320468E+00
        -11   -1    0    0    0    0  0.00000000000E+00  0.00000000000E+00  0.45593999997E+02  0.45594000000E+02  0.51100000000E-03 0. -1.
         11   -1    0    0    0    0 -0.00000000000E+00 -0.00000000000E+00 -0.45593999997E+02  0.45594000000E+02  0.51100000000E-03 0.  1.
    9900012    2    1    2    0    0  0.32574628494E+02 -0.14780768497E+02 -0.27377653362E+02  0.46142318271E+02  0.10000004647E+02 0.  0.
         12    1    1    2    0    0 -0.32574628494E+02  0.14780768497E+02  0.27377653362E+02  0.45045681729E+02  0.00000000000E+00 0. -1.
         11    1    3    3    0    0 -0.44833767648E+00 -0.19944076591E+00 -0.57443297974E+00  0.75548448071E+00  0.51100000000E-03 0. -1.
        -11    1    3    3    0    0  0.15744050364E+02 -0.82828550600E+01 -0.16715363437E+02  0.24410739131E+02  0.51100000000E-03 0.  1.
        -12    1    3    3    0    0  0.17278915806E+02 -0.62984726709E+01 -0.10087856945E+02  0.20976094659E+02  0.00000000000E+00 0.  1.
</event>
<event>
 7    1  0.2323330E-008  0.4614232E+02  0.7816164E-02  0.1320468E+00
        -11   -1    0    0    0    0  0.00000000000E+00  0.00000000000E+00  0.45593999997E+02  0.45594000000E+02  0.51100000000E-03 0.  1.
         11   -1    0    0    0    0 -0.00000000000E+00 -0.00000000000E+00 -0.45593999997E+02  0.45594000000E+02  0.51100000000E-03 0. -1.
    9900012    2    1    2    0    0 -0.19450371691E+02  0.40612665722E+02  0.11865384656E+01  0.46142318193E+02  0.10000003938E+02 0.  0.
         12    1    1    2    0    0  0.19450371691E+02 -0.40612665722E+02 -0.11865384656E+01  0.45045681807E+02  0.00000000000E+00 0. -1.
         11    1    3    3    0    0 -0.97820900300E+01  0.25475114803E+02 -0.59476723562E+00  0.27295137075E+02  0.51100000000E-03 0. -1.
        -11    1    3    3    0    0 -0.10259663617E+02  0.14341960797E+02  0.11487034672E+01  0.17671221150E+02  0.51100000000E-03 0.  1.
        -12    1    3    3    0    0  0.59138195607E+00  0.79559012149E+00  0.63260223406E+00  0.11759599678E+01  0.00000000000E+00 0.  1.
</event>
<event>
 7    1  0.2323330E-008  0.4614232E+02  0.7816164E-02  0.1320468E+00
        -11   -1    0    0    0    0  0.00000000000E+00  0.00000000000E+00  0.45593999997E+02  0.45594000000E+02  0.51100000000E-03 0.  1.
         11   -1    0    0    0    0 -0.00000000000E+00 -0.00000000000E+00 -0.45593999997E+02  0.45594000000E+02  0.51100000000E-03 0. -1.
    9900012    2    1    2    0    0 -0.19791587832E+02 -0.39382370359E+02  0.92970667141E+01  0.46142317704E+02  0.99999994770E+01 0.  0.
         12    1    1    2    0    0  0.19791587832E+02  0.39382370359E+02 -0.92970667141E+01  0.45045682296E+02  0.00000000000E+00 0. -1.
         11    1    3    3    0    0 -0.40642301599E+01 -0.15635015916E+02  0.40549800266E+01  0.16655766352E+02  0.51100000000E-03 0. -1.
        -11    1    3    3    0    0 -0.20867936714E+01 -0.63590263789E+01 -0.30916991603E+00  0.66998142223E+01  0.51100000000E-03 0.  1.
        -12    1    3    3    0    0 -0.13640564001E+02 -0.17388328064E+02  0.55512566035E+01  0.22786737130E+02  0.00000000000E+00 0.  1.
</event>
<event>
 7    1  0.2323330E-008  0.4614232E+02  0.7816164E-02  0.1320468E+00
        -11   -1    0    0    0    0  0.00000000000E+00  0.00000000000E+00  0.45593999997E+02  0.45594000000E+02  0.51100000000E-03 0.  1.
         11   -1    0    0    0    0 -0.00000000000E+00 -0.00000000000E+00 -0.45593999997E+02  0.45594000000E+02  0.51100000000E-03 0. -1.
    9900012    2    1    2    0    0  0.38290475709E+02 -0.11314473691E+02  0.20855108243E+02  0.46142318912E+02  0.10000010490E+02 0.  0.
         12    1    1    2    0    0 -0.38290475709E+02  0.11314473691E+02 -0.20855108243E+02  0.45045681088E+02  0.00000000000E+00 0. -1.
         11    1    3    3    0    0  0.21410805616E+02 -0.39106397877E+01  0.11627367630E+02  0.24676129740E+02  0.51100000000E-03 0. -1.
        -11    1    3    3    0    0  0.15070458417E+02 -0.41123416315E+01  0.76141091404E+01  0.17378283254E+02  0.51100000000E-03 0.  1.
         12    1    3    3    0    0  0.18092116752E+01 -0.32914922714E+01  0.16136314722E+01  0.40879059170E+01  0.00000000000E+00 0. -1.
</event>
<event>
 7    1  0.2323330E-008  0.4614231E+02  0.7816164E-02  0.1320468E+00
        -11   -1    0    0    0    0  0.00000000000E+00  0.00000000000E+00  0.45593999997E+02  0.45594000000E+02  0.51100000000E-03 0.  1.
         11   -1    0    0    0    0 -0.00000000000E+00 -0.00000000000E+00 -0.45593999997E+02  0.45594000000E+02  0.51100000000E-03 0. -1.
    9900012    2    1    2    0    0 -0.24919778627E+02  0.41857325452E+01  0.37290728819E+02  0.46142310088E+02  0.99999300331E+01 0.  0.
         12    1    1    2    0    0  0.24919778627E+02 -0.41857325452E+01 -0.37290728819E+02  0.45045689912E+02  0.00000000000E+00 0. -1.
         11    1    3    3    0    0 -0.13787485820E+02 -0.17262935820E+00  0.21047994024E+02  0.25162325386E+02  0.51100000000E-03 0.  1.
        -11    1    3    3    0    0 -0.65836276906E+01  0.20205987992E+01  0.46509301548E+01  0.83101218187E+01  0.51100000000E-03 0. -1.
        -12    1    3    3    0    0 -0.45486651164E+01  0.23377631042E+01  0.11591804640E+02  0.12669862884E+02  0.00000000000E+00 0.  1.
</event>
<event>
 7    1  0.2323330E-008  0.4614232E+02  0.7816164E-02  0.1320468E+00
        -11   -1    0    0    0    0  0.00000000000E+00  0.00000000000E+00  0.45593999997E+02  0.45594000000E+02  0.51100000000E-03 0. -1.
         11   -1    0    0    0    0 -0.00000000000E+00 -0.00000000000E+00 -0.45593999997E+02  0.45594000000E+02  0.51100000000E-03 0.  1.
    9900012    2    1    2    0    0  0.29062782932E+02 -0.16599050558E+02 -0.30148626400E+02  0.46142317577E+02  0.99999983179E+01 0.  0.
         12    1    1    2    0    0 -0.29062782932E+02  0.16599050558E+02  0.30148626400E+02  0.45045682423E+02  0.00000000000E+00 0. -1.
         11    1    3    3    0    0  0.47860568152E+01 -0.68548184399E+01 -0.58389060611E+01  0.10197435949E+02  0.51100000000E-03 0. -1.
        -11    1    3    3    0    0  0.38316692464E+01 -0.24956130073E+01 -0.60950983799E+01  0.76197111506E+01  0.51100000000E-03 0.  1.
        -12    1    3    3    0    0  0.20445056870E+02 -0.72486191109E+01 -0.18214621959E+02  0.28325170477E+02  0.00000000000E+00 0.  1.
</event>
<event>
 7    1  0.2323330E-008  0.4614232E+02  0.7816164E-02  0.1320468E+00
        -11   -1    0    0    0    0  0.00000000000E+00  0.00000000000E+00  0.45593999997E+02  0.45594000000E+02  0.51100000000E-03 0. -1.
         11   -1    0    0    0    0 -0.00000000000E+00 -0.00000000000E+00 -0.45593999997E+02  0.45594000000E+02  0.51100000000E-03 0.  1.
    9900012    2    1    2    0    0  0.28331035718E+02 -0.34565335441E+02  0.56305933439E+01  0.46142316739E+02  0.99999906830E+01 0.  0.
         12    1    1    2    0    0 -0.28331035718E+02  0.34565335441E+02 -0.56305933439E+01  0.45045683261E+02  0.00000000000E+00 0. -1.
         11    1    3    3    0    0  0.58699689946E+01 -0.57732788817E+01  0.26418696111E+01  0.86467774545E+01  0.51100000000E-03 0. -1.
        -11    1    3    3    0    0  0.20307991454E+02 -0.23002440789E+02  0.11917220803E+00  0.30684540104E+02  0.51100000000E-03 0.  1.
         12    1    3    3    0    0  0.21530752698E+01 -0.57896157704E+01  0.28695515247E+01  0.68109991807E+01  0.00000000000E+00 0. -1.
</event>
<event>
 7    1  0.2323330E-008  0.4614232E+02  0.7816164E-02  0.1320468E+00
        -11   -1    0    0    0    0  0.00000000000E+00  0.00000000000E+00  0.45593999997E+02  0.45594000000E+02  0.51100000000E-03 0.  1.
         11   -1    0    0    0    0 -0.00000000000E+00 -0.00000000000E+00 -0.45593999997E+02  0.45594000000E+02  0.51100000000E-03 0. -1.
    9900012    2    1    2    0    0 -0.41749189240E+02 -0.15205006762E+02  0.74112390653E+01  0.46142317662E+02  0.99999990972E+01 0.  0.
         12    1    1    2    0    0  0.41749189240E+02  0.15205006762E+02 -0.74112390653E+01  0.45045682338E+02  0.00000000000E+00 0. -1.
         11    1    3    3    0    0 -0.32247767193E+01 -0.19984076079E+01 -0.13758628792E+01  0.40355689538E+01  0.51100000000E-03 0. -1.
        -11    1    3    3    0    0 -0.21736748750E+02 -0.58290869434E+01  0.21576813375E+01  0.22607965186E+02  0.51100000000E-03 0.  1.
        -12    1    3    3    0    0 -0.16787663770E+02 -0.73775122102E+01  0.66294206070E+01  0.19498783523E+02  0.00000000000E+00 0.  1.
</event>
<event>
 7    1  0.2323330E-008  0.4614232E+02  0.7816164E-02  0.1320468E+00
        -11   -1    0    0    0    0  0.00000000000E+00  0.00000000000E+00  0.45593999997E+02  0.45594000000E+02  0.51100000000E-03 0. -1.
         11   -1    0    0    0    0 -0.00000000000E+00 -0.00000000000E+00 -0.45593999997E+02  0.45594000000E+02  0.51100000000E-03 0.  1.
    9900012    2    1    2    0    0 -0.13996996641E+02 -0.42432576245E+02  0.57161140317E+01  0.46142318727E+02  0.10000008808E+02 0.  0.
         12    1    1    2    0    0  0.13996996641E+02  0.42432576245E+02 -0.57161140317E+01  0.45045681273E+02  0.00000000000E+00 0. -1.
         11    1    3    3    0    0 -0.29964119134E+01 -0.52833264329E+01 -0.11644168443E+01  0.61844878042E+01  0.51100000000E-03 0. -1.
        -11    1    3    3    0    0 -0.71958469100E+01 -0.17827589253E+02  0.41033644965E+00  0.19229444287E+02  0.51100000000E-03 0.  1.
        -12    1    3    3    0    0 -0.38047378177E+01 -0.19321660559E+02  0.64701944264E+01  0.20728386636E+02  0.00000000000E+00 0.  1.
</event>
<event>
 7    1  0.2323330E-008  0.4614232E+02  0.7816164E-02  0.1320468E+00
        -11   -1    0    0    0    0  0.00000000000E+00  0.00000000000E+00  0.45593999997E+02  0.45594000000E+02  0.51100000000E-03 0. -1.
         11   -1    0    0    0    0 -0.00000000000E+00 -0.00000000000E+00 -0.45593999997E+02  0.45594000000E+02  0.51100000000E-03 0.  1.
    9900012    2    1    2    0    0  0.15698445923E+02 -0.42221623697E+02 -0.81827233177E-01  0.46142318656E+02  0.10000008165E+02 0.  0.
         12    1    1    2    0    0 -0.15698445923E+02  0.42221623697E+02  0.81827233177E-01  0.45045681344E+02  0.00000000000E+00 0. -1.
         11    1    3    3    0    0  0.56571137681E+01 -0.18235728695E+02 -0.22828617632E+01  0.19229045616E+02  0.51100000000E-03 0. -1.
        -11    1    3    3    0    0  0.66269150065E+01 -0.82303607215E+01 -0.44622997264E+00  0.10576103326E+02  0.51100000000E-03 0.  1.
         12    1    3    3    0    0  0.34144171483E+01 -0.15755534280E+02  0.26472645027E+01  0.16337169714E+02  0.00000000000E+00 0. -1.
</event>
<event>
 7    1  0.2323330E-008  0.4614232E+02  0.7816164E-02  0.1320468E+00
        -11   -1    0    0    0    0  0.00000000000E+00  0.00000000000E+00  0.45593999997E+02  0.45594000000E+02  0.51100000000E-03 0.  1.
         11   -1    0    0    0    0 -0.00000000000E+00 -0.00000000000E+00 -0.45593999997E+02  0.45594000000E+02  0.51100000000E-03 0. -1.
    9900012    2    1    2    0    0  0.31566305409E+02  0.31246604840E+02  0.75054300380E+01  0.46142318395E+02  0.10000005782E+02 0.  0.
         12    1    1    2    0    0 -0.31566305409E+02 -0.31246604840E+02 -0.75054300380E+01  0.45045681605E+02  0.00000000000E+00 0. -1.
         11    1    3    3    0    0  0.20771342924E+00 -0.22148635236E+00  0.26612471994E+00  0.40376193562E+00  0.51100000000E-03 0. -1.
        -11    1    3    3    0    0  0.20105101503E+02  0.15648766116E+02  0.65811495770E+01  0.26313694485E+02  0.51100000000E-03 0.  1.
        -12    1    3    3    0    0  0.11253490476E+02  0.15819325076E+02  0.65815574112E+00  0.19424861975E+02  0.00000000000E+00 0.  1.
</event>
<event>
 7    1  0.2323330E-008  0.4614232E+02  0.7816164E-02  0.1320468E+00
        -11   -1    0    0    0    0  0.00000000000E+00  0.00000000000E+00  0.45593999997E+02  0.45594000000E+02  0.51100000000E-03 0.  1.
         11   -1    0    0    0    0 -0.00000000000E+00 -0.00000000000E+00 -0.45593999997E+02  0.45594000000E+02  0.51100000000E-03 0. -1.
    9900012    2    1    2    0    0 -0.44720989844E+02 -0.53387236966E+01 -0.80285153377E+00  0.46142317922E+02  0.10000001465E+02 0.  0.
         12    1    1    2    0    0  0.44720989844E+02  0.53387236966E+01  0.80285153377E+00  0.45045682078E+02  0.00000000000E+00 0. -1.
         11    1    3    3    0    0 -0.15031547014E+01  0.11558916603E+01  0.58181478609E-01  0.18970885410E+01  0.51100000000E-03 0. -1.
        -11    1    3    3    0    0 -0.21593548299E+02 -0.30310688640E+00  0.13857125655E+01  0.21640087835E+02  0.51100000000E-03 0.  1.
         12    1    3    3    0    0 -0.21624286843E+02 -0.61915084705E+01 -0.22467455778E+01  0.22605141546E+02  0.00000000000E+00 0. -1.
</event>
<event>
 7    1  0.2323330E-008  0.4614232E+02  0.7816164E-02  0.1320468E+00
        -11   -1    0    0    0    0  0.00000000000E+00  0.00000000000E+00  0.45593999997E+02  0.45594000000E+02  0.51100000000E-03 0.  1.
         11   -1    0    0    0    0 -0.00000000000E+00 -0.00000000000E+00 -0.45593999997E+02  0.45594000000E+02  0.51100000000E-03 0. -1.
    9900012    2    1    2    0    0 -0.13197233399E+02 -0.42544800685E+02 -0.66997341510E+01  0.46142317938E+02  0.10000001614E+02 0.  0.
         12    1    1    2    0    0  0.13197233399E+02  0.42544800685E+02  0.66997341510E+01  0.45045682062E+02  0.00000000000E+00 0. -1.
         11    1    3    3    0    0 -0.68950823952E+00 -0.19276517916E+01 -0.74479991551E+00  0.21785293703E+01  0.51100000000E-03 0. -1.
        -11    1    3    3    0    0 -0.94315998296E+01 -0.16836173146E+02 -0.51403517366E+01  0.19970854207E+02  0.51100000000E-03 0.  1.
         12    1    3    3    0    0 -0.30761253296E+01 -0.23780975748E+02 -0.81458249885E+00  0.23992934360E+02  0.00000000000E+00 0. -1.
</event>
<event>
 7    1  0.2323330E-008  0.4614232E+02  0.7816164E-02  0.1320468E+00
        -11   -1    0    0    0    0  0.00000000000E+00  0.00000000000E+00  0.45593999997E+02  0.45594000000E+02  0.51100000000E-03 0.  1.
         11   -1    0    0    0    0 -0.00000000000E+00 -0.00000000000E+00 -0.45593999997E+02  0.45594000000E+02  0.51100000000E-03 0. -1.
    9900012    2    1    2    0    0  0.88019500048E+01  0.17428686699E+02  0.40594088932E+02  0.46142317630E+02  0.99999988049E+01 0.  0.
         12    1    1    2    0    0 -0.88019500048E+01 -0.17428686699E+02 -0.40594088932E+02  0.45045682370E+02  0.00000000000E+00 0. -1.
         11    1    3    3    0    0  0.41268566669E+01  0.50140602397E+01  0.11707926747E+02  0.13388326819E+02  0.51100000000E-03 0.  1.
        -11    1    3    3    0    0  0.32511031047E+01  0.81946552968E+01  0.25982195206E+02  0.27437137511E+02  0.51100000000E-03 0. -1.
         12    1    3    3    0    0  0.14239902332E+01  0.42199711627E+01  0.29039669797E+01  0.53168533004E+01  0.00000000000E+00 0. -1.
</event>
<event>
 7    1  0.2323330E-008  0.4614232E+02  0.7816164E-02  0.1320468E+00
        -11   -1    0    0    0    0  0.00000000000E+00  0.00000000000E+00  0.45593999997E+02  0.45594000000E+02  0.51100000000E-03 0. -1.
         11   -1    0    0    0    0 -0.00000000000E+00 -0.00000000000E+00 -0.45593999997E+02  0.45594000000E+02  0.51100000000E-03 0.  1.
    9900012    2    1    2    0    0  0.74711925003E+00 -0.59876175052E+01 -0.44639710221E+02  0.46142317863E+02  0.10000000926E+02 0.  0.
         12    1    1    2    0    0 -0.74711925003E+00  0.59876175052E+01  0.44639710221E+02  0.45045682137E+02  0.00000000000E+00 0. -1.
         11    1    3    3    0    0 -0.28274927082E+01  0.10757825437E+01 -0.64078615804E+01  0.70860929567E+01  0.51100000000E-03 0. -1.
        -11    1    3    3    0    0  0.26416966406E+00 -0.13732856664E+01 -0.68870836183E+01  0.70276326141E+01  0.51100000000E-03 0.  1.
         12    1    3    3    0    0  0.33104422941E+01 -0.56901143825E+01 -0.31344765023E+02  0.32028592292E+02  0.00000000000E+00 0. -1.
</event>
<event>
 7    1  0.2323330E-008  0.4614232E+02  0.7816164E-02  0.1320468E+00
        -11   -1    0    0    0    0  0.00000000000E+00  0.00000000000E+00  0.45593999997E+02  0.45594000000E+02  0.51100000000E-03 0.  1.
         11   -1    0    0    0    0 -0.00000000000E+00 -0.00000000000E+00 -0.45593999997E+02  0.45594000000E+02  0.51100000000E-03 0. -1.
    9900012    2    1    2    0    0 -0.17214562364E+02 -0.36364922937E+02  0.20257462061E+02  0.46142317113E+02  0.99999940916E+01 0.  0.
         12    1    1    2    0    0  0.17214562364E+02  0.36364922937E+02 -0.20257462061E+02  0.45045682887E+02  0.00000000000E+00 0. -1.
         11    1    3    3    0    0  0.27264911387E+00 -0.30328456778E+01 -0.29891685474E+00  0.30597127303E+01  0.51100000000E-03 0. -1.
        -11    1    3    3    0    0 -0.13213754347E+02 -0.28477559410E+02  0.16938079574E+02  0.35671742792E+02  0.51100000000E-03 0.  1.
        -12    1    3    3    0    0 -0.42734571306E+01 -0.48545178492E+01  0.36182993418E+01  0.74108615911E+01  0.00000000000E+00 0.  1.
</event>
<event>
 7    1  0.2323330E-008  0.4614232E+02  0.7816164E-02  0.1320468E+00
        -11   -1    0    0    0    0  0.00000000000E+00  0.00000000000E+00  0.45593999997E+02  0.45594000000E+02  0.51100000000E-03 0.  1.
         11   -1    0    0    0    0 -0.00000000000E+00 -0.00000000000E+00 -0.45593999997E+02  0.45594000000E+02  0.51100000000E-03 0. -1.
    9900012    2    1    2    0    0  0.40468683094E+02 -0.14340669619E+02  0.13628805878E+02  0.46142318008E+02  0.10000002248E+02 0.  0.
         12    1    1    2    0    0 -0.40468683094E+02  0.14340669619E+02 -0.13628805878E+02  0.45045681992E+02  0.00000000000E+00 0. -1.
         11    1    3    3    0    0  0.75581943531E+00  0.69004654421E+00  0.10223843922E+01  0.14466158296E+01  0.51100000000E-03 0. -1.
        -11    1    3    3    0    0  0.10085533332E+02 -0.65945016167E+01  0.28494380079E+01  0.12382436408E+02  0.51100000000E-03 0.  1.
        -12    1    3    3    0    0  0.29627330326E+02 -0.84362145464E+01  0.97569834781E+01  0.32313265770E+02  0.00000000000E+00 0.  1.
</event>
<event>
 7    1  0.2323330E-008  0.4614232E+02  0.7816164E-02  0.1320468E+00
        -11   -1    0    0    0    0  0.00000000000E+00  0.00000000000E+00  0.45593999997E+02  0.45594000000E+02  0.51100000000E-03 0.  1.
         11   -1    0    0    0    0 -0.00000000000E+00 -0.00000000000E+00 -0.45593999997E+02  0.45594000000E+02  0.51100000000E-03 0. -1.
    9900012    2    1    2    0    0  0.39768344402E+02  0.20358342423E+02 -0.57558861048E+01  0.46142317104E+02  0.99999940113E+01 0.  0.
         12    1    1    2    0    0 -0.39768344402E+02 -0.20358342423E+02  0.57558861048E+01  0.45045682896E+02  0.00000000000E+00 0. -1.
         11    1    3    3    0    0  0.30850607636E+01  0.17110486173E+01  0.12318350687E+01  0.37366703338E+01  0.51100000000E-03 0. -1.
        -11    1    3    3    0    0  0.18572448983E+02  0.70404006257E+01 -0.24835162115E+00  0.19863654774E+02  0.51100000000E-03 0.  1.
        -12    1    3    3    0    0  0.18110834655E+02  0.11606893180E+02 -0.67393695524E+01  0.22541991997E+02  0.00000000000E+00 0.  1.
</event>
<event>
 7    1  0.2323330E-008  0.4614232E+02  0.7816164E-02  0.1320468E+00
        -11   -1    0    0    0    0  0.00000000000E+00  0.00000000000E+00  0.45593999997E+02  0.45594000000E+02  0.51100000000E-03 0.  1.
         11   -1    0    0    0    0 -0.00000000000E+00 -0.00000000000E+00 -0.45593999997E+02  0.45594000000E+02  0.51100000000E-03 0. -1.
    9900012    2    1    2    0    0 -0.32322350542E+02  0.16151272279E+02  0.26898244496E+02  0.46142317657E+02  0.99999990503E+01 0.  0.
         12    1    1    2    0    0  0.32322350542E+02 -0.16151272279E+02 -0.26898244496E+02  0.45045682343E+02  0.00000000000E+00 0. -1.
         11    1    3    3    0    0 -0.49331851041E+01 -0.20729807389E+00  0.55765025678E+01  0.74482661682E+01  0.51100000000E-03 0. -1.
        -11    1    3    3    0    0 -0.11171331052E+02  0.70065268195E+01  0.59331128093E+01  0.14460009800E+02  0.51100000000E-03 0.  1.
        -12    1    3    3    0    0 -0.16217834386E+02  0.93520435337E+01  0.15388629119E+02  0.24234041689E+02  0.00000000000E+00 0.  1.
</event>
<event>
 7    1  0.2323330E-008  0.4614232E+02  0.7816164E-02  0.1320468E+00
        -11   -1    0    0    0    0  0.00000000000E+00  0.00000000000E+00  0.45593999997E+02  0.45594000000E+02  0.51100000000E-03 0.  1.
         11   -1    0    0    0    0 -0.00000000000E+00 -0.00000000000E+00 -0.45593999997E+02  0.45594000000E+02  0.51100000000E-03 0. -1.
    9900012    2    1    2    0    0 -0.27289427979E+02  0.67136711432E+01  0.35204078060E+02  0.46142319056E+02  0.10000011806E+02 0.  0.
         12    1    1    2    0    0  0.27289427979E+02 -0.67136711432E+01 -0.35204078060E+02  0.45045680944E+02  0.00000000000E+00 0. -1.
         11    1    3    3    0    0 -0.53360962151E+01  0.58039936621E-01  0.90475035952E+01  0.10504028419E+02  0.51100000000E-03 0. -1.
        -11    1    3    3    0    0 -0.15122648290E+02  0.39697951031E+01  0.22602810940E+02  0.27483464613E+02  0.51100000000E-03 0.  1.
         12    1    3    3    0    0 -0.68306834742E+01  0.26858361034E+01  0.35537635247E+01  0.81548260245E+01  0.00000000000E+00 0. -1.
</event>
<event>
 7    1  0.2323330E-008  0.4614232E+02  0.7816164E-02  0.1320468E+00
        -11   -1    0    0    0    0  0.00000000000E+00  0.00000000000E+00  0.45593999997E+02  0.45594000000E+02  0.51100000000E-03 0.  1.
         11   -1    0    0    0    0 -0.00000000000E+00 -0.00000000000E+00 -0.45593999997E+02  0.45594000000E+02  0.51100000000E-03 0. -1.
    9900012    2    1    2    0    0 -0.12635558796E+02  0.12100003849E+02  0.41509589109E+02  0.46142318440E+02  0.10000006187E+02 0.  0.
         12    1    1    2    0    0  0.12635558796E+02 -0.12100003849E+02 -0.41509589109E+02  0.45045681560E+02  0.00000000000E+00 0. -1.
         11    1    3    3    0    0 -0.55565459052E+01  0.93402082886E+01  0.19188328225E+02  0.22052361180E+02  0.51100000000E-03 0. -1.
        -11    1    3    3    0    0 -0.78136791101E+01  0.21741271615E+01  0.19635749231E+02  0.21244836037E+02  0.51100000000E-03 0.  1.
         12    1    3    3    0    0  0.73466621973E+00  0.58566839847E+00  0.26855116538E+01  0.28451212224E+01  0.00000000000E+00 0. -1.
</event>
<event>
 7    1  0.2323330E-008  0.4614232E+02  0.7816164E-02  0.1320468E+00
        -11   -1    0    0    0    0  0.00000000000E+00  0.00000000000E+00  0.45593999997E+02  0.45594000000E+02  0.51100000000E-03 0. -1.
         11   -1    0    0    0    0 -0.00000000000E+00 -0.00000000000E+00 -0.45593999997E+02  0.45594000000E+02  0.51100000000E-03 0.  1.
    9900012    2    1    2    0    0 -0.61104988744E+01 -0.37972382769E+02 -0.23449379767E+02  0.46142318064E+02  0.10000002763E+02 0.  0.
         12    1    1    2    0    0  0.61104988744E+01  0.37972382769E+02  0.23449379767E+02  0.45045681936E+02  0.00000000000E+00 0. -1.
         11    1    3    3    0    0  0.19287437125E-01 -0.18317124534E+01 -0.16516579895E+00  0.18392450950E+01  0.51100000000E-03 0. -1.
        -11    1    3    3    0    0 -0.29800214606E+01 -0.58310676523E+01 -0.11712161448E+01  0.66523398432E+01  0.51100000000E-03 0.  1.
        -12    1    3    3    0    0 -0.31497648510E+01 -0.30309602663E+02 -0.22112997823E+02  0.37650733126E+02  0.00000000000E+00 0.  1.
</event>
<event>
 7    1  0.2519863E-008  0.4614232E+02  0.7816164E-02  0.1320468E+00
        -11   -1    0    0    0    0  0.00000000000E+00  0.00000000000E+00  0.45593999997E+02  0.45594000000E+02  0.51100000000E-03 0.  1.
         11   -1    0    0    0    0 -0.00000000000E+00 -0.00000000000E+00 -0.45593999997E+02  0.45594000000E+02  0.51100000000E-03 0. -1.
    9900012    2    1    2    0    0  0.43959520343E+02  0.55409259128E+01 -0.81223264059E+01  0.46142317910E+02  0.10000001357E+02 0.  0.
         12    1    1    2    0    0 -0.43959520343E+02 -0.55409259128E+01  0.81223264059E+01  0.45045682090E+02  0.00000000000E+00 0. -1.
         11    1    3    3    0    0  0.21338474960E+01 -0.10728803609E+01 -0.19433619724E+01  0.30791286790E+01  0.51100000000E-03 0. -1.
        -11    1    3    3    0    0  0.18671794246E+02  0.34679136356E+01 -0.51357951218E+01  0.19673299600E+02  0.51100000000E-03 0.  1.
         12    1    3    3    0    0  0.23153878600E+02  0.31458926381E+01 -0.10431693117E+01  0.23389889631E+02  0.00000000000E+00 0. -1.
</event>
<event>
 7    1  0.2323330E-008  0.4614232E+02  0.7816164E-02  0.1320468E+00
        -11   -1    0    0    0    0  0.00000000000E+00  0.00000000000E+00  0.45593999997E+02  0.45594000000E+02  0.51100000000E-03 0.  1.
         11   -1    0    0    0    0 -0.00000000000E+00 -0.00000000000E+00 -0.45593999997E+02  0.45594000000E+02  0.51100000000E-03 0. -1.
    9900012    2    1    2    0    0 -0.13481474484E+02  0.27881081599E+02  0.32710984426E+02  0.46142319103E+02  0.10000012236E+02 0.  0.
         12    1    1    2    0    0  0.13481474484E+02 -0.27881081599E+02 -0.32710984426E+02  0.45045680897E+02  0.00000000000E+00 0. -1.
         11    1    3    3    0    0 -0.94410186081E+01  0.18531014904E+02  0.20060460314E+02  0.28895560455E+02  0.51100000000E-03 0. -1.
        -11    1    3    3    0    0 -0.35448276902E+01  0.10147035672E+02  0.11969618579E+02  0.16087259104E+02  0.51100000000E-03 0.  1.
         12    1    3    3    0    0 -0.49562818528E+00 -0.79696897717E+00  0.68090553242E+00  0.11594995441E+01  0.00000000000E+00 0. -1.
</event>
<event>
 7    1  0.2323330E-008  0.4614232E+02  0.7816164E-02  0.1320468E+00
        -11   -1    0    0    0    0  0.00000000000E+00  0.00000000000E+00  0.45593999997E+02  0.45594000000E+02  0.51100000000E-03 0. -1.
         11   -1    0    0    0    0 -0.00000000000E+00 -0.00000000000E+00 -0.45593999997E+02  0.45594000000E+02  0.51100000000E-03 0.  1.
    9900012    2    1    2    0    0 -0.26804212505E+02  0.84422419381E+01 -0.35204774888E+02  0.46142318388E+02  0.10000005716E+02 0.  0.
         12    1    1    2    0    0  0.26804212505E+02 -0.84422419381E+01  0.35204774888E+02  0.45045681612E+02  0.00000000000E+00 0. -1.
         11    1    3    3    0    0 -0.84139457899E+00 -0.51513654201E+00 -0.27597677686E+01  0.29308068671E+01  0.51100000000E-03 0. -1.
        -11    1    3    3    0    0 -0.10111562052E+02  0.74615830509E+01 -0.15615755613E+02  0.20044219426E+02  0.51100000000E-03 0.  1.
         12    1    3    3    0    0 -0.15851255874E+02  0.14957954292E+01 -0.16829251507E+02  0.23167292095E+02  0.00000000000E+00 0. -1.
</event>
<event>
 7    1  0.2323330E-008  0.4614232E+02  0.7816164E-02  0.1320468E+00
        -11   -1    0    0    0    0  0.00000000000E+00  0.00000000000E+00  0.45593999997E+02  0.45594000000E+02  0.51100000000E-03 0. -1.
         11   -1    0    0    0    0 -0.00000000000E+00 -0.00000000000E+00 -0.45593999997E+02  0.45594000000E+02  0.51100000000E-03 0.  1.
    9900012    2    1    2    0    0  0.81440401554E+01 -0.42366869640E+02 -0.12955168373E+02  0.46142318512E+02  0.10000006847E+02 0.  0.
         12    1    1    2    0    0 -0.81440401554E+01  0.42366869640E+02  0.12955168373E+02  0.45045681488E+02  0.00000000000E+00 0. -1.
         11    1    3    3    0    0  0.76000594581E+01 -0.25756718732E+02 -0.94388987421E+01  0.28465106241E+02  0.51100000000E-03 0. -1.
        -11    1    3    3    0    0 -0.19536367978E+01 -0.64862562575E+01 -0.24154115745E+01  0.71918308038E+01  0.51100000000E-03 0.  1.
        -12    1    3    3    0    0  0.24976174951E+01 -0.10123894651E+02 -0.11008580568E+01  0.10485381467E+02  0.00000000000E+00 0.  1.
</event>
<event>
 7    1  0.2323330E-008  0.4614232E+02  0.7816164E-02  0.1320468E+00
        -11   -1    0    0    0    0  0.00000000000E+00  0.00000000000E+00  0.45593999997E+02  0.45594000000E+02  0.51100000000E-03 0.  1.
         11   -1    0    0    0    0 -0.00000000000E+00 -0.00000000000E+00 -0.45593999997E+02  0.45594000000E+02  0.51100000000E-03 0. -1.
    9900012    2    1    2    0    0  0.15056264393E+02  0.31060275036E+02  0.28942729685E+02  0.46142318915E+02  0.10000010524E+02 0.  0.
         12    1    1    2    0    0 -0.15056264393E+02 -0.31060275036E+02 -0.28942729685E+02  0.45045681085E+02  0.00000000000E+00 0. -1.
         11    1    3    3    0    0  0.96403503955E+01  0.16824071287E+02  0.15393530001E+02  0.24757756291E+02  0.51100000000E-03 0. -1.
        -11    1    3    3    0    0  0.50457256665E+01  0.14812569076E+02  0.12097317560E+02  0.19779197217E+02  0.51100000000E-03 0.  1.
         12    1    3    3    0    0  0.37018833111E+00 -0.57636532669E+00  0.14518821235E+01  0.16053654072E+01  0.00000000000E+00 0. -1.
</event>
<event>
 7    1  0.2323330E-008  0.4614231E+02  0.7816164E-02  0.1320468E+00
        -11   -1    0    0    0    0  0.00000000000E+00  0.00000000000E+00  0.45593999997E+02  0.45594000000E+02  0.51100000000E-03 0.  1.
         11   -1    0    0    0    0 -0.00000000000E+00 -0.00000000000E+00 -0.45593999997E+02  0.45594000000E+02  0.51100000000E-03 0. -1.
    9900012    2    1    2    0    0 -0.26048082539E+02 -0.27166763084E+02  0.24750321773E+02  0.46142311546E+02  0.99999433283E+01 0.  0.
         12    1    1    2    0    0  0.26048082539E+02  0.27166763084E+02 -0.24750321773E+02  0.45045688454E+02  0.00000000000E+00 0. -1.
         11    1    3    3    0    0 -0.14783735428E+02 -0.11765881427E+02  0.10987080784E+02  0.21856594963E+02  0.51100000000E-03 0. -1.
        -11    1    3    3    0    0 -0.90301309494E+01 -0.99374426496E+01  0.12288319110E+02  0.18201615812E+02  0.51100000000E-03 0.  1.
         12    1    3    3    0    0 -0.22342161618E+01 -0.54634390071E+01  0.14749218787E+01  0.60841007709E+01  0.00000000000E+00 0. -1.
</event>
<event>
 7    1  0.2323330E-008  0.4614232E+02  0.7816164E-02  0.1320468E+00
        -11   -1    0    0    0    0  0.00000000000E+00  0.00000000000E+00  0.45593999997E+02  0.45594000000E+02  0.51100000000E-03 0.  1.
         11   -1    0    0    0    0 -0.00000000000E+00 -0.00000000000E+00 -0.45593999997E+02  0.45594000000E+02  0.51100000000E-03 0. -1.
    9900012    2    1    2    0    0  0.24791285522E+02  0.37455923467E+02  0.33999165764E+01  0.46142317928E+02  0.10000001519E+02 0.  0.
         12    1    1    2    0    0 -0.24791285522E+02 -0.37455923467E+02 -0.33999165764E+01  0.45045682072E+02  0.00000000000E+00 0. -1.
         11    1    3    3    0    0  0.21993034652E+01  0.29689073994E+01 -0.22529532124E+01  0.43274871828E+01  0.51100000000E-03 0. -1.
        -11    1    3    3    0    0  0.10668991417E+02  0.19690408897E+02  0.22220564654E+01  0.22505046447E+02  0.51100000000E-03 0.  1.
         12    1    3    3    0    0  0.11922990640E+02  0.14796607171E+02  0.34308133235E+01  0.19309784298E+02  0.00000000000E+00 0. -1.
</event>
<event>
 7    1  0.2323330E-008  0.4614230E+02  0.7816164E-02  0.1320468E+00
        -11   -1    0    0    0    0  0.00000000000E+00  0.00000000000E+00  0.45593999997E+02  0.45594000000E+02  0.51100000000E-03 0. -1.
         11   -1    0    0    0    0 -0.00000000000E+00 -0.00000000000E+00 -0.45593999997E+02  0.45594000000E+02  0.51100000000E-03 0.  1.
    9900012    2    1    2    0    0  0.44535163244E+01  0.98900202409E+01 -0.43720343975E+02  0.46142303366E+02  0.99998687297E+01 0.  0.
         12    1    1    2    0    0 -0.44535163244E+01 -0.98900202409E+01  0.43720343975E+02  0.45045696634E+02  0.00000000000E+00 0. -1.
         11    1    3    3    0    0  0.36858119879E+01  0.59962622137E+01 -0.18339701733E+02  0.19643956588E+02  0.51100000000E-03 0. -1.
        -11    1    3    3    0    0  0.32387195915E+01  0.37981055640E+01 -0.19278033204E+02  0.19913750901E+02  0.51100000000E-03 0.  1.
         12    1    3    3    0    0 -0.24710152549E+01  0.95652463205E-01 -0.61026090384E+01  0.65845958767E+01  0.00000000000E+00 0. -1.
</event>
<event>
 7    1  0.2323330E-008  0.4614232E+02  0.7816164E-02  0.1320468E+00
        -11   -1    0    0    0    0  0.00000000000E+00  0.00000000000E+00  0.45593999997E+02  0.45594000000E+02  0.51100000000E-03 0.  1.
         11   -1    0    0    0    0 -0.00000000000E+00 -0.00000000000E+00 -0.45593999997E+02  0.45594000000E+02  0.51100000000E-03 0. -1.
    9900012    2    1    2    0    0 -0.38390713404E+02  0.11755500854E+02  0.20422409216E+02  0.46142317919E+02  0.10000001436E+02 0.  0.
         12    1    1    2    0    0  0.38390713404E+02 -0.11755500854E+02 -0.20422409216E+02  0.45045682081E+02  0.00000000000E+00 0. -1.
         11    1    3    3    0    0 -0.10193765726E+02  0.29402828719E+01  0.59362482574E+01  0.12157185804E+02  0.51100000000E-03 0. -1.
        -11    1    3    3    0    0 -0.16362266924E+02  0.82749562995E+00  0.65012394739E+01  0.17625965019E+02  0.51100000000E-03 0.  1.
         12    1    3    3    0    0 -0.11834680754E+02  0.79877223526E+01  0.79849214848E+01  0.16359167095E+02  0.00000000000E+00 0. -1.
</event>
<event>
 7    1  0.2323330E-008  0.4614232E+02  0.7816164E-02  0.1320468E+00
        -11   -1    0    0    0    0  0.00000000000E+00  0.00000000000E+00  0.45593999997E+02  0.45594000000E+02  0.51100000000E-03 0.  1.
         11   -1    0    0    0    0 -0.00000000000E+00 -0.00000000000E+00 -0.45593999997E+02  0.45594000000E+02  0.51100000000E-03 0. -1.
    9900012    2    1    2    0    0  0.10840026902E+02  0.12827992446E+01  0.43703108538E+02  0.46142318154E+02  0.10000003579E+02 0.  0.
         12    1    1    2    0    0 -0.10840026902E+02 -0.12827992446E+01 -0.43703108538E+02  0.45045681846E+02  0.00000000000E+00 0. -1.
         11    1    3    3    0    0  0.24673938613E+01  0.15781409464E+01  0.17175395859E+02  0.17423340222E+02  0.51100000000E-03 0.  1.
        -11    1    3    3    0    0  0.40286814891E+00  0.22868698240E+01  0.89591030266E+01  0.92551393096E+01  0.51100000000E-03 0. -1.
        -12    1    3    3    0    0  0.79697648918E+01 -0.25822115258E+01  0.17568609652E+02  0.19463838622E+02  0.00000000000E+00 0.  1.
</event>
<event>
 7    1  0.2323330E-008  0.4614232E+02  0.7816164E-02  0.1320468E+00
        -11   -1    0    0    0    0  0.00000000000E+00  0.00000000000E+00  0.45593999997E+02  0.45594000000E+02  0.51100000000E-03 0. -1.
         11   -1    0    0    0    0 -0.00000000000E+00 -0.00000000000E+00 -0.45593999997E+02  0.45594000000E+02  0.51100000000E-03 0.  1.
    9900012    2    1    2    0    0 -0.43602448881E+02 -0.67843970718E+00 -0.11290686484E+02  0.46142318407E+02  0.10000005894E+02 0.  0.
         12    1    1    2    0    0  0.43602448881E+02  0.67843970718E+00  0.11290686484E+02  0.45045681593E+02  0.00000000000E+00 0. -1.
         11    1    3    3    0    0 -0.59585358054E+01 -0.28954359637E+01 -0.75117932624E+00  0.66672309849E+01  0.51100000000E-03 0. -1.
        -11    1    3    3    0    0 -0.71608830153E+01  0.15876302014E+01 -0.37540079371E+01  0.82396232358E+01  0.51100000000E-03 0.  1.
        -12    1    3    3    0    0 -0.30483030060E+02  0.62936605507E+00 -0.67854992206E+01  0.31235464187E+02  0.00000000000E+00 0.  1.
</event>
<event>
 7    1  0.2323330E-008  0.4614233E+02  0.7816164E-02  0.1320468E+00
        -11   -1    0    0    0    0  0.00000000000E+00  0.00000000000E+00  0.45593999997E+02  0.45594000000E+02  0.51100000000E-03 0. -1.
         11   -1    0    0    0    0 -0.00000000000E+00 -0.00000000000E+00 -0.45593999997E+02  0.45594000000E+02  0.51100000000E-03 0.  1.
    9900012    2    1    2    0    0 -0.29952444885E+02  0.78813999828E+01 -0.32708509494E+02  0.46142334131E+02  0.10000149274E+02 0.  0.
         12    1    1    2    0    0  0.29952444885E+02 -0.78813999828E+01  0.32708509494E+02  0.45045665869E+02  0.00000000000E+00 0. -1.
         11    1    3    3    0    0 -0.34939769938E+01  0.25548478650E+01 -0.90990255614E+01  0.10076080055E+02  0.51100000000E-03 0. -1.
        -11    1    3    3    0    0 -0.30884503166E+00  0.52038394817E-01  0.14628211146E+00  0.34567609893E+00  0.51100000000E-03 0.  1.
        -12    1    3    3    0    0 -0.26149622859E+02  0.52745137230E+01 -0.23755766044E+02  0.35720577977E+02  0.00000000000E+00 0.  1.
</event>
<event>
 7    1  0.2323330E-008  0.4614233E+02  0.7816164E-02  0.1320468E+00
        -11   -1    0    0    0    0  0.00000000000E+00  0.00000000000E+00  0.45593999997E+02  0.45594000000E+02  0.51100000000E-03 0.  1.
         11   -1    0    0    0    0 -0.00000000000E+00 -0.00000000000E+00 -0.45593999997E+02  0.45594000000E+02  0.51100000000E-03 0. -1.
    9900012    2    1    2    0    0  0.38059799949E+02  0.21720767171E+02  0.10429389896E+02  0.46142331260E+02  0.10000123091E+02 0.  0.
         12    1    1    2    0    0 -0.38059799949E+02 -0.21720767171E+02 -0.10429389896E+02  0.45045668740E+02  0.00000000000E+00 0. -1.
         11    1    3    3    0    0  0.12032516024E+02  0.80067309261E+01  0.79767474353E+01  0.16508109580E+02  0.51100000000E-03 0. -1.
        -11    1    3    3    0    0  0.15196106677E+02  0.67468632175E+01  0.74761478488E+00  0.16643339495E+02  0.51100000000E-03 0.  1.
         12    1    3    3    0    0  0.10831177248E+02  0.69671730274E+01  0.17050276762E+01  0.12990882185E+02  0.00000000000E+00 0. -1.
</event>
<event>
 7    1  0.2323330E-008  0.4614232E+02  0.7816164E-02  0.1320468E+00
        -11   -1    0    0    0    0  0.00000000000E+00  0.00000000000E+00  0.45593999997E+02  0.45594000000E+02  0.51100000000E-03 0.  1.
         11   -1    0    0    0    0 -0.00000000000E+00 -0.00000000000E+00 -0.45593999997E+02  0.45594000000E+02  0.51100000000E-03 0. -1.
    9900012    2    1    2    0    0  0.28582032464E+01 -0.23675296119E+02  0.38215501433E+02  0.46142317389E+02  0.99999966045E+01 0.  0.
         12    1    1    2    0    0 -0.28582032464E+01  0.23675296119E+02 -0.38215501433E+02  0.45045682611E+02  0.00000000000E+00 0. -1.
         11    1    3    3    0    0 -0.14496035076E+01 -0.13509360481E+02  0.19339895097E+02  0.23635475742E+02  0.51100000000E-03 0. -1.
        -11    1    3    3    0    0  0.50863384282E+01 -0.61233140362E+01  0.10522142414E+02  0.13193987064E+02  0.51100000000E-03 0.  1.
         12    1    3    3    0    0 -0.77853167423E+00 -0.40426216015E+01  0.83534639225E+01  0.93128545831E+01  0.00000000000E+00 0. -1.
</event>
<event>
 7    1  0.2323330E-008  0.4614232E+02  0.7816164E-02  0.1320468E+00
        -11   -1    0    0    0    0  0.00000000000E+00  0.00000000000E+00  0.45593999997E+02  0.45594000000E+02  0.51100000000E-03 0.  1.
         11   -1    0    0    0    0 -0.00000000000E+00 -0.00000000000E+00 -0.45593999997E+02  0.45594000000E+02  0.51100000000E-03 0. -1.
    9900012    2    1    2    0    0  0.16229917436E+02 -0.21576404403E+02  0.36057760916E+02  0.46142316863E+02  0.99999918140E+01 0.  0.
         12    1    1    2    0    0 -0.16229917436E+02  0.21576404403E+02 -0.36057760916E+02  0.45045683137E+02  0.00000000000E+00 0. -1.
         11    1    3    3    0    0 -0.11746313369E+00 -0.16199109668E+01  0.91551271339E+00  0.18644229449E+01  0.51100000000E-03 0. -1.
        -11    1    3    3    0    0  0.59481005964E+01 -0.11811731467E+02  0.21835780312E+02  0.25528380345E+02  0.51100000000E-03 0.  1.
        -12    1    3    3    0    0  0.10399279974E+02 -0.81447619688E+01  0.13306467891E+02  0.18749513573E+02  0.00000000000E+00 0.  1.
</event>
<event>
 7    1  0.2323330E-008  0.4614232E+02  0.7816164E-02  0.1320468E+00
        -11   -1    0    0    0    0  0.00000000000E+00  0.00000000000E+00  0.45593999997E+02  0.45594000000E+02  0.51100000000E-03 0.  1.
         11   -1    0    0    0    0 -0.00000000000E+00 -0.00000000000E+00 -0.45593999997E+02  0.45594000000E+02  0.51100000000E-03 0. -1.
    9900012    2    1    2    0    0  0.85398123692E+00  0.41424691234E+02  0.17674249616E+02  0.46142318440E+02  0.10000006187E+02 0.  0.
         12    1    1    2    0    0 -0.85398123692E+00 -0.41424691234E+02 -0.17674249616E+02  0.45045681560E+02  0.00000000000E+00 0. -1.
         11    1    3    3    0    0  0.70030205315E+00  0.29680282487E+01  0.34221714425E+01  0.45837618059E+01  0.51100000000E-03 0.  1.
        -11    1    3    3    0    0  0.23110730359E+01  0.23002493697E+02  0.58973486557E+01  0.23858635676E+02  0.51100000000E-03 0. -1.
         12    1    3    3    0    0 -0.21573938521E+01  0.15454169287E+02  0.83547295179E+01  0.17699920958E+02  0.00000000000E+00 0. -1.
</event>
<event>
 7    1  0.2323330E-008  0.4614232E+02  0.7816164E-02  0.1320468E+00
        -11   -1    0    0    0    0  0.00000000000E+00  0.00000000000E+00  0.45593999997E+02  0.45594000000E+02  0.51100000000E-03 0.  1.
         11   -1    0    0    0    0 -0.00000000000E+00 -0.00000000000E+00 -0.45593999997E+02  0.45594000000E+02  0.51100000000E-03 0. -1.
    9900012    2    1    2    0    0  0.11551965995E+02 -0.17122536865E+02  0.40031041207E+02  0.46142318219E+02  0.10000004174E+02 0.  0.
         12    1    1    2    0    0 -0.11551965995E+02  0.17122536865E+02 -0.40031041207E+02  0.45045681781E+02  0.00000000000E+00 0. -1.
         11    1    3    3    0    0  0.11019819111E+01  0.11007406161E+01  0.19131261054E+01  0.24669912429E+01  0.51100000000E-03 0. -1.
        -11    1    3    3    0    0  0.26098016112E+01 -0.79104976971E+01  0.16168074709E+02  0.18187734282E+02  0.51100000000E-03 0.  1.
         12    1    3    3    0    0  0.78401824724E+01 -0.10312779784E+02  0.21949840392E+02  0.25487592694E+02  0.00000000000E+00 0. -1.
</event>
<event>
 7    1  0.2323330E-008  0.4614232E+02  0.7816164E-02  0.1320468E+00
        -11   -1    0    0    0    0  0.00000000000E+00  0.00000000000E+00  0.45593999997E+02  0.45594000000E+02  0.51100000000E-03 0.  1.
         11   -1    0    0    0    0 -0.00000000000E+00 -0.00000000000E+00 -0.45593999997E+02  0.45594000000E+02  0.51100000000E-03 0. -1.
    9900012    2    1    2    0    0 -0.15945297512E+02  0.41244625362E+02 -0.85873061620E+01  0.46142318064E+02  0.10000002764E+02 0.  0.
         12    1    1    2    0    0  0.15945297512E+02 -0.41244625362E+02  0.85873061620E+01  0.45045681936E+02  0.00000000000E+00 0. -1.
         11    1    3    3    0    0 -0.72800185289E+00  0.16634740480E+01 -0.24281518584E+01  0.30320049991E+01  0.51100000000E-03 0. -1.
        -11    1    3    3    0    0 -0.28288181673E+01  0.99448337321E+01  0.30977102919E+00  0.10343978371E+02  0.51100000000E-03 0.  1.
         12    1    3    3    0    0 -0.12388477491E+02  0.29636317581E+02 -0.64689253328E+01  0.32766334694E+02  0.00000000000E+00 0. -1.
</event>
<event>
 7    1  0.2323330E-008  0.4614232E+02  0.7816164E-02  0.1320468E+00
        -11   -1    0    0    0    0  0.00000000000E+00  0.00000000000E+00  0.45593999997E+02  0.45594000000E+02  0.51100000000E-03 0. -1.
         11   -1    0    0    0    0 -0.00000000000E+00 -0.00000000000E+00 -0.45593999997E+02  0.45594000000E+02  0.51100000000E-03 0.  1.
    9900012    2    1    2    0    0  0.72316963509E+01  0.28298889143E+02 -0.34292694667E+02  0.46142318005E+02  0.10000002226E+02 0.  0.
         12    1    1    2    0    0 -0.72316963509E+01 -0.28298889143E+02  0.34292694667E+02  0.45045681995E+02  0.00000000000E+00 0. -1.
         11    1    3    3    0    0  0.61363249787E+01  0.18429913657E+02 -0.16796419812E+02  0.25679484427E+02  0.51100000000E-03 0. -1.
        -11    1    3    3    0    0  0.20104858587E+01  0.92719791552E+01 -0.16130819307E+02  0.18714031704E+02  0.51100000000E-03 0.  1.
         12    1    3    3    0    0 -0.91511448649E+00  0.59699633035E+00 -0.13654555489E+01  0.17488018750E+01  0.00000000000E+00 0. -1.
</event>
<event>
 7    1  0.2323330E-008  0.4614232E+02  0.7816164E-02  0.1320468E+00
        -11   -1    0    0    0    0  0.00000000000E+00  0.00000000000E+00  0.45593999997E+02  0.45594000000E+02  0.51100000000E-03 0.  1.
         11   -1    0    0    0    0 -0.00000000000E+00 -0.00000000000E+00 -0.45593999997E+02  0.45594000000E+02  0.51100000000E-03 0. -1.
    9900012    2    1    2    0    0 -0.42393321970E+01  0.30777077544E+02  0.32617679742E+02  0.46142317950E+02  0.10000001718E+02 0.  0.
         12    1    1    2    0    0  0.42393321970E+01 -0.30777077544E+02 -0.32617679742E+02  0.45045682050E+02  0.00000000000E+00 0. -1.
         11    1    3    3    0    0 -0.20989675974E+01  0.60997549916E+01  0.64162037111E+01  0.90983705275E+01  0.51100000000E-03 0. -1.
        -11    1    3    3    0    0 -0.23560073151E+01  0.11594457332E+02  0.68114119160E+01  0.13652016109E+02  0.51100000000E-03 0.  1.
        -12    1    3    3    0    0  0.21564271555E+00  0.13082865220E+02  0.19390064115E+02  0.23391931313E+02  0.00000000000E+00 0.  1.
</event>
<event>
 7    1  0.2323330E-008  0.4614232E+02  0.7816164E-02  0.1320468E+00
        -11   -1    0    0    0    0  0.00000000000E+00  0.00000000000E+00  0.45593999997E+02  0.45594000000E+02  0.51100000000E-03 0.  1.
         11   -1    0    0    0    0 -0.00000000000E+00 -0.00000000000E+00 -0.45593999997E+02  0.45594000000E+02  0.51100000000E-03 0. -1.
    9900012    2    1    2    0    0  0.37142574899E+02 -0.27679074862E+01  0.25335377340E+02  0.46142317333E+02  0.99999960941E+01 0.  0.
         12    1    1    2    0    0 -0.37142574899E+02  0.27679074862E+01 -0.25335377340E+02  0.45045682667E+02  0.00000000000E+00 0. -1.
         11    1    3    3    0    0  0.70513866785E+01  0.15335925177E+01  0.58709943689E+01  0.93028240465E+01  0.51100000000E-03 0. -1.
        -11    1    3    3    0    0  0.27268036277E+00 -0.88680475845E+00 -0.21146737873E+00  0.95157552157E+00  0.51100000000E-03 0.  1.
        -12    1    3    3    0    0  0.29818507858E+02 -0.34146952455E+01  0.19675850350E+02  0.35887917765E+02  0.00000000000E+00 0.  1.
</event>
<event>
 7    1  0.2323330E-008  0.4614232E+02  0.7816164E-02  0.1320468E+00
        -11   -1    0    0    0    0  0.00000000000E+00  0.00000000000E+00  0.45593999997E+02  0.45594000000E+02  0.51100000000E-03 0. -1.
         11   -1    0    0    0    0 -0.00000000000E+00 -0.00000000000E+00 -0.45593999997E+02  0.45594000000E+02  0.51100000000E-03 0.  1.
    9900012    2    1    2    0    0 -0.24201265627E+02 -0.21782104641E+02  0.31127996688E+02  0.46142317428E+02  0.99999969640E+01 0.  0.
         12    1    1    2    0    0  0.24201265627E+02  0.21782104641E+02 -0.31127996688E+02  0.45045682572E+02  0.00000000000E+00 0. -1.
         11    1    3    3    0    0 -0.18059790301E+01 -0.41004925263E+01  0.25070288836E+01  0.51342763171E+01  0.51100000000E-03 0. -1.
        -11    1    3    3    0    0 -0.10771350811E+02 -0.62412048378E+01  0.16589596119E+02  0.20741006141E+02  0.51100000000E-03 0.  1.
        -12    1    3    3    0    0 -0.11623935786E+02 -0.11440407277E+02  0.12031371686E+02  0.20267034970E+02  0.00000000000E+00 0.  1.
</event>
<event>
 7    1  0.2323330E-008  0.4614232E+02  0.7816164E-02  0.1320468E+00
        -11   -1    0    0    0    0  0.00000000000E+00  0.00000000000E+00  0.45593999997E+02  0.45594000000E+02  0.51100000000E-03 0. -1.
         11   -1    0    0    0    0 -0.00000000000E+00 -0.00000000000E+00 -0.45593999997E+02  0.45594000000E+02  0.51100000000E-03 0.  1.
    9900012    2    1    2    0    0 -0.89612025849E+01 -0.29219766069E+02 -0.33091021469E+02  0.46142316713E+02  0.99999904424E+01 0.  0.
         12    1    1    2    0    0  0.89612025849E+01  0.29219766069E+02  0.33091021469E+02  0.45045683287E+02  0.00000000000E+00 0. -1.
         11    1    3    3    0    0  0.11693380522E+01 -0.90315428587E+01 -0.99746928447E+01  0.13506687806E+02  0.51100000000E-03 0. -1.
        -11    1    3    3    0    0 -0.13093640812E+01 -0.28433692043E+01 -0.57837897838E+01  0.65765802096E+01  0.51100000000E-03 0.  1.
         12    1    3    3    0    0 -0.88211765559E+01 -0.17344854007E+02 -0.17332538841E+02  0.26059048697E+02  0.00000000000E+00 0. -1.
</event>
<event>
 7    1  0.2323330E-008  0.4614231E+02  0.7816164E-02  0.1320468E+00
        -11   -1    0    0    0    0  0.00000000000E+00  0.00000000000E+00  0.45593999997E+02  0.45594000000E+02  0.51100000000E-03 0. -1.
         11   -1    0    0    0    0 -0.00000000000E+00 -0.00000000000E+00 -0.45593999997E+02  0.45594000000E+02  0.51100000000E-03 0.  1.
    9900012    2    1    2    0    0  0.43095018435E+02 -0.81133319330E+01 -0.10300830120E+02  0.46142313523E+02  0.99999613560E+01 0.  0.
         12    1    1    2    0    0 -0.43095018435E+02  0.81133319330E+01  0.10300830120E+02  0.45045686477E+02  0.00000000000E+00 0. -1.
         11    1    3    3    0    0  0.13343211710E+02 -0.57779578857E+00 -0.42229282548E+01  0.14007436240E+02  0.51100000000E-03 0. -1.
        -11    1    3    3    0    0  0.25318208222E+02 -0.78534570775E+01 -0.73556497027E+01  0.27509889830E+02  0.51100000000E-03 0.  1.
        -12    1    3    3    0    0  0.44335985031E+01  0.31792093308E+00  0.12777478374E+01  0.46249874533E+01  0.00000000000E+00 0.  1.
</event>
<event>
 7    1  0.2323330E-008  0.4614233E+02  0.7816164E-02  0.1320468E+00
        -11   -1    0    0    0    0  0.00000000000E+00  0.00000000000E+00  0.45593999997E+02  0.45594000000E+02  0.51100000000E-03 0.  1.
         11   -1    0    0    0    0 -0.00000000000E+00 -0.00000000000E+00 -0.45593999997E+02  0.45594000000E+02  0.51100000000E-03 0. -1.
    9900012    2    1    2    0    0 -0.43682039179E+02  0.75285321209E+01 -0.80195235790E+01  0.46142333159E+02  0.10000140411E+02 0.  0.
         12    1    1    2    0    0  0.43682039179E+02 -0.75285321209E+01  0.80195235790E+01  0.45045666841E+02  0.00000000000E+00 0. -1.
         11    1    3    3    0    0 -0.72104268122E+01  0.12433297972E+01 -0.36738128472E+01  0.81873698399E+01  0.51100000000E-03 0. -1.
        -11    1    3    3    0    0 -0.30676741937E+02  0.58033312180E+01 -0.62419788210E+01  0.31838709914E+02  0.51100000000E-03 0.  1.
         12    1    3    3    0    0 -0.57948704290E+01  0.48187110570E+00  0.18962680891E+01  0.61162534052E+01  0.00000000000E+00 0. -1.
</event>
<event>
 7    1  0.2323330E-008  0.4614232E+02  0.7816164E-02  0.1320468E+00
        -11   -1    0    0    0    0  0.00000000000E+00  0.00000000000E+00  0.45593999997E+02  0.45594000000E+02  0.51100000000E-03 0.  1.
         11   -1    0    0    0    0 -0.00000000000E+00 -0.00000000000E+00 -0.45593999997E+02  0.45594000000E+02  0.51100000000E-03 0. -1.
    9900012    2    1    2    0    0 -0.29393637397E+02  0.19841607150E+01  0.34076247551E+02  0.46142318073E+02  0.10000002840E+02 0.  0.
         12    1    1    2    0    0  0.29393637397E+02 -0.19841607150E+01 -0.34076247551E+02  0.45045681927E+02  0.00000000000E+00 0. -1.
         11    1    3    3    0    0  0.12079274194E-02 -0.79276302628E+00  0.29406665818E+01  0.30456517991E+01  0.51100000000E-03 0. -1.
        -11    1    3    3    0    0 -0.65378172196E+01  0.92514448833E+00  0.47235215934E+01  0.81185345245E+01  0.51100000000E-03 0.  1.
        -12    1    3    3    0    0 -0.22857028105E+02  0.18517792529E+01  0.26412059376E+02  0.34978131749E+02  0.00000000000E+00 0.  1.
</event>
<event>
 7    1  0.2323330E-008  0.4614232E+02  0.7816164E-02  0.1320468E+00
        -11   -1    0    0    0    0  0.00000000000E+00  0.00000000000E+00  0.45593999997E+02  0.45594000000E+02  0.51100000000E-03 0.  1.
         11   -1    0    0    0    0 -0.00000000000E+00 -0.00000000000E+00 -0.45593999997E+02  0.45594000000E+02  0.51100000000E-03 0. -1.
    9900012    2    1    2    0    0  0.64363901374E+01 -0.30794591988E+02  0.32239408528E+02  0.46142317900E+02  0.10000001263E+02 0.  0.
         12    1    1    2    0    0 -0.64363901374E+01  0.30794591988E+02 -0.32239408528E+02  0.45045682100E+02  0.00000000000E+00 0. -1.
         11    1    3    3    0    0  0.57686055622E+00 -0.11936037390E+01 -0.85738747832E-01  0.13284612832E+01  0.51100000000E-03 0. -1.
        -11    1    3    3    0    0  0.25820586728E+01 -0.18850510765E+02  0.15307356070E+02  0.24419744740E+02  0.51100000000E-03 0.  1.
        -12    1    3    3    0    0  0.32774709084E+01 -0.10750477484E+02  0.17017791206E+02  0.20394111876E+02  0.00000000000E+00 0.  1.
</event>
<event>
 7    1  0.2323330E-008  0.4614232E+02  0.7816164E-02  0.1320468E+00
        -11   -1    0    0    0    0  0.00000000000E+00  0.00000000000E+00  0.45593999997E+02  0.45594000000E+02  0.51100000000E-03 0.  1.
         11   -1    0    0    0    0 -0.00000000000E+00 -0.00000000000E+00 -0.45593999997E+02  0.45594000000E+02  0.51100000000E-03 0. -1.
    9900012    2    1    2    0    0  0.66298764353E+01  0.20982825646E+02  0.39304952615E+02  0.46142317258E+02  0.99999954086E+01 0.  0.
         12    1    1    2    0    0 -0.66298764353E+01 -0.20982825646E+02 -0.39304952615E+02  0.45045682742E+02  0.00000000000E+00 0. -1.
         11    1    3    3    0    0  0.46205140054E+01  0.82749542517E+01  0.20850197550E+02  0.22903160386E+02  0.51100000000E-03 0. -1.
        -11    1    3    3    0    0  0.31042858186E+01  0.54275107036E+01  0.11610151869E+02  0.13186739156E+02  0.51100000000E-03 0.  1.
         12    1    3    3    0    0 -0.10949233886E+01  0.72803606905E+01  0.68446031961E+01  0.10052417715E+02  0.00000000000E+00 0. -1.
</event>
<event>
 7    1  0.2323330E-008  0.4614232E+02  0.7816164E-02  0.1320468E+00
        -11   -1    0    0    0    0  0.00000000000E+00  0.00000000000E+00  0.45593999997E+02  0.45594000000E+02  0.51100000000E-03 0. -1.
         11   -1    0    0    0    0 -0.00000000000E+00 -0.00000000000E+00 -0.45593999997E+02  0.45594000000E+02  0.51100000000E-03 0.  1.
    9900012    2    1    2    0    0 -0.15815812868E+02  0.85829051008E+01 -0.41295366329E+02  0.46142317888E+02  0.10000001159E+02 0.  0.
         12    1    1    2    0    0  0.15815812868E+02 -0.85829051008E+01  0.41295366329E+02  0.45045682112E+02  0.00000000000E+00 0. -1.
         11    1    3    3    0    0 -0.13928382655E+02  0.84402661612E+01 -0.27504738871E+02  0.31964802469E+02  0.51100000000E-03 0.  1.
        -11    1    3    3    0    0 -0.14272707515E+01  0.13402590532E+01 -0.71013341851E+01  0.73662978217E+01  0.51100000000E-03 0. -1.
        -12    1    3    3    0    0 -0.46015946136E+00 -0.11976201136E+01 -0.66892932734E+01  0.68112175978E+01  0.00000000000E+00 0.  1.
</event>
<event>
 7    1  0.2323330E-008  0.4614232E+02  0.7816164E-02  0.1320468E+00
        -11   -1    0    0    0    0  0.00000000000E+00  0.00000000000E+00  0.45593999997E+02  0.45594000000E+02  0.51100000000E-03 0.  1.
         11   -1    0    0    0    0 -0.00000000000E+00 -0.00000000000E+00 -0.45593999997E+02  0.45594000000E+02  0.51100000000E-03 0. -1.
    9900012    2    1    2    0    0  0.60067471961E+01  0.35196916540E+01  0.44504430138E+02  0.46142317153E+02  0.99999944559E+01 0.  0.
         12    1    1    2    0    0 -0.60067471961E+01 -0.35196916540E+01 -0.44504430138E+02  0.45045682847E+02  0.00000000000E+00 0. -1.
         11    1    3    3    0    0  0.39551586483E+01  0.16991733502E+01  0.57729570834E+01  0.72012154359E+01  0.51100000000E-03 0. -1.
        -11    1    3    3    0    0  0.33498266243E+00 -0.77616218165E+00  0.11822457199E+02  0.11852642557E+02  0.51100000000E-03 0.  1.
        -12    1    3    3    0    0  0.17166058854E+01  0.25966804854E+01  0.26909015856E+02  0.27088459160E+02  0.00000000000E+00 0.  1.
</event>
<event>
 7    1  0.2323330E-008  0.4614232E+02  0.7816164E-02  0.1320468E+00
        -11   -1    0    0    0    0  0.00000000000E+00  0.00000000000E+00  0.45593999997E+02  0.45594000000E+02  0.51100000000E-03 0.  1.
         11   -1    0    0    0    0 -0.00000000000E+00 -0.00000000000E+00 -0.45593999997E+02  0.45594000000E+02  0.51100000000E-03 0. -1.
    9900012    2    1    2    0    0 -0.90639213103E+01 -0.18187963671E+02  0.40201452573E+02  0.46142317843E+02  0.10000000748E+02 0.  0.
         12    1    1    2    0    0  0.90639213103E+01  0.18187963671E+02 -0.40201452573E+02  0.45045682157E+02  0.00000000000E+00 0. -1.
         11    1    3    3    0    0 -0.55072227672E+01 -0.47315030868E+01  0.10606276579E+02  0.12853393607E+02  0.51100000000E-03 0. -1.
        -11    1    3    3    0    0 -0.38836563790E+01 -0.12015268065E+02  0.29114510576E+02  0.31734904756E+02  0.51100000000E-03 0.  1.
         12    1    3    3    0    0  0.32695783591E+00 -0.14411925185E+01  0.48066541785E+00  0.15540194805E+01  0.00000000000E+00 0. -1.
</event>
<event>
 7    1  0.2323330E-008  0.4614232E+02  0.7816164E-02  0.1320468E+00
        -11   -1    0    0    0    0  0.00000000000E+00  0.00000000000E+00  0.45593999997E+02  0.45594000000E+02  0.51100000000E-03 0.  1.
         11   -1    0    0    0    0 -0.00000000000E+00 -0.00000000000E+00 -0.45593999997E+02  0.45594000000E+02  0.51100000000E-03 0. -1.
    9900012    2    1    2    0    0 -0.10469335458E+02  0.20526505842E+02  0.38706184854E+02  0.46142321262E+02  0.10000031926E+02 0.  0.
         12    1    1    2    0    0  0.10469335458E+02 -0.20526505842E+02 -0.38706184854E+02  0.45045678738E+02  0.00000000000E+00 0. -1.
         11    1    3    3    0    0 -0.44154972789E+01  0.13692873750E+02  0.16086806523E+02  0.21581861647E+02  0.51100000000E-03 0. -1.
        -11    1    3    3    0    0 -0.17670541683E+01  0.41383836117E+01  0.11085010341E+02  0.11963534339E+02  0.51100000000E-03 0.  1.
         12    1    3    3    0    0 -0.42867840106E+01  0.26952484809E+01  0.11534367989E+02  0.12596925277E+02  0.00000000000E+00 0. -1.
</event>
<event>
 7    1  0.2323330E-008  0.4614232E+02  0.7816164E-02  0.1320468E+00
        -11   -1    0    0    0    0  0.00000000000E+00  0.00000000000E+00  0.45593999997E+02  0.45594000000E+02  0.51100000000E-03 0.  1.
         11   -1    0    0    0    0 -0.00000000000E+00 -0.00000000000E+00 -0.45593999997E+02  0.45594000000E+02  0.51100000000E-03 0. -1.
    9900012    2    1    2    0    0 -0.16883496031E+02 -0.23938139178E+02  0.34220265642E+02  0.46142317342E+02  0.99999961738E+01 0.  0.
         12    1    1    2    0    0  0.16883496031E+02  0.23938139178E+02 -0.34220265642E+02  0.45045682658E+02  0.00000000000E+00 0. -1.
         11    1    3    3    0    0 -0.34986023667E+01 -0.97250364810E+00  0.59516891244E+01  0.69719857688E+01  0.51100000000E-03 0. -1.
        -11    1    3    3    0    0 -0.70829628095E+01 -0.10790352250E+02  0.99901668125E+01  0.16321871738E+02  0.51100000000E-03 0.  1.
         12    1    3    3    0    0 -0.63019308551E+01 -0.12175283280E+02  0.18278409705E+02  0.22848459835E+02  0.00000000000E+00 0. -1.
</event>
<event>
 7    1  0.2323330E-008  0.4614232E+02  0.7816164E-02  0.1320468E+00
        -11   -1    0    0    0    0  0.00000000000E+00  0.00000000000E+00  0.45593999997E+02  0.45594000000E+02  0.51100000000E-03 0.  1.
         11   -1    0    0    0    0 -0.00000000000E+00 -0.00000000000E+00 -0.45593999997E+02  0.45594000000E+02  0.51100000000E-03 0. -1.
    9900012    2    1    2    0    0 -0.34966667301E+02  0.25525929850E+02  0.12444774323E+02  0.46142319576E+02  0.10000016552E+02 0.  0.
         12    1    1    2    0    0  0.34966667301E+02 -0.25525929850E+02 -0.12444774323E+02  0.45045680424E+02  0.00000000000E+00 0. -1.
         11    1    3    3    0    0 -0.24132047366E+01  0.43480400432E+01  0.28950422458E+01  0.57541532117E+01  0.51100000000E-03 0. -1.
        -11    1    3    3    0    0 -0.17175388428E+02  0.14192045484E+02  0.66427099324E+01  0.23249381028E+02  0.51100000000E-03 0.  1.
        -12    1    3    3    0    0 -0.15378074137E+02  0.69858443231E+01  0.29070221450E+01  0.17138785337E+02  0.00000000000E+00 0.  1.
</event>
<event>
 7    1  0.2323330E-008  0.4614232E+02  0.7816164E-02  0.1320468E+00
        -11   -1    0    0    0    0  0.00000000000E+00  0.00000000000E+00  0.45593999997E+02  0.45594000000E+02  0.51100000000E-03 0.  1.
         11   -1    0    0    0    0 -0.00000000000E+00 -0.00000000000E+00 -0.45593999997E+02  0.45594000000E+02  0.51100000000E-03 0. -1.
    9900012    2    1    2    0    0 -0.43020893989E+01 -0.44453807027E+02  0.58706331695E+01  0.46142320227E+02  0.10000022483E+02 0.  0.
         12    1    1    2    0    0  0.43020893989E+01  0.44453807027E+02 -0.58706331695E+01  0.45045679773E+02  0.00000000000E+00 0. -1.
         11    1    3    3    0    0  0.13665906352E+01 -0.22235242332E+02  0.45911569616E+01  0.22745379620E+02  0.51100000000E-03 0. -1.
        -11    1    3    3    0    0  0.53075520136E+00 -0.31077324941E+01  0.98693781707E+00  0.33035963516E+01  0.51100000000E-03 0.  1.
         12    1    3    3    0    0 -0.61994352354E+01 -0.19110832201E+02  0.29253839084E+00  0.20093344255E+02  0.00000000000E+00 0. -1.
</event>
<event>
 7    1  0.2323330E-008  0.4614232E+02  0.7816164E-02  0.1320468E+00
        -11   -1    0    0    0    0  0.00000000000E+00  0.00000000000E+00  0.45593999997E+02  0.45594000000E+02  0.51100000000E-03 0.  1.
         11   -1    0    0    0    0 -0.00000000000E+00 -0.00000000000E+00 -0.45593999997E+02  0.45594000000E+02  0.51100000000E-03 0. -1.
    9900012    2    1    2    0    0 -0.19870046271E+01  0.43602681781E+02  0.11134248208E+02  0.46142317310E+02  0.99999958870E+01 0.  0.
         12    1    1    2    0    0  0.19870046271E+01 -0.43602681781E+02 -0.11134248208E+02  0.45045682690E+02  0.00000000000E+00 0. -1.
         11    1    3    3    0    0 -0.14434868255E+01  0.15812338713E+01  0.19779991646E+01  0.29148646156E+01  0.51100000000E-03 0. -1.
        -11    1    3    3    0    0 -0.11560306973E+01  0.28539413236E+02  0.81056894831E+01  0.29690684012E+02  0.51100000000E-03 0.  1.
         12    1    3    3    0    0  0.61251289567E+00  0.13482034673E+02  0.10505595602E+01  0.13536768683E+02  0.00000000000E+00 0. -1.
</event>
<event>
 7    1  0.2323330E-008  0.4614232E+02  0.7816164E-02  0.1320468E+00
        -11   -1    0    0    0    0  0.00000000000E+00  0.00000000000E+00  0.45593999997E+02  0.45594000000E+02  0.51100000000E-03 0.  1.
         11   -1    0    0    0    0 -0.00000000000E+00 -0.00000000000E+00 -0.45593999997E+02  0.45594000000E+02  0.51100000000E-03 0. -1.
    9900012    2    1    2    0    0 -0.27252699009E+02 -0.26525911043E+02  0.24140835444E+02  0.46142317678E+02  0.99999992459E+01 0.  0.
         12    1    1    2    0    0  0.27252699009E+02  0.26525911043E+02 -0.24140835444E+02  0.45045682322E+02  0.00000000000E+00 0. -1.
         11    1    3    3    0    0 -0.47872424193E+01 -0.58079599545E+01  0.40371477245E+01  0.85409982335E+01  0.51100000000E-03 0. -1.
        -11    1    3    3    0    0 -0.12619500921E+02 -0.16742540681E+02  0.15255405716E+02  0.25928591859E+02  0.51100000000E-03 0.  1.
        -12    1    3    3    0    0 -0.98459556677E+01 -0.39754104076E+01  0.48482820030E+01  0.11672727586E+02  0.00000000000E+00 0.  1.
</event>
<event>
 7    1  0.2323330E-008  0.4614232E+02  0.7816164E-02  0.1320468E+00
        -11   -1    0    0    0    0  0.00000000000E+00  0.00000000000E+00  0.45593999997E+02  0.45594000000E+02  0.51100000000E-03 0.  1.
         11   -1    0    0    0    0 -0.00000000000E+00 -0.00000000000E+00 -0.45593999997E+02  0.45594000000E+02  0.51100000000E-03 0. -1.
    9900012    2    1    2    0    0  0.28042573673E+02  0.33112185231E+02  0.12095897615E+02  0.46142317764E+02  0.10000000024E+02 0.  0.
         12    1    1    2    0    0 -0.28042573673E+02 -0.33112185231E+02 -0.12095897615E+02  0.45045682236E+02  0.00000000000E+00 0. -1.
         11    1    3    3    0    0  0.16513963025E+00  0.19385486570E+01 -0.59471416820E+00  0.20344353506E+01  0.51100000000E-03 0. -1.
        -11    1    3    3    0    0  0.28169046764E+02  0.30712897337E+02  0.12685500146E+02  0.43562589141E+02  0.51100000000E-03 0.  1.
        -12    1    3    3    0    0 -0.29161272143E+00  0.46073923675E+00  0.51116381393E-02  0.54529327194E+00  0.00000000000E+00 0.  1.
</event>
<event>
 7    1  0.2323330E-008  0.4614232E+02  0.7816164E-02  0.1320468E+00
        -11   -1    0    0    0    0  0.00000000000E+00  0.00000000000E+00  0.45593999997E+02  0.45594000000E+02  0.51100000000E-03 0.  1.
         11   -1    0    0    0    0 -0.00000000000E+00 -0.00000000000E+00 -0.45593999997E+02  0.45594000000E+02  0.51100000000E-03 0. -1.
    9900012    2    1    2    0    0  0.27797651775E+02  0.25500853959E+02  0.24619308325E+02  0.46142319416E+02  0.10000015090E+02 0.  0.
         12    1    1    2    0    0 -0.27797651775E+02 -0.25500853959E+02 -0.24619308325E+02  0.45045680584E+02  0.00000000000E+00 0. -1.
         11    1    3    3    0    0  0.14449968250E+02  0.81461256497E+01  0.93683498139E+01  0.19050641040E+02  0.51100000000E-03 0. -1.
        -11    1    3    3    0    0  0.67411171056E+01  0.81061834500E+01  0.10146245548E+02  0.14632127971E+02  0.51100000000E-03 0.  1.
         12    1    3    3    0    0  0.66065664195E+01  0.92485448598E+01  0.51047129627E+01  0.12459550406E+02  0.00000000000E+00 0. -1.
</event>
<event>
 7    1  0.2323330E-008  0.4614232E+02  0.7816164E-02  0.1320468E+00
        -11   -1    0    0    0    0  0.00000000000E+00  0.00000000000E+00  0.45593999997E+02  0.45594000000E+02  0.51100000000E-03 0.  1.
         11   -1    0    0    0    0 -0.00000000000E+00 -0.00000000000E+00 -0.45593999997E+02  0.45594000000E+02  0.51100000000E-03 0. -1.
    9900012    2    1    2    0    0 -0.20763830646E+02 -0.39405625062E+02 -0.67211290433E+01  0.46142317352E+02  0.99999962683E+01 0.  0.
         12    1    1    2    0    0  0.20763830646E+02  0.39405625062E+02  0.67211290433E+01  0.45045682648E+02  0.00000000000E+00 0. -1.
         11    1    3    3    0    0 -0.73983546922E+01 -0.13756216884E+02 -0.35424629495E+01  0.16016185536E+02  0.51100000000E-03 0. -1.
        -11    1    3    3    0    0 -0.13389886433E+02 -0.23560479267E+02 -0.10150220952E+01  0.27118545538E+02  0.51100000000E-03 0.  1.
         12    1    3    3    0    0  0.24410479674E-01 -0.20889289117E+01 -0.21636439985E+01  0.30075862784E+01  0.00000000000E+00 0. -1.
</event>
<event>
 7    1  0.2323330E-008  0.4614232E+02  0.7816164E-02  0.1320468E+00
        -11   -1    0    0    0    0  0.00000000000E+00  0.00000000000E+00  0.45593999997E+02  0.45594000000E+02  0.51100000000E-03 0. -1.
         11   -1    0    0    0    0 -0.00000000000E+00 -0.00000000000E+00 -0.45593999997E+02  0.45594000000E+02  0.51100000000E-03 0.  1.
    9900012    2    1    2    0    0 -0.31353595760E+02  0.10774259478E+02 -0.30495587811E+02  0.46142317518E+02  0.99999977798E+01 0.  0.
         12    1    1    2    0    0  0.31353595760E+02 -0.10774259478E+02  0.30495587811E+02  0.45045682482E+02  0.00000000000E+00 0. -1.
         11    1    3    3    0    0 -0.31681981261E+01  0.11710402314E+01 -0.16242263982E+01  0.37479229239E+01  0.51100000000E-03 0. -1.
        -11    1    3    3    0    0 -0.24891663368E+02  0.10914358733E+02 -0.23345876740E+02  0.35829430540E+02  0.51100000000E-03 0.  1.
         12    1    3    3    0    0 -0.32937342660E+01 -0.13111394862E+01 -0.55254846722E+01  0.65649640539E+01  0.00000000000E+00 0. -1.
</event>
<event>
 7    1  0.2323330E-008  0.4614232E+02  0.7816164E-02  0.1320468E+00
        -11   -1    0    0    0    0  0.00000000000E+00  0.00000000000E+00  0.45593999997E+02  0.45594000000E+02  0.51100000000E-03 0.  1.
         11   -1    0    0    0    0 -0.00000000000E+00 -0.00000000000E+00 -0.45593999997E+02  0.45594000000E+02  0.51100000000E-03 0. -1.
    9900012    2    1    2    0    0  0.43020770035E+02 -0.10487800123E+02  0.82663654709E+01  0.46142318699E+02  0.10000008548E+02 0.  0.
         12    1    1    2    0    0 -0.43020770035E+02  0.10487800123E+02 -0.82663654709E+01  0.45045681301E+02  0.00000000000E+00 0. -1.
         11    1    3    3    0    0  0.26073925978E+02 -0.94571091948E+01  0.37329851108E+01  0.27986098484E+02  0.51100000000E-03 0. -1.
        -11    1    3    3    0    0  0.11396662201E+02 -0.24378164930E+01  0.17340415051E+01  0.11782773815E+02  0.51100000000E-03 0.  1.
         12    1    3    3    0    0  0.55501818556E+01  0.14071255646E+01  0.27993388550E+01  0.63734463997E+01  0.00000000000E+00 0. -1.
</event>
<event>
 7    1  0.2323330E-008  0.4614232E+02  0.7816164E-02  0.1320468E+00
        -11   -1    0    0    0    0  0.00000000000E+00  0.00000000000E+00  0.45593999997E+02  0.45594000000E+02  0.51100000000E-03 0.  1.
         11   -1    0    0    0    0 -0.00000000000E+00 -0.00000000000E+00 -0.45593999997E+02  0.45594000000E+02  0.51100000000E-03 0. -1.
    9900012    2    1    2    0    0 -0.74360881065E+01 -0.37791265787E+02  0.23358902005E+02  0.46142317866E+02  0.10000000954E+02 0.  0.
         12    1    1    2    0    0  0.74360881065E+01  0.37791265787E+02 -0.23358902005E+02  0.45045682134E+02  0.00000000000E+00 0. -1.
         11    1    3    3    0    0 -0.40663473238E+01 -0.20493649522E+02  0.10655070218E+02  0.23453259324E+02  0.51100000000E-03 0. -1.
        -11    1    3    3    0    0 -0.17791080614E+01 -0.14990687778E+02  0.76814297360E+01  0.16937836598E+02  0.51100000000E-03 0.  1.
         12    1    3    3    0    0 -0.15906327213E+01 -0.23069284861E+01  0.50224020505E+01  0.57512219442E+01  0.00000000000E+00 0. -1.
</event>
<event>
 7    1  0.2323330E-008  0.4614232E+02  0.7816164E-02  0.1320468E+00
        -11   -1    0    0    0    0  0.00000000000E+00  0.00000000000E+00  0.45593999997E+02  0.45594000000E+02  0.51100000000E-03 0. -1.
         11   -1    0    0    0    0 -0.00000000000E+00 -0.00000000000E+00 -0.45593999997E+02  0.45594000000E+02  0.51100000000E-03 0.  1.
    9900012    2    1    2    0    0 -0.33918192157E+02 -0.19731634908E+02  0.22120855509E+02  0.46142318478E+02  0.10000006536E+02 0.  0.
         12    1    1    2    0    0  0.33918192157E+02  0.19731634908E+02 -0.22120855509E+02  0.45045681522E+02  0.00000000000E+00 0. -1.
         11    1    3    3    0    0 -0.13422568152E+01 -0.20231773609E+01  0.14962911435E+01  0.28519795650E+01  0.51100000000E-03 0. -1.
        -11    1    3    3    0    0 -0.28162643880E+02 -0.11826179914E+02  0.14982964975E+02  0.34021791272E+02  0.51100000000E-03 0.  1.
        -12    1    3    3    0    0 -0.44132914617E+01 -0.58822776335E+01  0.56415993908E+01  0.92685476408E+01  0.00000000000E+00 0.  1.
</event>
<event>
 7    1  0.2323330E-008  0.4614232E+02  0.7816164E-02  0.1320468E+00
        -11   -1    0    0    0    0  0.00000000000E+00  0.00000000000E+00  0.45593999997E+02  0.45594000000E+02  0.51100000000E-03 0. -1.
         11   -1    0    0    0    0 -0.00000000000E+00 -0.00000000000E+00 -0.45593999997E+02  0.45594000000E+02  0.51100000000E-03 0.  1.
    9900012    2    1    2    0    0 -0.17399706948E+02  0.21150666764E+02 -0.35763290578E+02  0.46142318082E+02  0.10000002927E+02 0.  0.
         12    1    1    2    0    0  0.17399706948E+02 -0.21150666764E+02  0.35763290578E+02  0.45045681918E+02  0.00000000000E+00 0. -1.
         11    1    3    3    0    0 -0.71216032630E+01  0.51398306338E+01 -0.65400249063E+01  0.10950206300E+02  0.51100000000E-03 0. -1.
        -11    1    3    3    0    0  0.31926805873E+00  0.20034229998E+01 -0.26225196786E+01  0.33156063601E+01  0.51100000000E-03 0.  1.
        -12    1    3    3    0    0 -0.10597371744E+02  0.14007413131E+02 -0.26600745993E+02  0.31876505422E+02  0.00000000000E+00 0.  1.
</event>
<event>
 7    1  0.2323330E-008  0.4614232E+02  0.7816164E-02  0.1320468E+00
        -11   -1    0    0    0    0  0.00000000000E+00  0.00000000000E+00  0.45593999997E+02  0.45594000000E+02  0.51100000000E-03 0.  1.
         11   -1    0    0    0    0 -0.00000000000E+00 -0.00000000000E+00 -0.45593999997E+02  0.45594000000E+02  0.51100000000E-03 0. -1.
    9900012    2    1    2    0    0 -0.38023797917E+02 -0.23671835304E+02 -0.47904554944E+01  0.46142318092E+02  0.10000003020E+02 0.  0.
         12    1    1    2    0    0  0.38023797917E+02  0.23671835304E+02  0.47904554944E+01  0.45045681908E+02  0.00000000000E+00 0. -1.
         11    1    3    3    0    0 -0.10406526630E+02 -0.10841926172E+02 -0.41135949531E+01  0.15580912146E+02  0.51100000000E-03 0. -1.
        -11    1    3    3    0    0 -0.21278093927E+01 -0.39967092929E+00  0.30026796077E+00  0.21857426135E+01  0.51100000000E-03 0.  1.
         12    1    3    3    0    0 -0.25489461895E+02 -0.12430238203E+02 -0.97712850209E+00  0.28375663332E+02  0.00000000000E+00 0. -1.
</event>
<event>
 7    1  0.2323330E-008  0.4614232E+02  0.7816164E-02  0.1320468E+00
        -11   -1    0    0    0    0  0.00000000000E+00  0.00000000000E+00  0.45593999997E+02  0.45594000000E+02  0.51100000000E-03 0.  1.
         11   -1    0    0    0    0 -0.00000000000E+00 -0.00000000000E+00 -0.45593999997E+02  0.45594000000E+02  0.51100000000E-03 0. -1.
    9900012    2    1    2    0    0 -0.10240274334E+01 -0.36321733970E+02  0.26623234724E+02  0.46142316323E+02  0.99999868880E+01 0.  0.
         12    1    1    2    0    0  0.10240274334E+01  0.36321733970E+02 -0.26623234724E+02  0.45045683677E+02  0.00000000000E+00 0. -1.
         11    1    3    3    0    0 -0.28155734664E+01 -0.45747951147E+01  0.36133664758E+01  0.64739958167E+01  0.51100000000E-03 0. -1.
        -11    1    3    3    0    0 -0.10809047075E+01 -0.17367360552E+02  0.14917022840E+02  0.22919667061E+02  0.51100000000E-03 0.  1.
         12    1    3    3    0    0  0.28724507404E+01 -0.14379578303E+02  0.80928454081E+01  0.16748653445E+02  0.00000000000E+00 0. -1.
</event>
<event>
 7    1  0.2323330E-008  0.4614232E+02  0.7816164E-02  0.1320468E+00
        -11   -1    0    0    0    0  0.00000000000E+00  0.00000000000E+00  0.45593999997E+02  0.45594000000E+02  0.51100000000E-03 0.  1.
         11   -1    0    0    0    0 -0.00000000000E+00 -0.00000000000E+00 -0.45593999997E+02  0.45594000000E+02  0.51100000000E-03 0. -1.
    9900012    2    1    2    0    0  0.77509491268E+01  0.27287680391E+02  0.34991696741E+02  0.46142317029E+02  0.99999933263E+01 0.  0.
         12    1    1    2    0    0 -0.77509491268E+01 -0.27287680391E+02 -0.34991696741E+02  0.45045682971E+02  0.00000000000E+00 0. -1.
         11    1    3    3    0    0  0.26623263060E+01  0.69086366816E+01  0.59039772876E+01  0.94696457290E+01  0.51100000000E-03 0. -1.
        -11    1    3    3    0    0  0.44270214171E+01  0.12149675897E+02  0.23103258655E+02  0.26475907988E+02  0.51100000000E-03 0.  1.
        -12    1    3    3    0    0  0.66160140376E+00  0.82293678117E+01  0.59844607983E+01  0.10196763312E+02  0.00000000000E+00 0.  1.
</event>
<event>
 7    1  0.2323330E-008  0.4614232E+02  0.7816164E-02  0.1320468E+00
        -11   -1    0    0    0    0  0.00000000000E+00  0.00000000000E+00  0.45593999997E+02  0.45594000000E+02  0.51100000000E-03 0. -1.
         11   -1    0    0    0    0 -0.00000000000E+00 -0.00000000000E+00 -0.45593999997E+02  0.45594000000E+02  0.51100000000E-03 0.  1.
    9900012    2    1    2    0    0 -0.29744211783E+02  0.11164365208E+02  0.31933558358E+02  0.46142319469E+02  0.10000015575E+02 0.  0.
         12    1    1    2    0    0  0.29744211783E+02 -0.11164365208E+02 -0.31933558358E+02  0.45045680531E+02  0.00000000000E+00 0. -1.
         11    1    3    3    0    0 -0.29317017767E+01 -0.31881610049E+00  0.25055625467E+01  0.38696722019E+01  0.51100000000E-03 0. -1.
        -11    1    3    3    0    0 -0.15450580136E+02  0.21716549770E+01  0.16426565557E+02  0.22655431316E+02  0.51100000000E-03 0.  1.
         12    1    3    3    0    0 -0.11361929870E+02  0.93115263314E+01  0.13001430255E+02  0.19617215951E+02  0.00000000000E+00 0. -1.
</event>
<event>
 7    1  0.2323330E-008  0.4614232E+02  0.7816164E-02  0.1320468E+00
        -11   -1    0    0    0    0  0.00000000000E+00  0.00000000000E+00  0.45593999997E+02  0.45594000000E+02  0.51100000000E-03 0.  1.
         11   -1    0    0    0    0 -0.00000000000E+00 -0.00000000000E+00 -0.45593999997E+02  0.45594000000E+02  0.51100000000E-03 0. -1.
    9900012    2    1    2    0    0 -0.28737720055E+02 -0.34061914671E+02 -0.65607179187E+01  0.46142316471E+02  0.99999882377E+01 0.  0.
         12    1    1    2    0    0  0.28737720055E+02  0.34061914671E+02  0.65607179187E+01  0.45045683529E+02  0.00000000000E+00 0. -1.
         11    1    3    3    0    0 -0.11780318655E+02 -0.15222233502E+02 -0.13751353502E+01  0.19297235499E+02  0.51100000000E-03 0. -1.
        -11    1    3    3    0    0 -0.16698230397E+02 -0.15273966926E+02 -0.53931399908E+01  0.23263940407E+02  0.51100000000E-03 0.  1.
         12    1    3    3    0    0 -0.25917100314E+00 -0.35657142418E+01  0.20755742223E+00  0.35811405651E+01  0.00000000000E+00 0. -1.
</event>
<event>
 7    1  0.2323330E-008  0.4614232E+02  0.7816164E-02  0.1320468E+00
        -11   -1    0    0    0    0  0.00000000000E+00  0.00000000000E+00  0.45593999997E+02  0.45594000000E+02  0.51100000000E-03 0.  1.
         11   -1    0    0    0    0 -0.00000000000E+00 -0.00000000000E+00 -0.45593999997E+02  0.45594000000E+02  0.51100000000E-03 0. -1.
    9900012    2    1    2    0    0  0.11430606645E+02  0.19411614027E+02  0.39008255089E+02  0.46142317716E+02  0.99999995847E+01 0.  0.
         12    1    1    2    0    0 -0.11430606645E+02 -0.19411614027E+02 -0.39008255089E+02  0.45045682284E+02  0.00000000000E+00 0. -1.
         11    1    3    3    0    0  0.41791067620E-01  0.24719563641E+00  0.42239884952E+01  0.42314218939E+01  0.51100000000E-03 0. -1.
        -11    1    3    3    0    0  0.11524977612E+02  0.19614631475E+02  0.34592619903E+02  0.41402997825E+02  0.51100000000E-03 0.  1.
        -12    1    3    3    0    0 -0.13616203453E+00 -0.45021308472E+00  0.19164669074E+00  0.50789799701E+00  0.00000000000E+00 0.  1.
</event>
<event>
 7    1  0.2323330E-008  0.4614232E+02  0.7816164E-02  0.1320468E+00
        -11   -1    0    0    0    0  0.00000000000E+00  0.00000000000E+00  0.45593999997E+02  0.45594000000E+02  0.51100000000E-03 0.  1.
         11   -1    0    0    0    0 -0.00000000000E+00 -0.00000000000E+00 -0.45593999997E+02  0.45594000000E+02  0.51100000000E-03 0. -1.
    9900012    2    1    2    0    0 -0.22942447996E+02  0.38003439965E+02 -0.76482696690E+01  0.46142318763E+02  0.10000009136E+02 0.  0.
         12    1    1    2    0    0  0.22942447996E+02 -0.38003439965E+02  0.76482696690E+01  0.45045681237E+02  0.00000000000E+00 0. -1.
         11    1    3    3    0    0 -0.67843383389E+01  0.17880672411E+02 -0.38416164604E+01  0.19506504297E+02  0.51100000000E-03 0.  1.
        -11    1    3    3    0    0 -0.59221444564E+01  0.98116477421E+01 -0.39019504671E+01  0.12106421605E+02  0.51100000000E-03 0. -1.
         12    1    3    3    0    0 -0.10235965200E+02  0.10311119811E+02  0.95297258549E-01  0.14529392861E+02  0.00000000000E+00 0. -1.
</event>
<event>
 7    1  0.2323330E-008  0.4614232E+02  0.7816164E-02  0.1320468E+00
        -11   -1    0    0    0    0  0.00000000000E+00  0.00000000000E+00  0.45593999997E+02  0.45594000000E+02  0.51100000000E-03 0.  1.
         11   -1    0    0    0    0 -0.00000000000E+00 -0.00000000000E+00 -0.45593999997E+02  0.45594000000E+02  0.51100000000E-03 0. -1.
    9900012    2    1    2    0    0 -0.74558441267E+01  0.14661658368E+02  0.41935182814E+02  0.46142318793E+02  0.10000009413E+02 0.  0.
         12    1    1    2    0    0  0.74558441267E+01 -0.14661658368E+02 -0.41935182814E+02  0.45045681207E+02  0.00000000000E+00 0. -1.
         11    1    3    3    0    0 -0.16628138932E+00 -0.42353404713E+00  0.64943775478E+00  0.79296926042E+00  0.51100000000E-03 0.  1.
        -11    1    3    3    0    0 -0.15495297773E+01 -0.75707636314E+00  0.60653008988E+01  0.63057182307E+01  0.51100000000E-03 0. -1.
         12    1    3    3    0    0 -0.57400329600E+01  0.15842268778E+02  0.35220444160E+02  0.39043631302E+02  0.00000000000E+00 0. -1.
</event>
<event>
 7    1  0.2323330E-008  0.4614232E+02  0.7816164E-02  0.1320468E+00
        -11   -1    0    0    0    0  0.00000000000E+00  0.00000000000E+00  0.45593999997E+02  0.45594000000E+02  0.51100000000E-03 0.  1.
         11   -1    0    0    0    0 -0.00000000000E+00 -0.00000000000E+00 -0.45593999997E+02  0.45594000000E+02  0.51100000000E-03 0. -1.
    9900012    2    1    2    0    0  0.40183094374E+02  0.55488838123E+01  0.19586787693E+02  0.46142318330E+02  0.10000005184E+02 0.  0.
         12    1    1    2    0    0 -0.40183094374E+02 -0.55488838123E+01 -0.19586787693E+02  0.45045681670E+02  0.00000000000E+00 0. -1.
         11    1    3    3    0    0  0.10257910848E+02 -0.88614393637E+00  0.87607650455E+01  0.13518912326E+02  0.51100000000E-03 0. -1.
        -11    1    3    3    0    0  0.14121496434E+02  0.14118566283E+01  0.49653194930E+01  0.15035438091E+02  0.51100000000E-03 0.  1.
         12    1    3    3    0    0  0.15803687092E+02  0.50231711203E+01  0.58607031547E+01  0.17587967912E+02  0.00000000000E+00 0. -1.
</event>
<event>
 7    1  0.2323330E-008  0.4614232E+02  0.7816164E-02  0.1320468E+00
        -11   -1    0    0    0    0  0.00000000000E+00  0.00000000000E+00  0.45593999997E+02  0.45594000000E+02  0.51100000000E-03 0. -1.
         11   -1    0    0    0    0 -0.00000000000E+00 -0.00000000000E+00 -0.45593999997E+02  0.45594000000E+02  0.51100000000E-03 0.  1.
    9900012    2    1    2    0    0  0.28848986515E+02 -0.25184779769E+02 -0.23718691591E+02  0.46142317790E+02  0.10000000264E+02 0.  0.
         12    1    1    2    0    0 -0.28848986515E+02  0.25184779769E+02  0.23718691591E+02  0.45045682210E+02  0.00000000000E+00 0. -1.
         11    1    3    3    0    0  0.10714006982E+02 -0.12852048964E+02 -0.68238665583E+01  0.18070148401E+02  0.51100000000E-03 0. -1.
        -11    1    3    3    0    0  0.30720607009E+01 -0.23161623391E+00 -0.19611141697E+01  0.36520093206E+01  0.51100000000E-03 0.  1.
        -12    1    3    3    0    0  0.15062918832E+02 -0.12101114571E+02 -0.14933710863E+02  0.24420160068E+02  0.00000000000E+00 0.  1.
</event>
<event>
 7    1  0.2323330E-008  0.4614232E+02  0.7816164E-02  0.1320468E+00
        -11   -1    0    0    0    0  0.00000000000E+00  0.00000000000E+00  0.45593999997E+02  0.45594000000E+02  0.51100000000E-03 0.  1.
         11   -1    0    0    0    0 -0.00000000000E+00 -0.00000000000E+00 -0.45593999997E+02  0.45594000000E+02  0.51100000000E-03 0. -1.
    9900012    2    1    2    0    0 -0.64320731016E+01  0.40285116097E+02  0.19101078120E+02  0.46142319533E+02  0.10000016159E+02 0.  0.
         12    1    1    2    0    0  0.64320731016E+01 -0.40285116097E+02 -0.19101078120E+02  0.45045680467E+02  0.00000000000E+00 0. -1.
         11    1    3    3    0    0  0.87905637129E+00  0.22726933316E+01 -0.13975752922E+00  0.24407801031E+01  0.51100000000E-03 0. -1.
        -11    1    3    3    0    0 -0.51293910587E+01  0.11977283051E+02  0.50842145882E+01  0.13986250396E+02  0.51100000000E-03 0.  1.
        -12    1    3    3    0    0 -0.21817384143E+01  0.26035139715E+02  0.14156621061E+02  0.29715289034E+02  0.00000000000E+00 0.  1.
</event>
<event>
 7    1  0.2323330E-008  0.4614232E+02  0.7816164E-02  0.1320468E+00
        -11   -1    0    0    0    0  0.00000000000E+00  0.00000000000E+00  0.45593999997E+02  0.45594000000E+02  0.51100000000E-03 0.  1.
         11   -1    0    0    0    0 -0.00000000000E+00 -0.00000000000E+00 -0.45593999997E+02  0.45594000000E+02  0.51100000000E-03 0. -1.
    9900012    2    1    2    0    0 -0.27488281961E+02 -0.12637478274E+02  0.33373671466E+02  0.46142318194E+02  0.10000003943E+02 0.  0.
         12    1    1    2    0    0  0.27488281961E+02  0.12637478274E+02 -0.33373671466E+02  0.45045681806E+02  0.00000000000E+00 0. -1.
         11    1    3    3    0    0 -0.33137310504E+01 -0.34160845450E+01  0.73754725489E+01  0.87777014460E+01  0.51100000000E-03 0. -1.
        -11    1    3    3    0    0 -0.18802385424E+02 -0.94258249898E+01  0.17763122477E+02  0.27530063472E+02  0.51100000000E-03 0.  1.
        -12    1    3    3    0    0 -0.53721654869E+01  0.20443126129E+00  0.82350764403E+01  0.98345532759E+01  0.00000000000E+00 0.  1.
</event>
<event>
 7    1  0.2323330E-008  0.4614232E+02  0.7816164E-02  0.1320468E+00
        -11   -1    0    0    0    0  0.00000000000E+00  0.00000000000E+00  0.45593999997E+02  0.45594000000E+02  0.51100000000E-03 0.  1.
         11   -1    0    0    0    0 -0.00000000000E+00 -0.00000000000E+00 -0.45593999997E+02  0.45594000000E+02  0.51100000000E-03 0. -1.
    9900012    2    1    2    0    0 -0.27569784819E+02  0.27309162663E+00  0.35622266832E+02  0.46142317540E+02  0.99999979879E+01 0.  0.
         12    1    1    2    0    0  0.27569784819E+02 -0.27309162663E+00 -0.35622266832E+02  0.45045682460E+02  0.00000000000E+00 0. -1.
         11    1    3    3    0    0 -0.74852449282E+01 -0.32099457619E+01  0.64154981187E+01  0.10367799178E+02  0.51100000000E-03 0. -1.
        -11    1    3    3    0    0 -0.16779546689E+02  0.19036262570E+01  0.22495759124E+02  0.28128920328E+02  0.51100000000E-03 0.  1.
         12    1    3    3    0    0 -0.33049932016E+01  0.15794111315E+01  0.67110095895E+01  0.76455980339E+01  0.00000000000E+00 0. -1.
</event>
<event>
 7    1  0.2323330E-008  0.4614232E+02  0.7816164E-02  0.1320468E+00
        -11   -1    0    0    0    0  0.00000000000E+00  0.00000000000E+00  0.45593999997E+02  0.45594000000E+02  0.51100000000E-03 0.  1.
         11   -1    0    0    0    0 -0.00000000000E+00 -0.00000000000E+00 -0.45593999997E+02  0.45594000000E+02  0.51100000000E-03 0. -1.
    9900012    2    1    2    0    0  0.16218370177E+02  0.26231077585E+02  0.32833038675E+02  0.46142318841E+02  0.10000009843E+02 0.  0.
         12    1    1    2    0    0 -0.16218370177E+02 -0.26231077585E+02 -0.32833038675E+02  0.45045681159E+02  0.00000000000E+00 0. -1.
         11    1    3    3    0    0  0.20738553639E+01  0.45775797644E-01  0.12820764406E+01  0.24385839651E+01  0.51100000000E-03 0. -1.
        -11    1    3    3    0    0  0.25386989907E+01  0.63127077369E+01  0.43596443178E+01  0.80809510811E+01  0.51100000000E-03 0.  1.
        -12    1    3    3    0    0  0.11605815822E+02  0.19872594050E+02  0.27191317917E+02  0.35622783794E+02  0.00000000000E+00 0.  1.
</event>
<event>
 7    1  0.2323330E-008  0.4614232E+02  0.7816164E-02  0.1320468E+00
        -11   -1    0    0    0    0  0.00000000000E+00  0.00000000000E+00  0.45593999997E+02  0.45594000000E+02  0.51100000000E-03 0. -1.
         11   -1    0    0    0    0 -0.00000000000E+00 -0.00000000000E+00 -0.45593999997E+02  0.45594000000E+02  0.51100000000E-03 0.  1.
    9900012    2    1    2    0    0 -0.96939826994E+01  0.20092947863E+02 -0.39133280177E+02  0.46142317945E+02  0.10000001677E+02 0.  0.
         12    1    1    2    0    0  0.96939826994E+01 -0.20092947863E+02  0.39133280177E+02  0.45045682055E+02  0.00000000000E+00 0. -1.
         11    1    3    3    0    0 -0.29631745002E+01  0.19651191492E+01 -0.12058688578E+02  0.12571955570E+02  0.51100000000E-03 0. -1.
        -11    1    3    3    0    0 -0.56833905649E+01  0.10886771099E+02 -0.19454051730E+02  0.23006147923E+02  0.51100000000E-03 0.  1.
         12    1    3    3    0    0 -0.10474176343E+01  0.72410576152E+01 -0.76205398687E+01  0.10564214451E+02  0.00000000000E+00 0. -1.
</event>
<event>
 7    1  0.2323330E-008  0.4614232E+02  0.7816164E-02  0.1320468E+00
        -11   -1    0    0    0    0  0.00000000000E+00  0.00000000000E+00  0.45593999997E+02  0.45594000000E+02  0.51100000000E-03 0.  1.
         11   -1    0    0    0    0 -0.00000000000E+00 -0.00000000000E+00 -0.45593999997E+02  0.45594000000E+02  0.51100000000E-03 0. -1.
    9900012    2    1    2    0    0 -0.23817126425E+01 -0.10089268400E+02  0.43836601958E+02  0.46142316931E+02  0.99999924293E+01 0.  0.
         12    1    1    2    0    0  0.23817126425E+01  0.10089268400E+02 -0.43836601958E+02  0.45045683069E+02  0.00000000000E+00 0. -1.
         11    1    3    3    0    0  0.27913324710E+01 -0.49652583353E-01  0.67166445679E+01  0.72737415994E+01  0.51100000000E-03 0.  1.
        -11    1    3    3    0    0 -0.21257068328E+01 -0.63480360674E+01  0.19912651793E+02  0.21007853130E+02  0.51100000000E-03 0. -1.
        -12    1    3    3    0    0 -0.30473382807E+01 -0.36915797488E+01  0.17207305597E+02  0.17860722201E+02  0.00000000000E+00 0.  1.
</event>
<event>
 7    1  0.2323330E-008  0.4614232E+02  0.7816164E-02  0.1320468E+00
        -11   -1    0    0    0    0  0.00000000000E+00  0.00000000000E+00  0.45593999997E+02  0.45594000000E+02  0.51100000000E-03 0.  1.
         11   -1    0    0    0    0 -0.00000000000E+00 -0.00000000000E+00 -0.45593999997E+02  0.45594000000E+02  0.51100000000E-03 0. -1.
    9900012    2    1    2    0    0 -0.87148871271E+01 -0.22851980247E+02  0.37827915624E+02  0.46142318084E+02  0.10000002947E+02 0.  0.
         12    1    1    2    0    0  0.87148871271E+01  0.22851980247E+02 -0.37827915624E+02  0.45045681916E+02  0.00000000000E+00 0. -1.
         11    1    3    3    0    0  0.15717432576E+01 -0.30360361316E+01  0.68518643221E+01  0.76574106073E+01  0.51100000000E-03 0. -1.
        -11    1    3    3    0    0 -0.24318942701E+01 -0.16985763493E+01  0.28074864376E+01  0.40842688102E+01  0.51100000000E-03 0.  1.
        -12    1    3    3    0    0 -0.78547361145E+01 -0.18117367766E+02  0.28168564864E+02  0.34400638667E+02  0.00000000000E+00 0.  1.
</event>
<event>
 7    1  0.2323330E-008  0.4614232E+02  0.7816164E-02  0.1320468E+00
        -11   -1    0    0    0    0  0.00000000000E+00  0.00000000000E+00  0.45593999997E+02  0.45594000000E+02  0.51100000000E-03 0.  1.
         11   -1    0    0    0    0 -0.00000000000E+00 -0.00000000000E+00 -0.45593999997E+02  0.45594000000E+02  0.51100000000E-03 0. -1.
    9900012    2    1    2    0    0 -0.72114213832E+01  0.37786046640E+02  0.23437652654E+02  0.46142317843E+02  0.10000000749E+02 0.  0.
         12    1    1    2    0    0  0.72114213832E+01 -0.37786046640E+02 -0.23437652654E+02  0.45045682157E+02  0.00000000000E+00 0. -1.
         11    1    3    3    0    0 -0.77353299978E+01  0.22196600167E+02  0.13135577269E+02  0.26927082642E+02  0.51100000000E-03 0. -1.
        -11    1    3    3    0    0 -0.87777623958E+00  0.14209017301E+02  0.87580150917E+01  0.16714349895E+02  0.51100000000E-03 0.  1.
         12    1    3    3    0    0  0.14016848542E+01  0.13804291716E+01  0.15440602938E+01  0.25008853071E+01  0.00000000000E+00 0. -1.
</event>
<event>
 7    1  0.2323330E-008  0.4614232E+02  0.7816164E-02  0.1320468E+00
        -11   -1    0    0    0    0  0.00000000000E+00  0.00000000000E+00  0.45593999997E+02  0.45594000000E+02  0.51100000000E-03 0.  1.
         11   -1    0    0    0    0 -0.00000000000E+00 -0.00000000000E+00 -0.45593999997E+02  0.45594000000E+02  0.51100000000E-03 0. -1.
    9900012    2    1    2    0    0 -0.23248901328E+02 -0.10018433652E+02  0.37259000755E+02  0.46142316932E+02  0.99999924406E+01 0.  0.
         12    1    1    2    0    0  0.23248901328E+02  0.10018433652E+02 -0.37259000755E+02  0.45045683068E+02  0.00000000000E+00 0. -1.
         11    1    3    3    0    0 -0.10834015487E+02 -0.30586631588E+00  0.14945019227E+02  0.18461393386E+02  0.51100000000E-03 0. -1.
        -11    1    3    3    0    0 -0.10890134469E+02 -0.79568068580E+01  0.21139936921E+02  0.25075939412E+02  0.51100000000E-03 0.  1.
         12    1    3    3    0    0 -0.15247513718E+01 -0.17557604776E+01  0.11740446072E+01  0.26049841343E+01  0.00000000000E+00 0. -1.
</event>
<event>
 7    1  0.2323330E-008  0.4614232E+02  0.7816164E-02  0.1320468E+00
        -11   -1    0    0    0    0  0.00000000000E+00  0.00000000000E+00  0.45593999997E+02  0.45594000000E+02  0.51100000000E-03 0.  1.
         11   -1    0    0    0    0 -0.00000000000E+00 -0.00000000000E+00 -0.45593999997E+02  0.45594000000E+02  0.51100000000E-03 0. -1.
    9900012    2    1    2    0    0  0.37553176303E+02  0.14653481723E+02  0.20103431619E+02  0.46142317189E+02  0.99999947867E+01 0.  0.
         12    1    1    2    0    0 -0.37553176303E+02 -0.14653481723E+02 -0.20103431619E+02  0.45045682811E+02  0.00000000000E+00 0. -1.
         11    1    3    3    0    0  0.43754599201E+01  0.38109501472E+01  0.23145572899E+01  0.62470125858E+01  0.51100000000E-03 0. -1.
        -11    1    3    3    0    0  0.87778559897E+01  0.67651868760E+00  0.17475648422E+01  0.89756568812E+01  0.51100000000E-03 0.  1.
        -12    1    3    3    0    0  0.24399860393E+02  0.10166012888E+02  0.16041309487E+02  0.30919647722E+02  0.00000000000E+00 0.  1.
</event>
<event>
 7    1  0.2323330E-008  0.4614232E+02  0.7816164E-02  0.1320468E+00
        -11   -1    0    0    0    0  0.00000000000E+00  0.00000000000E+00  0.45593999997E+02  0.45594000000E+02  0.51100000000E-03 0.  1.
         11   -1    0    0    0    0 -0.00000000000E+00 -0.00000000000E+00 -0.45593999997E+02  0.45594000000E+02  0.51100000000E-03 0. -1.
    9900012    2    1    2    0    0  0.22506959080E+02 -0.30956703068E+02  0.23753585012E+02  0.46142317934E+02  0.10000001577E+02 0.  0.
         12    1    1    2    0    0 -0.22506959080E+02  0.30956703068E+02 -0.23753585012E+02  0.45045682066E+02  0.00000000000E+00 0. -1.
         11    1    3    3    0    0  0.12256114861E+02 -0.10605843259E+02  0.11126440277E+02  0.19659449032E+02  0.51100000000E-03 0. -1.
        -11    1    3    3    0    0  0.70432370361E+01 -0.89290015350E+01  0.69798383031E+01  0.13343627669E+02  0.51100000000E-03 0.  1.
        -12    1    3    3    0    0  0.32076071828E+01 -0.11421858274E+02  0.56473064313E+01  0.13139241234E+02  0.00000000000E+00 0.  1.
</event>
<event>
 7    1  0.2323330E-008  0.4614232E+02  0.7816164E-02  0.1320468E+00
        -11   -1    0    0    0    0  0.00000000000E+00  0.00000000000E+00  0.45593999997E+02  0.45594000000E+02  0.51100000000E-03 0.  1.
         11   -1    0    0    0    0 -0.00000000000E+00 -0.00000000000E+00 -0.45593999997E+02  0.45594000000E+02  0.51100000000E-03 0. -1.
    9900012    2    1    2    0    0  0.10951282109E+02 -0.23907242704E+01  0.43628744673E+02  0.46142317587E+02  0.99999984118E+01 0.  0.
         12    1    1    2    0    0 -0.10951282109E+02  0.23907242704E+01 -0.43628744673E+02  0.45045682413E+02  0.00000000000E+00 0. -1.
         11    1    3    3    0    0  0.20257383610E+01 -0.15994142118E+01  0.22019351938E+02  0.22170106039E+02  0.51100000000E-03 0. -1.
        -11    1    3    3    0    0  0.38480045557E+01 -0.17486725861E+01  0.14992469637E+02  0.15576878408E+02  0.51100000000E-03 0.  1.
        -12    1    3    3    0    0  0.50775391918E+01  0.95736252752E+00  0.66169230977E+01  0.83953331401E+01  0.00000000000E+00 0.  1.
</event>
<event>
 7    1  0.2323330E-008  0.4614232E+02  0.7816164E-02  0.1320468E+00
        -11   -1    0    0    0    0  0.00000000000E+00  0.00000000000E+00  0.45593999997E+02  0.45594000000E+02  0.51100000000E-03 0.  1.
         11   -1    0    0    0    0 -0.00000000000E+00 -0.00000000000E+00 -0.45593999997E+02  0.45594000000E+02  0.51100000000E-03 0. -1.
    9900012    2    1    2    0    0 -0.11728018045E+02 -0.18905447858E+02  0.39168240858E+02  0.46142318100E+02  0.10000003087E+02 0.  0.
         12    1    1    2    0    0  0.11728018045E+02  0.18905447858E+02 -0.39168240858E+02  0.45045681900E+02  0.00000000000E+00 0. -1.
         11    1    3    3    0    0 -0.76832419075E+01 -0.49030335194E+01  0.14651012039E+02  0.17254683362E+02  0.51100000000E-03 0. -1.
        -11    1    3    3    0    0 -0.42615522051E+01 -0.98795873585E+01  0.20362962717E+02  0.23030790791E+02  0.51100000000E-03 0.  1.
         12    1    3    3    0    0  0.21677606757E+00 -0.41228269804E+01  0.41542661021E+01  0.58568439472E+01  0.00000000000E+00 0. -1.
</event>
<event>
 7    1  0.2323330E-008  0.4614232E+02  0.7816164E-02  0.1320468E+00
        -11   -1    0    0    0    0  0.00000000000E+00  0.00000000000E+00  0.45593999997E+02  0.45594000000E+02  0.51100000000E-03 0.  1.
         11   -1    0    0    0    0 -0.00000000000E+00 -0.00000000000E+00 -0.45593999997E+02  0.45594000000E+02  0.51100000000E-03 0. -1.
    9900012    2    1    2    0    0  0.39275581893E+02  0.94839451156E+01  0.19914741210E+02  0.46142318016E+02  0.10000002323E+02 0.  0.
         12    1    1    2    0    0 -0.39275581893E+02 -0.94839451156E+01 -0.19914741210E+02  0.45045681984E+02  0.00000000000E+00 0. -1.
         11    1    3    3    0    0  0.14419643911E+02  0.17997727989E+00  0.64603610300E+01  0.15801733678E+02  0.51100000000E-03 0. -1.
        -11    1    3    3    0    0  0.12470626737E+02  0.36909006745E+01  0.97287574222E+01  0.16241551658E+02  0.51100000000E-03 0.  1.
         12    1    3    3    0    0  0.12385311245E+02  0.56130671613E+01  0.37256227577E+01  0.14099032680E+02  0.00000000000E+00 0. -1.
</event>
<event>
 7    1  0.2323330E-008  0.4614232E+02  0.7816164E-02  0.1320468E+00
        -11   -1    0    0    0    0  0.00000000000E+00  0.00000000000E+00  0.45593999997E+02  0.45594000000E+02  0.51100000000E-03 0.  1.
         11   -1    0    0    0    0 -0.00000000000E+00 -0.00000000000E+00 -0.45593999997E+02  0.45594000000E+02  0.51100000000E-03 0. -1.
    9900012    2    1    2    0    0 -0.25258196497E+02  0.38041317012E+00  0.37296009166E+02  0.46142317585E+02  0.99999983982E+01 0.  0.
         12    1    1    2    0    0  0.25258196497E+02 -0.38041317012E+00 -0.37296009166E+02  0.45045682415E+02  0.00000000000E+00 0. -1.
         11    1    3    3    0    0 -0.51979208348E+00 -0.13871594185E+01  0.12555967083E+01  0.19418852741E+01  0.51100000000E-03 0. -1.
        -11    1    3    3    0    0 -0.72203345210E+01  0.20871447458E+01  0.15326442925E+02  0.17070127615E+02  0.51100000000E-03 0.  1.
         12    1    3    3    0    0 -0.17518069893E+02 -0.31957215713E+00  0.20713969532E+02  0.27130304697E+02  0.00000000000E+00 0. -1.
</event>
<event>
 7    1  0.2323330E-008  0.4614232E+02  0.7816164E-02  0.1320468E+00
        -11   -1    0    0    0    0  0.00000000000E+00  0.00000000000E+00  0.45593999997E+02  0.45594000000E+02  0.51100000000E-03 0.  1.
         11   -1    0    0    0    0 -0.00000000000E+00 -0.00000000000E+00 -0.45593999997E+02  0.45594000000E+02  0.51100000000E-03 0. -1.
    9900012    2    1    2    0    0  0.26433808843E+02 -0.92393596193E+01  0.35284578318E+02  0.46142317819E+02  0.10000000524E+02 0.  0.
         12    1    1    2    0    0 -0.26433808843E+02  0.92393596193E+01 -0.35284578318E+02  0.45045682181E+02  0.00000000000E+00 0. -1.
         11    1    3    3    0    0  0.93323884918E+01 -0.80323825096E+00  0.84739401711E+01  0.12631164987E+02  0.51100000000E-03 0.  1.
        -11    1    3    3    0    0  0.25349177945E+01  0.47998488696E+00  0.15213159952E+01  0.29950953800E+01  0.51100000000E-03 0. -1.
        -12    1    3    3    0    0  0.14566502556E+02 -0.89161062553E+01  0.25289322152E+02  0.30516057451E+02  0.00000000000E+00 0.  1.
</event>
<event>
 7    1  0.2323330E-008  0.4614232E+02  0.7816164E-02  0.1320468E+00
        -11   -1    0    0    0    0  0.00000000000E+00  0.00000000000E+00  0.45593999997E+02  0.45594000000E+02  0.51100000000E-03 0. -1.
         11   -1    0    0    0    0 -0.00000000000E+00 -0.00000000000E+00 -0.45593999997E+02  0.45594000000E+02  0.51100000000E-03 0.  1.
    9900012    2    1    2    0    0 -0.44200078063E+02  0.59571626541E+01 -0.63228740647E+01  0.46142318475E+02  0.10000006506E+02 0.  0.
         12    1    1    2    0    0  0.44200078063E+02 -0.59571626541E+01  0.63228740647E+01  0.45045681525E+02  0.00000000000E+00 0. -1.
         11    1    3    3    0    0 -0.14243847162E+02  0.21543196369E+01 -0.47945769520E+01  0.15182761392E+02  0.51100000000E-03 0. -1.
        -11    1    3    3    0    0 -0.23650527791E+02  0.67530909636E+00  0.39268570397E+00  0.23663425566E+02  0.51100000000E-03 0.  1.
         12    1    3    3    0    0 -0.63057031096E+01  0.31275339208E+01 -0.19209828167E+01  0.72961315170E+01  0.00000000000E+00 0. -1.
</event>
<event>
 7    1  0.2323330E-008  0.4614231E+02  0.7816164E-02  0.1320468E+00
        -11   -1    0    0    0    0  0.00000000000E+00  0.00000000000E+00  0.45593999997E+02  0.45594000000E+02  0.51100000000E-03 0.  1.
         11   -1    0    0    0    0 -0.00000000000E+00 -0.00000000000E+00 -0.45593999997E+02  0.45594000000E+02  0.51100000000E-03 0. -1.
    9900012    2    1    2    0    0  0.43834294953E+02 -0.98842592443E+01  0.31576029349E+01  0.46142307074E+02  0.99999025492E+01 0.  0.
         12    1    1    2    0    0 -0.43834294953E+02  0.98842592443E+01 -0.31576029349E+01  0.45045692926E+02  0.00000000000E+00 0. -1.
         11    1    3    3    0    0  0.12316548660E+02 -0.36260030276E+01  0.24691768608E+01  0.13074482915E+02  0.51100000000E-03 0. -1.
        -11    1    3    3    0    0  0.12898477928E+02 -0.63865310565E+01  0.11830861268E+01  0.14441544406E+02  0.51100000000E-03 0.  1.
        -12    1    3    3    0    0  0.18619268365E+02  0.12827483975E+00 -0.49466005271E+00  0.18626279753E+02  0.00000000000E+00 0.  1.
</event>
<event>
 7    1  0.2323330E-008  0.4614232E+02  0.7816164E-02  0.1320468E+00
        -11   -1    0    0    0    0  0.00000000000E+00  0.00000000000E+00  0.45593999997E+02  0.45594000000E+02  0.51100000000E-03 0.  1.
         11   -1    0    0    0    0 -0.00000000000E+00 -0.00000000000E+00 -0.45593999997E+02  0.45594000000E+02  0.51100000000E-03 0. -1.
    9900012    2    1    2    0    0  0.11898225963E+02 -0.15964255785E+02  0.40406536986E+02  0.46142317909E+02  0.10000001347E+02 0.  0.
         12    1    1    2    0    0 -0.11898225963E+02  0.15964255785E+02 -0.40406536986E+02  0.45045682091E+02  0.00000000000E+00 0. -1.
         11    1    3    3    0    0  0.17500871291E+01  0.61440015085E+00  0.95953960342E+00  0.20883029035E+01  0.51100000000E-03 0. -1.
        -11    1    3    3    0    0  0.20446694613E+01 -0.56468288201E+01  0.11995555951E+02  0.13414943599E+02  0.51100000000E-03 0.  1.
         12    1    3    3    0    0  0.81034693722E+01 -0.10931827116E+02  0.27451441432E+02  0.30639071407E+02  0.00000000000E+00 0. -1.
</event>
<event>
 7    1  0.2323330E-008  0.4614232E+02  0.7816164E-02  0.1320468E+00
        -11   -1    0    0    0    0  0.00000000000E+00  0.00000000000E+00  0.45593999997E+02  0.45594000000E+02  0.51100000000E-03 0.  1.
         11   -1    0    0    0    0 -0.00000000000E+00 -0.00000000000E+00 -0.45593999997E+02  0.45594000000E+02  0.51100000000E-03 0. -1.
    9900012    2    1    2    0    0  0.26114357001E+02 -0.29317727846E+02  0.22082225220E+02  0.46142317873E+02  0.10000001022E+02 0.  0.
         12    1    1    2    0    0 -0.26114357001E+02  0.29317727846E+02 -0.22082225220E+02  0.45045682127E+02  0.00000000000E+00 0. -1.
         11    1    3    3    0    0  0.14208772960E+00 -0.54263672054E+00  0.87717185040E+00  0.10411888636E+01  0.51100000000E-03 0. -1.
        -11    1    3    3    0    0  0.12696619302E+02 -0.13435814378E+02  0.15234407466E+02  0.23954382079E+02  0.51100000000E-03 0.  1.
         12    1    3    3    0    0  0.13275649969E+02 -0.15339276747E+02  0.59706459039E+01  0.21146746931E+02  0.00000000000E+00 0. -1.
</event>
<event>
 7    1  0.2323330E-008  0.4614231E+02  0.7816164E-02  0.1320468E+00
        -11   -1    0    0    0    0  0.00000000000E+00  0.00000000000E+00  0.45593999997E+02  0.45594000000E+02  0.51100000000E-03 0.  1.
         11   -1    0    0    0    0 -0.00000000000E+00 -0.00000000000E+00 -0.45593999997E+02  0.45594000000E+02  0.51100000000E-03 0. -1.
    9900012    2    1    2    0    0  0.11752974892E+02 -0.22715200575E+02  0.37081010882E+02  0.46142310705E+02  0.99999356593E+01 0.  0.
         12    1    1    2    0    0 -0.11752974892E+02  0.22715200575E+02 -0.37081010882E+02  0.45045689295E+02  0.00000000000E+00 0. -1.
         11    1    3    3    0    0  0.29681866202E+01 -0.35586824368E+01  0.11749345275E+02  0.12630180805E+02  0.51100000000E-03 0. -1.
        -11    1    3    3    0    0 -0.57492657694E+00 -0.34837267665E+00  0.10036424961E+00  0.67968914544E+00  0.51100000000E-03 0.  1.
        -12    1    3    3    0    0  0.93597148491E+01 -0.18808145461E+02  0.25231301357E+02  0.32832440755E+02  0.00000000000E+00 0.  1.
</event>
<event>
 7    1  0.2323330E-008  0.4614232E+02  0.7816164E-02  0.1320468E+00
        -11   -1    0    0    0    0  0.00000000000E+00  0.00000000000E+00  0.45593999997E+02  0.45594000000E+02  0.51100000000E-03 0.  1.
         11   -1    0    0    0    0 -0.00000000000E+00 -0.00000000000E+00 -0.45593999997E+02  0.45594000000E+02  0.51100000000E-03 0. -1.
    9900012    2    1    2    0    0  0.28159162905E+02  0.25865306464E+02  0.23815135360E+02  0.46142320893E+02  0.10000028558E+02 0.  0.
         12    1    1    2    0    0 -0.28159162905E+02 -0.25865306464E+02 -0.23815135360E+02  0.45045679107E+02  0.00000000000E+00 0. -1.
         11    1    3    3    0    0  0.79992556250E+00 -0.68690794476E-01  0.99721480961E+00  0.12802487916E+01  0.51100000000E-03 0. -1.
        -11    1    3    3    0    0  0.26305836536E+02  0.22872178529E+02  0.22745681295E+02  0.41623306024E+02  0.51100000000E-03 0.  1.
        -12    1    3    3    0    0  0.10534008062E+01  0.30618187296E+01  0.72239255427E-01  0.32387660770E+01  0.00000000000E+00 0.  1.
</event>
<event>
 7    1  0.2323330E-008  0.4614232E+02  0.7816164E-02  0.1320468E+00
        -11   -1    0    0    0    0  0.00000000000E+00  0.00000000000E+00  0.45593999997E+02  0.45594000000E+02  0.51100000000E-03 0. -1.
         11   -1    0    0    0    0 -0.00000000000E+00 -0.00000000000E+00 -0.45593999997E+02  0.45594000000E+02  0.51100000000E-03 0.  1.
    9900012    2    1    2    0    0 -0.32009620601E+02 -0.18581877803E+02 -0.25675112905E+02  0.46142318560E+02  0.10000007283E+02 0.  0.
         12    1    1    2    0    0  0.32009620601E+02  0.18581877803E+02  0.25675112905E+02  0.45045681440E+02  0.00000000000E+00 0. -1.
         11    1    3    3    0    0 -0.89313836618E+01 -0.68713566183E+01 -0.11105355670E+02  0.15821317287E+02  0.51100000000E-03 0. -1.
        -11    1    3    3    0    0 -0.83873380562E+01 -0.70718988656E+01 -0.41851872410E+01  0.11742017959E+02  0.51100000000E-03 0.  1.
        -12    1    3    3    0    0 -0.14690898883E+02 -0.46386223195E+01 -0.10384569994E+02  0.18578983314E+02  0.00000000000E+00 0.  1.
</event>
<event>
 7    1  0.2323330E-008  0.4614232E+02  0.7816164E-02  0.1320468E+00
        -11   -1    0    0    0    0  0.00000000000E+00  0.00000000000E+00  0.45593999997E+02  0.45594000000E+02  0.51100000000E-03 0.  1.
         11   -1    0    0    0    0 -0.00000000000E+00 -0.00000000000E+00 -0.45593999997E+02  0.45594000000E+02  0.51100000000E-03 0. -1.
    9900012    2    1    2    0    0 -0.31206345568E+02  0.31403326501E+02  0.83131567622E+01  0.46142317695E+02  0.99999993957E+01 0.  0.
         12    1    1    2    0    0  0.31206345568E+02 -0.31403326501E+02 -0.83131567622E+01  0.45045682305E+02  0.00000000000E+00 0. -1.
         11    1    3    3    0    0 -0.10075075562E+01  0.23331174957E+01  0.18445309607E+01  0.31401916264E+01  0.51100000000E-03 0. -1.
        -11    1    3    3    0    0  0.33169916785E+00  0.94709549526E+00  0.15492276630E+00  0.10153893538E+01  0.51100000000E-03 0.  1.
        -12    1    3    3    0    0 -0.30530537179E+02  0.28123113510E+02  0.63137030352E+01  0.41986736715E+02  0.00000000000E+00 0.  1.
</event>
<event>
 7    1  0.2323330E-008  0.4614233E+02  0.7816164E-02  0.1320468E+00
        -11   -1    0    0    0    0  0.00000000000E+00  0.00000000000E+00  0.45593999997E+02  0.45594000000E+02  0.51100000000E-03 0.  1.
         11   -1    0    0    0    0 -0.00000000000E+00 -0.00000000000E+00 -0.45593999997E+02  0.45594000000E+02  0.51100000000E-03 0. -1.
    9900012    2    1    2    0    0 -0.31378411490E+02  0.32227911427E+02 -0.24227666156E+01  0.46142325617E+02  0.10000071634E+02 0.  0.
         12    1    1    2    0    0  0.31378411490E+02 -0.32227911427E+02  0.24227666156E+01  0.45045674383E+02  0.00000000000E+00 0. -1.
         11    1    3    3    0    0 -0.53079633383E+01  0.72126831246E+01  0.26826697422E+01  0.93484752695E+01  0.51100000000E-03 0. -1.
        -11    1    3    3    0    0 -0.84849872388E+01  0.89642317914E+01  0.42595861039E+00  0.12350461572E+02  0.51100000000E-03 0.  1.
        -12    1    3    3    0    0 -0.17585460913E+02  0.16050996511E+02 -0.55313949682E+01  0.24443388775E+02  0.00000000000E+00 0.  1.
</event>
<event>
 7    1  0.2323330E-008  0.4614232E+02  0.7816164E-02  0.1320468E+00
        -11   -1    0    0    0    0  0.00000000000E+00  0.00000000000E+00  0.45593999997E+02  0.45594000000E+02  0.51100000000E-03 0.  1.
         11   -1    0    0    0    0 -0.00000000000E+00 -0.00000000000E+00 -0.45593999997E+02  0.45594000000E+02  0.51100000000E-03 0. -1.
    9900012    2    1    2    0    0 -0.72757821649E+01 -0.43363115315E+02  0.97885919539E+01  0.46142319759E+02  0.10000018223E+02 0.  0.
         12    1    1    2    0    0  0.72757821649E+01  0.43363115315E+02 -0.97885919539E+01  0.45045680241E+02  0.00000000000E+00 0. -1.
         11    1    3    3    0    0 -0.15598946419E+01 -0.10947429024E+02  0.56520724688E+01  0.12418751828E+02  0.51100000000E-03 0. -1.
        -11    1    3    3    0    0 -0.25675171441E+01 -0.98996127957E+01  0.40180427569E+01  0.10988136587E+02  0.51100000000E-03 0.  1.
         12    1    3    3    0    0 -0.31483703789E+01 -0.22516073495E+02  0.11847672823E+00  0.22735431344E+02  0.00000000000E+00 0. -1.
</event>
<event>
 7    1  0.2323330E-008  0.4614232E+02  0.7816164E-02  0.1320468E+00
        -11   -1    0    0    0    0  0.00000000000E+00  0.00000000000E+00  0.45593999997E+02  0.45594000000E+02  0.51100000000E-03 0. -1.
         11   -1    0    0    0    0 -0.00000000000E+00 -0.00000000000E+00 -0.45593999997E+02  0.45594000000E+02  0.51100000000E-03 0.  1.
    9900012    2    1    2    0    0 -0.32409645325E+02  0.67119331264E+01 -0.30556149439E+02  0.46142318466E+02  0.10000006423E+02 0.  0.
         12    1    1    2    0    0  0.32409645325E+02 -0.67119331264E+01  0.30556149439E+02  0.45045681534E+02  0.00000000000E+00 0. -1.
         11    1    3    3    0    0 -0.76554429826E+01 -0.15854966343E+01 -0.64406764211E+01  0.10129260578E+02  0.51100000000E-03 0. -1.
        -11    1    3    3    0    0 -0.14595073696E+02  0.36921790248E+01 -0.17334599585E+02  0.22959457859E+02  0.51100000000E-03 0.  1.
        -12    1    3    3    0    0 -0.10159128646E+02  0.46052507360E+01 -0.67808734327E+01  0.13053600028E+02  0.00000000000E+00 0.  1.
</event>
<event>
 7    1  0.2323330E-008  0.4614232E+02  0.7816164E-02  0.1320468E+00
        -11   -1    0    0    0    0  0.00000000000E+00  0.00000000000E+00  0.45593999997E+02  0.45594000000E+02  0.51100000000E-03 0. -1.
         11   -1    0    0    0    0 -0.00000000000E+00 -0.00000000000E+00 -0.45593999997E+02  0.45594000000E+02  0.51100000000E-03 0.  1.
    9900012    2    1    2    0    0 -0.41043858695E+01  0.42994568289E+02  0.12795881619E+02  0.46142317941E+02  0.10000001641E+02 0.  0.
         12    1    1    2    0    0  0.41043858695E+01 -0.42994568289E+02 -0.12795881619E+02  0.45045682059E+02  0.00000000000E+00 0. -1.
         11    1    3    3    0    0 -0.26109081266E-01  0.74512714683E+00  0.15259245268E+01  0.16983350881E+01  0.51100000000E-03 0. -1.
        -11    1    3    3    0    0 -0.10270212997E+01  0.32535135809E+02  0.64743862276E+01  0.33188966723E+02  0.51100000000E-03 0.  1.
         12    1    3    3    0    0 -0.30512554885E+01  0.97143053333E+01  0.47955708643E+01  0.11255016130E+02  0.00000000000E+00 0. -1.
</event>
<event>
 7    1  0.2323330E-008  0.4614233E+02  0.7816164E-02  0.1320468E+00
        -11   -1    0    0    0    0  0.00000000000E+00  0.00000000000E+00  0.45593999997E+02  0.45594000000E+02  0.51100000000E-03 0.  1.
         11   -1    0    0    0    0 -0.00000000000E+00 -0.00000000000E+00 -0.45593999997E+02  0.45594000000E+02  0.51100000000E-03 0. -1.
    9900012    2    1    2    0    0  0.71771711142E+01 -0.26730334316E+01  0.44389811366E+02  0.46142331550E+02  0.10000125741E+02 0.  0.
         12    1    1    2    0    0 -0.71771711142E+01  0.26730334316E+01 -0.44389811366E+02  0.45045668450E+02  0.00000000000E+00 0. -1.
         11    1    3    3    0    0  0.76241446160E+01  0.16348615160E+01  0.24996770138E+02  0.26184706813E+02  0.51100000000E-03 0. -1.
        -11    1    3    3    0    0 -0.54722049798E+00 -0.57263856030E+00  0.60369786497E+01  0.60887171614E+01  0.51100000000E-03 0.  1.
        -12    1    3    3    0    0  0.10024699612E+00 -0.37352563873E+01  0.13356062578E+02  0.13868907576E+02  0.00000000000E+00 0.  1.
</event>
<event>
 7    1  0.2323330E-008  0.4614232E+02  0.7816164E-02  0.1320468E+00
        -11   -1    0    0    0    0  0.00000000000E+00  0.00000000000E+00  0.45593999997E+02  0.45594000000E+02  0.51100000000E-03 0.  1.
         11   -1    0    0    0    0 -0.00000000000E+00 -0.00000000000E+00 -0.45593999997E+02  0.45594000000E+02  0.51100000000E-03 0. -1.
    9900012    2    1    2    0    0  0.39947654487E+02 -0.80140119527E+01  0.19211295999E+02  0.46142318958E+02  0.10000010910E+02 0.  0.
         12    1    1    2    0    0 -0.39947654487E+02  0.80140119527E+01 -0.19211295999E+02  0.45045681042E+02  0.00000000000E+00 0. -1.
         11    1    3    3    0    0  0.25502369663E+02 -0.68081778578E+01  0.10723768648E+02  0.28490724078E+02  0.51100000000E-03 0. -1.
        -11    1    3    3    0    0  0.13274451238E+02 -0.17747567881E+01  0.56612886074E+01  0.14539979584E+02  0.51100000000E-03 0.  1.
         12    1    3    3    0    0  0.11708335855E+01  0.56892269324E+00  0.28262387437E+01  0.31116152963E+01  0.00000000000E+00 0. -1.
</event>
<event>
 7    1  0.2323330E-008  0.4614232E+02  0.7816164E-02  0.1320468E+00
        -11   -1    0    0    0    0  0.00000000000E+00  0.00000000000E+00  0.45593999997E+02  0.45594000000E+02  0.51100000000E-03 0.  1.
         11   -1    0    0    0    0 -0.00000000000E+00 -0.00000000000E+00 -0.45593999997E+02  0.45594000000E+02  0.51100000000E-03 0. -1.
    9900012    2    1    2    0    0  0.19746970622E+02 -0.81336914444E+01  0.39661237076E+02  0.46142317503E+02  0.99999976437E+01 0.  0.
         12    1    1    2    0    0 -0.19746970622E+02  0.81336914444E+01 -0.39661237076E+02  0.45045682497E+02  0.00000000000E+00 0. -1.
         11    1    3    3    0    0  0.18845732935E+01  0.78425352227E-01  0.21618581956E+01  0.28690413300E+01  0.51100000000E-03 0. -1.
        -11    1    3    3    0    0  0.13722044888E+02 -0.59004162137E+01  0.34671460194E+02  0.37752080468E+02  0.51100000000E-03 0.  1.
        -12    1    3    3    0    0  0.41403524404E+01 -0.23117005829E+01  0.28279186864E+01  0.55211957050E+01  0.00000000000E+00 0.  1.
</event>
<event>
 7    1  0.2323330E-008  0.4614232E+02  0.7816164E-02  0.1320468E+00
        -11   -1    0    0    0    0  0.00000000000E+00  0.00000000000E+00  0.45593999997E+02  0.45594000000E+02  0.51100000000E-03 0.  1.
         11   -1    0    0    0    0 -0.00000000000E+00 -0.00000000000E+00 -0.45593999997E+02  0.45594000000E+02  0.51100000000E-03 0. -1.
    9900012    2    1    2    0    0  0.39343580939E+02 -0.15033358069E+02  0.15974799616E+02  0.46142318313E+02  0.10000005029E+02 0.  0.
         12    1    1    2    0    0 -0.39343580939E+02  0.15033358069E+02 -0.15974799616E+02  0.45045681687E+02  0.00000000000E+00 0. -1.
         11    1    3    3    0    0  0.10053506984E+02 -0.18843595294E+01  0.23205754430E+01  0.10488512009E+02  0.51100000000E-03 0. -1.
        -11    1    3    3    0    0  0.19888747251E+02 -0.77857170075E+01  0.12553561203E+02  0.24774413327E+02  0.51100000000E-03 0.  1.
        -12    1    3    3    0    0  0.94013267028E+01 -0.53632815317E+01  0.11006629702E+01  0.10879392976E+02  0.00000000000E+00 0.  1.
</event>
<event>
 7    1  0.2323330E-008  0.4614232E+02  0.7816164E-02  0.1320468E+00
        -11   -1    0    0    0    0  0.00000000000E+00  0.00000000000E+00  0.45593999997E+02  0.45594000000E+02  0.51100000000E-03 0. -1.
         11   -1    0    0    0    0 -0.00000000000E+00 -0.00000000000E+00 -0.45593999997E+02  0.45594000000E+02  0.51100000000E-03 0.  1.
    9900012    2    1    2    0    0 -0.45380323686E+01 -0.44226978764E+02 -0.72452524184E+01  0.46142322394E+02  0.10000042245E+02 0.  0.
         12    1    1    2    0    0  0.45380323686E+01  0.44226978764E+02  0.72452524184E+01  0.45045677606E+02  0.00000000000E+00 0. -1.
         11    1    3    3    0    0 -0.58772845752E+01 -0.22072332482E+02 -0.61754230272E+01  0.23661491605E+02  0.51100000000E-03 0. -1.
        -11    1    3    3    0    0 -0.10703322973E+01 -0.10461904184E+02 -0.43335700339E+00  0.10525438183E+02  0.51100000000E-03 0.  1.
         12    1    3    3    0    0  0.24095845040E+01 -0.11692742098E+02 -0.63647238784E+00  0.11955392606E+02  0.00000000000E+00 0. -1.
</event>
<event>
 7    1  0.2323330E-008  0.4614232E+02  0.7816164E-02  0.1320468E+00
        -11   -1    0    0    0    0  0.00000000000E+00  0.00000000000E+00  0.45593999997E+02  0.45594000000E+02  0.51100000000E-03 0. -1.
         11   -1    0    0    0    0 -0.00000000000E+00 -0.00000000000E+00 -0.45593999997E+02  0.45594000000E+02  0.51100000000E-03 0.  1.
    9900012    2    1    2    0    0 -0.19682987159E+02  0.35153399695E+02 -0.20147753834E+02  0.46142317874E+02  0.10000001031E+02 0.  0.
         12    1    1    2    0    0  0.19682987159E+02 -0.35153399695E+02  0.20147753834E+02  0.45045682126E+02  0.00000000000E+00 0. -1.
         11    1    3    3    0    0 -0.37706113064E+01  0.94750746043E+01 -0.21999176858E+01  0.10432362459E+02  0.51100000000E-03 0. -1.
        -11    1    3    3    0    0 -0.91712349719E+01  0.88777860918E+01 -0.77434171127E+01  0.14929405402E+02  0.51100000000E-03 0.  1.
        -12    1    3    3    0    0 -0.67411408805E+01  0.16800538999E+02 -0.10204419036E+02  0.20780550014E+02  0.00000000000E+00 0.  1.
</event>
<event>
 7    1  0.2323330E-008  0.4614232E+02  0.7816164E-02  0.1320468E+00
        -11   -1    0    0    0    0  0.00000000000E+00  0.00000000000E+00  0.45593999997E+02  0.45594000000E+02  0.51100000000E-03 0.  1.
         11   -1    0    0    0    0 -0.00000000000E+00 -0.00000000000E+00 -0.45593999997E+02  0.45594000000E+02  0.51100000000E-03 0. -1.
    9900012    2    1    2    0    0 -0.12837792701E+00  0.29101804070E+02  0.34382873609E+02  0.46142317869E+02  0.10000000986E+02 0.  0.
         12    1    1    2    0    0  0.12837792701E+00 -0.29101804070E+02 -0.34382873609E+02  0.45045682131E+02  0.00000000000E+00 0. -1.
         11    1    3    3    0    0 -0.20766438982E+01  0.27467551595E+01  0.23653994757E+01  0.41775864715E+01  0.51100000000E-03 0. -1.
        -11    1    3    3    0    0 -0.54323273967E+00  0.10953490503E+02  0.17505692370E+02  0.20657282532E+02  0.51100000000E-03 0.  1.
         12    1    3    3    0    0  0.24914987108E+01  0.15401558408E+02  0.14511781764E+02  0.21307448866E+02  0.00000000000E+00 0. -1.
</event>
<event>
 7    1  0.2323330E-008  0.4614232E+02  0.7816164E-02  0.1320468E+00
        -11   -1    0    0    0    0  0.00000000000E+00  0.00000000000E+00  0.45593999997E+02  0.45594000000E+02  0.51100000000E-03 0.  1.
         11   -1    0    0    0    0 -0.00000000000E+00 -0.00000000000E+00 -0.45593999997E+02  0.45594000000E+02  0.51100000000E-03 0. -1.
    9900012    2    1    2    0    0 -0.21015782287E+02 -0.23388433694E+02  0.32255717270E+02  0.46142320602E+02  0.10000025906E+02 0.  0.
         12    1    1    2    0    0  0.21015782287E+02  0.23388433694E+02 -0.32255717270E+02  0.45045679398E+02  0.00000000000E+00 0. -1.
         11    1    3    3    0    0 -0.15317334986E+01  0.39781700278E+00  0.15044913300E+01  0.21835659600E+01  0.51100000000E-03 0. -1.
        -11    1    3    3    0    0 -0.43558848272E+01 -0.97207001673E+01  0.12185022972E+02  0.16184576901E+02  0.51100000000E-03 0.  1.
        -12    1    3    3    0    0 -0.15128163961E+02 -0.14065550529E+02  0.18566202969E+02  0.27774177741E+02  0.00000000000E+00 0.  1.
</event>
<event>
 7    1  0.2323330E-008  0.4614231E+02  0.7816164E-02  0.1320468E+00
        -11   -1    0    0    0    0  0.00000000000E+00  0.00000000000E+00  0.45593999997E+02  0.45594000000E+02  0.51100000000E-03 0.  1.
         11   -1    0    0    0    0 -0.00000000000E+00 -0.00000000000E+00 -0.45593999997E+02  0.45594000000E+02  0.51100000000E-03 0. -1.
    9900012    2    1    2    0    0 -0.40295585249E+02 -0.13574509005E+02  0.14869853488E+02  0.46142311771E+02  0.99999453732E+01 0.  0.
         12    1    1    2    0    0  0.40295585249E+02  0.13574509005E+02 -0.14869853488E+02  0.45045688229E+02  0.00000000000E+00 0. -1.
         11    1    3    3    0    0 -0.12865604373E+02 -0.54720975460E+01  0.85001758787E+01  0.16362170323E+02  0.51100000000E-03 0. -1.
        -11    1    3    3    0    0 -0.14799173452E+01 -0.14055707939E+01 -0.52452685980E+00  0.21073474543E+01  0.51100000000E-03 0.  1.
        -12    1    3    3    0    0 -0.25950063531E+02 -0.66968406651E+01  0.68942044694E+01  0.27672793993E+02  0.00000000000E+00 0.  1.
</event>
<event>
 7    1  0.2323330E-008  0.4614232E+02  0.7816164E-02  0.1320468E+00
        -11   -1    0    0    0    0  0.00000000000E+00  0.00000000000E+00  0.45593999997E+02  0.45594000000E+02  0.51100000000E-03 0.  1.
         11   -1    0    0    0    0 -0.00000000000E+00 -0.00000000000E+00 -0.45593999997E+02  0.45594000000E+02  0.51100000000E-03 0. -1.
    9900012    2    1    2    0    0 -0.10166127772E+02  0.21840753602E+02  0.38062380987E+02  0.46142317430E+02  0.99999969800E+01 0.  0.
         12    1    1    2    0    0  0.10166127772E+02 -0.21840753602E+02 -0.38062380987E+02  0.45045682570E+02  0.00000000000E+00 0. -1.
         11    1    3    3    0    0  0.12184974305E+01  0.12418657428E+01  0.18699668867E+01  0.25541618840E+01  0.51100000000E-03 0. -1.
        -11    1    3    3    0    0 -0.10443632766E-01 -0.32137175513E+00  0.79688830724E-01  0.33126944520E+00  0.51100000000E-03 0.  1.
        -12    1    3    3    0    0 -0.11374181570E+02  0.20920259614E+02  0.36112725270E+02  0.43256886101E+02  0.00000000000E+00 0.  1.
</event>
<event>
 7    1  0.2323330E-008  0.4614231E+02  0.7816164E-02  0.1320468E+00
        -11   -1    0    0    0    0  0.00000000000E+00  0.00000000000E+00  0.45593999997E+02  0.45594000000E+02  0.51100000000E-03 0.  1.
         11   -1    0    0    0    0 -0.00000000000E+00 -0.00000000000E+00 -0.45593999997E+02  0.45594000000E+02  0.51100000000E-03 0. -1.
    9900012    2    1    2    0    0 -0.78024853698E+01  0.32261862890E+02  0.30453361611E+02  0.46142314208E+02  0.99999676003E+01 0.  0.
         12    1    1    2    0    0  0.78024853698E+01 -0.32261862890E+02 -0.30453361611E+02  0.45045685792E+02  0.00000000000E+00 0. -1.
         11    1    3    3    0    0 -0.26636584722E+01  0.11800449550E+02  0.10108458767E+02  0.15764727240E+02  0.51100000000E-03 0. -1.
        -11    1    3    3    0    0  0.13059702192E+01  0.11155918203E+02  0.97552935058E+01  0.14877023251E+02  0.51100000000E-03 0.  1.
         12    1    3    3    0    0 -0.64447971168E+01  0.93054951361E+01  0.10589609339E+02  0.15500563717E+02  0.00000000000E+00 0. -1.
</event>
<event>
 7    1  0.2323330E-008  0.4614232E+02  0.7816164E-02  0.1320468E+00
        -11   -1    0    0    0    0  0.00000000000E+00  0.00000000000E+00  0.45593999997E+02  0.45594000000E+02  0.51100000000E-03 0. -1.
         11   -1    0    0    0    0 -0.00000000000E+00 -0.00000000000E+00 -0.45593999997E+02  0.45594000000E+02  0.51100000000E-03 0.  1.
    9900012    2    1    2    0    0 -0.10239799005E+02 -0.42887554953E+02  0.92150761663E+01  0.46142317829E+02  0.10000000620E+02 0.  0.
         12    1    1    2    0    0  0.10239799005E+02  0.42887554953E+02 -0.92150761663E+01  0.45045682171E+02  0.00000000000E+00 0. -1.
         11    1    3    3    0    0 -0.33448479999E+01 -0.16862431342E+02  0.72610159314E+00  0.17206301831E+02  0.51100000000E-03 0. -1.
        -11    1    3    3    0    0 -0.71536462259E+01 -0.26216634756E+02  0.87199259775E+01  0.28539861625E+02  0.51100000000E-03 0.  1.
         12    1    3    3    0    0  0.25869522056E+00  0.19151114575E+00 -0.23095140441E+00  0.39615437305E+00  0.00000000000E+00 0. -1.
</event>
<event>
 7    1  0.2323330E-008  0.4614232E+02  0.7816164E-02  0.1320468E+00
        -11   -1    0    0    0    0  0.00000000000E+00  0.00000000000E+00  0.45593999997E+02  0.45594000000E+02  0.51100000000E-03 0.  1.
         11   -1    0    0    0    0 -0.00000000000E+00 -0.00000000000E+00 -0.45593999997E+02  0.45594000000E+02  0.51100000000E-03 0. -1.
    9900012    2    1    2    0    0  0.14287022797E+01  0.26503622191E+02  0.36395467816E+02  0.46142320330E+02  0.10000023423E+02 0.  0.
         12    1    1    2    0    0 -0.14287022797E+01 -0.26503622191E+02 -0.36395467816E+02  0.45045679670E+02  0.00000000000E+00 0. -1.
         11    1    3    3    0    0  0.27484942988E+01  0.45332842520E+01  0.11724654416E+02  0.12867494257E+02  0.51100000000E-03 0. -1.
        -11    1    3    3    0    0 -0.91381671967E+00  0.12467339783E+02  0.16727924720E+02  0.20882841951E+02  0.51100000000E-03 0.  1.
         12    1    3    3    0    0 -0.40597529934E+00  0.95029981554E+01  0.79428886798E+01  0.12391984121E+02  0.00000000000E+00 0. -1.
</event>
<event>
 7    1  0.2323330E-008  0.4614232E+02  0.7816164E-02  0.1320468E+00
        -11   -1    0    0    0    0  0.00000000000E+00  0.00000000000E+00  0.45593999997E+02  0.45594000000E+02  0.51100000000E-03 0.  1.
         11   -1    0    0    0    0 -0.00000000000E+00 -0.00000000000E+00 -0.45593999997E+02  0.45594000000E+02  0.51100000000E-03 0. -1.
    9900012    2    1    2    0    0  0.89696237045E+01 -0.28128981106E+02  0.34020871335E+02  0.46142318588E+02  0.10000007540E+02 0.  0.
         12    1    1    2    0    0 -0.89696237045E+01  0.28128981106E+02 -0.34020871335E+02  0.45045681412E+02  0.00000000000E+00 0. -1.
         11    1    3    3    0    0 -0.47833433768E+00 -0.24753736089E+01  0.54343987908E+00  0.25790706476E+01  0.51100000000E-03 0. -1.
        -11    1    3    3    0    0  0.25128487994E+01 -0.11790674446E+02  0.11434257470E+02  0.16615554674E+02  0.51100000000E-03 0.  1.
        -12    1    3    3    0    0  0.69351092429E+01 -0.13862933051E+02  0.22043173986E+02  0.26947693266E+02  0.00000000000E+00 0.  1.
</event>
<event>
 7    1  0.2323330E-008  0.4614232E+02  0.7816164E-02  0.1320468E+00
        -11   -1    0    0    0    0  0.00000000000E+00  0.00000000000E+00  0.45593999997E+02  0.45594000000E+02  0.51100000000E-03 0.  1.
         11   -1    0    0    0    0 -0.00000000000E+00 -0.00000000000E+00 -0.45593999997E+02  0.45594000000E+02  0.51100000000E-03 0. -1.
    9900012    2    1    2    0    0 -0.39513619909E+02 -0.85247709873E+01  0.19877515417E+02  0.46142317656E+02  0.99999990397E+01 0.  0.
         12    1    1    2    0    0  0.39513619909E+02  0.85247709873E+01 -0.19877515417E+02  0.45045682344E+02  0.00000000000E+00 0. -1.
         11    1    3    3    0    0 -0.80464654812E+01 -0.40072589180E+01  0.33895457075E+01  0.96069116338E+01  0.51100000000E-03 0. -1.
        -11    1    3    3    0    0 -0.26071383869E+02 -0.57541432783E+01  0.11450106870E+02  0.29050510655E+02  0.51100000000E-03 0.  1.
         12    1    3    3    0    0 -0.53957705591E+01  0.12366312090E+01  0.50378628388E+01  0.74848953671E+01  0.00000000000E+00 0. -1.
</event>
<event>
 7    1  0.2323330E-008  0.4614232E+02  0.7816164E-02  0.1320468E+00
        -11   -1    0    0    0    0  0.00000000000E+00  0.00000000000E+00  0.45593999997E+02  0.45594000000E+02  0.51100000000E-03 0.  1.
         11   -1    0    0    0    0 -0.00000000000E+00 -0.00000000000E+00 -0.45593999997E+02  0.45594000000E+02  0.51100000000E-03 0. -1.
    9900012    2    1    2    0    0 -0.12546902289E+02 -0.43241315723E+02 -0.13701743590E+01  0.46142317407E+02  0.99999967676E+01 0.  0.
         12    1    1    2    0    0  0.12546902289E+02  0.43241315723E+02  0.13701743590E+01  0.45045682593E+02  0.00000000000E+00 0. -1.
         11    1    3    3    0    0 -0.86155106633E-01 -0.12001473853E+02  0.72821298558E+00  0.12023855112E+02  0.51100000000E-03 0. -1.
        -11    1    3    3    0    0 -0.73972911819E+00 -0.23372195989E+01  0.12475319933E+01  0.27506600948E+01  0.51100000000E-03 0.  1.
         12    1    3    3    0    0 -0.11721018064E+02 -0.28902622272E+02 -0.33459193378E+01  0.31367802200E+02  0.00000000000E+00 0. -1.
</event>
<event>
 7    1  0.2323330E-008  0.4614232E+02  0.7816164E-02  0.1320468E+00
        -11   -1    0    0    0    0  0.00000000000E+00  0.00000000000E+00  0.45593999997E+02  0.45594000000E+02  0.51100000000E-03 0.  1.
         11   -1    0    0    0    0 -0.00000000000E+00 -0.00000000000E+00 -0.45593999997E+02  0.45594000000E+02  0.51100000000E-03 0. -1.
    9900012    2    1    2    0    0 -0.35666337213E+02  0.26937895021E+02  0.56014000704E+01  0.46142317842E+02  0.10000000733E+02 0.  0.
         12    1    1    2    0    0  0.35666337213E+02 -0.26937895021E+02 -0.56014000704E+01  0.45045682158E+02  0.00000000000E+00 0. -1.
         11    1    3    3    0    0 -0.32705205763E+01  0.77987396965E+00  0.28254889244E+01  0.43917987399E+01  0.51100000000E-03 0. -1.
        -11    1    3    3    0    0 -0.99209938832E+01  0.82642497992E+01  0.14265929429E+01  0.12990731775E+02  0.51100000000E-03 0.  1.
         12    1    3    3    0    0 -0.22474822754E+02  0.17893771252E+02  0.13493182031E+01  0.28759787326E+02  0.00000000000E+00 0. -1.
</event>
<event>
 7    1  0.2323330E-008  0.4614232E+02  0.7816164E-02  0.1320468E+00
        -11   -1    0    0    0    0  0.00000000000E+00  0.00000000000E+00  0.45593999997E+02  0.45594000000E+02  0.51100000000E-03 0.  1.
         11   -1    0    0    0    0 -0.00000000000E+00 -0.00000000000E+00 -0.45593999997E+02  0.45594000000E+02  0.51100000000E-03 0. -1.
    9900012    2    1    2    0    0  0.21322318531E+02  0.35984097093E+02  0.16721751371E+02  0.46142317853E+02  0.10000000840E+02 0.  0.
         12    1    1    2    0    0 -0.21322318531E+02 -0.35984097093E+02 -0.16721751371E+02  0.45045682147E+02  0.00000000000E+00 0. -1.
         11    1    3    3    0    0  0.75268118791E+01  0.19312604562E+02  0.93070484321E+01  0.22721151881E+02  0.51100000000E-03 0. -1.
        -11    1    3    3    0    0  0.42221541870E+00  0.13188593647E+01  0.18557327372E+01  0.23154697442E+01  0.51100000000E-03 0.  1.
        -12    1    3    3    0    0  0.13373291233E+02  0.15352633167E+02  0.55589702018E+01  0.21105696228E+02  0.00000000000E+00 0.  1.
</event>
<event>
 7    1  0.2323330E-008  0.4614232E+02  0.7816164E-02  0.1320468E+00
        -11   -1    0    0    0    0  0.00000000000E+00  0.00000000000E+00  0.45593999997E+02  0.45594000000E+02  0.51100000000E-03 0.  1.
         11   -1    0    0    0    0 -0.00000000000E+00 -0.00000000000E+00 -0.45593999997E+02  0.45594000000E+02  0.51100000000E-03 0. -1.
    9900012    2    1    2    0    0 -0.27665121257E+02 -0.21017091371E+02  0.28671177860E+02  0.46142317591E+02  0.99999984486E+01 0.  0.
         12    1    1    2    0    0  0.27665121257E+02  0.21017091371E+02 -0.28671177860E+02  0.45045682409E+02  0.00000000000E+00 0. -1.
         11    1    3    3    0    0 -0.57143391854E+01 -0.36348785700E+01  0.77071412383E+01  0.10259924019E+02  0.51100000000E-03 0. -1.
        -11    1    3    3    0    0 -0.18636350223E+02 -0.10307538779E+02  0.15787855308E+02  0.26510663530E+02  0.51100000000E-03 0.  1.
         12    1    3    3    0    0 -0.33144318484E+01 -0.70746740221E+01  0.51761813131E+01  0.93717300421E+01  0.00000000000E+00 0. -1.
</event>
<event>
 7    1  0.2323330E-008  0.4614232E+02  0.7816164E-02  0.1320468E+00
        -11   -1    0    0    0    0  0.00000000000E+00  0.00000000000E+00  0.45593999997E+02  0.45594000000E+02  0.51100000000E-03 0. -1.
         11   -1    0    0    0    0 -0.00000000000E+00 -0.00000000000E+00 -0.45593999997E+02  0.45594000000E+02  0.51100000000E-03 0.  1.
    9900012    2    1    2    0    0 -0.29132789870E-01 -0.40642376581E+02 -0.19424466998E+02  0.46142317176E+02  0.99999946682E+01 0.  0.
         12    1    1    2    0    0  0.29132789870E-01  0.40642376581E+02  0.19424466998E+02  0.45045682824E+02  0.00000000000E+00 0. -1.
         11    1    3    3    0    0 -0.19908996258E+01 -0.18690063563E+01 -0.83245728270E+00  0.28547944705E+01  0.51100000000E-03 0. -1.
        -11    1    3    3    0    0  0.17110883632E+01 -0.95200406298E+01 -0.63758580603E+01  0.11584928280E+02  0.51100000000E-03 0.  1.
         12    1    3    3    0    0  0.25067847277E+00 -0.29253329595E+02 -0.12216151655E+02  0.31702594426E+02  0.00000000000E+00 0. -1.
</event>
<event>
 7    1  0.2323330E-008  0.4614232E+02  0.7816164E-02  0.1320468E+00
        -11   -1    0    0    0    0  0.00000000000E+00  0.00000000000E+00  0.45593999997E+02  0.45594000000E+02  0.51100000000E-03 0.  1.
         11   -1    0    0    0    0 -0.00000000000E+00 -0.00000000000E+00 -0.45593999997E+02  0.45594000000E+02  0.51100000000E-03 0. -1.
    9900012    2    1    2    0    0  0.15074816458E+02 -0.25715476664E+02  0.33772436697E+02  0.46142319722E+02  0.10000017877E+02 0.  0.
         12    1    1    2    0    0 -0.15074816458E+02  0.25715476664E+02 -0.33772436697E+02  0.45045680278E+02  0.00000000000E+00 0. -1.
         11    1    3    3    0    0  0.50525633432E+01 -0.57235664398E+01  0.59565310803E+01  0.96833812224E+01  0.51100000000E-03 0. -1.
        -11    1    3    3    0    0  0.63365779365E+01 -0.93667599773E+01  0.19234348214E+02  0.22312520340E+02  0.51100000000E-03 0.  1.
         12    1    3    3    0    0  0.36856751780E+01 -0.10625150247E+02  0.85815574022E+01  0.14146418159E+02  0.00000000000E+00 0. -1.
</event>
<event>
 7    1  0.2323330E-008  0.4614232E+02  0.7816164E-02  0.1320468E+00
        -11   -1    0    0    0    0  0.00000000000E+00  0.00000000000E+00  0.45593999997E+02  0.45594000000E+02  0.51100000000E-03 0.  1.
         11   -1    0    0    0    0 -0.00000000000E+00 -0.00000000000E+00 -0.45593999997E+02  0.45594000000E+02  0.51100000000E-03 0. -1.
    9900012    2    1    2    0    0 -0.44107229201E+02  0.60398777019E+01  0.68691817627E+01  0.46142318203E+02  0.10000004028E+02 0.  0.
         12    1    1    2    0    0  0.44107229201E+02 -0.60398777019E+01 -0.68691817627E+01  0.45045681797E+02  0.00000000000E+00 0. -1.
         11    1    3    3    0    0 -0.29533949878E+02  0.78398596373E+01  0.58071140407E+01  0.31103700235E+02  0.51100000000E-03 0. -1.
        -11    1    3    3    0    0 -0.66284524889E+01 -0.49006317774E+00  0.19779386563E+01  0.69346078408E+01  0.51100000000E-03 0.  1.
         12    1    3    3    0    0 -0.79448268340E+01 -0.13099187576E+01 -0.91587093434E+00  0.81040101273E+01  0.00000000000E+00 0. -1.
</event>
<event>
 7    1  0.2323330E-008  0.4614231E+02  0.7816164E-02  0.1320468E+00
        -11   -1    0    0    0    0  0.00000000000E+00  0.00000000000E+00  0.45593999997E+02  0.45594000000E+02  0.51100000000E-03 0.  1.
         11   -1    0    0    0    0 -0.00000000000E+00 -0.00000000000E+00 -0.45593999997E+02  0.45594000000E+02  0.51100000000E-03 0. -1.
    9900012    2    1    2    0    0 -0.19802831999E+02 -0.40403142681E+02 -0.21325687040E+01  0.46142312715E+02  0.99999539890E+01 0.  0.
         12    1    1    2    0    0  0.19802831999E+02  0.40403142681E+02  0.21325687040E+01  0.45045687285E+02  0.00000000000E+00 0. -1.
         11    1    3    3    0    0 -0.47300785812E+01 -0.83692050561E+01  0.11557612702E+01  0.96826143696E+01  0.51100000000E-03 0. -1.
        -11    1    3    3    0    0 -0.64741495789E+01 -0.11420921499E+02  0.25522956175E+01  0.13374089645E+02  0.51100000000E-03 0.  1.
        -12    1    3    3    0    0 -0.85986038388E+01 -0.20613016126E+02 -0.58406255918E+01  0.23085608701E+02  0.00000000000E+00 0.  1.
</event>
<event>
 7    1  0.2323330E-008  0.4614232E+02  0.7816164E-02  0.1320468E+00
        -11   -1    0    0    0    0  0.00000000000E+00  0.00000000000E+00  0.45593999997E+02  0.45594000000E+02  0.51100000000E-03 0. -1.
         11   -1    0    0    0    0 -0.00000000000E+00 -0.00000000000E+00 -0.45593999997E+02  0.45594000000E+02  0.51100000000E-03 0.  1.
    9900012    2    1    2    0    0  0.37257749955E+02 -0.25204848076E+02  0.23852079881E+01  0.46142317461E+02  0.99999972671E+01 0.  0.
         12    1    1    2    0    0 -0.37257749955E+02  0.25204848076E+02 -0.23852079881E+01  0.45045682539E+02  0.00000000000E+00 0. -1.
         11    1    3    3    0    0  0.62469683932E+01 -0.49769450011E+01  0.95096192517E+00  0.80435641660E+01  0.51100000000E-03 0. -1.
        -11    1    3    3    0    0  0.22063316054E+02 -0.16613879187E+02  0.44793483051E+01  0.27979911695E+02  0.51100000000E-03 0.  1.
         12    1    3    3    0    0  0.89474655083E+01 -0.36140238871E+01 -0.30451022422E+01  0.10118841601E+02  0.00000000000E+00 0. -1.
</event>
<event>
 7    1  0.2323330E-008  0.4614232E+02  0.7816164E-02  0.1320468E+00
        -11   -1    0    0    0    0  0.00000000000E+00  0.00000000000E+00  0.45593999997E+02  0.45594000000E+02  0.51100000000E-03 0. -1.
         11   -1    0    0    0    0 -0.00000000000E+00 -0.00000000000E+00 -0.45593999997E+02  0.45594000000E+02  0.51100000000E-03 0.  1.
    9900012    2    1    2    0    0 -0.64469194470E+01  0.43622582913E+02  0.91989636878E+01  0.46142318262E+02  0.10000004564E+02 0.  0.
         12    1    1    2    0    0  0.64469194470E+01 -0.43622582913E+02 -0.91989636878E+01  0.45045681738E+02  0.00000000000E+00 0. -1.
         11    1    3    3    0    0 -0.55191398413E+01  0.20164413970E+02  0.63305107527E+01  0.21843531353E+02  0.51100000000E-03 0. -1.
        -11    1    3    3    0    0 -0.12357151142E+01  0.12021610916E+02  0.41702646785E+01  0.12784257061E+02  0.51100000000E-03 0.  1.
        -12    1    3    3    0    0  0.30793550849E+00  0.11436558027E+02 -0.13018117434E+01  0.11514529847E+02  0.00000000000E+00 0.  1.
</event>
<event>
 7    1  0.2323330E-008  0.4614232E+02  0.7816164E-02  0.1320468E+00
        -11   -1    0    0    0    0  0.00000000000E+00  0.00000000000E+00  0.45593999997E+02  0.45594000000E+02  0.51100000000E-03 0.  1.
         11   -1    0    0    0    0 -0.00000000000E+00 -0.00000000000E+00 -0.45593999997E+02  0.45594000000E+02  0.51100000000E-03 0. -1.
    9900012    2    1    2    0    0 -0.40880613160E+02 -0.12941835647E+02  0.13798472014E+02  0.46142317941E+02  0.10000001636E+02 0.  0.
         12    1    1    2    0    0  0.40880613160E+02  0.12941835647E+02 -0.13798472014E+02  0.45045682059E+02  0.00000000000E+00 0. -1.
         11    1    3    3    0    0  0.13357522085E+00 -0.13619513011E+00 -0.25569511309E+00  0.31901677866E+00  0.51100000000E-03 0. -1.
        -11    1    3    3    0    0 -0.15853126440E+02 -0.83308673612E+01  0.39289559426E+01  0.18334711996E+02  0.51100000000E-03 0.  1.
         12    1    3    3    0    0 -0.25161061941E+02 -0.44747731554E+01  0.10125211185E+02  0.27488589166E+02  0.00000000000E+00 0. -1.
</event>
<event>
 7    1  0.2323330E-008  0.4614232E+02  0.7816164E-02  0.1320468E+00
        -11   -1    0    0    0    0  0.00000000000E+00  0.00000000000E+00  0.45593999997E+02  0.45594000000E+02  0.51100000000E-03 0. -1.
         11   -1    0    0    0    0 -0.00000000000E+00 -0.00000000000E+00 -0.45593999997E+02  0.45594000000E+02  0.51100000000E-03 0.  1.
    9900012    2    1    2    0    0  0.28300340260E+02 -0.29887568677E+02 -0.18301297622E+02  0.46142317467E+02  0.99999973182E+01 0.  0.
         12    1    1    2    0    0 -0.28300340260E+02  0.29887568677E+02  0.18301297622E+02  0.45045682533E+02  0.00000000000E+00 0. -1.
         11    1    3    3    0    0  0.42242811885E+01 -0.65865755624E+01 -0.67636052752E+01  0.10342818077E+02  0.51100000000E-03 0. -1.
        -11    1    3    3    0    0  0.52222435077E+01 -0.59301162839E+01 -0.59054492898E+00  0.79238153669E+01  0.51100000000E-03 0.  1.
        -12    1    3    3    0    0  0.18853815564E+02 -0.17370876830E+02 -0.10947147417E+02  0.27875684023E+02  0.00000000000E+00 0.  1.
</event>
<event>
 7    1  0.2323330E-008  0.4614232E+02  0.7816164E-02  0.1320468E+00
        -11   -1    0    0    0    0  0.00000000000E+00  0.00000000000E+00  0.45593999997E+02  0.45594000000E+02  0.51100000000E-03 0. -1.
         11   -1    0    0    0    0 -0.00000000000E+00 -0.00000000000E+00 -0.45593999997E+02  0.45594000000E+02  0.51100000000E-03 0.  1.
    9900012    2    1    2    0    0 -0.41527433586E+02  0.65238086986E+01 -0.16187204454E+02  0.46142318651E+02  0.10000008111E+02 0.  0.
         12    1    1    2    0    0  0.41527433586E+02 -0.65238086986E+01  0.16187204454E+02  0.45045681349E+02  0.00000000000E+00 0. -1.
         11    1    3    3    0    0 -0.21056744963E+02  0.78867612168E+01 -0.69373029892E+01  0.23531121604E+02  0.51100000000E-03 0. -1.
        -11    1    3    3    0    0 -0.27567982386E+01 -0.86176383471E+00 -0.93046865426E+00  0.30345255993E+01  0.51100000000E-03 0.  1.
         12    1    3    3    0    0 -0.17713890385E+02 -0.50118868348E+00 -0.83194328104E+01  0.19576671447E+02  0.00000000000E+00 0. -1.
</event>
<event>
 7    1  0.2323330E-008  0.4614232E+02  0.7816164E-02  0.1320468E+00
        -11   -1    0    0    0    0  0.00000000000E+00  0.00000000000E+00  0.45593999997E+02  0.45594000000E+02  0.51100000000E-03 0.  1.
         11   -1    0    0    0    0 -0.00000000000E+00 -0.00000000000E+00 -0.45593999997E+02  0.45594000000E+02  0.51100000000E-03 0. -1.
    9900012    2    1    2    0    0 -0.27927704357E+02 -0.34559441770E+02  0.74028181542E+01  0.46142318712E+02  0.10000008667E+02 0.  0.
         12    1    1    2    0    0  0.27927704357E+02  0.34559441770E+02 -0.74028181542E+01  0.45045681288E+02  0.00000000000E+00 0. -1.
         11    1    3    3    0    0 -0.33271952012E+01 -0.71093196478E+01 -0.12477169114E+01  0.79479212070E+01  0.51100000000E-03 0. -1.
        -11    1    3    3    0    0 -0.74800229193E+01 -0.80313606835E+01  0.25223966736E+00  0.10978029077E+02  0.51100000000E-03 0.  1.
        -12    1    3    3    0    0 -0.17120486236E+02 -0.19418761439E+02  0.83982953982E+01  0.27216368428E+02  0.00000000000E+00 0.  1.
</event>
<event>
 7    1  0.2323330E-008  0.4614232E+02  0.7816164E-02  0.1320468E+00
        -11   -1    0    0    0    0  0.00000000000E+00  0.00000000000E+00  0.45593999997E+02  0.45594000000E+02  0.51100000000E-03 0.  1.
         11   -1    0    0    0    0 -0.00000000000E+00 -0.00000000000E+00 -0.45593999997E+02  0.45594000000E+02  0.51100000000E-03 0. -1.
    9900012    2    1    2    0    0  0.36171916816E+02  0.26845890728E+02  0.63007890344E-01  0.46142318908E+02  0.10000010454E+02 0.  0.
         12    1    1    2    0    0 -0.36171916816E+02 -0.26845890728E+02 -0.63007890344E-01  0.45045681092E+02  0.00000000000E+00 0. -1.
         11    1    3    3    0    0  0.17596400378E+02  0.14919384547E+02 -0.36860449683E+01  0.23362539873E+02  0.51100000000E-03 0. -1.
        -11    1    3    3    0    0  0.46409430258E+01  0.12958290132E+01  0.18058185456E+01  0.51457269537E+01  0.51100000000E-03 0.  1.
        -12    1    3    3    0    0  0.13934573412E+02  0.10630677167E+02  0.19432343130E+01  0.17634052081E+02  0.00000000000E+00 0.  1.
</event>
<event>
 7    1  0.2323330E-008  0.4614232E+02  0.7816164E-02  0.1320468E+00
        -11   -1    0    0    0    0  0.00000000000E+00  0.00000000000E+00  0.45593999997E+02  0.45594000000E+02  0.51100000000E-03 0.  1.
         11   -1    0    0    0    0 -0.00000000000E+00 -0.00000000000E+00 -0.45593999997E+02  0.45594000000E+02  0.51100000000E-03 0. -1.
    9900012    2    1    2    0    0  0.31724792044E+02  0.21635945496E+02  0.23548607409E+02  0.46142317869E+02  0.10000000985E+02 0.  0.
         12    1    1    2    0    0 -0.31724792044E+02 -0.21635945496E+02 -0.23548607409E+02  0.45045682131E+02  0.00000000000E+00 0. -1.
         11    1    3    3    0    0  0.73700202934E+01  0.83554195268E+01  0.59092350245E+01  0.12611474673E+02  0.51100000000E-03 0.  1.
        -11    1    3    3    0    0  0.23836993172E+02  0.13856676237E+02  0.17682774695E+02  0.32755003297E+02  0.51100000000E-03 0. -1.
         12    1    3    3    0    0  0.51777857870E+00 -0.57615026821E+00 -0.43402310465E-01  0.77583989887E+00  0.00000000000E+00 0. -1.
</event>
<event>
 7    1  0.2323330E-008  0.4614232E+02  0.7816164E-02  0.1320468E+00
        -11   -1    0    0    0    0  0.00000000000E+00  0.00000000000E+00  0.45593999997E+02  0.45594000000E+02  0.51100000000E-03 0.  1.
         11   -1    0    0    0    0 -0.00000000000E+00 -0.00000000000E+00 -0.45593999997E+02  0.45594000000E+02  0.51100000000E-03 0. -1.
    9900012    2    1    2    0    0  0.32532143627E+02 -0.26723148203E+02  0.16020190881E+02  0.46142317246E+02  0.99999953037E+01 0.  0.
         12    1    1    2    0    0 -0.32532143627E+02  0.26723148203E+02 -0.16020190881E+02  0.45045682754E+02  0.00000000000E+00 0. -1.
         11    1    3    3    0    0  0.18325653579E+02 -0.15764516690E+02  0.59133922258E+01  0.24886095987E+02  0.51100000000E-03 0. -1.
        -11    1    3    3    0    0  0.10447513693E+02 -0.10633115640E+02  0.84522620993E+01  0.17136348078E+02  0.51100000000E-03 0.  1.
         12    1    3    3    0    0  0.37589763546E+01 -0.32551587371E+00  0.16545365562E+01  0.41198731818E+01  0.00000000000E+00 0. -1.
</event>
<event>
 7    1  0.2323330E-008  0.4614232E+02  0.7816164E-02  0.1320468E+00
        -11   -1    0    0    0    0  0.00000000000E+00  0.00000000000E+00  0.45593999997E+02  0.45594000000E+02  0.51100000000E-03 0.  1.
         11   -1    0    0    0    0 -0.00000000000E+00 -0.00000000000E+00 -0.45593999997E+02  0.45594000000E+02  0.51100000000E-03 0. -1.
    9900012    2    1    2    0    0 -0.25792440117E+02  0.10113693505E+01  0.36916668219E+02  0.46142320656E+02  0.10000026395E+02 0.  0.
         12    1    1    2    0    0  0.25792440117E+02 -0.10113693505E+01 -0.36916668219E+02  0.45045679344E+02  0.00000000000E+00 0. -1.
         11    1    3    3    0    0 -0.74897765799E+01  0.28185315177E+01  0.77816391989E+01  0.11162203278E+02  0.51100000000E-03 0. -1.
        -11    1    3    3    0    0 -0.15755372381E+02 -0.31102614325E+01  0.21568140032E+02  0.26890335620E+02  0.51100000000E-03 0.  1.
         12    1    3    3    0    0 -0.25472911567E+01  0.13030992654E+01  0.75668889885E+01  0.80897817583E+01  0.00000000000E+00 0. -1.
</event>
<event>
 7    1  0.2323330E-008  0.4614232E+02  0.7816164E-02  0.1320468E+00
        -11   -1    0    0    0    0  0.00000000000E+00  0.00000000000E+00  0.45593999997E+02  0.45594000000E+02  0.51100000000E-03 0.  1.
         11   -1    0    0    0    0 -0.00000000000E+00 -0.00000000000E+00 -0.45593999997E+02  0.45594000000E+02  0.51100000000E-03 0. -1.
    9900012    2    1    2    0    0 -0.26617114869E+02 -0.22273796223E+02  0.28714468899E+02  0.46142317340E+02  0.99999961580E+01 0.  0.
         12    1    1    2    0    0  0.26617114869E+02  0.22273796223E+02 -0.28714468899E+02  0.45045682660E+02  0.00000000000E+00 0. -1.
         11    1    3    3    0    0 -0.15042808705E+02 -0.84164566538E+01  0.13425299608E+02  0.21848604215E+02  0.51100000000E-03 0. -1.
        -11    1    3    3    0    0 -0.10755051933E+02 -0.93615315328E+01  0.12321049132E+02  0.18844565973E+02  0.51100000000E-03 0.  1.
        -12    1    3    3    0    0 -0.81925423081E+00 -0.44958080368E+01  0.29681201590E+01  0.54491471513E+01  0.00000000000E+00 0.  1.
</event>
<event>
 7    1  0.2323330E-008  0.4614231E+02  0.7816164E-02  0.1320468E+00
        -11   -1    0    0    0    0  0.00000000000E+00  0.00000000000E+00  0.45593999997E+02  0.45594000000E+02  0.51100000000E-03 0.  1.
         11   -1    0    0    0    0 -0.00000000000E+00 -0.00000000000E+00 -0.45593999997E+02  0.45594000000E+02  0.51100000000E-03 0. -1.
    9900012    2    1    2    0    0 -0.69919297158E+00 -0.39958330080E+02  0.20783576382E+02  0.46142311407E+02  0.99999420591E+01 0.  0.
         12    1    1    2    0    0  0.69919297158E+00  0.39958330080E+02 -0.20783576382E+02  0.45045688593E+02  0.00000000000E+00 0. -1.
         11    1    3    3    0    0 -0.85834431753E+00 -0.19494409643E+02  0.68859177507E+01  0.20692622498E+02  0.51100000000E-03 0. -1.
        -11    1    3    3    0    0 -0.18446014117E+01 -0.13189035033E+02  0.62675429068E+01  0.14718535723E+02  0.51100000000E-03 0.  1.
         12    1    3    3    0    0  0.20037527577E+01 -0.72748854038E+01  0.76301157241E+01  0.10731153187E+02  0.00000000000E+00 0. -1.
</event>
<event>
 7    1  0.2323330E-008  0.4614232E+02  0.7816164E-02  0.1320468E+00
        -11   -1    0    0    0    0  0.00000000000E+00  0.00000000000E+00  0.45593999997E+02  0.45594000000E+02  0.51100000000E-03 0.  1.
         11   -1    0    0    0    0 -0.00000000000E+00 -0.00000000000E+00 -0.45593999997E+02  0.45594000000E+02  0.51100000000E-03 0. -1.
    9900012    2    1    2    0    0 -0.36860060368E+02 -0.54656200206E+01  0.25309615991E+02  0.46142315255E+02  0.99999771428E+01 0.  0.
         12    1    1    2    0    0  0.36860060368E+02  0.54656200206E+01 -0.25309615991E+02  0.45045684745E+02  0.00000000000E+00 0. -1.
         11    1    3    3    0    0 -0.10887039723E+02  0.24406161265E+01  0.78075115363E+01  0.13617689880E+02  0.51100000000E-03 0. -1.
        -11    1    3    3    0    0 -0.10947012790E+02 -0.32645614643E+01  0.51671404162E+01  0.12537694801E+02  0.51100000000E-03 0.  1.
        -12    1    3    3    0    0 -0.15026007855E+02 -0.46416746829E+01  0.12334964039E+02  0.19986930573E+02  0.00000000000E+00 0.  1.
</event>
<event>
 7    1  0.2323330E-008  0.4614232E+02  0.7816164E-02  0.1320468E+00
        -11   -1    0    0    0    0  0.00000000000E+00  0.00000000000E+00  0.45593999997E+02  0.45594000000E+02  0.51100000000E-03 0. -1.
         11   -1    0    0    0    0 -0.00000000000E+00 -0.00000000000E+00 -0.45593999997E+02  0.45594000000E+02  0.51100000000E-03 0.  1.
    9900012    2    1    2    0    0  0.76836305771E+01  0.43674640665E+02 -0.79120792100E+01  0.46142318592E+02  0.10000007579E+02 0.  0.
         12    1    1    2    0    0 -0.76836305771E+01 -0.43674640665E+02  0.79120792100E+01  0.45045681408E+02  0.00000000000E+00 0. -1.
         11    1    3    3    0    0  0.15575747756E+01  0.90070527635E+01  0.75199403491E+00  0.91716156676E+01  0.51100000000E-03 0. -1.
        -11    1    3    3    0    0  0.60243356305E+01  0.34744727455E+02 -0.78236077950E+01  0.36120597239E+02  0.51100000000E-03 0.  1.
        -12    1    3    3    0    0  0.10172017101E+00 -0.77139553555E-01 -0.84046544992E+00  0.85010568545E+00  0.00000000000E+00 0.  1.
</event>
<event>
 7    1  0.2323330E-008  0.4614232E+02  0.7816164E-02  0.1320468E+00
        -11   -1    0    0    0    0  0.00000000000E+00  0.00000000000E+00  0.45593999997E+02  0.45594000000E+02  0.51100000000E-03 0.  1.
         11   -1    0    0    0    0 -0.00000000000E+00 -0.00000000000E+00 -0.45593999997E+02  0.45594000000E+02  0.51100000000E-03 0. -1.
    9900012    2    1    2    0    0 -0.25860870284E+02 -0.26429418733E+02  0.25725760792E+02  0.46142317024E+02  0.99999932783E+01 0.  0.
         12    1    1    2    0    0  0.25860870284E+02  0.26429418733E+02 -0.25725760792E+02  0.45045682976E+02  0.00000000000E+00 0. -1.
         11    1    3    3    0    0 -0.85509374892E+01 -0.15008483573E+02  0.12087453338E+02  0.21082685777E+02  0.51100000000E-03 0. -1.
        -11    1    3    3    0    0 -0.37365931747E+01 -0.34378597099E+01  0.19093775357E+01  0.54246410733E+01  0.51100000000E-03 0.  1.
        -12    1    3    3    0    0 -0.13573339620E+02 -0.79830754501E+01  0.11728929919E+02  0.19634990174E+02  0.00000000000E+00 0.  1.
</event>
<event>
 7    1  0.2323330E-008  0.4614232E+02  0.7816164E-02  0.1320468E+00
        -11   -1    0    0    0    0  0.00000000000E+00  0.00000000000E+00  0.45593999997E+02  0.45594000000E+02  0.51100000000E-03 0. -1.
         11   -1    0    0    0    0 -0.00000000000E+00 -0.00000000000E+00 -0.45593999997E+02  0.45594000000E+02  0.51100000000E-03 0.  1.
    9900012    2    1    2    0    0  0.18750545822E+02  0.31150581246E+02 -0.26592702559E+02  0.46142317521E+02  0.99999978130E+01 0.  0.
         12    1    1    2    0    0 -0.18750545822E+02 -0.31150581246E+02  0.26592702559E+02  0.45045682479E+02  0.00000000000E+00 0. -1.
         11    1    3    3    0    0  0.54830874484E+00  0.15068829005E+01 -0.37389123641E+01  0.40682679954E+01  0.51100000000E-03 0. -1.
        -11    1    3    3    0    0  0.11398260670E+02  0.18365630003E+02 -0.10560619335E+02  0.24057086123E+02  0.51100000000E-03 0.  1.
         12    1    3    3    0    0  0.68039764066E+01  0.11278068343E+02 -0.12293170860E+02  0.18016963403E+02  0.00000000000E+00 0. -1.
</event>
<event>
 7    1  0.2323330E-008  0.4614232E+02  0.7816164E-02  0.1320468E+00
        -11   -1    0    0    0    0  0.00000000000E+00  0.00000000000E+00  0.45593999997E+02  0.45594000000E+02  0.51100000000E-03 0.  1.
         11   -1    0    0    0    0 -0.00000000000E+00 -0.00000000000E+00 -0.45593999997E+02  0.45594000000E+02  0.51100000000E-03 0. -1.
    9900012    2    1    2    0    0  0.36311209544E+02  0.12701297927E+02  0.23436863297E+02  0.46142317978E+02  0.10000001981E+02 0.  0.
         12    1    1    2    0    0 -0.36311209544E+02 -0.12701297927E+02 -0.23436863297E+02  0.45045682022E+02  0.00000000000E+00 0. -1.
         11    1    3    3    0    0  0.80110505359E+01  0.42668949274E+01  0.78372107318E+01  0.11991880392E+02  0.51100000000E-03 0. -1.
        -11    1    3    3    0    0  0.18125833343E+01 -0.12124535690E+01  0.90917814471E+00  0.23626483362E+01  0.51100000000E-03 0.  1.
        -12    1    3    3    0    0  0.26487575674E+02  0.96468565687E+01  0.14690474420E+02  0.31787789251E+02  0.00000000000E+00 0.  1.
</event>
<event>
 7    1  0.2323330E-008  0.4614232E+02  0.7816164E-02  0.1320468E+00
        -11   -1    0    0    0    0  0.00000000000E+00  0.00000000000E+00  0.45593999997E+02  0.45594000000E+02  0.51100000000E-03 0.  1.
         11   -1    0    0    0    0 -0.00000000000E+00 -0.00000000000E+00 -0.45593999997E+02  0.45594000000E+02  0.51100000000E-03 0. -1.
    9900012    2    1    2    0    0  0.16242598575E+02  0.12930988428E+02  0.39976005408E+02  0.46142317869E+02  0.10000000988E+02 0.  0.
         12    1    1    2    0    0 -0.16242598575E+02 -0.12930988428E+02 -0.39976005408E+02  0.45045682131E+02  0.00000000000E+00 0. -1.
         11    1    3    3    0    0  0.55699556414E+01  0.49714831140E+01  0.67252287932E+01  0.10048320894E+02  0.51100000000E-03 0. -1.
        -11    1    3    3    0    0  0.24054790438E+01  0.15021930588E+01  0.32568752065E+01  0.43185819186E+01  0.51100000000E-03 0.  1.
         12    1    3    3    0    0  0.82671638901E+01  0.64573122551E+01  0.29993901409E+02  0.31775415057E+02  0.00000000000E+00 0. -1.
</event>
<event>
 7    1  0.2323330E-008  0.4614232E+02  0.7816164E-02  0.1320468E+00
        -11   -1    0    0    0    0  0.00000000000E+00  0.00000000000E+00  0.45593999997E+02  0.45594000000E+02  0.51100000000E-03 0.  1.
         11   -1    0    0    0    0 -0.00000000000E+00 -0.00000000000E+00 -0.45593999997E+02  0.45594000000E+02  0.51100000000E-03 0. -1.
    9900012    2    1    2    0    0  0.25451999496E+02 -0.35226436203E+02  0.11849365428E+02  0.46142317111E+02  0.99999940744E+01 0.  0.
         12    1    1    2    0    0 -0.25451999496E+02  0.35226436203E+02 -0.11849365428E+02  0.45045682889E+02  0.00000000000E+00 0. -1.
         11    1    3    3    0    0  0.38364309079E+01 -0.48347832560E+01 -0.92780721148E+00  0.62413265999E+01  0.51100000000E-03 0. -1.
        -11    1    3    3    0    0  0.76445631742E+01 -0.10783173265E+02  0.76920811871E+01  0.15293275812E+02  0.51100000000E-03 0.  1.
         12    1    3    3    0    0  0.13971005413E+02 -0.19608479681E+02  0.50850914527E+01  0.24607714700E+02  0.00000000000E+00 0. -1.
</event>
<event>
 7    1  0.2323330E-008  0.4614232E+02  0.7816164E-02  0.1320468E+00
        -11   -1    0    0    0    0  0.00000000000E+00  0.00000000000E+00  0.45593999997E+02  0.45594000000E+02  0.51100000000E-03 0.  1.
         11   -1    0    0    0    0 -0.00000000000E+00 -0.00000000000E+00 -0.45593999997E+02  0.45594000000E+02  0.51100000000E-03 0. -1.
    9900012    2    1    2    0    0  0.37307669574E+02 -0.42324079777E+01  0.24886502614E+02  0.46142317647E+02  0.99999989580E+01 0.  0.
         12    1    1    2    0    0 -0.37307669574E+02  0.42324079777E+01 -0.24886502614E+02  0.45045682353E+02  0.00000000000E+00 0. -1.
         11    1    3    3    0    0  0.80695665365E+01 -0.34356446614E+01  0.61702271951E+01  0.10723491140E+02  0.51100000000E-03 0. -1.
        -11    1    3    3    0    0  0.67412136355E+01 -0.79493082236E+00  0.11690048924E+01  0.68878479216E+01  0.51100000000E-03 0.  1.
         12    1    3    3    0    0  0.22496889402E+02 -0.18324939655E-02  0.17547270527E+02  0.28530978585E+02  0.00000000000E+00 0. -1.
</event>
<event>
 7    1  0.2323330E-008  0.4614232E+02  0.7816164E-02  0.1320468E+00
        -11   -1    0    0    0    0  0.00000000000E+00  0.00000000000E+00  0.45593999997E+02  0.45594000000E+02  0.51100000000E-03 0. -1.
         11   -1    0    0    0    0 -0.00000000000E+00 -0.00000000000E+00 -0.45593999997E+02  0.45594000000E+02  0.51100000000E-03 0.  1.
    9900012    2    1    2    0    0 -0.19178484323E+02  0.17711082078E+02 -0.36709899764E+02  0.46142318409E+02  0.10000005905E+02 0.  0.
         12    1    1    2    0    0  0.19178484323E+02 -0.17711082078E+02  0.36709899764E+02  0.45045681591E+02  0.00000000000E+00 0. -1.
         11    1    3    3    0    0 -0.13630455653E+02  0.94037116446E+01 -0.15497989836E+02  0.22680537984E+02  0.51100000000E-03 0.  1.
        -11    1    3    3    0    0 -0.28399203098E+01  0.34940773931E+01 -0.95161010137E+01  0.10527578210E+02  0.51100000000E-03 0. -1.
        -12    1    3    3    0    0 -0.27081083603E+01  0.48132930406E+01 -0.11695808915E+02  0.12934202215E+02  0.00000000000E+00 0.  1.
</event>
<event>
 7    1  0.2323330E-008  0.4614232E+02  0.7816164E-02  0.1320468E+00
        -11   -1    0    0    0    0  0.00000000000E+00  0.00000000000E+00  0.45593999997E+02  0.45594000000E+02  0.51100000000E-03 0. -1.
         11   -1    0    0    0    0 -0.00000000000E+00 -0.00000000000E+00 -0.45593999997E+02  0.45594000000E+02  0.51100000000E-03 0.  1.
    9900012    2    1    2    0    0  0.10591296251E+02  0.32911657080E+02 -0.28874913230E+02  0.46142319386E+02  0.10000014813E+02 0.  0.
         12    1    1    2    0    0 -0.10591296251E+02 -0.32911657080E+02  0.28874913230E+02  0.45045680614E+02  0.00000000000E+00 0. -1.
         11    1    3    3    0    0  0.65019287833E+01  0.93783357843E+01 -0.68626210208E+01  0.13316299318E+02  0.51100000000E-03 0. -1.
        -11    1    3    3    0    0  0.47652790353E+01  0.13888824944E+02 -0.13276046779E+02  0.19795473244E+02  0.51100000000E-03 0.  1.
         12    1    3    3    0    0 -0.67591156736E+00  0.96444963513E+01 -0.87362454293E+01  0.13030546823E+02  0.00000000000E+00 0. -1.
</event>
<event>
 7    1  0.2323330E-008  0.4614232E+02  0.7816164E-02  0.1320468E+00
        -11   -1    0    0    0    0  0.00000000000E+00  0.00000000000E+00  0.45593999997E+02  0.45594000000E+02  0.51100000000E-03 0. -1.
         11   -1    0    0    0    0 -0.00000000000E+00 -0.00000000000E+00 -0.45593999997E+02  0.45594000000E+02  0.51100000000E-03 0.  1.
    9900012    2    1    2    0    0 -0.80143331631E+01  0.42307636893E+02  0.13226784717E+02  0.46142317527E+02  0.99999978613E+01 0.  0.
         12    1    1    2    0    0  0.80143331631E+01 -0.42307636893E+02 -0.13226784717E+02  0.45045682473E+02  0.00000000000E+00 0. -1.
         11    1    3    3    0    0 -0.49721494111E+01  0.10240651495E+02  0.40390608217E+01  0.12079206323E+02  0.51100000000E-03 0. -1.
        -11    1    3    3    0    0 -0.28245792089E+01  0.10723641168E+02  0.76110910093E+00  0.11115485367E+02  0.51100000000E-03 0.  1.
         12    1    3    3    0    0 -0.21760454302E+00  0.21343344230E+02  0.84266147943E+01  0.22947625837E+02  0.00000000000E+00 0. -1.
</event>
<event>
 7    1  0.2323330E-008  0.4614232E+02  0.7816164E-02  0.1320468E+00
        -11   -1    0    0    0    0  0.00000000000E+00  0.00000000000E+00  0.45593999997E+02  0.45594000000E+02  0.51100000000E-03 0. -1.
         11   -1    0    0    0    0 -0.00000000000E+00 -0.00000000000E+00 -0.45593999997E+02  0.45594000000E+02  0.51100000000E-03 0.  1.
    9900012    2    1    2    0    0  0.22842596443E+02 -0.18798489034E+02 -0.33969782333E+02  0.46142317477E+02  0.99999974118E+01 0.  0.
         12    1    1    2    0    0 -0.22842596443E+02  0.18798489034E+02  0.33969782333E+02  0.45045682523E+02  0.00000000000E+00 0. -1.
         11    1    3    3    0    0  0.10802152896E+01 -0.81759602310E+00 -0.63035980309E+00  0.14942162063E+01  0.51100000000E-03 0. -1.
        -11    1    3    3    0    0  0.19058025059E+02 -0.15099118824E+02 -0.32532272584E+02  0.40614535183E+02  0.51100000000E-03 0.  1.
        -12    1    3    3    0    0  0.27043560947E+01 -0.28817741869E+01 -0.80714994567E+00  0.40335660880E+01  0.00000000000E+00 0.  1.
</event>
<event>
 7    1  0.2323330E-008  0.4614232E+02  0.7816164E-02  0.1320468E+00
        -11   -1    0    0    0    0  0.00000000000E+00  0.00000000000E+00  0.45593999997E+02  0.45594000000E+02  0.51100000000E-03 0.  1.
         11   -1    0    0    0    0 -0.00000000000E+00 -0.00000000000E+00 -0.45593999997E+02  0.45594000000E+02  0.51100000000E-03 0. -1.
    9900012    2    1    2    0    0 -0.21198802579E+02 -0.24182797297E+02  0.31542298122E+02  0.46142317780E+02  0.10000000168E+02 0.  0.
         12    1    1    2    0    0  0.21198802579E+02  0.24182797297E+02 -0.31542298122E+02  0.45045682220E+02  0.00000000000E+00 0. -1.
         11    1    3    3    0    0 -0.23753314044E+01 -0.32520193672E+01  0.70983004650E+01  0.81611089319E+01  0.51100000000E-03 0.  1.
        -11    1    3    3    0    0 -0.55084590018E+01 -0.56172173902E+01  0.28998221869E+01  0.83848208544E+01  0.51100000000E-03 0. -1.
         12    1    3    3    0    0 -0.13315012172E+02 -0.15313560540E+02  0.21544175470E+02  0.29596387993E+02  0.00000000000E+00 0. -1.
</event>
<event>
 7    1  0.2323330E-008  0.4614232E+02  0.7816164E-02  0.1320468E+00
        -11   -1    0    0    0    0  0.00000000000E+00  0.00000000000E+00  0.45593999997E+02  0.45594000000E+02  0.51100000000E-03 0.  1.
         11   -1    0    0    0    0 -0.00000000000E+00 -0.00000000000E+00 -0.45593999997E+02  0.45594000000E+02  0.51100000000E-03 0. -1.
    9900012    2    1    2    0    0 -0.28736077027E+02  0.89949597575E+01  0.33502866108E+02  0.46142318061E+02  0.10000002732E+02 0.  0.
         12    1    1    2    0    0  0.28736077027E+02 -0.89949597575E+01 -0.33502866108E+02  0.45045681939E+02  0.00000000000E+00 0. -1.
         11    1    3    3    0    0 -0.36305525214E+01 -0.45958813235E-01  0.78696087466E+01  0.86668198267E+01  0.51100000000E-03 0. -1.
        -11    1    3    3    0    0 -0.13753246020E+02  0.66553958660E+01  0.17898791346E+02  0.23533227618E+02  0.51100000000E-03 0.  1.
        -12    1    3    3    0    0 -0.11352278485E+02  0.23855227048E+01  0.77344660158E+01  0.13942270616E+02  0.00000000000E+00 0.  1.
</event>
<event>
 7    1  0.2323330E-008  0.4614232E+02  0.7816164E-02  0.1320468E+00
        -11   -1    0    0    0    0  0.00000000000E+00  0.00000000000E+00  0.45593999997E+02  0.45594000000E+02  0.51100000000E-03 0. -1.
         11   -1    0    0    0    0 -0.00000000000E+00 -0.00000000000E+00 -0.45593999997E+02  0.45594000000E+02  0.51100000000E-03 0.  1.
    9900012    2    1    2    0    0  0.44955985560E+02  0.22848154124E+01  0.16888820947E+01  0.46142319387E+02  0.10000014827E+02 0.  0.
         12    1    1    2    0    0 -0.44955985560E+02 -0.22848154124E+01 -0.16888820947E+01  0.45045680613E+02  0.00000000000E+00 0. -1.
         11    1    3    3    0    0  0.14886962991E+02 -0.15907781154E+01  0.25757705175E+01  0.15191669958E+02  0.51100000000E-03 0. -1.
        -11    1    3    3    0    0  0.51010371017E+01 -0.14838002339E+01  0.73212398916E+00  0.53626717636E+01  0.51100000000E-03 0.  1.
        -12    1    3    3    0    0  0.24967985468E+02  0.53593937618E+01 -0.16190124119E+01  0.25587977665E+02  0.00000000000E+00 0.  1.
</event>
<event>
 7    1  0.2323330E-008  0.4614232E+02  0.7816164E-02  0.1320468E+00
        -11   -1    0    0    0    0  0.00000000000E+00  0.00000000000E+00  0.45593999997E+02  0.45594000000E+02  0.51100000000E-03 0.  1.
         11   -1    0    0    0    0 -0.00000000000E+00 -0.00000000000E+00 -0.45593999997E+02  0.45594000000E+02  0.51100000000E-03 0. -1.
    9900012    2    1    2    0    0 -0.43435453179E+01  0.19131916262E+01  0.44794941799E+02  0.46142317644E+02  0.99999989343E+01 0.  0.
         12    1    1    2    0    0  0.43435453179E+01 -0.19131916262E+01 -0.44794941799E+02  0.45045682356E+02  0.00000000000E+00 0. -1.
         11    1    3    3    0    0 -0.37357135727E+00 -0.24428236154E+01  0.56440968247E+01  0.61613936737E+01  0.51100000000E-03 0. -1.
        -11    1    3    3    0    0 -0.22518540304E+01  0.11680969581E+01  0.30464012249E+02  0.30569451085E+02  0.51100000000E-03 0.  1.
         12    1    3    3    0    0 -0.17181199303E+01  0.31879182835E+01  0.86868327256E+01  0.94114728858E+01  0.00000000000E+00 0. -1.
</event>
<event>
 7    1  0.2323330E-008  0.4614232E+02  0.7816164E-02  0.1320468E+00
        -11   -1    0    0    0    0  0.00000000000E+00  0.00000000000E+00  0.45593999997E+02  0.45594000000E+02  0.51100000000E-03 0.  1.
         11   -1    0    0    0    0 -0.00000000000E+00 -0.00000000000E+00 -0.45593999997E+02  0.45594000000E+02  0.51100000000E-03 0. -1.
    9900012    2    1    2    0    0 -0.55493538589E+01  0.11689741549E+02  0.43147052089E+02  0.46142317747E+02  0.99999998682E+01 0.  0.
         12    1    1    2    0    0  0.55493538589E+01 -0.11689741549E+02 -0.43147052089E+02  0.45045682253E+02  0.00000000000E+00 0. -1.
         11    1    3    3    0    0  0.74605444434E+00  0.43242130010E+01  0.46041954937E+01  0.63603483959E+01  0.51100000000E-03 0. -1.
        -11    1    3    3    0    0  0.82855574083E-01 -0.26725114902E-01  0.29331804286E+00  0.30596570610E+00  0.51100000000E-03 0.  1.
        -12    1    3    3    0    0 -0.63782638774E+01  0.73922536627E+01  0.38249538552E+02  0.39476003645E+02  0.00000000000E+00 0.  1.
</event>
<event>
 7    1  0.2323330E-008  0.4614232E+02  0.7816164E-02  0.1320468E+00
        -11   -1    0    0    0    0  0.00000000000E+00  0.00000000000E+00  0.45593999997E+02  0.45594000000E+02  0.51100000000E-03 0. -1.
         11   -1    0    0    0    0 -0.00000000000E+00 -0.00000000000E+00 -0.45593999997E+02  0.45594000000E+02  0.51100000000E-03 0.  1.
    9900012    2    1    2    0    0 -0.11402322805E+02 -0.38294303840E+02 -0.20800165811E+02  0.46142316858E+02  0.99999917644E+01 0.  0.
         12    1    1    2    0    0  0.11402322805E+02  0.38294303840E+02  0.20800165811E+02  0.45045683142E+02  0.00000000000E+00 0. -1.
         11    1    3    3    0    0 -0.17173020185E+01 -0.18903361263E+02 -0.10640740458E+02  0.21760320564E+02  0.51100000000E-03 0. -1.
        -11    1    3    3    0    0 -0.64983332733E+01 -0.15715799224E+02 -0.61700793917E+01  0.18091007726E+02  0.51100000000E-03 0.  1.
         12    1    3    3    0    0 -0.31866875129E+01 -0.36751433536E+01 -0.39893459613E+01  0.62909885689E+01  0.00000000000E+00 0. -1.
</event>
<event>
 7    1  0.2323330E-008  0.4614232E+02  0.7816164E-02  0.1320468E+00
        -11   -1    0    0    0    0  0.00000000000E+00  0.00000000000E+00  0.45593999997E+02  0.45594000000E+02  0.51100000000E-03 0.  1.
         11   -1    0    0    0    0 -0.00000000000E+00 -0.00000000000E+00 -0.45593999997E+02  0.45594000000E+02  0.51100000000E-03 0. -1.
    9900012    2    1    2    0    0 -0.13532090688E+02  0.15058572028E+02  0.40239726418E+02  0.46142315943E+02  0.99999834235E+01 0.  0.
         12    1    1    2    0    0  0.13532090688E+02 -0.15058572028E+02 -0.40239726418E+02  0.45045684057E+02  0.00000000000E+00 0. -1.
         11    1    3    3    0    0 -0.49205346167E+01  0.42313070129E+01  0.20593770723E+02  0.21592105335E+02  0.51100000000E-03 0. -1.
        -11    1    3    3    0    0 -0.80280902284E+01  0.72535402358E+01  0.12449235082E+02  0.16493863497E+02  0.51100000000E-03 0.  1.
         12    1    3    3    0    0 -0.58346584306E+00  0.35737247794E+01  0.71967206136E+01  0.80563471114E+01  0.00000000000E+00 0. -1.
</event>
<event>
 7    1  0.2323330E-008  0.4614232E+02  0.7816164E-02  0.1320468E+00
        -11   -1    0    0    0    0  0.00000000000E+00  0.00000000000E+00  0.45593999997E+02  0.45594000000E+02  0.51100000000E-03 0.  1.
         11   -1    0    0    0    0 -0.00000000000E+00 -0.00000000000E+00 -0.45593999997E+02  0.45594000000E+02  0.51100000000E-03 0. -1.
    9900012    2    1    2    0    0 -0.32159714370E+01  0.38893372933E+02  0.22496145643E+02  0.46142317641E+02  0.99999989035E+01 0.  0.
         12    1    1    2    0    0  0.32159714370E+01 -0.38893372933E+02 -0.22496145643E+02  0.45045682359E+02  0.00000000000E+00 0. -1.
         11    1    3    3    0    0 -0.16394048461E+01  0.23918274749E+02  0.84459812600E+01  0.25418617486E+02  0.51100000000E-03 0. -1.
        -11    1    3    3    0    0 -0.17275748473E+00  0.95833550831E+01  0.78610709053E+01  0.12396248458E+02  0.51100000000E-03 0.  1.
         12    1    3    3    0    0 -0.14038091061E+01  0.53917431011E+01  0.61890934781E+01  0.83274516964E+01  0.00000000000E+00 0. -1.
</event>
<event>
 7    1  0.2323330E-008  0.4614232E+02  0.7816164E-02  0.1320468E+00
        -11   -1    0    0    0    0  0.00000000000E+00  0.00000000000E+00  0.45593999997E+02  0.45594000000E+02  0.51100000000E-03 0. -1.
         11   -1    0    0    0    0 -0.00000000000E+00 -0.00000000000E+00 -0.45593999997E+02  0.45594000000E+02  0.51100000000E-03 0.  1.
    9900012    2    1    2    0    0  0.80240930263E+01 -0.91872118030E+01 -0.43362683678E+02  0.46142320236E+02  0.10000022571E+02 0.  0.
         12    1    1    2    0    0 -0.80240930263E+01  0.91872118030E+01  0.43362683678E+02  0.45045679764E+02  0.00000000000E+00 0. -1.
         11    1    3    3    0    0  0.94155717657E+00  0.73900457178E+00 -0.28335963574E+01  0.30760244231E+01  0.51100000000E-03 0. -1.
        -11    1    3    3    0    0  0.14429854511E+01  0.76906538562E+00 -0.15427138539E+01  0.22480291092E+01  0.51100000000E-03 0.  1.
        -12    1    3    3    0    0  0.56395503986E+01 -0.10695281760E+02 -0.38986373467E+02  0.40818266704E+02  0.00000000000E+00 0.  1.
</event>
<event>
 7    1  0.2323330E-008  0.4614233E+02  0.7816164E-02  0.1320468E+00
        -11   -1    0    0    0    0  0.00000000000E+00  0.00000000000E+00  0.45593999997E+02  0.45594000000E+02  0.51100000000E-03 0. -1.
         11   -1    0    0    0    0 -0.00000000000E+00 -0.00000000000E+00 -0.45593999997E+02  0.45594000000E+02  0.51100000000E-03 0.  1.
    9900012    2    1    2    0    0 -0.30121383247E+02 -0.17282503009E+02 -0.28690236580E+02  0.46142330797E+02  0.10000118869E+02 0.  0.
         12    1    1    2    0    0  0.30121383247E+02  0.17282503009E+02  0.28690236580E+02  0.45045669203E+02  0.00000000000E+00 0. -1.
         11    1    3    3    0    0 -0.54733837065E+01 -0.34639350883E+01 -0.92456542946E+01  0.11288883873E+02  0.51100000000E-03 0. -1.
        -11    1    3    3    0    0 -0.12099056823E+02 -0.10285314866E+02 -0.11095211016E+02  0.19372108446E+02  0.51100000000E-03 0.  1.
         12    1    3    3    0    0 -0.12548942718E+02 -0.35332530545E+01 -0.83493712690E+01  0.15481338478E+02  0.00000000000E+00 0. -1.
</event>
<event>
 7    1  0.2323330E-008  0.4614232E+02  0.7816164E-02  0.1320468E+00
        -11   -1    0    0    0    0  0.00000000000E+00  0.00000000000E+00  0.45593999997E+02  0.45594000000E+02  0.51100000000E-03 0.  1.
         11   -1    0    0    0    0 -0.00000000000E+00 -0.00000000000E+00 -0.45593999997E+02  0.45594000000E+02  0.51100000000E-03 0. -1.
    9900012    2    1    2    0    0 -0.19190047663E+02 -0.22849063206E+02  0.33745753560E+02  0.46142317610E+02  0.99999986209E+01 0.  0.
         12    1    1    2    0    0  0.19190047663E+02  0.22849063206E+02 -0.33745753560E+02  0.45045682390E+02  0.00000000000E+00 0. -1.
         11    1    3    3    0    0 -0.42178605151E+01 -0.55106503016E+01  0.12949683749E+02  0.14691899929E+02  0.51100000000E-03 0. -1.
        -11    1    3    3    0    0 -0.11901757046E+02 -0.15130349742E+02  0.19627282729E+02  0.27491990319E+02  0.51100000000E-03 0.  1.
        -12    1    3    3    0    0 -0.30704301011E+01 -0.22080631624E+01  0.11687870813E+01  0.39584273616E+01  0.00000000000E+00 0.  1.
</event>
<event>
 7    1  0.2323330E-008  0.4614232E+02  0.7816164E-02  0.1320468E+00
        -11   -1    0    0    0    0  0.00000000000E+00  0.00000000000E+00  0.45593999997E+02  0.45594000000E+02  0.51100000000E-03 0.  1.
         11   -1    0    0    0    0 -0.00000000000E+00 -0.00000000000E+00 -0.45593999997E+02  0.45594000000E+02  0.51100000000E-03 0. -1.
    9900012    2    1    2    0    0 -0.28964033036E+02 -0.14322330180E+02  0.31385812334E+02  0.46142316884E+02  0.99999920023E+01 0.  0.
         12    1    1    2    0    0  0.28964033036E+02  0.14322330180E+02 -0.31385812334E+02  0.45045683116E+02  0.00000000000E+00 0. -1.
         11    1    3    3    0    0 -0.72190442006E+01 -0.18752595249E+01  0.10951587594E+02  0.13250225226E+02  0.51100000000E-03 0. -1.
        -11    1    3    3    0    0 -0.14343990269E+02 -0.66777038874E+01  0.16038829340E+02  0.22529665619E+02  0.51100000000E-03 0.  1.
        -12    1    3    3    0    0 -0.74009985671E+01 -0.57693667679E+01  0.43953953998E+01  0.10362426039E+02  0.00000000000E+00 0.  1.
</event>
<event>
 7    1  0.2323330E-008  0.4614231E+02  0.7816164E-02  0.1320468E+00
        -11   -1    0    0    0    0  0.00000000000E+00  0.00000000000E+00  0.45593999997E+02  0.45594000000E+02  0.51100000000E-03 0.  1.
         11   -1    0    0    0    0 -0.00000000000E+00 -0.00000000000E+00 -0.45593999997E+02  0.45594000000E+02  0.51100000000E-03 0. -1.
    9900012    2    1    2    0    0  0.23507701891E+02  0.33270819547E+01  0.38280966713E+02  0.46142312803E+02  0.99999547908E+01 0.  0.
         12    1    1    2    0    0 -0.23507701891E+02 -0.33270819547E+01 -0.38280966713E+02  0.45045687197E+02  0.00000000000E+00 0. -1.
         11    1    3    3    0    0  0.32039017595E+01 -0.19744743348E+01  0.73309197779E+01  0.82405048653E+01  0.51100000000E-03 0. -1.
        -11    1    3    3    0    0  0.32908423576E+01  0.25664849232E+01  0.32931114563E+01  0.53161143336E+01  0.51100000000E-03 0.  1.
        -12    1    3    3    0    0  0.17012957774E+02  0.27350713664E+01  0.27656935479E+02  0.32585693604E+02  0.00000000000E+00 0.  1.
</event>
<event>
 7    1  0.2323330E-008  0.4614232E+02  0.7816164E-02  0.1320468E+00
        -11   -1    0    0    0    0  0.00000000000E+00  0.00000000000E+00  0.45593999997E+02  0.45594000000E+02  0.51100000000E-03 0.  1.
         11   -1    0    0    0    0 -0.00000000000E+00 -0.00000000000E+00 -0.45593999997E+02  0.45594000000E+02  0.51100000000E-03 0. -1.
    9900012    2    1    2    0    0  0.28432218012E+02  0.30261605126E+02  0.17463041172E+02  0.46142316823E+02  0.99999914487E+01 0.  0.
         12    1    1    2    0    0 -0.28432218012E+02 -0.30261605126E+02 -0.17463041172E+02  0.45045683177E+02  0.00000000000E+00 0. -1.
         11    1    3    3    0    0  0.52402064856E+01  0.49498602992E+01  0.61102333847E+01  0.94496472564E+01  0.51100000000E-03 0. -1.
        -11    1    3    3    0    0  0.90635001801E+01  0.14494170621E+02  0.58145077684E+01  0.18056481340E+02  0.51100000000E-03 0.  1.
         12    1    3    3    0    0  0.14128511346E+02  0.10817574205E+02  0.55383000193E+01  0.18636188227E+02  0.00000000000E+00 0. -1.
</event>
<event>
 7    1  0.2323330E-008  0.4614232E+02  0.7816164E-02  0.1320468E+00
        -11   -1    0    0    0    0  0.00000000000E+00  0.00000000000E+00  0.45593999997E+02  0.45594000000E+02  0.51100000000E-03 0.  1.
         11   -1    0    0    0    0 -0.00000000000E+00 -0.00000000000E+00 -0.45593999997E+02  0.45594000000E+02  0.51100000000E-03 0. -1.
    9900012    2    1    2    0    0  0.29645441051E+02 -0.22510106616E+02  0.25368413014E+02  0.46142318145E+02  0.10000003498E+02 0.  0.
         12    1    1    2    0    0 -0.29645441051E+02  0.22510106616E+02 -0.25368413014E+02  0.45045681855E+02  0.00000000000E+00 0. -1.
         11    1    3    3    0    0  0.10652912237E+01 -0.20219199031E+00 -0.35989526345E+00  0.11424761940E+01  0.51100000000E-03 0. -1.
        -11    1    3    3    0    0  0.18170917232E+02 -0.12528020634E+02  0.11701757957E+02  0.24981286468E+02  0.51100000000E-03 0.  1.
         12    1    3    3    0    0  0.10409232595E+02 -0.97798939917E+01  0.14026550321E+02  0.20018555482E+02  0.00000000000E+00 0. -1.
</event>
<event>
 7    1  0.2323330E-008  0.4614232E+02  0.7816164E-02  0.1320468E+00
        -11   -1    0    0    0    0  0.00000000000E+00  0.00000000000E+00  0.45593999997E+02  0.45594000000E+02  0.51100000000E-03 0.  1.
         11   -1    0    0    0    0 -0.00000000000E+00 -0.00000000000E+00 -0.45593999997E+02  0.45594000000E+02  0.51100000000E-03 0. -1.
    9900012    2    1    2    0    0  0.41836311100E+02 -0.16255149609E+02 -0.38218713857E+01  0.46142317453E+02  0.99999971872E+01 0.  0.
         12    1    1    2    0    0 -0.41836311100E+02  0.16255149609E+02  0.38218713857E+01  0.45045682547E+02  0.00000000000E+00 0. -1.
         11    1    3    3    0    0  0.17417868661E+02 -0.60648133145E+01 -0.62925747914E+01  0.19487447422E+02  0.51100000000E-03 0. -1.
        -11    1    3    3    0    0  0.64709018888E+01 -0.25974784978E+01 -0.25595656736E+00  0.69774622770E+01  0.51100000000E-03 0.  1.
         12    1    3    3    0    0  0.17947540550E+02 -0.75928577972E+01  0.27266599731E+01  0.19677407754E+02  0.00000000000E+00 0. -1.
</event>
<event>
 7    1  0.2323330E-008  0.4614232E+02  0.7816164E-02  0.1320468E+00
        -11   -1    0    0    0    0  0.00000000000E+00  0.00000000000E+00  0.45593999997E+02  0.45594000000E+02  0.51100000000E-03 0. -1.
         11   -1    0    0    0    0 -0.00000000000E+00 -0.00000000000E+00 -0.45593999997E+02  0.45594000000E+02  0.51100000000E-03 0.  1.
    9900012    2    1    2    0    0  0.30457045561E+02  0.82641345733E+01 -0.32143210480E+02  0.46142317360E+02  0.99999963413E+01 0.  0.
         12    1    1    2    0    0 -0.30457045561E+02 -0.82641345733E+01  0.32143210480E+02  0.45045682640E+02  0.00000000000E+00 0. -1.
         11    1    3    3    0    0  0.99733506667E+01 -0.69266677867E+00 -0.10406125978E+02  0.14430348884E+02  0.51100000000E-03 0. -1.
        -11    1    3    3    0    0  0.16776889040E+02  0.48615154470E+01 -0.17722619208E+02  0.24883520052E+02  0.51100000000E-03 0.  1.
         12    1    3    3    0    0  0.37068058539E+01  0.40952859049E+01 -0.40144652943E+01  0.68284484241E+01  0.00000000000E+00 0. -1.
</event>
<event>
 7    1  0.2323330E-008  0.4614232E+02  0.7816164E-02  0.1320468E+00
        -11   -1    0    0    0    0  0.00000000000E+00  0.00000000000E+00  0.45593999997E+02  0.45594000000E+02  0.51100000000E-03 0. -1.
         11   -1    0    0    0    0 -0.00000000000E+00 -0.00000000000E+00 -0.45593999997E+02  0.45594000000E+02  0.51100000000E-03 0.  1.
    9900012    2    1    2    0    0 -0.33427871239E+02  0.29148557835E+02 -0.78773521220E+01  0.46142315680E+02  0.99999810183E+01 0.  0.
         12    1    1    2    0    0  0.33427871239E+02 -0.29148557835E+02  0.78773521220E+01  0.45045684320E+02  0.00000000000E+00 0. -1.
         11    1    3    3    0    0 -0.36807080094E+01  0.22087992053E+01 -0.23435223615E+01  0.48906546289E+01  0.51100000000E-03 0. -1.
        -11    1    3    3    0    0 -0.15262766393E+02  0.13225097887E+02 -0.66801735226E+01  0.21271576590E+02  0.51100000000E-03 0.  1.
        -12    1    3    3    0    0 -0.14484396837E+02  0.13714660743E+02  0.11463437621E+01  0.19980084460E+02  0.00000000000E+00 0.  1.
</event>
<event>
 7    1  0.2323330E-008  0.4614232E+02  0.7816164E-02  0.1320468E+00
        -11   -1    0    0    0    0  0.00000000000E+00  0.00000000000E+00  0.45593999997E+02  0.45594000000E+02  0.51100000000E-03 0.  1.
         11   -1    0    0    0    0 -0.00000000000E+00 -0.00000000000E+00 -0.45593999997E+02  0.45594000000E+02  0.51100000000E-03 0. -1.
    9900012    2    1    2    0    0  0.38097385150E+02  0.10966965236E+02  0.21387579573E+02  0.46142316058E+02  0.99999844722E+01 0.  0.
         12    1    1    2    0    0 -0.38097385150E+02 -0.10966965236E+02 -0.21387579573E+02  0.45045683942E+02  0.00000000000E+00 0. -1.
         11    1    3    3    0    0  0.33779741215E+02  0.91041472696E+01  0.19765238806E+02  0.40182347858E+02  0.51100000000E-03 0. -1.
        -11    1    3    3    0    0  0.33229113182E+01 -0.15242166668E+00  0.27059551287E+00  0.33373933220E+01  0.51100000000E-03 0.  1.
         12    1    3    3    0    0  0.99473261692E+00  0.20152396335E+01  0.13517452544E+01  0.26225748783E+01  0.00000000000E+00 0. -1.
</event>
<event>
 7    1  0.2323330E-008  0.4614232E+02  0.7816164E-02  0.1320468E+00
        -11   -1    0    0    0    0  0.00000000000E+00  0.00000000000E+00  0.45593999997E+02  0.45594000000E+02  0.51100000000E-03 0. -1.
         11   -1    0    0    0    0 -0.00000000000E+00 -0.00000000000E+00 -0.45593999997E+02  0.45594000000E+02  0.51100000000E-03 0.  1.
    9900012    2    1    2    0    0 -0.17688257237E+02 -0.39308703964E+02  0.13079179646E+02  0.46142316615E+02  0.99999895483E+01 0.  0.
         12    1    1    2    0    0  0.17688257237E+02  0.39308703964E+02 -0.13079179646E+02  0.45045683385E+02  0.00000000000E+00 0. -1.
         11    1    3    3    0    0 -0.24616470788E+01 -0.12326800424E+02  0.34432949073E+01  0.13033264945E+02  0.51100000000E-03 0. -1.
        -11    1    3    3    0    0 -0.11702370271E+02 -0.22237579592E+02  0.50565634500E+01  0.25632484278E+02  0.51100000000E-03 0.  1.
         12    1    3    3    0    0 -0.35242398874E+01 -0.47443239474E+01  0.45793212890E+01  0.74765673922E+01  0.00000000000E+00 0. -1.
</event>
<event>
 7    1  0.2323330E-008  0.4614232E+02  0.7816164E-02  0.1320468E+00
        -11   -1    0    0    0    0  0.00000000000E+00  0.00000000000E+00  0.45593999997E+02  0.45594000000E+02  0.51100000000E-03 0.  1.
         11   -1    0    0    0    0 -0.00000000000E+00 -0.00000000000E+00 -0.45593999997E+02  0.45594000000E+02  0.51100000000E-03 0. -1.
    9900012    2    1    2    0    0 -0.78240392069E+01 -0.25406785489E+02  0.36364723662E+02  0.46142318016E+02  0.10000002321E+02 0.  0.
         12    1    1    2    0    0  0.78240392069E+01  0.25406785489E+02 -0.36364723662E+02  0.45045681984E+02  0.00000000000E+00 0. -1.
         11    1    3    3    0    0 -0.38780237645E+01 -0.17468362594E+01  0.51353239281E+01  0.66679875032E+01  0.51100000000E-03 0. -1.
        -11    1    3    3    0    0 -0.20638409386E+01 -0.56212371568E+01  0.70784347937E+01  0.92715686905E+01  0.51100000000E-03 0.  1.
        -12    1    3    3    0    0 -0.18821745038E+01 -0.18038712073E+02  0.24150964940E+02  0.30202761822E+02  0.00000000000E+00 0.  1.
</event>
<event>
 7    1  0.2323330E-008  0.4614232E+02  0.7816164E-02  0.1320468E+00
        -11   -1    0    0    0    0  0.00000000000E+00  0.00000000000E+00  0.45593999997E+02  0.45594000000E+02  0.51100000000E-03 0.  1.
         11   -1    0    0    0    0 -0.00000000000E+00 -0.00000000000E+00 -0.45593999997E+02  0.45594000000E+02  0.51100000000E-03 0. -1.
    9900012    2    1    2    0    0 -0.30324924662E+02  0.31897216963E+02 -0.95958269324E+01  0.46142318739E+02  0.10000008921E+02 0.  0.
         12    1    1    2    0    0  0.30324924662E+02 -0.31897216963E+02  0.95958269324E+01  0.45045681261E+02  0.00000000000E+00 0. -1.
         11    1    3    3    0    0 -0.70957633727E+01  0.41472235980E+01 -0.36023936970E+01  0.89736593440E+01  0.51100000000E-03 0. -1.
        -11    1    3    3    0    0 -0.87345943462E+01  0.97165817974E+01  0.69780175971E+00  0.13084037136E+02  0.51100000000E-03 0.  1.
        -12    1    3    3    0    0 -0.14494566943E+02  0.18033411568E+02 -0.66912349950E+01  0.24084622259E+02  0.00000000000E+00 0.  1.
</event>
<event>
 7    1  0.2323330E-008  0.4614232E+02  0.7816164E-02  0.1320468E+00
        -11   -1    0    0    0    0  0.00000000000E+00  0.00000000000E+00  0.45593999997E+02  0.45594000000E+02  0.51100000000E-03 0.  1.
         11   -1    0    0    0    0 -0.00000000000E+00 -0.00000000000E+00 -0.45593999997E+02  0.45594000000E+02  0.51100000000E-03 0. -1.
    9900012    2    1    2    0    0 -0.11182813319E+02  0.26966631213E+02 -0.34305378230E+02  0.46142317763E+02  0.10000000014E+02 0.  0.
         12    1    1    2    0    0  0.11182813319E+02 -0.26966631213E+02  0.34305378230E+02  0.45045682237E+02  0.00000000000E+00 0. -1.
         11    1    3    3    0    0 -0.70237859264E+01  0.14239564060E+02 -0.22194200100E+02  0.27288848853E+02  0.51100000000E-03 0. -1.
        -11    1    3    3    0    0 -0.22601047136E+01  0.11870059918E+02 -0.11503172532E+02  0.16683206357E+02  0.51100000000E-03 0.  1.
        -12    1    3    3    0    0 -0.18989226792E+01  0.85700723539E+00 -0.60800559722E+00  0.21702625531E+01  0.00000000000E+00 0.  1.
</event>
<event>
 7    1  0.2323330E-008  0.4614232E+02  0.7816164E-02  0.1320468E+00
        -11   -1    0    0    0    0  0.00000000000E+00  0.00000000000E+00  0.45593999997E+02  0.45594000000E+02  0.51100000000E-03 0. -1.
         11   -1    0    0    0    0 -0.00000000000E+00 -0.00000000000E+00 -0.45593999997E+02  0.45594000000E+02  0.51100000000E-03 0.  1.
    9900012    2    1    2    0    0 -0.37618525300E+02 -0.47507309493E+01 -0.24318523652E+02  0.46142317822E+02  0.10000000556E+02 0.  0.
         12    1    1    2    0    0  0.37618525300E+02  0.47507309493E+01  0.24318523652E+02  0.45045682178E+02  0.00000000000E+00 0. -1.
         11    1    3    3    0    0 -0.10590222563E+01  0.92113524098E+00  0.67622784954E-01  0.14052015420E+01  0.51100000000E-03 0. -1.
        -11    1    3    3    0    0 -0.15172470578E+02 -0.12882069140E+01 -0.13463243413E+02  0.20325409318E+02  0.51100000000E-03 0.  1.
        -12    1    3    3    0    0 -0.21387032465E+02 -0.43836592763E+01 -0.10922903024E+02  0.24411706962E+02  0.00000000000E+00 0.  1.
</event>
<event>
 7    1  0.2323330E-008  0.4614232E+02  0.7816164E-02  0.1320468E+00
        -11   -1    0    0    0    0  0.00000000000E+00  0.00000000000E+00  0.45593999997E+02  0.45594000000E+02  0.51100000000E-03 0.  1.
         11   -1    0    0    0    0 -0.00000000000E+00 -0.00000000000E+00 -0.45593999997E+02  0.45594000000E+02  0.51100000000E-03 0. -1.
    9900012    2    1    2    0    0  0.29763302480E+02 -0.20144036800E+02  0.27156529079E+02  0.46142318023E+02  0.10000002389E+02 0.  0.
         12    1    1    2    0    0 -0.29763302480E+02  0.20144036800E+02 -0.27156529079E+02  0.45045681977E+02  0.00000000000E+00 0. -1.
         11    1    3    3    0    0  0.11113055032E+02 -0.61149301144E+01  0.71934277491E+01  0.14582104289E+02  0.51100000000E-03 0. -1.
        -11    1    3    3    0    0  0.17242439944E+02 -0.14088643447E+02  0.20278149667E+02  0.30116357076E+02  0.51100000000E-03 0.  1.
         12    1    3    3    0    0  0.14078075043E+01  0.59536760716E-01 -0.31504833633E+00  0.14438566581E+01  0.00000000000E+00 0. -1.
</event>
<event>
 7    1  0.2323330E-008  0.4614232E+02  0.7816164E-02  0.1320468E+00
        -11   -1    0    0    0    0  0.00000000000E+00  0.00000000000E+00  0.45593999997E+02  0.45594000000E+02  0.51100000000E-03 0. -1.
         11   -1    0    0    0    0 -0.00000000000E+00 -0.00000000000E+00 -0.45593999997E+02  0.45594000000E+02  0.51100000000E-03 0.  1.
    9900012    2    1    2    0    0 -0.32336062527E+02  0.28753199578E+02 -0.12519826863E+02  0.46142317739E+02  0.99999997948E+01 0.  0.
         12    1    1    2    0    0  0.32336062527E+02 -0.28753199578E+02  0.12519826863E+02  0.45045682261E+02  0.00000000000E+00 0. -1.
         11    1    3    3    0    0 -0.11891642451E+01  0.20729874206E+01 -0.23197353648E+01  0.33305496351E+01  0.51100000000E-03 0. -1.
        -11    1    3    3    0    0 -0.54228246250E+01  0.58489371627E+01 -0.46976993309E+01  0.92566447545E+01  0.51100000000E-03 0.  1.
        -12    1    3    3    0    0 -0.25724073656E+02  0.20831274995E+02 -0.55023921669E+01  0.33555123349E+02  0.00000000000E+00 0.  1.
</event>
<event>
 7    1  0.2323330E-008  0.4614232E+02  0.7816164E-02  0.1320468E+00
        -11   -1    0    0    0    0  0.00000000000E+00  0.00000000000E+00  0.45593999997E+02  0.45594000000E+02  0.51100000000E-03 0.  1.
         11   -1    0    0    0    0 -0.00000000000E+00 -0.00000000000E+00 -0.45593999997E+02  0.45594000000E+02  0.51100000000E-03 0. -1.
    9900012    2    1    2    0    0  0.35134962289E+02 -0.25372918859E+02  0.12282626739E+02  0.46142317564E+02  0.99999982042E+01 0.  0.
         12    1    1    2    0    0 -0.35134962289E+02  0.25372918859E+02 -0.12282626739E+02  0.45045682436E+02  0.00000000000E+00 0. -1.
         11    1    3    3    0    0  0.77561806342E+01 -0.32640178046E+01  0.18164948810E+00  0.84169559258E+01  0.51100000000E-03 0. -1.
        -11    1    3    3    0    0  0.80894245896E+01 -0.86655783495E+01  0.15526798791E+01  0.11955829264E+02  0.51100000000E-03 0.  1.
        -12    1    3    3    0    0  0.19289357066E+02 -0.13443322705E+02  0.10548297372E+02  0.25769532374E+02  0.00000000000E+00 0.  1.
</event>
<event>
 7    1  0.2323330E-008  0.4614232E+02  0.7816164E-02  0.1320468E+00
        -11   -1    0    0    0    0  0.00000000000E+00  0.00000000000E+00  0.45593999997E+02  0.45594000000E+02  0.51100000000E-03 0.  1.
         11   -1    0    0    0    0 -0.00000000000E+00 -0.00000000000E+00 -0.45593999997E+02  0.45594000000E+02  0.51100000000E-03 0. -1.
    9900012    2    1    2    0    0  0.28109248245E+00  0.40280295911E+02  0.20162645808E+02  0.46142317214E+02  0.99999950082E+01 0.  0.
         12    1    1    2    0    0 -0.28109248245E+00 -0.40280295911E+02 -0.20162645808E+02  0.45045682786E+02  0.00000000000E+00 0. -1.
         11    1    3    3    0    0 -0.18654575910E+01  0.35612189457E+01  0.23573202449E+01  0.46603831818E+01  0.51100000000E-03 0. -1.
        -11    1    3    3    0    0 -0.15710204361E+01  0.27019004844E+02  0.13363741421E+02  0.30184173220E+02  0.51100000000E-03 0.  1.
         12    1    3    3    0    0  0.37175705096E+01  0.97000721219E+01  0.44415841425E+01  0.11297760812E+02  0.00000000000E+00 0. -1.
</event>
<event>
 7    1  0.2323330E-008  0.4614232E+02  0.7816164E-02  0.1320468E+00
        -11   -1    0    0    0    0  0.00000000000E+00  0.00000000000E+00  0.45593999997E+02  0.45594000000E+02  0.51100000000E-03 0. -1.
         11   -1    0    0    0    0 -0.00000000000E+00 -0.00000000000E+00 -0.45593999997E+02  0.45594000000E+02  0.51100000000E-03 0.  1.
    9900012    2    1    2    0    0 -0.34216056006E+02  0.25318675708E+02  0.14742447231E+02  0.46142316760E+02  0.99999908685E+01 0.  0.
         12    1    1    2    0    0  0.34216056006E+02 -0.25318675708E+02 -0.14742447231E+02  0.45045683240E+02  0.00000000000E+00 0. -1.
         11    1    3    3    0    0 -0.41329635577E+01  0.90182481895E+00 -0.68577849200E+00  0.42854367542E+01  0.51100000000E-03 0. -1.
        -11    1    3    3    0    0 -0.22483648906E+02  0.19083510579E+02  0.10217858976E+02  0.31210566904E+02  0.51100000000E-03 0.  1.
         12    1    3    3    0    0 -0.75994435426E+01  0.53333403101E+01  0.52103667473E+01  0.10646313102E+02  0.00000000000E+00 0. -1.
</event>
<event>
 7    1  0.2323330E-008  0.4614232E+02  0.7816164E-02  0.1320468E+00
        -11   -1    0    0    0    0  0.00000000000E+00  0.00000000000E+00  0.45593999997E+02  0.45594000000E+02  0.51100000000E-03 0.  1.
         11   -1    0    0    0    0 -0.00000000000E+00 -0.00000000000E+00 -0.45593999997E+02  0.45594000000E+02  0.51100000000E-03 0. -1.
    9900012    2    1    2    0    0  0.35729845166E+02  0.14717312214E+01  0.27392073462E+02  0.46142317444E+02  0.99999971088E+01 0.  0.
         12    1    1    2    0    0 -0.35729845166E+02 -0.14717312214E+01 -0.27392073462E+02  0.45045682556E+02  0.00000000000E+00 0. -1.
         11    1    3    3    0    0  0.48447509163E+00 -0.63135758500E+00 -0.30834067213E+00  0.85346514033E+00  0.51100000000E-03 0. -1.
        -11    1    3    3    0    0  0.30687837102E+02 -0.13979317404E+00  0.22800876396E+02  0.38231438017E+02  0.51100000000E-03 0.  1.
         12    1    3    3    0    0  0.45575329725E+01  0.22428819804E+01  0.48995377374E+01  0.70574142866E+01  0.00000000000E+00 0. -1.
</event>
<event>
 7    1  0.2323330E-008  0.4614232E+02  0.7816164E-02  0.1320468E+00
        -11   -1    0    0    0    0  0.00000000000E+00  0.00000000000E+00  0.45593999997E+02  0.45594000000E+02  0.51100000000E-03 0. -1.
         11   -1    0    0    0    0 -0.00000000000E+00 -0.00000000000E+00 -0.45593999997E+02  0.45594000000E+02  0.51100000000E-03 0.  1.
    9900012    2    1    2    0    0 -0.15289528101E+01  0.13603423076E+02 -0.42915296868E+02  0.46142317395E+02  0.99999966639E+01 0.  0.
         12    1    1    2    0    0  0.15289528101E+01 -0.13603423076E+02  0.42915296868E+02  0.45045682605E+02  0.00000000000E+00 0. -1.
         11    1    3    3    0    0 -0.13558455029E+00 -0.92888190410E+00 -0.52189335761E+01  0.53026854229E+01  0.51100000000E-03 0. -1.
        -11    1    3    3    0    0 -0.68287950070E+00  0.64911931834E+01 -0.96156480322E+01  0.11621643631E+02  0.51100000000E-03 0.  1.
        -12    1    3    3    0    0 -0.71048875915E+00  0.80411117971E+01 -0.28080715259E+02  0.29217988341E+02  0.00000000000E+00 0.  1.
</event>
<event>
 7    1  0.2323330E-008  0.4614233E+02  0.7816164E-02  0.1320468E+00
        -11   -1    0    0    0    0  0.00000000000E+00  0.00000000000E+00  0.45593999997E+02  0.45594000000E+02  0.51100000000E-03 0. -1.
         11   -1    0    0    0    0 -0.00000000000E+00 -0.00000000000E+00 -0.45593999997E+02  0.45594000000E+02  0.51100000000E-03 0.  1.
    9900012    2    1    2    0    0  0.27928404485E+02 -0.35308006653E+02  0.15688075472E+01  0.46142331306E+02  0.10000123515E+02 0.  0.
         12    1    1    2    0    0 -0.27928404485E+02  0.35308006653E+02 -0.15688075472E+01  0.45045668694E+02  0.00000000000E+00 0. -1.
         11    1    3    3    0    0  0.12789331301E+02 -0.16977358164E+02 -0.14793232873E+01  0.21306949172E+02  0.51100000000E-03 0. -1.
        -11    1    3    3    0    0  0.19974195070E+01 -0.10375496264E+01 -0.14191028303E+01  0.26608357744E+01  0.51100000000E-03 0.  1.
         12    1    3    3    0    0  0.13141653677E+02 -0.17293098863E+02  0.44672336648E+01  0.22174546360E+02  0.00000000000E+00 0. -1.
</event>
<event>
 7    1  0.2323330E-008  0.4614232E+02  0.7816164E-02  0.1320468E+00
        -11   -1    0    0    0    0  0.00000000000E+00  0.00000000000E+00  0.45593999997E+02  0.45594000000E+02  0.51100000000E-03 0.  1.
         11   -1    0    0    0    0 -0.00000000000E+00 -0.00000000000E+00 -0.45593999997E+02  0.45594000000E+02  0.51100000000E-03 0. -1.
    9900012    2    1    2    0    0 -0.12390385762E+01  0.18886669858E+01  0.44989012186E+02  0.46142317665E+02  0.99999991235E+01 0.  0.
         12    1    1    2    0    0  0.12390385762E+01 -0.18886669858E+01 -0.44989012186E+02  0.45045682335E+02  0.00000000000E+00 0. -1.
         11    1    3    3    0    0  0.11306003835E+00 -0.28930659765E+00  0.10548513589E+01  0.10996329070E+01  0.51100000000E-03 0.  1.
        -11    1    3    3    0    0 -0.30184922334E+01  0.39703191267E-01  0.39733610676E+01  0.49900370881E+01  0.51100000000E-03 0. -1.
        -12    1    3    3    0    0  0.16663936188E+01  0.21382703922E+01  0.39960799759E+02  0.40052647670E+02  0.00000000000E+00 0.  1.
</event>
<event>
 7    1  0.2323330E-008  0.4614232E+02  0.7816164E-02  0.1320468E+00
        -11   -1    0    0    0    0  0.00000000000E+00  0.00000000000E+00  0.45593999997E+02  0.45594000000E+02  0.51100000000E-03 0. -1.
         11   -1    0    0    0    0 -0.00000000000E+00 -0.00000000000E+00 -0.45593999997E+02  0.45594000000E+02  0.51100000000E-03 0.  1.
    9900012    2    1    2    0    0 -0.20961387073E+02  0.37700946917E+02 -0.12975841783E+02  0.46142316340E+02  0.99999870386E+01 0.  0.
         12    1    1    2    0    0  0.20961387073E+02 -0.37700946917E+02  0.12975841783E+02  0.45045683660E+02  0.00000000000E+00 0. -1.
         11    1    3    3    0    0 -0.15266015218E+02  0.25269827233E+02 -0.10852790787E+02  0.31454704850E+02  0.51100000000E-03 0. -1.
        -11    1    3    3    0    0 -0.61208989050E+01  0.11344471588E+02 -0.29914578306E+01  0.13232961090E+02  0.51100000000E-03 0.  1.
         12    1    3    3    0    0  0.42552705044E+00  0.10866480957E+01  0.86840683456E+00  0.14546503995E+01  0.00000000000E+00 0. -1.
</event>
<event>
 7    1  0.2323330E-008  0.4614232E+02  0.7816164E-02  0.1320468E+00
        -11   -1    0    0    0    0  0.00000000000E+00  0.00000000000E+00  0.45593999997E+02  0.45594000000E+02  0.51100000000E-03 0. -1.
         11   -1    0    0    0    0 -0.00000000000E+00 -0.00000000000E+00 -0.45593999997E+02  0.45594000000E+02  0.51100000000E-03 0.  1.
    9900012    2    1    2    0    0  0.33916596575E+02  0.26904585857E+02 -0.12446732882E+02  0.46142318489E+02  0.10000006636E+02 0.  0.
         12    1    1    2    0    0 -0.33916596575E+02 -0.26904585857E+02  0.12446732882E+02  0.45045681511E+02  0.00000000000E+00 0. -1.
         11    1    3    3    0    0  0.11120180831E+01  0.51068898450E+00  0.50459029374E+00  0.13236310217E+01  0.51100000000E-03 0. -1.
        -11    1    3    3    0    0  0.47814311406E+01  0.59681261014E+01 -0.53086449291E+01  0.93092601295E+01  0.51100000000E-03 0.  1.
         12    1    3    3    0    0  0.28023147351E+02  0.20425770771E+02 -0.76426782464E+01  0.35509427338E+02  0.00000000000E+00 0. -1.
</event>
<event>
 7    1  0.2323330E-008  0.4614232E+02  0.7816164E-02  0.1320468E+00
        -11   -1    0    0    0    0  0.00000000000E+00  0.00000000000E+00  0.45593999997E+02  0.45594000000E+02  0.51100000000E-03 0.  1.
         11   -1    0    0    0    0 -0.00000000000E+00 -0.00000000000E+00 -0.45593999997E+02  0.45594000000E+02  0.51100000000E-03 0. -1.
    9900012    2    1    2    0    0  0.29332457814E+02 -0.29737557588E+02 -0.16864103309E+02  0.46142318818E+02  0.10000009639E+02 0.  0.
         12    1    1    2    0    0 -0.29332457814E+02  0.29737557588E+02  0.16864103309E+02  0.45045681182E+02  0.00000000000E+00 0. -1.
         11    1    3    3    0    0  0.12884202152E+01 -0.13452627339E+01 -0.20068619478E+01  0.27381113222E+01  0.51100000000E-03 0. -1.
        -11    1    3    3    0    0  0.66591979671E+01 -0.87538008018E+01 -0.48988193929E+00  0.11009719825E+02  0.51100000000E-03 0.  1.
        -12    1    3    3    0    0  0.21384839632E+02 -0.19638494052E+02 -0.14367359422E+02  0.32394487671E+02  0.00000000000E+00 0.  1.
</event>
<event>
 7    1  0.2323330E-008  0.4614232E+02  0.7816164E-02  0.1320468E+00
        -11   -1    0    0    0    0  0.00000000000E+00  0.00000000000E+00  0.45593999997E+02  0.45594000000E+02  0.51100000000E-03 0. -1.
         11   -1    0    0    0    0 -0.00000000000E+00 -0.00000000000E+00 -0.45593999997E+02  0.45594000000E+02  0.51100000000E-03 0.  1.
    9900012    2    1    2    0    0 -0.53709030526E+01  0.44567579665E+02  0.37413491749E+01  0.46142318182E+02  0.10000003840E+02 0.  0.
         12    1    1    2    0    0  0.53709030526E+01 -0.44567579665E+02 -0.37413491749E+01  0.45045681818E+02  0.00000000000E+00 0. -1.
         11    1    3    3    0    0 -0.53705181055E+01  0.22664831762E+02 -0.21019282792E+00  0.23293373409E+02  0.51100000000E-03 0. -1.
        -11    1    3    3    0    0 -0.21028886909E+01  0.11010622498E+02  0.45930590228E+00  0.11219042330E+02  0.51100000000E-03 0.  1.
        -12    1    3    3    0    0  0.21025037438E+01  0.10892125406E+02  0.34922361006E+01  0.11629902443E+02  0.00000000000E+00 0.  1.
</event>
<event>
 7    1  0.2323330E-008  0.4614232E+02  0.7816164E-02  0.1320468E+00
        -11   -1    0    0    0    0  0.00000000000E+00  0.00000000000E+00  0.45593999997E+02  0.45594000000E+02  0.51100000000E-03 0.  1.
         11   -1    0    0    0    0 -0.00000000000E+00 -0.00000000000E+00 -0.45593999997E+02  0.45594000000E+02  0.51100000000E-03 0. -1.
    9900012    2    1    2    0    0  0.41688907387E+02  0.56501237112E+01  0.16100452257E+02  0.46142318077E+02  0.10000002876E+02 0.  0.
         12    1    1    2    0    0 -0.41688907387E+02 -0.56501237112E+01 -0.16100452257E+02  0.45045681923E+02  0.00000000000E+00 0. -1.
         11    1    3    3    0    0  0.58751722420E+01 -0.21310237484E+01  0.41029150746E+01  0.74761503101E+01  0.51100000000E-03 0. -1.
        -11    1    3    3    0    0  0.13336780411E+02  0.15137541571E+01  0.45143887641E+01  0.14161245339E+02  0.51100000000E-03 0.  1.
         12    1    3    3    0    0  0.22476954734E+02  0.62673933024E+01  0.74831484186E+01  0.24504922428E+02  0.00000000000E+00 0. -1.
</event>
<event>
 7    1  0.2323330E-008  0.4614232E+02  0.7816164E-02  0.1320468E+00
        -11   -1    0    0    0    0  0.00000000000E+00  0.00000000000E+00  0.45593999997E+02  0.45594000000E+02  0.51100000000E-03 0.  1.
         11   -1    0    0    0    0 -0.00000000000E+00 -0.00000000000E+00 -0.45593999997E+02  0.45594000000E+02  0.51100000000E-03 0. -1.
    9900012    2    1    2    0    0  0.43657293848E+02 -0.33110183860E+00 -0.11092545155E+02  0.46142317714E+02  0.99999995697E+01 0.  0.
         12    1    1    2    0    0 -0.43657293848E+02  0.33110183860E+00  0.11092545155E+02  0.45045682286E+02  0.00000000000E+00 0. -1.
         11    1    3    3    0    0  0.88709968127E+01  0.15457327965E+01 -0.10175962458E+01  0.90619742170E+01  0.51100000000E-03 0. -1.
        -11    1    3    3    0    0  0.16709832186E+02 -0.75947111495E-01 -0.91344526755E+00  0.16734952709E+02  0.51100000000E-03 0.  1.
         12    1    3    3    0    0  0.18076464849E+02 -0.18008875236E+01 -0.91615036420E+01  0.20345390788E+02  0.00000000000E+00 0. -1.
</event>
<event>
 7    1  0.2323330E-008  0.4614233E+02  0.7816164E-02  0.1320468E+00
        -11   -1    0    0    0    0  0.00000000000E+00  0.00000000000E+00  0.45593999997E+02  0.45594000000E+02  0.51100000000E-03 0.  1.
         11   -1    0    0    0    0 -0.00000000000E+00 -0.00000000000E+00 -0.45593999997E+02  0.45594000000E+02  0.51100000000E-03 0. -1.
    9900012    2    1    2    0    0  0.17771298854E+02 -0.16789693574E+02  0.37833843895E+02  0.46142327432E+02  0.10000088182E+02 0.  0.
         12    1    1    2    0    0 -0.17771298854E+02  0.16789693574E+02 -0.37833843895E+02  0.45045672568E+02  0.00000000000E+00 0. -1.
         11    1    3    3    0    0  0.97406265206E+00 -0.44476412949E+00  0.43126995136E+01  0.44436460859E+01  0.51100000000E-03 0. -1.
        -11    1    3    3    0    0  0.16231458502E+02 -0.11738561077E+02  0.25440651357E+02  0.32380253288E+02  0.51100000000E-03 0.  1.
        -12    1    3    3    0    0  0.56577769955E+00 -0.46063683683E+01  0.80804930244E+01  0.93184280578E+01  0.00000000000E+00 0.  1.
</event>
<event>
 7    1  0.2323330E-008  0.4614232E+02  0.7816164E-02  0.1320468E+00
        -11   -1    0    0    0    0  0.00000000000E+00  0.00000000000E+00  0.45593999997E+02  0.45594000000E+02  0.51100000000E-03 0. -1.
         11   -1    0    0    0    0 -0.00000000000E+00 -0.00000000000E+00 -0.45593999997E+02  0.45594000000E+02  0.51100000000E-03 0.  1.
    9900012    2    1    2    0    0 -0.31358655422E+02 -0.31580135791E+02  0.69601204318E+01  0.46142317378E+02  0.99999965061E+01 0.  0.
         12    1    1    2    0    0  0.31358655422E+02  0.31580135791E+02 -0.69601204318E+01  0.45045682622E+02  0.00000000000E+00 0. -1.
         11    1    3    3    0    0 -0.13166768854E+02 -0.13459206688E+02  0.19150922680E+01  0.18925686920E+02  0.51100000000E-03 0. -1.
        -11    1    3    3    0    0 -0.15801661324E+02 -0.18439658993E+02  0.50581644468E+01  0.24805212198E+02  0.51100000000E-03 0.  1.
         12    1    3    3    0    0 -0.23902252443E+01  0.31872989033E+00 -0.13136282978E-01  0.24114182597E+01  0.00000000000E+00 0. -1.
</event>
<event>
 7    1  0.2323330E-008  0.4614232E+02  0.7816164E-02  0.1320468E+00
        -11   -1    0    0    0    0  0.00000000000E+00  0.00000000000E+00  0.45593999997E+02  0.45594000000E+02  0.51100000000E-03 0.  1.
         11   -1    0    0    0    0 -0.00000000000E+00 -0.00000000000E+00 -0.45593999997E+02  0.45594000000E+02  0.51100000000E-03 0. -1.
    9900012    2    1    2    0    0 -0.65147845304E+01  0.38064047815E+02  0.23190502467E+02  0.46142316986E+02  0.99999929275E+01 0.  0.
         12    1    1    2    0    0  0.65147845304E+01 -0.38064047815E+02 -0.23190502467E+02  0.45045683014E+02  0.00000000000E+00 0. -1.
         11    1    3    3    0    0  0.43077721379E+00  0.34284731330E+01  0.30651922580E+01  0.46190259657E+01  0.51100000000E-03 0. -1.
        -11    1    3    3    0    0 -0.82691698304E+01  0.26210952005E+02  0.17570799959E+02  0.32620947046E+02  0.51100000000E-03 0.  1.
         12    1    3    3    0    0  0.13236080862E+01  0.84246226768E+01  0.25545102505E+01  0.89023439740E+01  0.00000000000E+00 0. -1.
</event>
<event>
 7    1  0.2323330E-008  0.4614232E+02  0.7816164E-02  0.1320468E+00
        -11   -1    0    0    0    0  0.00000000000E+00  0.00000000000E+00  0.45593999997E+02  0.45594000000E+02  0.51100000000E-03 0.  1.
         11   -1    0    0    0    0 -0.00000000000E+00 -0.00000000000E+00 -0.45593999997E+02  0.45594000000E+02  0.51100000000E-03 0. -1.
    9900012    2    1    2    0    0  0.60898050959E+01  0.52799304346E+01  0.44318734221E+02  0.46142316584E+02  0.99999892638E+01 0.  0.
         12    1    1    2    0    0 -0.60898050959E+01 -0.52799304346E+01 -0.44318734221E+02  0.45045683416E+02  0.00000000000E+00 0. -1.
         11    1    3    3    0    0  0.25841677370E+01  0.26337624565E+01  0.12720587477E+02  0.13244922559E+02  0.51100000000E-03 0. -1.
        -11    1    3    3    0    0  0.15680777906E+01  0.24273131817E+01  0.27685993992E+01  0.40019820257E+01  0.51100000000E-03 0.  1.
        -12    1    3    3    0    0  0.19375595684E+01  0.21885479636E+00  0.28829547345E+02  0.28895411999E+02  0.00000000000E+00 0.  1.
</event>
<event>
 7    1  0.2323330E-008  0.4614232E+02  0.7816164E-02  0.1320468E+00
        -11   -1    0    0    0    0  0.00000000000E+00  0.00000000000E+00  0.45593999997E+02  0.45594000000E+02  0.51100000000E-03 0. -1.
         11   -1    0    0    0    0 -0.00000000000E+00 -0.00000000000E+00 -0.45593999997E+02  0.45594000000E+02  0.51100000000E-03 0.  1.
    9900012    2    1    2    0    0 -0.18069086643E+02 -0.33876412641E+02 -0.23558656263E+02  0.46142317516E+02  0.99999977635E+01 0.  0.
         12    1    1    2    0    0  0.18069086643E+02  0.33876412641E+02  0.23558656263E+02  0.45045682484E+02  0.00000000000E+00 0. -1.
         11    1    3    3    0    0 -0.20093107549E+01 -0.28590426319E+01 -0.35331940900E+01  0.49693978729E+01  0.51100000000E-03 0. -1.
        -11    1    3    3    0    0 -0.74218256182E+01 -0.63828747739E+01 -0.67109316902E+01  0.11868495705E+02  0.51100000000E-03 0.  1.
         12    1    3    3    0    0 -0.86379502701E+01 -0.24634495235E+02 -0.13314530483E+02  0.29304423938E+02  0.00000000000E+00 0. -1.
</event>
<event>
 7    1  0.2323330E-008  0.4614232E+02  0.7816164E-02  0.1320468E+00
        -11   -1    0    0    0    0  0.00000000000E+00  0.00000000000E+00  0.45593999997E+02  0.45594000000E+02  0.51100000000E-03 0. -1.
         11   -1    0    0    0    0 -0.00000000000E+00 -0.00000000000E+00 -0.45593999997E+02  0.45594000000E+02  0.51100000000E-03 0.  1.
    9900012    2    1    2    0    0 -0.28255143652E+02  0.10209585563E+02 -0.33563742443E+02  0.46142316667E+02  0.99999900215E+01 0.  0.
         12    1    1    2    0    0  0.28255143652E+02 -0.10209585563E+02  0.33563742443E+02  0.45045683333E+02  0.00000000000E+00 0. -1.
         11    1    3    3    0    0 -0.74175943808E+01  0.34038675255E+01 -0.11222336110E+02  0.13876161161E+02  0.51100000000E-03 0.  1.
        -11    1    3    3    0    0 -0.12519034676E+01  0.66934440851E+00  0.54864273426E+00  0.15219373641E+01  0.51100000000E-03 0. -1.
         12    1    3    3    0    0 -0.19585645804E+02  0.61363736293E+01 -0.22890049067E+02  0.30744218142E+02  0.00000000000E+00 0. -1.
</event>
<event>
 7    1  0.2323330E-008  0.4614232E+02  0.7816164E-02  0.1320468E+00
        -11   -1    0    0    0    0  0.00000000000E+00  0.00000000000E+00  0.45593999997E+02  0.45594000000E+02  0.51100000000E-03 0. -1.
         11   -1    0    0    0    0 -0.00000000000E+00 -0.00000000000E+00 -0.45593999997E+02  0.45594000000E+02  0.51100000000E-03 0.  1.
    9900012    2    1    2    0    0  0.35026913105E+00  0.14472644779E+02 -0.42655988710E+02  0.46142317541E+02  0.99999979940E+01 0.  0.
         12    1    1    2    0    0 -0.35026913105E+00 -0.14472644779E+02  0.42655988710E+02  0.45045682459E+02  0.00000000000E+00 0. -1.
         11    1    3    3    0    0  0.24494997551E+00 -0.57080648294E+00 -0.11142813603E+02  0.11160112714E+02  0.51100000000E-03 0. -1.
        -11    1    3    3    0    0  0.90506710246E+00  0.35849720655E+01 -0.73268189722E+01  0.82069146263E+01  0.51100000000E-03 0.  1.
         12    1    3    3    0    0 -0.79974794692E+00  0.11458479197E+02 -0.24186356134E+02  0.26775290201E+02  0.00000000000E+00 0. -1.
</event>
<event>
 7    1  0.2323330E-008  0.4614232E+02  0.7816164E-02  0.1320468E+00
        -11   -1    0    0    0    0  0.00000000000E+00  0.00000000000E+00  0.45593999997E+02  0.45594000000E+02  0.51100000000E-03 0.  1.
         11   -1    0    0    0    0 -0.00000000000E+00 -0.00000000000E+00 -0.45593999997E+02  0.45594000000E+02  0.51100000000E-03 0. -1.
    9900012    2    1    2    0    0  0.12727868328E+01 -0.48092751117E+00  0.45025129211E+02  0.46142317209E+02  0.99999949682E+01 0.  0.
         12    1    1    2    0    0 -0.12727868328E+01  0.48092751117E+00 -0.45025129211E+02  0.45045682791E+02  0.00000000000E+00 0. -1.
         11    1    3    3    0    0  0.21156322878E+01 -0.15282435512E+01  0.32214068853E+02  0.32319617273E+02  0.51100000000E-03 0. -1.
        -11    1    3    3    0    0  0.18576117788E+01  0.85593604267E+00  0.84142299645E+01  0.86592502092E+01  0.51100000000E-03 0.  1.
         12    1    3    3    0    0 -0.27004572338E+01  0.19137999732E+00  0.43968303934E+01  0.51634497270E+01  0.00000000000E+00 0. -1.
</event>
<event>
 7    1  0.2323330E-008  0.4614232E+02  0.7816164E-02  0.1320468E+00
        -11   -1    0    0    0    0  0.00000000000E+00  0.00000000000E+00  0.45593999997E+02  0.45594000000E+02  0.51100000000E-03 0.  1.
         11   -1    0    0    0    0 -0.00000000000E+00 -0.00000000000E+00 -0.45593999997E+02  0.45594000000E+02  0.51100000000E-03 0. -1.
    9900012    2    1    2    0    0 -0.37451193430E+02  0.23214676075E+02  0.93595072358E+01  0.46142318183E+02  0.10000003850E+02 0.  0.
         12    1    1    2    0    0  0.37451193430E+02 -0.23214676075E+02 -0.93595072358E+01  0.45045681817E+02  0.00000000000E+00 0. -1.
         11    1    3    3    0    0 -0.49641057937E+01  0.96218631313E+00  0.28274375668E+01  0.57933196259E+01  0.51100000000E-03 0. -1.
        -11    1    3    3    0    0 -0.99893771868E+01  0.10215372457E+02  0.18418776144E+01  0.14406040553E+02  0.51100000000E-03 0.  1.
         12    1    3    3    0    0 -0.22497710450E+02  0.12037117305E+02  0.46901920546E+01  0.25942958004E+02  0.00000000000E+00 0. -1.
</event>
<event>
 7    1  0.2323330E-008  0.4614232E+02  0.7816164E-02  0.1320468E+00
        -11   -1    0    0    0    0  0.00000000000E+00  0.00000000000E+00  0.45593999997E+02  0.45594000000E+02  0.51100000000E-03 0.  1.
         11   -1    0    0    0    0 -0.00000000000E+00 -0.00000000000E+00 -0.45593999997E+02  0.45594000000E+02  0.51100000000E-03 0. -1.
    9900012    2    1    2    0    0  0.42479561185E+02 -0.13317081925E+02 -0.68742878398E+01  0.46142316269E+02  0.99999863953E+01 0.  0.
         12    1    1    2    0    0 -0.42479561185E+02  0.13317081925E+02  0.68742878398E+01  0.45045683731E+02  0.00000000000E+00 0. -1.
         11    1    3    3    0    0  0.77937874508E+01 -0.24998709923E+01 -0.12279092163E+01  0.82764871239E+01  0.51100000000E-03 0. -1.
        -11    1    3    3    0    0  0.16355719072E+02 -0.44590395507E+00 -0.18561194030E+01  0.16466740910E+02  0.51100000000E-03 0.  1.
         12    1    3    3    0    0  0.18330054663E+02 -0.10371306978E+02 -0.37902592204E+01  0.21399088236E+02  0.00000000000E+00 0. -1.
</event>
<event>
 7    1  0.2323330E-008  0.4614231E+02  0.7816164E-02  0.1320468E+00
        -11   -1    0    0    0    0  0.00000000000E+00  0.00000000000E+00  0.45593999997E+02  0.45594000000E+02  0.51100000000E-03 0. -1.
         11   -1    0    0    0    0 -0.00000000000E+00 -0.00000000000E+00 -0.45593999997E+02  0.45594000000E+02  0.51100000000E-03 0.  1.
    9900012    2    1    2    0    0 -0.68050063834E+01  0.27312235326E+02 -0.35168854397E+02  0.46142305089E+02  0.99998844451E+01 0.  0.
         12    1    1    2    0    0  0.68050063834E+01 -0.27312235326E+02  0.35168854397E+02  0.45045694911E+02  0.00000000000E+00 0. -1.
         11    1    3    3    0    0 -0.13737518185E+01  0.38791678889E+01 -0.22138981462E+01  0.46729522608E+01  0.51100000000E-03 0. -1.
        -11    1    3    3    0    0  0.62143572728E+00  0.12914245513E+02 -0.18910843037E+02  0.22908162392E+02  0.51100000000E-03 0.  1.
         12    1    3    3    0    0 -0.60526902922E+01  0.10518821925E+02 -0.14044113214E+02  0.18561190437E+02  0.00000000000E+00 0. -1.
</event>
<event>
 7    1  0.2323330E-008  0.4614232E+02  0.7816164E-02  0.1320468E+00
        -11   -1    0    0    0    0  0.00000000000E+00  0.00000000000E+00  0.45593999997E+02  0.45594000000E+02  0.51100000000E-03 0.  1.
         11   -1    0    0    0    0 -0.00000000000E+00 -0.00000000000E+00 -0.45593999997E+02  0.45594000000E+02  0.51100000000E-03 0. -1.
    9900012    2    1    2    0    0 -0.36453007033E+02 -0.16690531807E+02  0.20535770004E+02  0.46142318482E+02  0.10000006577E+02 0.  0.
         12    1    1    2    0    0  0.36453007033E+02  0.16690531807E+02 -0.20535770004E+02  0.45045681518E+02  0.00000000000E+00 0. -1.
         11    1    3    3    0    0  0.10762818231E+00 -0.10638779163E+01 -0.46704566122E+00  0.11668555854E+01  0.51100000000E-03 0. -1.
        -11    1    3    3    0    0 -0.14795023975E+02 -0.66268323014E+01  0.81782243407E+01  0.18157395033E+02  0.51100000000E-03 0.  1.
         12    1    3    3    0    0 -0.21765611241E+02 -0.89998215888E+01  0.12824591324E+02  0.26818067864E+02  0.00000000000E+00 0. -1.
</event>
<event>
 7    1  0.2323330E-008  0.4614232E+02  0.7816164E-02  0.1320468E+00
        -11   -1    0    0    0    0  0.00000000000E+00  0.00000000000E+00  0.45593999997E+02  0.45594000000E+02  0.51100000000E-03 0.  1.
         11   -1    0    0    0    0 -0.00000000000E+00 -0.00000000000E+00 -0.45593999997E+02  0.45594000000E+02  0.51100000000E-03 0. -1.
    9900012    2    1    2    0    0  0.56059432514E+01 -0.24606046628E+02  0.37312590240E+02  0.46142317401E+02  0.99999967182E+01 0.  0.
         12    1    1    2    0    0 -0.56059432514E+01  0.24606046628E+02 -0.37312590240E+02  0.45045682599E+02  0.00000000000E+00 0. -1.
         11    1    3    3    0    0 -0.49087551684E+00 -0.33594839587E+01  0.15836682999E+01  0.37463444565E+01  0.51100000000E-03 0. -1.
        -11    1    3    3    0    0  0.15452320150E+01 -0.13973573236E+02  0.24725275780E+02  0.28442710026E+02  0.51100000000E-03 0.  1.
        -12    1    3    3    0    0  0.45515867533E+01 -0.72729894338E+01  0.11003646160E+02  0.13953262919E+02  0.00000000000E+00 0.  1.
</event>
<event>
 7    1  0.2323330E-008  0.4614232E+02  0.7816164E-02  0.1320468E+00
        -11   -1    0    0    0    0  0.00000000000E+00  0.00000000000E+00  0.45593999997E+02  0.45594000000E+02  0.51100000000E-03 0.  1.
         11   -1    0    0    0    0 -0.00000000000E+00 -0.00000000000E+00 -0.45593999997E+02  0.45594000000E+02  0.51100000000E-03 0. -1.
    9900012    2    1    2    0    0  0.11810504453E+02 -0.43015274515E+02  0.62699105993E+01  0.46142316123E+02  0.99999850613E+01 0.  0.
         12    1    1    2    0    0 -0.11810504453E+02  0.43015274515E+02 -0.62699105993E+01  0.45045683877E+02  0.00000000000E+00 0. -1.
         11    1    3    3    0    0  0.17202387414E+00  0.22019496297E+00 -0.39111216057E-02  0.27945230896E+00  0.51100000000E-03 0. -1.
        -11    1    3    3    0    0  0.59270731907E+01 -0.21738368226E+02  0.70420596010E+01  0.23606724750E+02  0.51100000000E-03 0.  1.
         12    1    3    3    0    0  0.57114073884E+01 -0.21497101252E+02 -0.76823788012E+00  0.22256139064E+02  0.00000000000E+00 0. -1.
</event>
<event>
 7    1  0.2323330E-008  0.4614232E+02  0.7816164E-02  0.1320468E+00
        -11   -1    0    0    0    0  0.00000000000E+00  0.00000000000E+00  0.45593999997E+02  0.45594000000E+02  0.51100000000E-03 0.  1.
         11   -1    0    0    0    0 -0.00000000000E+00 -0.00000000000E+00 -0.45593999997E+02  0.45594000000E+02  0.51100000000E-03 0. -1.
    9900012    2    1    2    0    0 -0.16171604352E+02 -0.71273753095E+01  0.41434204108E+02  0.46142317231E+02  0.99999951626E+01 0.  0.
         12    1    1    2    0    0  0.16171604352E+02  0.71273753095E+01 -0.41434204108E+02  0.45045682769E+02  0.00000000000E+00 0. -1.
         11    1    3    3    0    0 -0.16815332649E+01 -0.70892022945E+00  0.12228399555E+02  0.12363813245E+02  0.51100000000E-03 0. -1.
        -11    1    3    3    0    0 -0.15047165244E+02 -0.63736385974E+01  0.27561325711E+02  0.32041646744E+02  0.51100000000E-03 0.  1.
        -12    1    3    3    0    0  0.55709415749E+00 -0.44816482612E-01  0.16444788419E+01  0.17368572419E+01  0.00000000000E+00 0.  1.
</event>
<event>
 7    1  0.2323330E-008  0.4614232E+02  0.7816164E-02  0.1320468E+00
        -11   -1    0    0    0    0  0.00000000000E+00  0.00000000000E+00  0.45593999997E+02  0.45594000000E+02  0.51100000000E-03 0.  1.
         11   -1    0    0    0    0 -0.00000000000E+00 -0.00000000000E+00 -0.45593999997E+02  0.45594000000E+02  0.51100000000E-03 0. -1.
    9900012    2    1    2    0    0 -0.15456518837E+02  0.16060345529E+02  0.39144282225E+02  0.46142317588E+02  0.99999984237E+01 0.  0.
         12    1    1    2    0    0  0.15456518837E+02 -0.16060345529E+02 -0.39144282225E+02  0.45045682412E+02  0.00000000000E+00 0. -1.
         11    1    3    3    0    0 -0.29763260805E+01  0.12063474304E+01  0.18164787083E+01  0.36896322607E+01  0.51100000000E-03 0. -1.
        -11    1    3    3    0    0 -0.19952334184E+01  0.63986910123E+00  0.75031738165E+01  0.77902507304E+01  0.51100000000E-03 0.  1.
        -12    1    3    3    0    0 -0.10484959338E+02  0.14214128997E+02  0.29824629700E+02  0.34662434597E+02  0.00000000000E+00 0.  1.
</event>
<event>
 7    1  0.2323330E-008  0.4614232E+02  0.7816164E-02  0.1320468E+00
        -11   -1    0    0    0    0  0.00000000000E+00  0.00000000000E+00  0.45593999997E+02  0.45594000000E+02  0.51100000000E-03 0. -1.
         11   -1    0    0    0    0 -0.00000000000E+00 -0.00000000000E+00 -0.45593999997E+02  0.45594000000E+02  0.51100000000E-03 0.  1.
    9900012    2    1    2    0    0  0.21181716629E+02 -0.39396956073E+02 -0.53224249898E+01  0.46142317911E+02  0.10000001363E+02 0.  0.
         12    1    1    2    0    0 -0.21181716629E+02  0.39396956073E+02  0.53224249898E+01  0.45045682089E+02  0.00000000000E+00 0. -1.
         11    1    3    3    0    0  0.89129263698E+01 -0.16126921766E+02 -0.40170182660E-01  0.18426054272E+02  0.51100000000E-03 0. -1.
        -11    1    3    3    0    0  0.68890415683E+01 -0.11472620157E+02  0.77613711005E+00  0.13404562509E+02  0.51100000000E-03 0.  1.
         12    1    3    3    0    0  0.53797486905E+01 -0.11797414149E+02 -0.60583919172E+01  0.14311701129E+02  0.00000000000E+00 0. -1.
</event>
<event>
 7    1  0.2323330E-008  0.4614232E+02  0.7816164E-02  0.1320468E+00
        -11   -1    0    0    0    0  0.00000000000E+00  0.00000000000E+00  0.45593999997E+02  0.45594000000E+02  0.51100000000E-03 0.  1.
         11   -1    0    0    0    0 -0.00000000000E+00 -0.00000000000E+00 -0.45593999997E+02  0.45594000000E+02  0.51100000000E-03 0. -1.
    9900012    2    1    2    0    0  0.27229719694E+02 -0.18027932031E+02 -0.31026591250E+02  0.46142319491E+02  0.10000015775E+02 0.  0.
         12    1    1    2    0    0 -0.27229719694E+02  0.18027932031E+02  0.31026591250E+02  0.45045680509E+02  0.00000000000E+00 0. -1.
         11    1    3    3    0    0  0.11112149471E+01 -0.33048163167E+00  0.33287549013E+00  0.12061604871E+01  0.51100000000E-03 0. -1.
        -11    1    3    3    0    0  0.13860014154E+02 -0.72592750651E+01 -0.19155124736E+02  0.24732890464E+02  0.51100000000E-03 0.  1.
        -12    1    3    3    0    0  0.12258490593E+02 -0.10438175335E+02 -0.12204342004E+02  0.20203268540E+02  0.00000000000E+00 0.  1.
</event>
<event>
 7    1  0.2323330E-008  0.4614232E+02  0.7816164E-02  0.1320468E+00
        -11   -1    0    0    0    0  0.00000000000E+00  0.00000000000E+00  0.45593999997E+02  0.45594000000E+02  0.51100000000E-03 0.  1.
         11   -1    0    0    0    0 -0.00000000000E+00 -0.00000000000E+00 -0.45593999997E+02  0.45594000000E+02  0.51100000000E-03 0. -1.
    9900012    2    1    2    0    0 -0.15564493671E+02  0.28884167928E+02  0.30863650244E+02  0.46142317338E+02  0.99999961401E+01 0.  0.
         12    1    1    2    0    0  0.15564493671E+02 -0.28884167928E+02 -0.30863650244E+02  0.45045682662E+02  0.00000000000E+00 0. -1.
         11    1    3    3    0    0 -0.32553883014E+01  0.44987421951E+01  0.13506503621E+01  0.57149357820E+01  0.51100000000E-03 0. -1.
        -11    1    3    3    0    0 -0.99060209789E+00  0.46942794009E+00  0.18311753781E+01  0.21342114782E+01  0.51100000000E-03 0.  1.
        -12    1    3    3    0    0 -0.11318503271E+02  0.23915997793E+02  0.27681824504E+02  0.38293170078E+02  0.00000000000E+00 0.  1.
</event>
<event>
 7    1  0.2323330E-008  0.4614232E+02  0.7816164E-02  0.1320468E+00
        -11   -1    0    0    0    0  0.00000000000E+00  0.00000000000E+00  0.45593999997E+02  0.45594000000E+02  0.51100000000E-03 0.  1.
         11   -1    0    0    0    0 -0.00000000000E+00 -0.00000000000E+00 -0.45593999997E+02  0.45594000000E+02  0.51100000000E-03 0. -1.
    9900012    2    1    2    0    0 -0.26721157517E+02  0.29363520933E+02  0.21280905170E+02  0.46142317127E+02  0.99999942185E+01 0.  0.
         12    1    1    2    0    0  0.26721157517E+02 -0.29363520933E+02 -0.21280905170E+02  0.45045682873E+02  0.00000000000E+00 0. -1.
         11    1    3    3    0    0 -0.46425128230E+01  0.14479379826E+01  0.32014571332E+01  0.58222656887E+01  0.51100000000E-03 0. -1.
        -11    1    3    3    0    0 -0.20298083658E+02  0.26128286722E+02  0.18260303951E+02  0.37790716689E+02  0.51100000000E-03 0.  1.
        -12    1    3    3    0    0 -0.17805610360E+01  0.17872962283E+01 -0.18085591502E+00  0.25293347491E+01  0.00000000000E+00 0.  1.
</event>
<event>
 7    1  0.2323330E-008  0.4614232E+02  0.7816164E-02  0.1320468E+00
        -11   -1    0    0    0    0  0.00000000000E+00  0.00000000000E+00  0.45593999997E+02  0.45594000000E+02  0.51100000000E-03 0.  1.
         11   -1    0    0    0    0 -0.00000000000E+00 -0.00000000000E+00 -0.45593999997E+02  0.45594000000E+02  0.51100000000E-03 0. -1.
    9900012    2    1    2    0    0  0.57538838918E+01  0.83887873066E+01  0.43882053126E+02  0.46142317422E+02  0.99999969111E+01 0.  0.
         12    1    1    2    0    0 -0.57538838918E+01 -0.83887873066E+01 -0.43882053126E+02  0.45045682578E+02  0.00000000000E+00 0. -1.
         11    1    3    3    0    0 -0.60107643885E+00  0.48089714350E+01  0.14456532811E+02  0.15247256813E+02  0.51100000000E-03 0. -1.
        -11    1    3    3    0    0  0.32919619715E+01  0.37715866687E+01  0.25081910288E+02  0.25576631983E+02  0.51100000000E-03 0.  1.
         12    1    3    3    0    0  0.30629983592E+01 -0.19177079705E+00  0.43436100265E+01  0.53184286260E+01  0.00000000000E+00 0. -1.
</event>
<event>
 7    1  0.2323330E-008  0.4614232E+02  0.7816164E-02  0.1320468E+00
        -11   -1    0    0    0    0  0.00000000000E+00  0.00000000000E+00  0.45593999997E+02  0.45594000000E+02  0.51100000000E-03 0. -1.
         11   -1    0    0    0    0 -0.00000000000E+00 -0.00000000000E+00 -0.45593999997E+02  0.45594000000E+02  0.51100000000E-03 0.  1.
    9900012    2    1    2    0    0 -0.18589857520E+02 -0.15678491466E+01 -0.41000883569E+02  0.46142318664E+02  0.10000008235E+02 0.  0.
         12    1    1    2    0    0  0.18589857520E+02  0.15678491466E+01  0.41000883569E+02  0.45045681336E+02  0.00000000000E+00 0. -1.
         11    1    3    3    0    0 -0.35313758326E+01 -0.21469087167E+00 -0.20765854872E+01  0.41023060573E+01  0.51100000000E-03 0. -1.
        -11    1    3    3    0    0 -0.64031267743E+01  0.12585839622E+01 -0.12320207515E+02  0.13941720825E+02  0.51100000000E-03 0.  1.
        -12    1    3    3    0    0 -0.86553549132E+01 -0.26117422371E+01 -0.26604090567E+02  0.28098291782E+02  0.00000000000E+00 0.  1.
</event>
<event>
 7    1  0.2323330E-008  0.4614232E+02  0.7816164E-02  0.1320468E+00
        -11   -1    0    0    0    0  0.00000000000E+00  0.00000000000E+00  0.45593999997E+02  0.45594000000E+02  0.51100000000E-03 0.  1.
         11   -1    0    0    0    0 -0.00000000000E+00 -0.00000000000E+00 -0.45593999997E+02  0.45594000000E+02  0.51100000000E-03 0. -1.
    9900012    2    1    2    0    0 -0.11187734161E+02 -0.38275243130E+02  0.20951225463E+02  0.46142317846E+02  0.10000000776E+02 0.  0.
         12    1    1    2    0    0  0.11187734161E+02  0.38275243130E+02 -0.20951225463E+02  0.45045682154E+02  0.00000000000E+00 0. -1.
         11    1    3    3    0    0 -0.37513698154E+01 -0.74494589639E+01  0.16372581771E+01  0.84998722900E+01  0.51100000000E-03 0. -1.
        -11    1    3    3    0    0 -0.55884053832E+01 -0.11913187020E+02  0.61465821966E+01  0.14523593655E+02  0.51100000000E-03 0.  1.
        -12    1    3    3    0    0 -0.18479589624E+01 -0.18912597146E+02  0.13167385089E+02  0.23118851901E+02  0.00000000000E+00 0.  1.
</event>
<event>
 7    1  0.2323330E-008  0.4614232E+02  0.7816164E-02  0.1320468E+00
        -11   -1    0    0    0    0  0.00000000000E+00  0.00000000000E+00  0.45593999997E+02  0.45594000000E+02  0.51100000000E-03 0. -1.
         11   -1    0    0    0    0 -0.00000000000E+00 -0.00000000000E+00 -0.45593999997E+02  0.45594000000E+02  0.51100000000E-03 0.  1.
    9900012    2    1    2    0    0  0.29407316117E+02 -0.25694303098E+02 -0.22452752176E+02  0.46142317264E+02  0.99999954667E+01 0.  0.
         12    1    1    2    0    0 -0.29407316117E+02  0.25694303098E+02  0.22452752176E+02  0.45045682736E+02  0.00000000000E+00 0. -1.
         11    1    3    3    0    0  0.11600687737E+02 -0.99710185250E+01 -0.11697909781E+02  0.19257161263E+02  0.51100000000E-03 0. -1.
        -11    1    3    3    0    0  0.16040764522E+02 -0.16147664853E+02 -0.94289689755E+01  0.24636531064E+02  0.51100000000E-03 0.  1.
         12    1    3    3    0    0  0.17658638578E+01  0.42438027953E+00 -0.13258734188E+01  0.22486249374E+01  0.00000000000E+00 0. -1.
</event>
<event>
 7    1  0.2323330E-008  0.4614232E+02  0.7816164E-02  0.1320468E+00
        -11   -1    0    0    0    0  0.00000000000E+00  0.00000000000E+00  0.45593999997E+02  0.45594000000E+02  0.51100000000E-03 0. -1.
         11   -1    0    0    0    0 -0.00000000000E+00 -0.00000000000E+00 -0.45593999997E+02  0.45594000000E+02  0.51100000000E-03 0.  1.
    9900012    2    1    2    0    0 -0.32087687415E+02 -0.28677616252E+02 -0.13307445789E+02  0.46142317954E+02  0.10000001758E+02 0.  0.
         12    1    1    2    0    0  0.32087687415E+02  0.28677616252E+02  0.13307445789E+02  0.45045682046E+02  0.00000000000E+00 0. -1.
         11    1    3    3    0    0 -0.53739685981E+01 -0.81586341048E+00 -0.71717885465E+00  0.54826560505E+01  0.51100000000E-03 0. -1.
        -11    1    3    3    0    0 -0.10988394366E+02 -0.10729055525E+02 -0.60039903592E+01  0.16489552562E+02  0.51100000000E-03 0.  1.
         12    1    3    3    0    0 -0.15725324451E+02 -0.17132697317E+02 -0.65862765755E+01  0.24170109341E+02  0.00000000000E+00 0. -1.
</event>
<event>
 7    1  0.2323330E-008  0.4614232E+02  0.7816164E-02  0.1320468E+00
        -11   -1    0    0    0    0  0.00000000000E+00  0.00000000000E+00  0.45593999997E+02  0.45594000000E+02  0.51100000000E-03 0.  1.
         11   -1    0    0    0    0 -0.00000000000E+00 -0.00000000000E+00 -0.45593999997E+02  0.45594000000E+02  0.51100000000E-03 0. -1.
    9900012    2    1    2    0    0 -0.35528348013E+02  0.73813372650E+01  0.26690182128E+02  0.46142317916E+02  0.10000001414E+02 0.  0.
         12    1    1    2    0    0  0.35528348013E+02 -0.73813372650E+01 -0.26690182128E+02  0.45045682084E+02  0.00000000000E+00 0. -1.
         11    1    3    3    0    0 -0.32585573739E+01 -0.64163380433E+00  0.25869939049E+00  0.33311883366E+01  0.51100000000E-03 0. -1.
        -11    1    3    3    0    0 -0.81102179520E+01  0.24084888864E+00  0.45697997150E+01  0.93121808999E+01  0.51100000000E-03 0.  1.
        -12    1    3    3    0    0 -0.24159572687E+02  0.77821221807E+01  0.21861683023E+02  0.33498948680E+02  0.00000000000E+00 0.  1.
</event>
<event>
 7    1  0.2323330E-008  0.4614232E+02  0.7816164E-02  0.1320468E+00
        -11   -1    0    0    0    0  0.00000000000E+00  0.00000000000E+00  0.45593999997E+02  0.45594000000E+02  0.51100000000E-03 0.  1.
         11   -1    0    0    0    0 -0.00000000000E+00 -0.00000000000E+00 -0.45593999997E+02  0.45594000000E+02  0.51100000000E-03 0. -1.
    9900012    2    1    2    0    0 -0.19188937361E+02  0.32290609298E+02  0.24863923956E+02  0.46142317850E+02  0.10000000807E+02 0.  0.
         12    1    1    2    0    0  0.19188937361E+02 -0.32290609298E+02 -0.24863923956E+02  0.45045682150E+02  0.00000000000E+00 0. -1.
         11    1    3    3    0    0 -0.12176369019E+02  0.17895998112E+02  0.10271561144E+02  0.23959041707E+02  0.51100000000E-03 0. -1.
        -11    1    3    3    0    0 -0.68969832359E+01  0.10376275167E+02  0.93524461214E+01  0.15578950953E+02  0.51100000000E-03 0.  1.
         12    1    3    3    0    0 -0.11558510635E+00  0.40183360193E+01  0.52399166906E+01  0.66043251893E+01  0.00000000000E+00 0. -1.
</event>
<event>
 7    1  0.2323330E-008  0.4614232E+02  0.7816164E-02  0.1320468E+00
        -11   -1    0    0    0    0  0.00000000000E+00  0.00000000000E+00  0.45593999997E+02  0.45594000000E+02  0.51100000000E-03 0.  1.
         11   -1    0    0    0    0 -0.00000000000E+00 -0.00000000000E+00 -0.45593999997E+02  0.45594000000E+02  0.51100000000E-03 0. -1.
    9900012    2    1    2    0    0 -0.35153912922E+02  0.20803952308E+02  0.18987139673E+02  0.46142317650E+02  0.99999989867E+01 0.  0.
         12    1    1    2    0    0  0.35153912922E+02 -0.20803952308E+02 -0.18987139673E+02  0.45045682350E+02  0.00000000000E+00 0. -1.
         11    1    3    3    0    0  0.16524882891E+00  0.11561893650E+01  0.58159641008E-01  0.11693860903E+01  0.51100000000E-03 0. -1.
        -11    1    3    3    0    0 -0.16072300491E+02  0.74411321734E+01  0.10962471560E+02  0.20829428078E+02  0.51100000000E-03 0.  1.
        -12    1    3    3    0    0 -0.19246861261E+02  0.12206630770E+02  0.79665084725E+01  0.24143503482E+02  0.00000000000E+00 0.  1.
</event>
<event>
 7    1  0.2323330E-008  0.4614232E+02  0.7816164E-02  0.1320468E+00
        -11   -1    0    0    0    0  0.00000000000E+00  0.00000000000E+00  0.45593999997E+02  0.45594000000E+02  0.51100000000E-03 0.  1.
         11   -1    0    0    0    0 -0.00000000000E+00 -0.00000000000E+00 -0.45593999997E+02  0.45594000000E+02  0.51100000000E-03 0. -1.
    9900012    2    1    2    0    0 -0.41617795541E+02  0.17115686282E+02 -0.20312272779E+01  0.46142317556E+02  0.99999981292E+01 0.  0.
         12    1    1    2    0    0  0.41617795541E+02 -0.17115686282E+02  0.20312272779E+01  0.45045682444E+02  0.00000000000E+00 0. -1.
         11    1    3    3    0    0 -0.68382423539E+01  0.22261959117E+01 -0.26950763593E+01  0.76799051799E+01  0.51100000000E-03 0. -1.
        -11    1    3    3    0    0 -0.27953537300E+02  0.12540043413E+02 -0.21536495215E+01  0.30713045159E+02  0.51100000000E-03 0.  1.
        -12    1    3    3    0    0 -0.68260158868E+01  0.23494469570E+01  0.28174986029E+01  0.77493672172E+01  0.00000000000E+00 0.  1.
</event>
<event>
 7    1  0.2323330E-008  0.4614232E+02  0.7816164E-02  0.1320468E+00
        -11   -1    0    0    0    0  0.00000000000E+00  0.00000000000E+00  0.45593999997E+02  0.45594000000E+02  0.51100000000E-03 0. -1.
         11   -1    0    0    0    0 -0.00000000000E+00 -0.00000000000E+00 -0.45593999997E+02  0.45594000000E+02  0.51100000000E-03 0.  1.
    9900012    2    1    2    0    0  0.16453321632E+00 -0.41809117590E+02 -0.16765561949E+02  0.46142318162E+02  0.10000003653E+02 0.  0.
         12    1    1    2    0    0 -0.16453321632E+00  0.41809117590E+02  0.16765561949E+02  0.45045681838E+02  0.00000000000E+00 0. -1.
         11    1    3    3    0    0  0.16796628180E+01 -0.67492425347E+01 -0.11954028879E+00  0.69561362922E+01  0.51100000000E-03 0. -1.
        -11    1    3    3    0    0 -0.45871223497E+00 -0.13982152786E+02 -0.38660084043E+01  0.14514028892E+02  0.51100000000E-03 0.  1.
         12    1    3    3    0    0 -0.10564173667E+01 -0.21077722269E+02 -0.12780013256E+02  0.24672152977E+02  0.00000000000E+00 0. -1.
</event>
<event>
 7    1  0.2323330E-008  0.4614232E+02  0.7816164E-02  0.1320468E+00
        -11   -1    0    0    0    0  0.00000000000E+00  0.00000000000E+00  0.45593999997E+02  0.45594000000E+02  0.51100000000E-03 0. -1.
         11   -1    0    0    0    0 -0.00000000000E+00 -0.00000000000E+00 -0.45593999997E+02  0.45594000000E+02  0.51100000000E-03 0.  1.
    9900012    2    1    2    0    0 -0.27433530601E+02  0.29328347075E+02 -0.20404972779E+02  0.46142318104E+02  0.10000003128E+02 0.  0.
         12    1    1    2    0    0  0.27433530601E+02 -0.29328347075E+02  0.20404972779E+02  0.45045681896E+02  0.00000000000E+00 0. -1.
         11    1    3    3    0    0 -0.22013720986E+02  0.22796599149E+02 -0.13373860705E+02  0.34396932928E+02  0.51100000000E-03 0. -1.
        -11    1    3    3    0    0 -0.56881064289E+01  0.63894661916E+01 -0.73692040690E+01  0.11290925641E+02  0.51100000000E-03 0.  1.
         12    1    3    3    0    0  0.26829681366E+00  0.14228173387E+00  0.33809199543E+00  0.45445953547E+00  0.00000000000E+00 0. -1.
</event>
<event>
 7    1  0.2323330E-008  0.4614232E+02  0.7816164E-02  0.1320468E+00
        -11   -1    0    0    0    0  0.00000000000E+00  0.00000000000E+00  0.45593999997E+02  0.45594000000E+02  0.51100000000E-03 0.  1.
         11   -1    0    0    0    0 -0.00000000000E+00 -0.00000000000E+00 -0.45593999997E+02  0.45594000000E+02  0.51100000000E-03 0. -1.
    9900012    2    1    2    0    0  0.37158349601E+02 -0.98735948840E+01  0.23470889251E+02  0.46142318040E+02  0.10000002541E+02 0.  0.
         12    1    1    2    0    0 -0.37158349601E+02  0.98735948840E+01 -0.23470889251E+02  0.45045681960E+02  0.00000000000E+00 0. -1.
         11    1    3    3    0    0  0.13253978282E+02 -0.35548311640E+01  0.10956095856E+02  0.17559635576E+02  0.51100000000E-03 0. -1.
        -11    1    3    3    0    0  0.23842413143E+02 -0.64790954739E+01  0.13105327611E+02  0.27967641207E+02  0.51100000000E-03 0.  1.
         12    1    3    3    0    0  0.61958176071E-01  0.16033175390E+00 -0.59053421569E+00  0.61504125617E+00  0.00000000000E+00 0. -1.
</event>
<event>
 7    1  0.2323330E-008  0.4614232E+02  0.7816164E-02  0.1320468E+00
        -11   -1    0    0    0    0  0.00000000000E+00  0.00000000000E+00  0.45593999997E+02  0.45594000000E+02  0.51100000000E-03 0.  1.
         11   -1    0    0    0    0 -0.00000000000E+00 -0.00000000000E+00 -0.45593999997E+02  0.45594000000E+02  0.51100000000E-03 0. -1.
    9900012    2    1    2    0    0 -0.10343899056E+02 -0.58597076116E+01  0.43448602124E+02  0.46142318215E+02  0.10000004135E+02 0.  0.
         12    1    1    2    0    0  0.10343899056E+02  0.58597076116E+01 -0.43448602124E+02  0.45045681785E+02  0.00000000000E+00 0. -1.
         11    1    3    3    0    0 -0.51129089214E+01 -0.19216284369E+01  0.14811139076E+02  0.15786207096E+02  0.51100000000E-03 0. -1.
        -11    1    3    3    0    0 -0.53603208139E+01  0.49890209217E+00  0.12303508129E+02  0.13429752606E+02  0.51100000000E-03 0.  1.
         12    1    3    3    0    0  0.12933067931E+00 -0.44369812669E+01  0.16333954919E+02  0.16926358512E+02  0.00000000000E+00 0. -1.
</event>
<event>
 7    1  0.2323330E-008  0.4614232E+02  0.7816164E-02  0.1320468E+00
        -11   -1    0    0    0    0  0.00000000000E+00  0.00000000000E+00  0.45593999997E+02  0.45594000000E+02  0.51100000000E-03 0.  1.
         11   -1    0    0    0    0 -0.00000000000E+00 -0.00000000000E+00 -0.45593999997E+02  0.45594000000E+02  0.51100000000E-03 0. -1.
    9900012    2    1    2    0    0 -0.19714671100E+02 -0.29718564365E+02  0.27518219049E+02  0.46142315366E+02  0.99999781604E+01 0.  0.
         12    1    1    2    0    0  0.19714671100E+02  0.29718564365E+02 -0.27518219049E+02  0.45045684634E+02  0.00000000000E+00 0. -1.
         11    1    3    3    0    0 -0.39765076753E+01 -0.85948913586E+01  0.44426637406E+01  0.10460498656E+02  0.51100000000E-03 0. -1.
        -11    1    3    3    0    0 -0.83954719163E+01 -0.16544039259E+02  0.15285012078E+02  0.24037902950E+02  0.51100000000E-03 0.  1.
         12    1    3    3    0    0 -0.73426915081E+01 -0.45796337470E+01  0.77905432304E+01  0.11643913761E+02  0.00000000000E+00 0. -1.
</event>
<event>
 7    1  0.2323330E-008  0.4614232E+02  0.7816164E-02  0.1320468E+00
        -11   -1    0    0    0    0  0.00000000000E+00  0.00000000000E+00  0.45593999997E+02  0.45594000000E+02  0.51100000000E-03 0. -1.
         11   -1    0    0    0    0 -0.00000000000E+00 -0.00000000000E+00 -0.45593999997E+02  0.45594000000E+02  0.51100000000E-03 0.  1.
    9900012    2    1    2    0    0  0.52639602020E+01 -0.29092158562E+02 -0.33986031406E+02  0.46142319879E+02  0.10000019311E+02 0.  0.
         12    1    1    2    0    0 -0.52639602020E+01  0.29092158562E+02  0.33986031406E+02  0.45045680121E+02  0.00000000000E+00 0. -1.
         11    1    3    3    0    0  0.31893059153E+00 -0.16625106783E+02 -0.15134860908E+02  0.22484659376E+02  0.51100000000E-03 0. -1.
        -11    1    3    3    0    0  0.58658849168E+01 -0.95529341048E+01 -0.14187347094E+02  0.18081702733E+02  0.51100000000E-03 0.  1.
        -12    1    3    3    0    0 -0.92085530629E+00 -0.29141176740E+01 -0.46638234041E+01  0.55759577704E+01  0.00000000000E+00 0.  1.
</event>
<event>
 7    1  0.2323330E-008  0.4614232E+02  0.7816164E-02  0.1320468E+00
        -11   -1    0    0    0    0  0.00000000000E+00  0.00000000000E+00  0.45593999997E+02  0.45594000000E+02  0.51100000000E-03 0.  1.
         11   -1    0    0    0    0 -0.00000000000E+00 -0.00000000000E+00 -0.45593999997E+02  0.45594000000E+02  0.51100000000E-03 0. -1.
    9900012    2    1    2    0    0  0.10389483285E+02 -0.33750577553E+01  0.43701041885E+02  0.46142318303E+02  0.10000004939E+02 0.  0.
         12    1    1    2    0    0 -0.10389483285E+02  0.33750577553E+01 -0.43701041885E+02  0.45045681697E+02  0.00000000000E+00 0. -1.
         11    1    3    3    0    0  0.15132456051E+01 -0.20928266181E+01  0.41802680145E+01  0.49137029264E+01  0.51100000000E-03 0. -1.
        -11    1    3    3    0    0  0.37655796449E+01 -0.16432875701E+01  0.57248653783E+01  0.70465642664E+01  0.51100000000E-03 0.  1.
         12    1    3    3    0    0  0.51106580346E+01  0.36105643296E+00  0.33795908492E+02  0.34182051110E+02  0.00000000000E+00 0. -1.
</event>
<event>
 7    1  0.2323330E-008  0.4614232E+02  0.7816164E-02  0.1320468E+00
        -11   -1    0    0    0    0  0.00000000000E+00  0.00000000000E+00  0.45593999997E+02  0.45594000000E+02  0.51100000000E-03 0. -1.
         11   -1    0    0    0    0 -0.00000000000E+00 -0.00000000000E+00 -0.45593999997E+02  0.45594000000E+02  0.51100000000E-03 0.  1.
    9900012    2    1    2    0    0  0.93631590244E+01 -0.19541129455E+01 -0.44018475633E+02  0.46142317617E+02  0.99999986877E+01 0.  0.
         12    1    1    2    0    0 -0.93631590244E+01  0.19541129455E+01  0.44018475633E+02  0.45045682383E+02  0.00000000000E+00 0. -1.
         11    1    3    3    0    0  0.80864313142E+01 -0.69049012997E+00 -0.20667172491E+02  0.22203584555E+02  0.51100000000E-03 0. -1.
        -11    1    3    3    0    0 -0.33258669451E+00 -0.18435081941E+01 -0.20692914901E+02  0.20777532667E+02  0.51100000000E-03 0.  1.
        -12    1    3    3    0    0  0.16093144047E+01  0.57988537864E+00 -0.26583882398E+01  0.31612003952E+01  0.00000000000E+00 0.  1.
</event>
<event>
 7    1  0.2323330E-008  0.4614232E+02  0.7816164E-02  0.1320468E+00
        -11   -1    0    0    0    0  0.00000000000E+00  0.00000000000E+00  0.45593999997E+02  0.45594000000E+02  0.51100000000E-03 0.  1.
         11   -1    0    0    0    0 -0.00000000000E+00 -0.00000000000E+00 -0.45593999997E+02  0.45594000000E+02  0.51100000000E-03 0. -1.
    9900012    2    1    2    0    0 -0.15087167446E+02 -0.37072712928E+02  0.20666514490E+02  0.46142317781E+02  0.10000000185E+02 0.  0.
         12    1    1    2    0    0  0.15087167446E+02  0.37072712928E+02 -0.20666514490E+02  0.45045682219E+02  0.00000000000E+00 0. -1.
         11    1    3    3    0    0 -0.61568145500E+01 -0.84082119408E+01  0.24681329198E+01  0.10709625288E+02  0.51100000000E-03 0. -1.
        -11    1    3    3    0    0 -0.61089354722E+01 -0.13657329119E+02  0.71321924403E+01  0.16574374816E+02  0.51100000000E-03 0.  1.
         12    1    3    3    0    0 -0.28214174235E+01 -0.15007171868E+02  0.11066189130E+02  0.18858317677E+02  0.00000000000E+00 0. -1.
</event>
<event>
 7    1  0.2323330E-008  0.4614231E+02  0.7816164E-02  0.1320468E+00
        -11   -1    0    0    0    0  0.00000000000E+00  0.00000000000E+00  0.45593999997E+02  0.45594000000E+02  0.51100000000E-03 0.  1.
         11   -1    0    0    0    0 -0.00000000000E+00 -0.00000000000E+00 -0.45593999997E+02  0.45594000000E+02  0.51100000000E-03 0. -1.
    9900012    2    1    2    0    0 -0.26877854644E+02  0.16086732392E+02  0.32371468947E+02  0.46142311737E+02  0.99999450657E+01 0.  0.
         12    1    1    2    0    0  0.26877854644E+02 -0.16086732392E+02 -0.32371468947E+02  0.45045688263E+02  0.00000000000E+00 0. -1.
         11    1    3    3    0    0  0.41780529821E+00 -0.25215090588E+00  0.17839428601E+01  0.18494847217E+01  0.51100000000E-03 0. -1.
        -11    1    3    3    0    0 -0.55869929825E+01  0.51379075198E+01  0.78723263394E+01  0.10935543266E+02  0.51100000000E-03 0.  1.
         12    1    3    3    0    0 -0.21708666960E+02  0.11200975778E+02  0.22715199747E+02  0.33357283749E+02  0.00000000000E+00 0. -1.
</event>
<event>
 7    1  0.2323330E-008  0.4614232E+02  0.7816164E-02  0.1320468E+00
        -11   -1    0    0    0    0  0.00000000000E+00  0.00000000000E+00  0.45593999997E+02  0.45594000000E+02  0.51100000000E-03 0.  1.
         11   -1    0    0    0    0 -0.00000000000E+00 -0.00000000000E+00 -0.45593999997E+02  0.45594000000E+02  0.51100000000E-03 0. -1.
    9900012    2    1    2    0    0  0.14906215051E+02 -0.10743372037E+02  0.41127827182E+02  0.46142318092E+02  0.10000003018E+02 0.  0.
         12    1    1    2    0    0 -0.14906215051E+02  0.10743372037E+02 -0.41127827182E+02  0.45045681908E+02  0.00000000000E+00 0. -1.
         11    1    3    3    0    0  0.78305656346E+01 -0.37678745992E+01  0.12435083203E+02  0.15170561350E+02  0.51100000000E-03 0. -1.
        -11    1    3    3    0    0  0.40422907234E+00 -0.45110772380E+01  0.10296973307E+02  0.11249039005E+02  0.51100000000E-03 0.  1.
        -12    1    3    3    0    0  0.66714203442E+01 -0.24644201998E+01  0.18395770671E+02  0.19722717737E+02  0.00000000000E+00 0.  1.
</event>
<event>
 7    1  0.2323330E-008  0.4614232E+02  0.7816164E-02  0.1320468E+00
        -11   -1    0    0    0    0  0.00000000000E+00  0.00000000000E+00  0.45593999997E+02  0.45594000000E+02  0.51100000000E-03 0.  1.
         11   -1    0    0    0    0 -0.00000000000E+00 -0.00000000000E+00 -0.45593999997E+02  0.45594000000E+02  0.51100000000E-03 0. -1.
    9900012    2    1    2    0    0 -0.11923188967E+02 -0.26916144746E+02  0.34095043382E+02  0.46142320226E+02  0.10000022474E+02 0.  0.
         12    1    1    2    0    0  0.11923188967E+02  0.26916144746E+02 -0.34095043382E+02  0.45045679774E+02  0.00000000000E+00 0. -1.
         11    1    3    3    0    0 -0.56051431367E+01 -0.73395758465E+01  0.82540988953E+01  0.12386167770E+02  0.51100000000E-03 0. -1.
        -11    1    3    3    0    0 -0.41590800367E+01 -0.33359040249E+01  0.60670474728E+01  0.80768352536E+01  0.51100000000E-03 0.  1.
        -12    1    3    3    0    0 -0.21589657940E+01 -0.16240664874E+02  0.19773897014E+02  0.25679317202E+02  0.00000000000E+00 0.  1.
</event>
<event>
 7    1  0.2323330E-008  0.4614231E+02  0.7816164E-02  0.1320468E+00
        -11   -1    0    0    0    0  0.00000000000E+00  0.00000000000E+00  0.45593999997E+02  0.45594000000E+02  0.51100000000E-03 0. -1.
         11   -1    0    0    0    0 -0.00000000000E+00 -0.00000000000E+00 -0.45593999997E+02  0.45594000000E+02  0.51100000000E-03 0.  1.
    9900012    2    1    2    0    0 -0.75099555298E+01 -0.34223039379E+02 -0.28310752670E+02  0.46142305720E+02  0.99998902028E+01 0.  0.
         12    1    1    2    0    0  0.75099555298E+01  0.34223039379E+02  0.28310752670E+02  0.45045694280E+02  0.00000000000E+00 0. -1.
         11    1    3    3    0    0 -0.13370025596E+01 -0.16316480339E+02 -0.12172951671E+02  0.20400878882E+02  0.51100000000E-03 0. -1.
        -11    1    3    3    0    0 -0.31847932725E+01 -0.16363082859E+02 -0.13861413495E+02  0.21680225395E+02  0.51100000000E-03 0.  1.
         12    1    3    3    0    0 -0.29881596977E+01 -0.15434761813E+01 -0.22763875042E+01  0.40612014442E+01  0.00000000000E+00 0. -1.
</event>
<event>
 7    1  0.2323330E-008  0.4614232E+02  0.7816164E-02  0.1320468E+00
        -11   -1    0    0    0    0  0.00000000000E+00  0.00000000000E+00  0.45593999997E+02  0.45594000000E+02  0.51100000000E-03 0.  1.
         11   -1    0    0    0    0 -0.00000000000E+00 -0.00000000000E+00 -0.45593999997E+02  0.45594000000E+02  0.51100000000E-03 0. -1.
    9900012    2    1    2    0    0  0.36938339354E+02 -0.87319593917E+01  0.24257479598E+02  0.46142319347E+02  0.10000014458E+02 0.  0.
         12    1    1    2    0    0 -0.36938339354E+02  0.87319593917E+01 -0.24257479598E+02  0.45045680653E+02  0.00000000000E+00 0. -1.
         11    1    3    3    0    0  0.13226712222E+02 -0.45667003514E+01  0.51817626682E+01  0.14921505719E+02  0.51100000000E-03 0. -1.
        -11    1    3    3    0    0  0.14865425932E+02 -0.15892854524E+01  0.85117678001E+01  0.17203398145E+02  0.51100000000E-03 0.  1.
        -12    1    3    3    0    0  0.88462012004E+01 -0.25759735878E+01  0.10563949130E+02  0.14017415483E+02  0.00000000000E+00 0.  1.
</event>
<event>
 7    1  0.2323330E-008  0.4614232E+02  0.7816164E-02  0.1320468E+00
        -11   -1    0    0    0    0  0.00000000000E+00  0.00000000000E+00  0.45593999997E+02  0.45594000000E+02  0.51100000000E-03 0.  1.
         11   -1    0    0    0    0 -0.00000000000E+00 -0.00000000000E+00 -0.45593999997E+02  0.45594000000E+02  0.51100000000E-03 0. -1.
    9900012    2    1    2    0    0 -0.38054802194E+02  0.21477811248E+02  0.10938423149E+02  0.46142318220E+02  0.10000004183E+02 0.  0.
         12    1    1    2    0    0  0.38054802194E+02 -0.21477811248E+02 -0.10938423149E+02  0.45045681780E+02  0.00000000000E+00 0. -1.
         11    1    3    3    0    0 -0.73196283441E+01  0.64741844289E+01  0.35376616378E-01  0.97720660498E+01  0.51100000000E-03 0. -1.
        -11    1    3    3    0    0 -0.16543513931E+02  0.10520286924E+02  0.42130163909E+01  0.20052775308E+02  0.51100000000E-03 0.  1.
         12    1    3    3    0    0 -0.14191659919E+02  0.44833398954E+01  0.66900301414E+01  0.16317476863E+02  0.00000000000E+00 0. -1.
</event>
<event>
 7    1  0.2323330E-008  0.4614232E+02  0.7816164E-02  0.1320468E+00
        -11   -1    0    0    0    0  0.00000000000E+00  0.00000000000E+00  0.45593999997E+02  0.45594000000E+02  0.51100000000E-03 0. -1.
         11   -1    0    0    0    0 -0.00000000000E+00 -0.00000000000E+00 -0.45593999997E+02  0.45594000000E+02  0.51100000000E-03 0.  1.
    9900012    2    1    2    0    0 -0.30951175820E+02 -0.11194794358E+02 -0.30754097998E+02  0.46142320418E+02  0.10000024224E+02 0.  0.
         12    1    1    2    0    0  0.30951175820E+02  0.11194794358E+02  0.30754097998E+02  0.45045679582E+02  0.00000000000E+00 0. -1.
         11    1    3    3    0    0 -0.71749500902E+00 -0.50896865064E+00  0.22735249004E+00  0.90859099222E+00  0.51100000000E-03 0. -1.
        -11    1    3    3    0    0 -0.13868180138E+02 -0.88786221333E+01 -0.14587405062E+02  0.21998834924E+02  0.51100000000E-03 0.  1.
         12    1    3    3    0    0 -0.16365500673E+02 -0.18072035744E+01 -0.16394045427E+02  0.23234894502E+02  0.00000000000E+00 0. -1.
</event>
<event>
 7    1  0.2323330E-008  0.4614232E+02  0.7816164E-02  0.1320468E+00
        -11   -1    0    0    0    0  0.00000000000E+00  0.00000000000E+00  0.45593999997E+02  0.45594000000E+02  0.51100000000E-03 0. -1.
         11   -1    0    0    0    0 -0.00000000000E+00 -0.00000000000E+00 -0.45593999997E+02  0.45594000000E+02  0.51100000000E-03 0.  1.
    9900012    2    1    2    0    0  0.30920329500E+02 -0.11678011304E+02 -0.30605077240E+02  0.46142317884E+02  0.10000001122E+02 0.  0.
         12    1    1    2    0    0 -0.30920329500E+02  0.11678011304E+02  0.30605077240E+02  0.45045682116E+02  0.00000000000E+00 0. -1.
         11    1    3    3    0    0  0.83558568297E+01 -0.52681455230E+01 -0.63762025680E+01  0.11757111042E+02  0.51100000000E-03 0. -1.
        -11    1    3    3    0    0  0.13851054411E+02 -0.71067569678E+01 -0.16906095407E+02  0.22982031352E+02  0.51100000000E-03 0.  1.
        -12    1    3    3    0    0  0.87134182591E+01  0.69689118706E+00 -0.73227792654E+01  0.11403175490E+02  0.00000000000E+00 0.  1.
</event>
<event>
 7    1  0.2323330E-008  0.4614232E+02  0.7816164E-02  0.1320468E+00
        -11   -1    0    0    0    0  0.00000000000E+00  0.00000000000E+00  0.45593999997E+02  0.45594000000E+02  0.51100000000E-03 0.  1.
         11   -1    0    0    0    0 -0.00000000000E+00 -0.00000000000E+00 -0.45593999997E+02  0.45594000000E+02  0.51100000000E-03 0. -1.
    9900012    2    1    2    0    0  0.17312101266E+01  0.14054062057E+01  0.44990457066E+02  0.46142317830E+02  0.10000000632E+02 0.  0.
         12    1    1    2    0    0 -0.17312101266E+01 -0.14054062057E+01 -0.44990457066E+02  0.45045682170E+02  0.00000000000E+00 0. -1.
         11    1    3    3    0    0  0.99740935842E+00  0.16212899832E+01  0.37639937663E+01  0.42179445198E+01  0.51100000000E-03 0. -1.
        -11    1    3    3    0    0  0.32543448504E+01  0.19542322738E+01  0.29226830293E+02  0.29472315712E+02  0.51100000000E-03 0.  1.
         12    1    3    3    0    0 -0.25205440821E+01 -0.21701160513E+01  0.11999633007E+02  0.12452057599E+02  0.00000000000E+00 0. -1.
</event>
<event>
 7    1  0.2323330E-008  0.4614232E+02  0.7816164E-02  0.1320468E+00
        -11   -1    0    0    0    0  0.00000000000E+00  0.00000000000E+00  0.45593999997E+02  0.45594000000E+02  0.51100000000E-03 0.  1.
         11   -1    0    0    0    0 -0.00000000000E+00 -0.00000000000E+00 -0.45593999997E+02  0.45594000000E+02  0.51100000000E-03 0. -1.
    9900012    2    1    2    0    0  0.87173710524E+01 -0.86097285618E+01  0.43347354714E+02  0.46142321576E+02  0.10000034784E+02 0.  0.
         12    1    1    2    0    0 -0.87173710524E+01  0.86097285618E+01 -0.43347354714E+02  0.45045678424E+02  0.00000000000E+00 0. -1.
         11    1    3    3    0    0  0.32934319703E+01 -0.42490744734E+01  0.73587522268E+01  0.91133178711E+01  0.51100000000E-03 0. -1.
        -11    1    3    3    0    0  0.75038588874E+00 -0.22206351369E+01  0.40499181940E+01  0.46793308317E+01  0.51100000000E-03 0.  1.
        -12    1    3    3    0    0  0.46735531933E+01 -0.21400189514E+01  0.31938684294E+02  0.32349672873E+02  0.00000000000E+00 0.  1.
</event>
<event>
 7    1  0.2323330E-008  0.4614232E+02  0.7816164E-02  0.1320468E+00
        -11   -1    0    0    0    0  0.00000000000E+00  0.00000000000E+00  0.45593999997E+02  0.45594000000E+02  0.51100000000E-03 0.  1.
         11   -1    0    0    0    0 -0.00000000000E+00 -0.00000000000E+00 -0.45593999997E+02  0.45594000000E+02  0.51100000000E-03 0. -1.
    9900012    2    1    2    0    0 -0.44177847593E+02 -0.86001430409E+01  0.18625220727E+01  0.46142315781E+02  0.99999819417E+01 0.  0.
         12    1    1    2    0    0  0.44177847593E+02  0.86001430409E+01 -0.18625220727E+01  0.45045684219E+02  0.00000000000E+00 0. -1.
         11    1    3    3    0    0 -0.66977507315E+01 -0.13929801867E+01  0.35322637072E+01  0.76991652677E+01  0.51100000000E-03 0. -1.
        -11    1    3    3    0    0 -0.96657075671E+01 -0.90426339803E+00 -0.20455788465E+01  0.99210880525E+01  0.51100000000E-03 0.  1.
         12    1    3    3    0    0 -0.27814389295E+02 -0.63028994562E+01  0.37583721204E+00  0.28522062461E+02  0.00000000000E+00 0. -1.
</event>
<event>
 7    1  0.2323330E-008  0.4614232E+02  0.7816164E-02  0.1320468E+00
        -11   -1    0    0    0    0  0.00000000000E+00  0.00000000000E+00  0.45593999997E+02  0.45594000000E+02  0.51100000000E-03 0.  1.
         11   -1    0    0    0    0 -0.00000000000E+00 -0.00000000000E+00 -0.45593999997E+02  0.45594000000E+02  0.51100000000E-03 0. -1.
    9900012    2    1    2    0    0 -0.28925350296E+02  0.34421995911E+02  0.27501839662E+01  0.46142320916E+02  0.10000028769E+02 0.  0.
         12    1    1    2    0    0  0.28925350296E+02 -0.34421995911E+02 -0.27501839662E+01  0.45045679084E+02  0.00000000000E+00 0. -1.
         11    1    3    3    0    0 -0.56478256329E+01  0.98331046661E+01  0.18526694114E+01  0.11490007222E+02  0.51100000000E-03 0. -1.
        -11    1    3    3    0    0 -0.20689644825E+02  0.23831132743E+02 -0.60580951438E+00  0.31565032809E+02  0.51100000000E-03 0.  1.
        -12    1    3    3    0    0 -0.25878798384E+01  0.75775850219E+00  0.15033240692E+01  0.30872808850E+01  0.00000000000E+00 0.  1.
</event>
<event>
 7    1  0.2323330E-008  0.4614232E+02  0.7816164E-02  0.1320468E+00
        -11   -1    0    0    0    0  0.00000000000E+00  0.00000000000E+00  0.45593999997E+02  0.45594000000E+02  0.51100000000E-03 0.  1.
         11   -1    0    0    0    0 -0.00000000000E+00 -0.00000000000E+00 -0.45593999997E+02  0.45594000000E+02  0.51100000000E-03 0. -1.
    9900012    2    1    2    0    0 -0.61278206206E+01 -0.31593410136E+02  0.31518561595E+02  0.46142317914E+02  0.10000001394E+02 0.  0.
         12    1    1    2    0    0  0.61278206206E+01  0.31593410136E+02 -0.31518561595E+02  0.45045682086E+02  0.00000000000E+00 0. -1.
         11    1    3    3    0    0 -0.12137534025E+00 -0.14594058515E+02  0.10129086323E+02  0.17765124991E+02  0.51100000000E-03 0.  1.
        -11    1    3    3    0    0 -0.49724964442E+01 -0.69569027833E+01  0.96361161321E+01  0.12883281864E+02  0.51100000000E-03 0. -1.
         12    1    3    3    0    0 -0.10339488361E+01 -0.10042448837E+02  0.11753359139E+02  0.15493911059E+02  0.00000000000E+00 0. -1.
</event>
<event>
 7    1  0.2323330E-008  0.4614232E+02  0.7816164E-02  0.1320468E+00
        -11   -1    0    0    0    0  0.00000000000E+00  0.00000000000E+00  0.45593999997E+02  0.45594000000E+02  0.51100000000E-03 0. -1.
         11   -1    0    0    0    0 -0.00000000000E+00 -0.00000000000E+00 -0.45593999997E+02  0.45594000000E+02  0.51100000000E-03 0.  1.
    9900012    2    1    2    0    0  0.25647294334E+02  0.49647001696E+01 -0.36697159332E+02  0.46142318104E+02  0.10000003128E+02 0.  0.
         12    1    1    2    0    0 -0.25647294334E+02 -0.49647001696E+01  0.36697159332E+02  0.45045681896E+02  0.00000000000E+00 0. -1.
         11    1    3    3    0    0  0.21467721567E+01 -0.79200811455E+00 -0.36533253655E+01  0.43107649012E+01  0.51100000000E-03 0. -1.
        -11    1    3    3    0    0  0.22684237227E+02  0.73367083535E+01 -0.30185493833E+02  0.38465126365E+02  0.51100000000E-03 0.  1.
        -12    1    3    3    0    0  0.81628495033E+00 -0.15800000694E+01 -0.28583401329E+01  0.33664268379E+01  0.00000000000E+00 0.  1.
</event>
<event>
 7    1  0.2323330E-008  0.4614232E+02  0.7816164E-02  0.1320468E+00
        -11   -1    0    0    0    0  0.00000000000E+00  0.00000000000E+00  0.45593999997E+02  0.45594000000E+02  0.51100000000E-03 0.  1.
         11   -1    0    0    0    0 -0.00000000000E+00 -0.00000000000E+00 -0.45593999997E+02  0.45594000000E+02  0.51100000000E-03 0. -1.
    9900012    2    1    2    0    0  0.25512462396E+02 -0.79813068002E+01  0.36256399321E+02  0.46142317771E+02  0.10000000088E+02 0.  0.
         12    1    1    2    0    0 -0.25512462396E+02  0.79813068002E+01 -0.36256399321E+02  0.45045682229E+02  0.00000000000E+00 0. -1.
         11    1    3    3    0    0  0.96221503307E+01 -0.17240430802E+00  0.91156437930E+01  0.13255582305E+02  0.51100000000E-03 0. -1.
        -11    1    3    3    0    0  0.14212664703E+02 -0.48625195999E+01  0.23674699711E+02  0.28038105169E+02  0.51100000000E-03 0.  1.
         12    1    3    3    0    0  0.16776473624E+01 -0.29463828922E+01  0.34660558174E+01  0.48486302962E+01  0.00000000000E+00 0. -1.
</event>
<event>
 7    1  0.2323330E-008  0.4614232E+02  0.7816164E-02  0.1320468E+00
        -11   -1    0    0    0    0  0.00000000000E+00  0.00000000000E+00  0.45593999997E+02  0.45594000000E+02  0.51100000000E-03 0.  1.
         11   -1    0    0    0    0 -0.00000000000E+00 -0.00000000000E+00 -0.45593999997E+02  0.45594000000E+02  0.51100000000E-03 0. -1.
    9900012    2    1    2    0    0 -0.95877398479E+01 -0.22949171853E+02  0.37556946084E+02  0.46142318261E+02  0.10000004563E+02 0.  0.
         12    1    1    2    0    0  0.95877398479E+01  0.22949171853E+02 -0.37556946084E+02  0.45045681739E+02  0.00000000000E+00 0. -1.
         11    1    3    3    0    0 -0.56160019164E+00  0.72318934434E+00  0.25219126454E+01  0.26829911023E+01  0.51100000000E-03 0. -1.
        -11    1    3    3    0    0 -0.82859653533E+01 -0.17211732072E+02  0.27811722543E+02  0.33740077858E+02  0.51100000000E-03 0.  1.
         12    1    3    3    0    0 -0.74017430294E+00 -0.64606291250E+01  0.72233108955E+01  0.97192493014E+01  0.00000000000E+00 0. -1.
</event>
<event>
 7    1  0.2323330E-008  0.4614232E+02  0.7816164E-02  0.1320468E+00
        -11   -1    0    0    0    0  0.00000000000E+00  0.00000000000E+00  0.45593999997E+02  0.45594000000E+02  0.51100000000E-03 0. -1.
         11   -1    0    0    0    0 -0.00000000000E+00 -0.00000000000E+00 -0.45593999997E+02  0.45594000000E+02  0.51100000000E-03 0.  1.
    9900012    2    1    2    0    0  0.32732666663E+02 -0.98518710082E+01 -0.29336437831E+02  0.46142318589E+02  0.10000007548E+02 0.  0.
         12    1    1    2    0    0 -0.32732666663E+02  0.98518710082E+01  0.29336437831E+02  0.45045681411E+02  0.00000000000E+00 0. -1.
         11    1    3    3    0    0  0.38274425448E+01  0.10081533790E+01 -0.47447793341E+01  0.61788850823E+01  0.51100000000E-03 0. -1.
        -11    1    3    3    0    0  0.18399976551E+02 -0.62511883142E+01 -0.19089116682E+02  0.27240243545E+02  0.51100000000E-03 0.  1.
         12    1    3    3    0    0  0.10505247566E+02 -0.46088360731E+01 -0.55025418147E+01  0.12723189962E+02  0.00000000000E+00 0. -1.
</event>
<event>
 7    1  0.2323330E-008  0.4614231E+02  0.7816164E-02  0.1320468E+00
        -11   -1    0    0    0    0  0.00000000000E+00  0.00000000000E+00  0.45593999997E+02  0.45594000000E+02  0.51100000000E-03 0.  1.
         11   -1    0    0    0    0 -0.00000000000E+00 -0.00000000000E+00 -0.45593999997E+02  0.45594000000E+02  0.51100000000E-03 0. -1.
    9900012    2    1    2    0    0 -0.14234079880E+02  0.41526700441E+02  0.10101388914E+02  0.46142312776E+02  0.99999545417E+01 0.  0.
         12    1    1    2    0    0  0.14234079880E+02 -0.41526700441E+02 -0.10101388914E+02  0.45045687224E+02  0.00000000000E+00 0. -1.
         11    1    3    3    0    0 -0.43588014877E+01  0.11734719886E+02  0.33334674386E+01  0.12954335438E+02  0.51100000000E-03 0. -1.
        -11    1    3    3    0    0 -0.11386809353E+02  0.25204946331E+02  0.59271118810E+01  0.28285674860E+02  0.51100000000E-03 0.  1.
         12    1    3    3    0    0  0.15115309606E+01  0.45870342239E+01  0.84080959399E+00  0.49023024784E+01  0.00000000000E+00 0. -1.
</event>
<event>
 7    1  0.2323330E-008  0.4614232E+02  0.7816164E-02  0.1320468E+00
        -11   -1    0    0    0    0  0.00000000000E+00  0.00000000000E+00  0.45593999997E+02  0.45594000000E+02  0.51100000000E-03 0.  1.
         11   -1    0    0    0    0 -0.00000000000E+00 -0.00000000000E+00 -0.45593999997E+02  0.45594000000E+02  0.51100000000E-03 0. -1.
    9900012    2    1    2    0    0  0.10912642317E+02  0.15138147380E+02  0.40998342086E+02  0.46142319605E+02  0.10000016815E+02 0.  0.
         12    1    1    2    0    0 -0.10912642317E+02 -0.15138147380E+02 -0.40998342086E+02  0.45045680395E+02  0.00000000000E+00 0. -1.
         11    1    3    3    0    0 -0.34584181178E+00 -0.17818949509E+00  0.33236438904E+00  0.51168779852E+00  0.51100000000E-03 0. -1.
        -11    1    3    3    0    0  0.32787536775E+00 -0.20090579086E-02  0.74275319907E+01  0.74347654992E+01  0.51100000000E-03 0.  1.
        -12    1    3    3    0    0  0.10930608761E+02  0.15318345933E+02  0.33238445706E+02  0.38195866307E+02  0.00000000000E+00 0.  1.
</event>
<event>
 7    1  0.2323330E-008  0.4614232E+02  0.7816164E-02  0.1320468E+00
        -11   -1    0    0    0    0  0.00000000000E+00  0.00000000000E+00  0.45593999997E+02  0.45594000000E+02  0.51100000000E-03 0. -1.
         11   -1    0    0    0    0 -0.00000000000E+00 -0.00000000000E+00 -0.45593999997E+02  0.45594000000E+02  0.51100000000E-03 0.  1.
    9900012    2    1    2    0    0 -0.36199648438E+02  0.26141142044E+02  0.59447083730E+01  0.46142318608E+02  0.10000007725E+02 0.  0.
         12    1    1    2    0    0  0.36199648438E+02 -0.26141142044E+02 -0.59447083730E+01  0.45045681392E+02  0.00000000000E+00 0. -1.
         11    1    3    3    0    0 -0.59487941048E+01  0.40894100196E+01 -0.17047003610E+01  0.74173734698E+01  0.51100000000E-03 0. -1.
        -11    1    3    3    0    0 -0.22857302650E+02  0.13671788193E+02  0.37923059779E+01  0.26902707331E+02  0.51100000000E-03 0.  1.
         12    1    3    3    0    0 -0.73935516834E+01  0.83799438316E+01  0.38571027561E+01  0.11822237808E+02  0.00000000000E+00 0. -1.
</event>
<event>
 7    1  0.2323330E-008  0.4614232E+02  0.7816164E-02  0.1320468E+00
        -11   -1    0    0    0    0  0.00000000000E+00  0.00000000000E+00  0.45593999997E+02  0.45594000000E+02  0.51100000000E-03 0.  1.
         11   -1    0    0    0    0 -0.00000000000E+00 -0.00000000000E+00 -0.45593999997E+02  0.45594000000E+02  0.51100000000E-03 0. -1.
    9900012    2    1    2    0    0 -0.88353657068E+01  0.33303556274E+02  0.29015903930E+02  0.46142320645E+02  0.10000026298E+02 0.  0.
         12    1    1    2    0    0  0.88353657068E+01 -0.33303556274E+02 -0.29015903930E+02  0.45045679355E+02  0.00000000000E+00 0. -1.
         11    1    3    3    0    0 -0.55765269984E+01  0.76212941699E+01  0.73886106722E+01  0.11990552369E+02  0.51100000000E-03 0. -1.
        -11    1    3    3    0    0 -0.29519407047E+01  0.14454812934E+02  0.15326970004E+02  0.21273729825E+02  0.51100000000E-03 0.  1.
         12    1    3    3    0    0 -0.30689800373E+00  0.11227449170E+02  0.63003232533E+01  0.12878038451E+02  0.00000000000E+00 0. -1.
</event>
<event>
 7    1  0.2323330E-008  0.4614232E+02  0.7816164E-02  0.1320468E+00
        -11   -1    0    0    0    0  0.00000000000E+00  0.00000000000E+00  0.45593999997E+02  0.45594000000E+02  0.51100000000E-03 0.  1.
         11   -1    0    0    0    0 -0.00000000000E+00 -0.00000000000E+00 -0.45593999997E+02  0.45594000000E+02  0.51100000000E-03 0. -1.
    9900012    2    1    2    0    0  0.55111404327E+01 -0.21050110769E+02  0.39441521845E+02  0.46142317880E+02  0.10000001081E+02 0.  0.
         12    1    1    2    0    0 -0.55111404327E+01  0.21050110769E+02 -0.39441521845E+02  0.45045682120E+02  0.00000000000E+00 0. -1.
         11    1    3    3    0    0  0.34102098401E+01 -0.12422777468E+02  0.17344815316E+02  0.21605498138E+02  0.51100000000E-03 0. -1.
        -11    1    3    3    0    0  0.14258225778E+01 -0.68053744500E+01  0.93991168845E+01  0.11691428052E+02  0.51100000000E-03 0.  1.
         12    1    3    3    0    0  0.67510801482E+00 -0.18219588507E+01  0.12697589644E+02  0.12845391690E+02  0.00000000000E+00 0. -1.
</event>
<event>
 7    1  0.2323330E-008  0.4614232E+02  0.7816164E-02  0.1320468E+00
        -11   -1    0    0    0    0  0.00000000000E+00  0.00000000000E+00  0.45593999997E+02  0.45594000000E+02  0.51100000000E-03 0.  1.
         11   -1    0    0    0    0 -0.00000000000E+00 -0.00000000000E+00 -0.45593999997E+02  0.45594000000E+02  0.51100000000E-03 0. -1.
    9900012    2    1    2    0    0  0.22771202417E+02 -0.34693822517E+02  0.17519265609E+02  0.46142315991E+02  0.99999838629E+01 0.  0.
         12    1    1    2    0    0 -0.22771202417E+02  0.34693822517E+02 -0.17519265609E+02  0.45045684009E+02  0.00000000000E+00 0. -1.
         11    1    3    3    0    0  0.13314800035E+02 -0.14344689461E+02  0.11046867237E+02  0.22474147186E+02  0.51100000000E-03 0. -1.
        -11    1    3    3    0    0  0.69422469972E+01 -0.13395003923E+02  0.25615364871E+01  0.15303019078E+02  0.51100000000E-03 0.  1.
        -12    1    3    3    0    0  0.25141553852E+01 -0.69541291329E+01  0.39108618842E+01  0.83651497282E+01  0.00000000000E+00 0.  1.
</event>
<event>
 7    1  0.2323330E-008  0.4614232E+02  0.7816164E-02  0.1320468E+00
        -11   -1    0    0    0    0  0.00000000000E+00  0.00000000000E+00  0.45593999997E+02  0.45594000000E+02  0.51100000000E-03 0. -1.
         11   -1    0    0    0    0 -0.00000000000E+00 -0.00000000000E+00 -0.45593999997E+02  0.45594000000E+02  0.51100000000E-03 0.  1.
    9900012    2    1    2    0    0 -0.42768539071E+02  0.25215737487E+01 -0.13914280549E+02  0.46142317947E+02  0.10000001697E+02 0.  0.
         12    1    1    2    0    0  0.42768539071E+02 -0.25215737487E+01  0.13914280549E+02  0.45045682053E+02  0.00000000000E+00 0. -1.
         11    1    3    3    0    0 -0.14012922060E+01 -0.10733631338E+01 -0.21665702952E+01  0.27945939542E+01  0.51100000000E-03 0. -1.
        -11    1    3    3    0    0 -0.97150829368E+01  0.67244585014E+00 -0.98380383570E+00  0.97878950821E+01  0.51100000000E-03 0.  1.
         12    1    3    3    0    0 -0.31652163928E+02  0.29224910324E+01 -0.10763906418E+02  0.33559828911E+02  0.00000000000E+00 0. -1.
</event>
<event>
 7    1  0.2323330E-008  0.4614232E+02  0.7816164E-02  0.1320468E+00
        -11   -1    0    0    0    0  0.00000000000E+00  0.00000000000E+00  0.45593999997E+02  0.45594000000E+02  0.51100000000E-03 0. -1.
         11   -1    0    0    0    0 -0.00000000000E+00 -0.00000000000E+00 -0.45593999997E+02  0.45594000000E+02  0.51100000000E-03 0.  1.
    9900012    2    1    2    0    0  0.16086668357E+02 -0.20071216081E+02  0.36979438462E+02  0.46142317823E+02  0.10000000564E+02 0.  0.
         12    1    1    2    0    0 -0.16086668357E+02  0.20071216081E+02 -0.36979438462E+02  0.45045682177E+02  0.00000000000E+00 0. -1.
         11    1    3    3    0    0  0.67546749551E+00 -0.22423053171E+00  0.11941472910E+01  0.13901523954E+01  0.51100000000E-03 0. -1.
        -11    1    3    3    0    0  0.65868271602E+01 -0.84764408506E+01  0.23473893641E+02  0.25812013181E+02  0.51100000000E-03 0.  1.
        -12    1    3    3    0    0  0.88243737012E+01 -0.11370544699E+02  0.12311397531E+02  0.18940152247E+02  0.00000000000E+00 0.  1.
</event>
<event>
 7    1  0.2323330E-008  0.4614232E+02  0.7816164E-02  0.1320468E+00
        -11   -1    0    0    0    0  0.00000000000E+00  0.00000000000E+00  0.45593999997E+02  0.45594000000E+02  0.51100000000E-03 0.  1.
         11   -1    0    0    0    0 -0.00000000000E+00 -0.00000000000E+00 -0.45593999997E+02  0.45594000000E+02  0.51100000000E-03 0. -1.
    9900012    2    1    2    0    0  0.23555476604E+01  0.35589267986E+02  0.27513066265E+02  0.46142318566E+02  0.10000007338E+02 0.  0.
         12    1    1    2    0    0 -0.23555476604E+01 -0.35589267986E+02 -0.27513066265E+02  0.45045681434E+02  0.00000000000E+00 0. -1.
         11    1    3    3    0    0  0.20672462416E+01  0.15712471146E+01  0.28116000342E+01  0.38271947340E+01  0.51100000000E-03 0. -1.
        -11    1    3    3    0    0 -0.13712857457E+00  0.18686930902E+02  0.16466467762E+02  0.24907122507E+02  0.51100000000E-03 0.  1.
        -12    1    3    3    0    0  0.42542999332E+00  0.15331089969E+02  0.82349984689E+01  0.17408001324E+02  0.00000000000E+00 0.  1.
</event>
<event>
 7    1  0.2323330E-008  0.4614232E+02  0.7816164E-02  0.1320468E+00
        -11   -1    0    0    0    0  0.00000000000E+00  0.00000000000E+00  0.45593999997E+02  0.45594000000E+02  0.51100000000E-03 0.  1.
         11   -1    0    0    0    0 -0.00000000000E+00 -0.00000000000E+00 -0.45593999997E+02  0.45594000000E+02  0.51100000000E-03 0. -1.
    9900012    2    1    2    0    0  0.22180344797E+02 -0.26025871967E+00  0.39205587496E+02  0.46142317401E+02  0.99999967137E+01 0.  0.
         12    1    1    2    0    0 -0.22180344797E+02  0.26025871967E+00 -0.39205587496E+02  0.45045682599E+02  0.00000000000E+00 0. -1.
         11    1    3    3    0    0  0.23075191550E+01 -0.58522405201E-01  0.11658189431E+01  0.25859627979E+01  0.51100000000E-03 0. -1.
        -11    1    3    3    0    0  0.14577257800E+02 -0.16912198917E+01  0.20767541732E+02  0.25429263842E+02  0.51100000000E-03 0.  1.
         12    1    3    3    0    0  0.52955678416E+01  0.14894835772E+01  0.17272226821E+02  0.18127090761E+02  0.00000000000E+00 0. -1.
</event>
<event>
 7    1  0.2323330E-008  0.4614232E+02  0.7816164E-02  0.1320468E+00
        -11   -1    0    0    0    0  0.00000000000E+00  0.00000000000E+00  0.45593999997E+02  0.45594000000E+02  0.51100000000E-03 0.  1.
         11   -1    0    0    0    0 -0.00000000000E+00 -0.00000000000E+00 -0.45593999997E+02  0.45594000000E+02  0.51100000000E-03 0. -1.
    9900012    2    1    2    0    0 -0.37111001023E+02 -0.13782907082E+02  0.21492293176E+02  0.46142316627E+02  0.99999896620E+01 0.  0.
         12    1    1    2    0    0  0.37111001023E+02  0.13782907082E+02 -0.21492293176E+02  0.45045683373E+02  0.00000000000E+00 0. -1.
         11    1    3    3    0    0 -0.91222722491E+01 -0.67946473497E+01  0.52239759978E+01  0.12516908927E+02  0.51100000000E-03 0.  1.
        -11    1    3    3    0    0 -0.97149194446E+01 -0.45820226050E+01  0.38941770795E+01  0.11425375546E+02  0.51100000000E-03 0. -1.
         12    1    3    3    0    0 -0.18273809329E+02 -0.24062371272E+01  0.12374140099E+02  0.22200032155E+02  0.00000000000E+00 0. -1.
</event>
<event>
 7    1  0.2323330E-008  0.4614232E+02  0.7816164E-02  0.1320468E+00
        -11   -1    0    0    0    0  0.00000000000E+00  0.00000000000E+00  0.45593999997E+02  0.45594000000E+02  0.51100000000E-03 0. -1.
         11   -1    0    0    0    0 -0.00000000000E+00 -0.00000000000E+00 -0.45593999997E+02  0.45594000000E+02  0.51100000000E-03 0.  1.
    9900012    2    1    2    0    0 -0.19187033436E+02  0.30422988532E+02  0.27118499387E+02  0.46142317717E+02  0.99999996006E+01 0.  0.
         12    1    1    2    0    0  0.19187033436E+02 -0.30422988532E+02 -0.27118499387E+02  0.45045682283E+02  0.00000000000E+00 0. -1.
         11    1    3    3    0    0 -0.13670912729E+02  0.17898130967E+02  0.15936316239E+02  0.27589909795E+02  0.51100000000E-03 0. -1.
        -11    1    3    3    0    0 -0.54644039955E+01  0.11256064129E+02  0.73412054693E+01  0.14506963456E+02  0.51100000000E-03 0.  1.
         12    1    3    3    0    0 -0.51716711568E-01  0.12687934352E+01  0.38409776787E+01  0.40454444660E+01  0.00000000000E+00 0. -1.
</event>
<event>
 7    1  0.2323330E-008  0.4614232E+02  0.7816164E-02  0.1320468E+00
        -11   -1    0    0    0    0  0.00000000000E+00  0.00000000000E+00  0.45593999997E+02  0.45594000000E+02  0.51100000000E-03 0.  1.
         11   -1    0    0    0    0 -0.00000000000E+00 -0.00000000000E+00 -0.45593999997E+02  0.45594000000E+02  0.51100000000E-03 0. -1.
    9900012    2    1    2    0    0 -0.10471366338E+02 -0.15151876450E+02  0.41108205059E+02  0.46142318785E+02  0.10000009336E+02 0.  0.
         12    1    1    2    0    0  0.10471366338E+02  0.15151876450E+02 -0.41108205059E+02  0.45045681215E+02  0.00000000000E+00 0. -1.
         11    1    3    3    0    0 -0.25603413768E+01 -0.22109073146E+01  0.10541367265E+02  0.11070857383E+02  0.51100000000E-03 0. -1.
        -11    1    3    3    0    0 -0.52560454335E+01 -0.36950209265E+01  0.18831308059E+02  0.19897169565E+02  0.51100000000E-03 0.  1.
        -12    1    3    3    0    0 -0.26549795276E+01 -0.92459482088E+01  0.11735529736E+02  0.15174291837E+02  0.00000000000E+00 0.  1.
</event>
<event>
 7    1  0.2323330E-008  0.4614232E+02  0.7816164E-02  0.1320468E+00
        -11   -1    0    0    0    0  0.00000000000E+00  0.00000000000E+00  0.45593999997E+02  0.45594000000E+02  0.51100000000E-03 0.  1.
         11   -1    0    0    0    0 -0.00000000000E+00 -0.00000000000E+00 -0.45593999997E+02  0.45594000000E+02  0.51100000000E-03 0. -1.
    9900012    2    1    2    0    0  0.16921916652E+02 -0.85381003161E+01  0.40863953808E+02  0.46142321616E+02  0.10000035156E+02 0.  0.
         12    1    1    2    0    0 -0.16921916652E+02  0.85381003161E+01 -0.40863953808E+02  0.45045678384E+02  0.00000000000E+00 0. -1.
         11    1    3    3    0    0  0.59405098490E+01 -0.37127877930E+01  0.11537753088E+02  0.13497933065E+02  0.51100000000E-03 0. -1.
        -11    1    3    3    0    0  0.12164968204E+01 -0.11867137187E+01  0.14049702360E+02  0.14152112586E+02  0.51100000000E-03 0.  1.
        -12    1    3    3    0    0  0.97649099827E+01 -0.36385988044E+01  0.15276498360E+02  0.18492275965E+02  0.00000000000E+00 0.  1.
</event>
<event>
 7    1  0.2323330E-008  0.4614232E+02  0.7816164E-02  0.1320468E+00
        -11   -1    0    0    0    0  0.00000000000E+00  0.00000000000E+00  0.45593999997E+02  0.45594000000E+02  0.51100000000E-03 0.  1.
         11   -1    0    0    0    0 -0.00000000000E+00 -0.00000000000E+00 -0.45593999997E+02  0.45594000000E+02  0.51100000000E-03 0. -1.
    9900012    2    1    2    0    0  0.39500247705E+02 -0.17829133061E+02  0.12286819883E+02  0.46142317662E+02  0.99999990974E+01 0.  0.
         12    1    1    2    0    0 -0.39500247705E+02  0.17829133061E+02 -0.12286819883E+02  0.45045682338E+02  0.00000000000E+00 0. -1.
         11    1    3    3    0    0  0.11468986084E+02 -0.49825258370E+01  0.25415055786E+01  0.12760190295E+02  0.51100000000E-03 0.  1.
        -11    1    3    3    0    0  0.67159207979E+01 -0.54967840439E+01 -0.33355934398E+00  0.86850152036E+01  0.51100000000E-03 0. -1.
        -12    1    3    3    0    0  0.21315340823E+02 -0.73498231805E+01  0.10078873648E+02  0.24697112163E+02  0.00000000000E+00 0.  1.
</event>
<event>
 7    1  0.2323330E-008  0.4614232E+02  0.7816164E-02  0.1320468E+00
        -11   -1    0    0    0    0  0.00000000000E+00  0.00000000000E+00  0.45593999997E+02  0.45594000000E+02  0.51100000000E-03 0.  1.
         11   -1    0    0    0    0 -0.00000000000E+00 -0.00000000000E+00 -0.45593999997E+02  0.45594000000E+02  0.51100000000E-03 0. -1.
    9900012    2    1    2    0    0 -0.65936549765E+00  0.42362488554E+02  0.15300270098E+02  0.46142318027E+02  0.10000002427E+02 0.  0.
         12    1    1    2    0    0  0.65936549765E+00 -0.42362488554E+02 -0.15300270098E+02  0.45045681973E+02  0.00000000000E+00 0. -1.
         11    1    3    3    0    0  0.89382597135E+00  0.94719824798E+01  0.29357110959E+01  0.99566950774E+01  0.51100000000E-03 0. -1.
        -11    1    3    3    0    0 -0.46898201412E+01  0.21062394791E+02  0.97190448101E+01  0.23665982328E+02  0.51100000000E-03 0.  1.
         12    1    3    3    0    0  0.31366286722E+01  0.11828111283E+02  0.26455141917E+01  0.12519640621E+02  0.00000000000E+00 0. -1.
</event>
<event>
 7    1  0.2323330E-008  0.4614232E+02  0.7816164E-02  0.1320468E+00
        -11   -1    0    0    0    0  0.00000000000E+00  0.00000000000E+00  0.45593999997E+02  0.45594000000E+02  0.51100000000E-03 0.  1.
         11   -1    0    0    0    0 -0.00000000000E+00 -0.00000000000E+00 -0.45593999997E+02  0.45594000000E+02  0.51100000000E-03 0. -1.
    9900012    2    1    2    0    0 -0.20542143282E+02 -0.14956402211E+02  0.37194620594E+02  0.46142318533E+02  0.10000007037E+02 0.  0.
         12    1    1    2    0    0  0.20542143282E+02  0.14956402211E+02 -0.37194620594E+02  0.45045681467E+02  0.00000000000E+00 0. -1.
         11    1    3    3    0    0 -0.75493293971E+00 -0.56518784411E+00  0.66130077778E+01  0.66799126621E+01  0.51100000000E-03 0. -1.
        -11    1    3    3    0    0 -0.14424548612E+02 -0.10520560733E+02  0.25467421851E+02  0.31102079944E+02  0.51100000000E-03 0.  1.
        -12    1    3    3    0    0 -0.53626617300E+01 -0.38706536340E+01  0.51141909647E+01  0.83603259272E+01  0.00000000000E+00 0.  1.
</event>
<event>
 7    1  0.2323330E-008  0.4614232E+02  0.7816164E-02  0.1320468E+00
        -11   -1    0    0    0    0  0.00000000000E+00  0.00000000000E+00  0.45593999997E+02  0.45594000000E+02  0.51100000000E-03 0.  1.
         11   -1    0    0    0    0 -0.00000000000E+00 -0.00000000000E+00 -0.45593999997E+02  0.45594000000E+02  0.51100000000E-03 0. -1.
    9900012    2    1    2    0    0 -0.16025646306E+01  0.18236895399E+02  0.41157756518E+02  0.46142317756E+02  0.99999999553E+01 0.  0.
         12    1    1    2    0    0  0.16025646306E+01 -0.18236895399E+02 -0.41157756518E+02  0.45045682244E+02  0.00000000000E+00 0. -1.
         11    1    3    3    0    0 -0.39229748762E+00  0.10816474934E+02  0.17027389954E+02  0.20176274092E+02  0.51100000000E-03 0. -1.
        -11    1    3    3    0    0  0.60658818801E-01  0.42264792664E+01  0.50825454265E+01  0.66105275701E+01  0.51100000000E-03 0.  1.
        -12    1    3    3    0    0 -0.12709259618E+01  0.31939411984E+01  0.19047821138E+02  0.19355516095E+02  0.00000000000E+00 0.  1.
</event>
<event>
 7    1  0.2323330E-008  0.4614232E+02  0.7816164E-02  0.1320468E+00
        -11   -1    0    0    0    0  0.00000000000E+00  0.00000000000E+00  0.45593999997E+02  0.45594000000E+02  0.51100000000E-03 0.  1.
         11   -1    0    0    0    0 -0.00000000000E+00 -0.00000000000E+00 -0.45593999997E+02  0.45594000000E+02  0.51100000000E-03 0. -1.
    9900012    2    1    2    0    0 -0.19969377184E+02 -0.16729120208E+02  0.36748795535E+02  0.46142318061E+02  0.10000002735E+02 0.  0.
         12    1    1    2    0    0  0.19969377184E+02  0.16729120208E+02 -0.36748795535E+02  0.45045681939E+02  0.00000000000E+00 0. -1.
         11    1    3    3    0    0 -0.21761602603E+01 -0.21428121492E+00  0.50350206827E+00  0.22439038552E+01  0.51100000000E-03 0. -1.
        -11    1    3    3    0    0 -0.83942416783E+01 -0.66313254973E+01  0.11967412207E+02  0.16051689207E+02  0.51100000000E-03 0.  1.
         12    1    3    3    0    0 -0.93989752451E+01 -0.98835134962E+01  0.24277881260E+02  0.27846724999E+02  0.00000000000E+00 0. -1.
</event>
<event>
 7    1  0.2323330E-008  0.4614232E+02  0.7816164E-02  0.1320468E+00
        -11   -1    0    0    0    0  0.00000000000E+00  0.00000000000E+00  0.45593999997E+02  0.45594000000E+02  0.51100000000E-03 0. -1.
         11   -1    0    0    0    0 -0.00000000000E+00 -0.00000000000E+00 -0.45593999997E+02  0.45594000000E+02  0.51100000000E-03 0.  1.
    9900012    2    1    2    0    0  0.89257298935E+01  0.24077870355E+02 -0.37009471476E+02  0.46142317921E+02  0.10000001460E+02 0.  0.
         12    1    1    2    0    0 -0.89257298935E+01 -0.24077870355E+02  0.37009471476E+02  0.45045682079E+02  0.00000000000E+00 0. -1.
         11    1    3    3    0    0  0.63821601664E+01  0.15477751087E+02 -0.16127584097E+02  0.23246326939E+02  0.51100000000E-03 0. -1.
        -11    1    3    3    0    0  0.11559277784E+01  0.52554545258E+01 -0.91184137507E+01  0.10587796791E+02  0.51100000000E-03 0.  1.
         12    1    3    3    0    0  0.13876419487E+01  0.33446647422E+01 -0.11763473629E+02  0.12308194191E+02  0.00000000000E+00 0. -1.
</event>
<event>
 7    1  0.2323330E-008  0.4614232E+02  0.7816164E-02  0.1320468E+00
        -11   -1    0    0    0    0  0.00000000000E+00  0.00000000000E+00  0.45593999997E+02  0.45594000000E+02  0.51100000000E-03 0.  1.
         11   -1    0    0    0    0 -0.00000000000E+00 -0.00000000000E+00 -0.45593999997E+02  0.45594000000E+02  0.51100000000E-03 0. -1.
    9900012    2    1    2    0    0  0.25448483736E+02  0.31652493010E+02  0.19483527299E+02  0.46142317918E+02  0.10000001433E+02 0.  0.
         12    1    1    2    0    0 -0.25448483736E+02 -0.31652493010E+02 -0.19483527299E+02  0.45045682082E+02  0.00000000000E+00 0. -1.
         11    1    3    3    0    0  0.28653640604E+01  0.68136273880E+01  0.28128177764E+01  0.79087150338E+01  0.51100000000E-03 0. -1.
        -11    1    3    3    0    0  0.10708344309E+02  0.10175038548E+02  0.33789966499E+01  0.15153140464E+02  0.51100000000E-03 0.  1.
        -12    1    3    3    0    0  0.11874775366E+02  0.14663827074E+02  0.13291712873E+02  0.23080462421E+02  0.00000000000E+00 0.  1.
</event>
<event>
 7    1  0.2323330E-008  0.4614232E+02  0.7816164E-02  0.1320468E+00
        -11   -1    0    0    0    0  0.00000000000E+00  0.00000000000E+00  0.45593999997E+02  0.45594000000E+02  0.51100000000E-03 0. -1.
         11   -1    0    0    0    0 -0.00000000000E+00 -0.00000000000E+00 -0.45593999997E+02  0.45594000000E+02  0.51100000000E-03 0.  1.
    9900012    2    1    2    0    0 -0.21901954178E+02 -0.31777977150E+02 -0.23228820639E+02  0.46142317223E+02  0.99999950917E+01 0.  0.
         12    1    1    2    0    0  0.21901954178E+02  0.31777977150E+02  0.23228820639E+02  0.45045682777E+02  0.00000000000E+00 0. -1.
         11    1    3    3    0    0 -0.98295944647E+00 -0.20029452377E+01  0.27121798579E+00  0.22475672082E+01  0.51100000000E-03 0.  1.
        -11    1    3    3    0    0 -0.54313218407E+00  0.37859792114E+00 -0.24146403467E+00  0.70472270889E+00  0.51100000000E-03 0. -1.
        -12    1    3    3    0    0 -0.20375862547E+02 -0.30153629834E+02 -0.23258574590E+02  0.43190027306E+02  0.00000000000E+00 0.  1.
</event>
<event>
 7    1  0.2323330E-008  0.4614232E+02  0.7816164E-02  0.1320468E+00
        -11   -1    0    0    0    0  0.00000000000E+00  0.00000000000E+00  0.45593999997E+02  0.45594000000E+02  0.51100000000E-03 0.  1.
         11   -1    0    0    0    0 -0.00000000000E+00 -0.00000000000E+00 -0.45593999997E+02  0.45594000000E+02  0.51100000000E-03 0. -1.
    9900012    2    1    2    0    0 -0.35973702988E+02  0.77348577154E+01  0.25984186725E+02  0.46142319960E+02  0.10000020047E+02 0.  0.
         12    1    1    2    0    0  0.35973702988E+02 -0.77348577154E+01 -0.25984186725E+02  0.45045680040E+02  0.00000000000E+00 0. -1.
         11    1    3    3    0    0 -0.17253239812E+02  0.31309477416E+01  0.68387392627E+01  0.18821409956E+02  0.51100000000E-03 0. -1.
        -11    1    3    3    0    0 -0.63898550044E+01  0.19282887280E+00  0.64641087904E+01  0.90913218327E+01  0.51100000000E-03 0.  1.
         12    1    3    3    0    0 -0.12330608172E+02  0.44110811010E+01  0.12681338672E+02  0.18229588171E+02  0.00000000000E+00 0. -1.
</event>
<event>
 7    1  0.2323330E-008  0.4614232E+02  0.7816164E-02  0.1320468E+00
        -11   -1    0    0    0    0  0.00000000000E+00  0.00000000000E+00  0.45593999997E+02  0.45594000000E+02  0.51100000000E-03 0.  1.
         11   -1    0    0    0    0 -0.00000000000E+00 -0.00000000000E+00 -0.45593999997E+02  0.45594000000E+02  0.51100000000E-03 0. -1.
    9900012    2    1    2    0    0  0.33462782770E+02  0.29822244876E+02  0.44709507758E+01  0.46142317399E+02  0.99999966959E+01 0.  0.
         12    1    1    2    0    0 -0.33462782770E+02 -0.29822244876E+02 -0.44709507758E+01  0.45045682601E+02  0.00000000000E+00 0. -1.
         11    1    3    3    0    0  0.70179691323E+01  0.47527345131E+01  0.37332010434E+01  0.92615963195E+01  0.51100000000E-03 0. -1.
        -11    1    3    3    0    0  0.26125496447E+02  0.23120433308E+02  0.90456649225E+00  0.34898628078E+02  0.51100000000E-03 0.  1.
         12    1    3    3    0    0  0.31931719133E+00  0.19490770544E+01 -0.16681675990E+00  0.19820930008E+01  0.00000000000E+00 0. -1.
</event>
<event>
 7    1  0.2323330E-008  0.4614232E+02  0.7816164E-02  0.1320468E+00
        -11   -1    0    0    0    0  0.00000000000E+00  0.00000000000E+00  0.45593999997E+02  0.45594000000E+02  0.51100000000E-03 0.  1.
         11   -1    0    0    0    0 -0.00000000000E+00 -0.00000000000E+00 -0.45593999997E+02  0.45594000000E+02  0.51100000000E-03 0. -1.
    9900012    2    1    2    0    0 -0.77654121327E+01 -0.30353977642E+02  0.32364301331E+02  0.46142316690E+02  0.99999902298E+01 0.  0.
         12    1    1    2    0    0  0.77654121327E+01  0.30353977642E+02 -0.32364301331E+02  0.45045683310E+02  0.00000000000E+00 0. -1.
         11    1    3    3    0    0 -0.40112008581E+01 -0.11364031654E+02  0.10158890144E+02  0.15761789143E+02  0.51100000000E-03 0. -1.
        -11    1    3    3    0    0 -0.39084516771E+01 -0.17305838862E+02  0.15805455750E+02  0.23760902444E+02  0.51100000000E-03 0.  1.
         12    1    3    3    0    0  0.15424040244E+00 -0.16841071255E+01  0.63999554363E+01  0.66196251025E+01  0.00000000000E+00 0. -1.
</event>
<event>
 7    1  0.2323330E-008  0.4614232E+02  0.7816164E-02  0.1320468E+00
        -11   -1    0    0    0    0  0.00000000000E+00  0.00000000000E+00  0.45593999997E+02  0.45594000000E+02  0.51100000000E-03 0. -1.
         11   -1    0    0    0    0 -0.00000000000E+00 -0.00000000000E+00 -0.45593999997E+02  0.45594000000E+02  0.51100000000E-03 0.  1.
    9900012    2    1    2    0    0 -0.31372102246E+01 -0.70821995705E+01 -0.44374698382E+02  0.46142317685E+02  0.99999993063E+01 0.  0.
         12    1    1    2    0    0  0.31372102246E+01  0.70821995705E+01  0.44374698382E+02  0.45045682315E+02  0.00000000000E+00 0. -1.
         11    1    3    3    0    0 -0.20434602840E+01 -0.73090904260E+00 -0.19628020850E+02  0.19747636838E+02  0.51100000000E-03 0. -1.
        -11    1    3    3    0    0  0.10423856941E+00  0.12746853401E+01 -0.57284958516E+01  0.58695275260E+01  0.51100000000E-03 0.  1.
         12    1    3    3    0    0 -0.11979885100E+01 -0.76259758680E+01 -0.19018181680E+02  0.20525153321E+02  0.00000000000E+00 0. -1.
</event>
<event>
 7    1  0.2323330E-008  0.4614232E+02  0.7816164E-02  0.1320468E+00
        -11   -1    0    0    0    0  0.00000000000E+00  0.00000000000E+00  0.45593999997E+02  0.45594000000E+02  0.51100000000E-03 0.  1.
         11   -1    0    0    0    0 -0.00000000000E+00 -0.00000000000E+00 -0.45593999997E+02  0.45594000000E+02  0.51100000000E-03 0. -1.
    9900012    2    1    2    0    0  0.50988153994E+01 -0.17768624393E+02  0.41077872602E+02  0.46142317091E+02  0.99999938866E+01 0.  0.
         12    1    1    2    0    0 -0.50988153994E+01  0.17768624393E+02 -0.41077872602E+02  0.45045682909E+02  0.00000000000E+00 0. -1.
         11    1    3    3    0    0  0.20681688284E+01 -0.35614957231E+01  0.48897221084E+01  0.63930397032E+01  0.51100000000E-03 0. -1.
        -11    1    3    3    0    0  0.20135698952E+01 -0.14892430696E+02  0.31465700456E+02  0.34870177247E+02  0.51100000000E-03 0.  1.
         12    1    3    3    0    0  0.10170766758E+01  0.68530202619E+00  0.47224500369E+01  0.48791001407E+01  0.00000000000E+00 0. -1.
</event>
<event>
 7    1  0.2323330E-008  0.4614232E+02  0.7816164E-02  0.1320468E+00
        -11   -1    0    0    0    0  0.00000000000E+00  0.00000000000E+00  0.45593999997E+02  0.45594000000E+02  0.51100000000E-03 0. -1.
         11   -1    0    0    0    0 -0.00000000000E+00 -0.00000000000E+00 -0.45593999997E+02  0.45594000000E+02  0.51100000000E-03 0.  1.
    9900012    2    1    2    0    0  0.19510936702E+02  0.21353969713E+02 -0.34531794094E+02  0.46142317889E+02  0.10000001164E+02 0.  0.
         12    1    1    2    0    0 -0.19510936702E+02 -0.21353969713E+02  0.34531794094E+02  0.45045682111E+02  0.00000000000E+00 0. -1.
         11    1    3    3    0    0  0.38505330010E+01  0.55545553553E+01 -0.61548467159E+01  0.91412158898E+01  0.51100000000E-03 0.  1.
        -11    1    3    3    0    0  0.84995711828E+01  0.11993651750E+02 -0.13030979664E+02  0.19644256765E+02  0.51100000000E-03 0. -1.
         12    1    3    3    0    0  0.71608325180E+01  0.38057626082E+01 -0.15345967715E+02  0.17356845234E+02  0.00000000000E+00 0. -1.
</event>
<event>
 7    1  0.2323330E-008  0.4614232E+02  0.7816164E-02  0.1320468E+00
        -11   -1    0    0    0    0  0.00000000000E+00  0.00000000000E+00  0.45593999997E+02  0.45594000000E+02  0.51100000000E-03 0. -1.
         11   -1    0    0    0    0 -0.00000000000E+00 -0.00000000000E+00 -0.45593999997E+02  0.45594000000E+02  0.51100000000E-03 0.  1.
    9900012    2    1    2    0    0  0.34947093695E+01  0.19232632699E+02 -0.40583325304E+02  0.46142318222E+02  0.10000004205E+02 0.  0.
         12    1    1    2    0    0 -0.34947093695E+01 -0.19232632699E+02  0.40583325304E+02  0.45045681778E+02  0.00000000000E+00 0. -1.
         11    1    3    3    0    0  0.60204066859E+00  0.10595956918E+02 -0.24598737243E+02  0.26790569799E+02  0.51100000000E-03 0.  1.
        -11    1    3    3    0    0  0.54349625341E+00  0.81619411251E+01 -0.10094649872E+02  0.12992868329E+02  0.51100000000E-03 0. -1.
         12    1    3    3    0    0  0.23491724475E+01  0.47473465592E+00 -0.58899381893E+01  0.63588800945E+01  0.00000000000E+00 0. -1.
</event>
<event>
 7    1  0.2323330E-008  0.4614232E+02  0.7816164E-02  0.1320468E+00
        -11   -1    0    0    0    0  0.00000000000E+00  0.00000000000E+00  0.45593999997E+02  0.45594000000E+02  0.51100000000E-03 0. -1.
         11   -1    0    0    0    0 -0.00000000000E+00 -0.00000000000E+00 -0.45593999997E+02  0.45594000000E+02  0.51100000000E-03 0.  1.
    9900012    2    1    2    0    0  0.42472737336E+02  0.15600330840E+01  0.14924690315E+02  0.46142317621E+02  0.99999987202E+01 0.  0.
         12    1    1    2    0    0 -0.42472737336E+02 -0.15600330840E+01 -0.14924690315E+02  0.45045682379E+02  0.00000000000E+00 0. -1.
         11    1    3    3    0    0  0.10264008104E+01 -0.67423366288E+00 -0.71750918397E+00  0.14222901764E+01  0.51100000000E-03 0. -1.
        -11    1    3    3    0    0  0.26676565405E+02  0.21500811545E+01  0.12851161043E+02  0.29688622925E+02  0.51100000000E-03 0.  1.
        -12    1    3    3    0    0  0.14769771120E+02  0.84185592363E-01  0.27910384567E+01  0.15031404520E+02  0.00000000000E+00 0.  1.
</event>
<event>
 7    1  0.2323330E-008  0.4614232E+02  0.7816164E-02  0.1320468E+00
        -11   -1    0    0    0    0  0.00000000000E+00  0.00000000000E+00  0.45593999997E+02  0.45594000000E+02  0.51100000000E-03 0. -1.
         11   -1    0    0    0    0 -0.00000000000E+00 -0.00000000000E+00 -0.45593999997E+02  0.45594000000E+02  0.51100000000E-03 0.  1.
    9900012    2    1    2    0    0 -0.32196182298E+02  0.40327220399E+01 -0.31245105266E+02  0.46142316469E+02  0.99999882205E+01 0.  0.
         12    1    1    2    0    0  0.32196182298E+02 -0.40327220399E+01  0.31245105266E+02  0.45045683531E+02  0.00000000000E+00 0. -1.
         11    1    3    3    0    0 -0.62059939212E+01 -0.55806612404E+00 -0.30262451079E+01  0.69270454064E+01  0.51100000000E-03 0. -1.
        -11    1    3    3    0    0 -0.21434986897E+01 -0.14130969476E+01 -0.18857855121E+01  0.31855324319E+01  0.51100000000E-03 0.  1.
        -12    1    3    3    0    0 -0.23846689688E+02  0.60038851116E+01 -0.26333074646E+02  0.36029738631E+02  0.00000000000E+00 0.  1.
</event>
<event>
 7    1  0.2323330E-008  0.4614232E+02  0.7816164E-02  0.1320468E+00
        -11   -1    0    0    0    0  0.00000000000E+00  0.00000000000E+00  0.45593999997E+02  0.45594000000E+02  0.51100000000E-03 0.  1.
         11   -1    0    0    0    0 -0.00000000000E+00 -0.00000000000E+00 -0.45593999997E+02  0.45594000000E+02  0.51100000000E-03 0. -1.
    9900012    2    1    2    0    0  0.85447858352E+01  0.13161336788E+02  0.42224155916E+02  0.46142317700E+02  0.99999994447E+01 0.  0.
         12    1    1    2    0    0 -0.85447858352E+01 -0.13161336788E+02 -0.42224155916E+02  0.45045682300E+02  0.00000000000E+00 0. -1.
         11    1    3    3    0    0  0.19913164233E+01  0.10750289867E+02  0.23543007498E+02  0.25957797973E+02  0.51100000000E-03 0. -1.
        -11    1    3    3    0    0  0.94144387392E+00 -0.69593272146E+00  0.38883971513E+01  0.40608215410E+01  0.51100000000E-03 0.  1.
        -12    1    3    3    0    0  0.56120255380E+01  0.31069796422E+01  0.14792751267E+02  0.16123698186E+02  0.00000000000E+00 0.  1.
</event>
<event>
 7    1  0.2323330E-008  0.4614232E+02  0.7816164E-02  0.1320468E+00
        -11   -1    0    0    0    0  0.00000000000E+00  0.00000000000E+00  0.45593999997E+02  0.45594000000E+02  0.51100000000E-03 0. -1.
         11   -1    0    0    0    0 -0.00000000000E+00 -0.00000000000E+00 -0.45593999997E+02  0.45594000000E+02  0.51100000000E-03 0.  1.
    9900012    2    1    2    0    0 -0.38889774067E+02  0.14224318053E+02 -0.17730419027E+02  0.46142317521E+02  0.99999978129E+01 0.  0.
         12    1    1    2    0    0  0.38889774067E+02 -0.14224318053E+02  0.17730419027E+02  0.45045682479E+02  0.00000000000E+00 0. -1.
         11    1    3    3    0    0 -0.10646777466E+02  0.54146489636E+01 -0.95427744128E+01  0.15288454388E+02  0.51100000000E-03 0. -1.
        -11    1    3    3    0    0 -0.23132510090E+01  0.46361581042E+00 -0.15310037587E+01  0.28124797992E+01  0.51100000000E-03 0.  1.
        -12    1    3    3    0    0 -0.25929745592E+02  0.83460532794E+01 -0.66566408556E+01  0.28041383334E+02  0.00000000000E+00 0.  1.
</event>
<event>
 7    1  0.2323330E-008  0.4614232E+02  0.7816164E-02  0.1320468E+00
        -11   -1    0    0    0    0  0.00000000000E+00  0.00000000000E+00  0.45593999997E+02  0.45594000000E+02  0.51100000000E-03 0.  1.
         11   -1    0    0    0    0 -0.00000000000E+00 -0.00000000000E+00 -0.45593999997E+02  0.45594000000E+02  0.51100000000E-03 0. -1.
    9900012    2    1    2    0    0  0.11643163876E+01 -0.13039822167E+02  0.43101286951E+02  0.46142317281E+02  0.99999956251E+01 0.  0.
         12    1    1    2    0    0 -0.11643163876E+01  0.13039822167E+02 -0.43101286951E+02  0.45045682719E+02  0.00000000000E+00 0. -1.
         11    1    3    3    0    0 -0.54417747795E+00 -0.88226661076E+00 -0.71440340423E-01  0.10390512419E+01  0.51100000000E-03 0. -1.
        -11    1    3    3    0    0  0.49483247548E+00 -0.17671802514E+01  0.13836865213E+02  0.13958030821E+02  0.51100000000E-03 0.  1.
        -12    1    3    3    0    0  0.12136613901E+01 -0.10390375305E+02  0.29335862078E+02  0.31145235218E+02  0.00000000000E+00 0.  1.
</event>
<event>
 7    1  0.2323330E-008  0.4614232E+02  0.7816164E-02  0.1320468E+00
        -11   -1    0    0    0    0  0.00000000000E+00  0.00000000000E+00  0.45593999997E+02  0.45594000000E+02  0.51100000000E-03 0.  1.
         11   -1    0    0    0    0 -0.00000000000E+00 -0.00000000000E+00 -0.45593999997E+02  0.45594000000E+02  0.51100000000E-03 0. -1.
    9900012    2    1    2    0    0 -0.94251898925E+01  0.91719990172E+01  0.43083102097E+02  0.46142318111E+02  0.10000003194E+02 0.  0.
         12    1    1    2    0    0  0.94251898925E+01 -0.91719990172E+01 -0.43083102097E+02  0.45045681889E+02  0.00000000000E+00 0. -1.
         11    1    3    3    0    0 -0.63613162482E+00  0.14696509974E+01  0.37563977820E+00  0.16448838872E+01  0.51100000000E-03 0.  1.
        -11    1    3    3    0    0 -0.28496112066E+01  0.24894288254E+01  0.73409677216E+01  0.82587739560E+01  0.51100000000E-03 0. -1.
        -12    1    3    3    0    0 -0.59394470611E+01  0.52129191944E+01  0.35366494598E+02  0.36238660268E+02  0.00000000000E+00 0.  1.
</event>
<event>
 7    1  0.2323330E-008  0.4614232E+02  0.7816164E-02  0.1320468E+00
        -11   -1    0    0    0    0  0.00000000000E+00  0.00000000000E+00  0.45593999997E+02  0.45594000000E+02  0.51100000000E-03 0.  1.
         11   -1    0    0    0    0 -0.00000000000E+00 -0.00000000000E+00 -0.45593999997E+02  0.45594000000E+02  0.51100000000E-03 0. -1.
    9900012    2    1    2    0    0  0.28057290223E+02 -0.68052318067E+01  0.34577315768E+02  0.46142317851E+02  0.10000000818E+02 0.  0.
         12    1    1    2    0    0 -0.28057290223E+02  0.68052318067E+01 -0.34577315768E+02  0.45045682149E+02  0.00000000000E+00 0. -1.
         11    1    3    3    0    0  0.54056032794E+01  0.15994813772E+01  0.48386408143E+01  0.74290869346E+01  0.51100000000E-03 0. -1.
        -11    1    3    3    0    0  0.14986324323E+02 -0.30047724487E+01  0.16513439343E+02  0.22501383366E+02  0.51100000000E-03 0.  1.
         12    1    3    3    0    0  0.76653626206E+01 -0.53999407353E+01  0.13225235610E+02  0.16211847550E+02  0.00000000000E+00 0. -1.
</event>
<event>
 7    1  0.2323330E-008  0.4614232E+02  0.7816164E-02  0.1320468E+00
        -11   -1    0    0    0    0  0.00000000000E+00  0.00000000000E+00  0.45593999997E+02  0.45594000000E+02  0.51100000000E-03 0.  1.
         11   -1    0    0    0    0 -0.00000000000E+00 -0.00000000000E+00 -0.45593999997E+02  0.45594000000E+02  0.51100000000E-03 0. -1.
    9900012    2    1    2    0    0  0.23815502877E+02  0.15737993850E+01  0.38202859602E+02  0.46142317593E+02  0.99999984657E+01 0.  0.
         12    1    1    2    0    0 -0.23815502877E+02 -0.15737993850E+01 -0.38202859602E+02  0.45045682407E+02  0.00000000000E+00 0. -1.
         11    1    3    3    0    0 -0.31278289935E+00 -0.10898790592E+01  0.19173160636E+01  0.22275032334E+01  0.51100000000E-03 0. -1.
        -11    1    3    3    0    0  0.12575932458E+02  0.28581145918E+01  0.22437103761E+02  0.25879461387E+02  0.51100000000E-03 0.  1.
        -12    1    3    3    0    0  0.11552353318E+02 -0.19443614753E+00  0.13848439777E+02  0.18035352973E+02  0.00000000000E+00 0.  1.
</event>
<event>
 7    1  0.2323330E-008  0.4614232E+02  0.7816164E-02  0.1320468E+00
        -11   -1    0    0    0    0  0.00000000000E+00  0.00000000000E+00  0.45593999997E+02  0.45594000000E+02  0.51100000000E-03 0.  1.
         11   -1    0    0    0    0 -0.00000000000E+00 -0.00000000000E+00 -0.45593999997E+02  0.45594000000E+02  0.51100000000E-03 0. -1.
    9900012    2    1    2    0    0  0.21176846077E+02 -0.40300825157E+01  0.39552661401E+02  0.46142318756E+02  0.10000009072E+02 0.  0.
         12    1    1    2    0    0 -0.21176846077E+02  0.40300825157E+01 -0.39552661401E+02  0.45045681244E+02  0.00000000000E+00 0. -1.
         11    1    3    3    0    0  0.23908510177E+00  0.46843195119E+00 -0.10799531051E+00  0.53689237934E+00  0.51100000000E-03 0. -1.
        -11    1    3    3    0    0  0.60110411730E+01 -0.10081402847E+01  0.56986037650E+01  0.83440426622E+01  0.51100000000E-03 0.  1.
        -12    1    3    3    0    0  0.14926719802E+02 -0.34903741821E+01  0.33962052947E+02  0.37261383714E+02  0.00000000000E+00 0.  1.
</event>
<event>
 7    1  0.2323330E-008  0.4614232E+02  0.7816164E-02  0.1320468E+00
        -11   -1    0    0    0    0  0.00000000000E+00  0.00000000000E+00  0.45593999997E+02  0.45594000000E+02  0.51100000000E-03 0.  1.
         11   -1    0    0    0    0 -0.00000000000E+00 -0.00000000000E+00 -0.45593999997E+02  0.45594000000E+02  0.51100000000E-03 0. -1.
    9900012    2    1    2    0    0  0.32569193594E+02 -0.29782209388E+02  0.90211461817E+01  0.46142318233E+02  0.10000004303E+02 0.  0.
         12    1    1    2    0    0 -0.32569193594E+02  0.29782209388E+02 -0.90211461817E+01  0.45045681767E+02  0.00000000000E+00 0. -1.
         11    1    3    3    0    0  0.85697518218E+01 -0.11617468696E+02  0.10967666140E+01  0.14477883908E+02  0.51100000000E-03 0. -1.
        -11    1    3    3    0    0  0.76188782407E+01 -0.38803047672E+01  0.45009644502E+01  0.96624402702E+01  0.51100000000E-03 0.  1.
        -12    1    3    3    0    0  0.16380563532E+02 -0.14284435925E+02  0.34234151175E+01  0.22001994055E+02  0.00000000000E+00 0.  1.
</event>
<event>
 7    1  0.2323330E-008  0.4614232E+02  0.7816164E-02  0.1320468E+00
        -11   -1    0    0    0    0  0.00000000000E+00  0.00000000000E+00  0.45593999997E+02  0.45594000000E+02  0.51100000000E-03 0.  1.
         11   -1    0    0    0    0 -0.00000000000E+00 -0.00000000000E+00 -0.45593999997E+02  0.45594000000E+02  0.51100000000E-03 0. -1.
    9900012    2    1    2    0    0  0.42994124254E+02  0.86470736600E+01  0.10288197687E+02  0.46142316356E+02  0.99999871895E+01 0.  0.
         12    1    1    2    0    0 -0.42994124254E+02 -0.86470736600E+01 -0.10288197687E+02  0.45045683644E+02  0.00000000000E+00 0. -1.
         11    1    3    3    0    0  0.25259712862E+02  0.36335696744E+01  0.10773126130E+02  0.27700472367E+02  0.51100000000E-03 0. -1.
        -11    1    3    3    0    0  0.81869221507E+01  0.25096378336E+01 -0.84126178099E-01  0.85633552906E+01  0.51100000000E-03 0.  1.
         12    1    3    3    0    0  0.95474892414E+01  0.25038661520E+01 -0.40080226488E+00  0.98784886991E+01  0.00000000000E+00 0. -1.
</event>
<event>
 7    1  0.2323330E-008  0.4614232E+02  0.7816164E-02  0.1320468E+00
        -11   -1    0    0    0    0  0.00000000000E+00  0.00000000000E+00  0.45593999997E+02  0.45594000000E+02  0.51100000000E-03 0.  1.
         11   -1    0    0    0    0 -0.00000000000E+00 -0.00000000000E+00 -0.45593999997E+02  0.45594000000E+02  0.51100000000E-03 0. -1.
    9900012    2    1    2    0    0 -0.36327810812E+02 -0.51542621685E+01  0.26131153801E+02  0.46142318122E+02  0.10000003292E+02 0.  0.
         12    1    1    2    0    0  0.36327810812E+02  0.51542621685E+01 -0.26131153801E+02  0.45045681878E+02  0.00000000000E+00 0. -1.
         11    1    3    3    0    0 -0.30505222419E+02 -0.43233181195E+01  0.20434226096E+02  0.36970491893E+02  0.51100000000E-03 0. -1.
        -11    1    3    3    0    0 -0.29518605869E+01 -0.24637725926E+01  0.35465991370E+01  0.52308720126E+01  0.51100000000E-03 0.  1.
         12    1    3    3    0    0 -0.28707278058E+01  0.16328285437E+01  0.21503285675E+01  0.39409542165E+01  0.00000000000E+00 0. -1.
</event>
<event>
 7    1  0.2323330E-008  0.4614232E+02  0.7816164E-02  0.1320468E+00
        -11   -1    0    0    0    0  0.00000000000E+00  0.00000000000E+00  0.45593999997E+02  0.45594000000E+02  0.51100000000E-03 0. -1.
         11   -1    0    0    0    0 -0.00000000000E+00 -0.00000000000E+00 -0.45593999997E+02  0.45594000000E+02  0.51100000000E-03 0.  1.
    9900012    2    1    2    0    0  0.31535147212E+02  0.12246024509E+02 -0.29743618491E+02  0.46142318000E+02  0.10000002175E+02 0.  0.
         12    1    1    2    0    0 -0.31535147212E+02 -0.12246024509E+02  0.29743618491E+02  0.45045682000E+02  0.00000000000E+00 0. -1.
         11    1    3    3    0    0  0.35368837754E+01  0.30752135236E+01 -0.32815691729E+01  0.57214667310E+01  0.51100000000E-03 0. -1.
        -11    1    3    3    0    0  0.19896608264E+02  0.84660030149E+01 -0.14797907353E+02  0.26201646699E+02  0.51100000000E-03 0.  1.
         12    1    3    3    0    0  0.81016551726E+01  0.70480797049E+00 -0.11664141965E+02  0.14219204569E+02  0.00000000000E+00 0. -1.
</event>
<event>
 7    1  0.2323330E-008  0.4614232E+02  0.7816164E-02  0.1320468E+00
        -11   -1    0    0    0    0  0.00000000000E+00  0.00000000000E+00  0.45593999997E+02  0.45594000000E+02  0.51100000000E-03 0.  1.
         11   -1    0    0    0    0 -0.00000000000E+00 -0.00000000000E+00 -0.45593999997E+02  0.45594000000E+02  0.51100000000E-03 0. -1.
    9900012    2    1    2    0    0 -0.60906240927E+01  0.40322103559E+02  0.19134936147E+02  0.46142317425E+02  0.99999969371E+01 0.  0.
         12    1    1    2    0    0  0.60906240927E+01 -0.40322103559E+02 -0.19134936147E+02  0.45045682575E+02  0.00000000000E+00 0. -1.
         11    1    3    3    0    0 -0.12671683209E+00  0.55142562971E+01  0.16689786272E+01  0.57626877049E+01  0.51100000000E-03 0. -1.
        -11    1    3    3    0    0 -0.55974455950E+00  0.14000796895E+02  0.26217595364E+01  0.14255148228E+02  0.51100000000E-03 0.  1.
        -12    1    3    3    0    0 -0.54041627011E+01  0.20807050367E+02  0.14844197983E+02  0.26124481492E+02  0.00000000000E+00 0.  1.
</event>
<event>
 7    1  0.2323330E-008  0.4614232E+02  0.7816164E-02  0.1320468E+00
        -11   -1    0    0    0    0  0.00000000000E+00  0.00000000000E+00  0.45593999997E+02  0.45594000000E+02  0.51100000000E-03 0.  1.
         11   -1    0    0    0    0 -0.00000000000E+00 -0.00000000000E+00 -0.45593999997E+02  0.45594000000E+02  0.51100000000E-03 0. -1.
    9900012    2    1    2    0    0 -0.19458115625E+02 -0.40217096325E+02  0.57515677959E+01  0.46142316160E+02  0.99999854000E+01 0.  0.
         12    1    1    2    0    0  0.19458115625E+02  0.40217096325E+02 -0.57515677959E+01  0.45045683840E+02  0.00000000000E+00 0. -1.
         11    1    3    3    0    0 -0.60332586179E+01 -0.10528561049E+02 -0.16461334051E+01  0.12245838590E+02  0.51100000000E-03 0.  1.
        -11    1    3    3    0    0 -0.24462898393E+01 -0.71435948874E+01  0.41356789490E+01  0.86092463389E+01  0.51100000000E-03 0. -1.
         12    1    3    3    0    0 -0.10978567168E+02 -0.22544940388E+02  0.32620222520E+01  0.25287231231E+02  0.00000000000E+00 0. -1.
</event>
<event>
 7    1  0.2323330E-008  0.4614232E+02  0.7816164E-02  0.1320468E+00
        -11   -1    0    0    0    0  0.00000000000E+00  0.00000000000E+00  0.45593999997E+02  0.45594000000E+02  0.51100000000E-03 0.  1.
         11   -1    0    0    0    0 -0.00000000000E+00 -0.00000000000E+00 -0.45593999997E+02  0.45594000000E+02  0.51100000000E-03 0. -1.
    9900012    2    1    2    0    0 -0.77602678380E+01  0.90367467365E+01  0.43442247292E+02  0.46142318761E+02  0.10000009117E+02 0.  0.
         12    1    1    2    0    0  0.77602678380E+01 -0.90367467365E+01 -0.43442247292E+02  0.45045681239E+02  0.00000000000E+00 0. -1.
         11    1    3    3    0    0 -0.32086498017E+01  0.62990877693E+01  0.24853866397E+02  0.25839671349E+02  0.51100000000E-03 0. -1.
        -11    1    3    3    0    0 -0.60562506314E+01  0.27710968010E+01  0.15181303963E+02  0.16577971512E+02  0.51100000000E-03 0.  1.
         12    1    3    3    0    0  0.15046325951E+01 -0.33437833686E-01  0.34070769320E+01  0.37246758994E+01  0.00000000000E+00 0. -1.
</event>
<event>
 7    1  0.2323330E-008  0.4614232E+02  0.7816164E-02  0.1320468E+00
        -11   -1    0    0    0    0  0.00000000000E+00  0.00000000000E+00  0.45593999997E+02  0.45594000000E+02  0.51100000000E-03 0.  1.
         11   -1    0    0    0    0 -0.00000000000E+00 -0.00000000000E+00 -0.45593999997E+02  0.45594000000E+02  0.51100000000E-03 0. -1.
    9900012    2    1    2    0    0  0.41514835003E+01  0.36812363484E+02  0.25626715581E+02  0.46142317943E+02  0.10000001655E+02 0.  0.
         12    1    1    2    0    0 -0.41514835003E+01 -0.36812363484E+02 -0.25626715581E+02  0.45045682057E+02  0.00000000000E+00 0. -1.
         11    1    3    3    0    0 -0.11064771371E+01  0.13575270205E+02  0.10046249655E+02  0.16924520235E+02  0.51100000000E-03 0. -1.
        -11    1    3    3    0    0  0.36980530464E+00  0.11884445305E+02  0.10469217532E+02  0.15842389723E+02  0.51100000000E-03 0.  1.
         12    1    3    3    0    0  0.48881553328E+01  0.11352647975E+02  0.51112483941E+01  0.13375407985E+02  0.00000000000E+00 0. -1.
</event>
<event>
 7    1  0.2323330E-008  0.4614232E+02  0.7816164E-02  0.1320468E+00
        -11   -1    0    0    0    0  0.00000000000E+00  0.00000000000E+00  0.45593999997E+02  0.45594000000E+02  0.51100000000E-03 0.  1.
         11   -1    0    0    0    0 -0.00000000000E+00 -0.00000000000E+00 -0.45593999997E+02  0.45594000000E+02  0.51100000000E-03 0. -1.
    9900012    2    1    2    0    0 -0.26950741155E+02 -0.17628759175E+01  0.36050841689E+02  0.46142319110E+02  0.10000012304E+02 0.  0.
         12    1    1    2    0    0  0.26950741155E+02  0.17628759175E+01 -0.36050841689E+02  0.45045680890E+02  0.00000000000E+00 0. -1.
         11    1    3    3    0    0 -0.70853180978E+01 -0.31584658399E+01  0.78451257154E+01  0.11032843548E+02  0.51100000000E-03 0. -1.
        -11    1    3    3    0    0 -0.11818975797E+02  0.33960119922E+01  0.19760486468E+02  0.23274404655E+02  0.51100000000E-03 0.  1.
         12    1    3    3    0    0 -0.80464472601E+01 -0.20004220699E+01  0.84452295062E+01  0.11835070907E+02  0.00000000000E+00 0. -1.
</event>
<event>
 7    1  0.2323330E-008  0.4614232E+02  0.7816164E-02  0.1320468E+00
        -11   -1    0    0    0    0  0.00000000000E+00  0.00000000000E+00  0.45593999997E+02  0.45594000000E+02  0.51100000000E-03 0.  1.
         11   -1    0    0    0    0 -0.00000000000E+00 -0.00000000000E+00 -0.45593999997E+02  0.45594000000E+02  0.51100000000E-03 0. -1.
    9900012    2    1    2    0    0 -0.90126746855E+01 -0.33092003707E+02  0.29202817319E+02  0.46142317036E+02  0.99999933863E+01 0.  0.
         12    1    1    2    0    0  0.90126746855E+01  0.33092003707E+02 -0.29202817319E+02  0.45045682964E+02  0.00000000000E+00 0. -1.
         11    1    3    3    0    0 -0.19903650127E+01 -0.18377899181E+01  0.31943075363E+01  0.41883917634E+01  0.51100000000E-03 0. -1.
        -11    1    3    3    0    0 -0.74339127942E+01 -0.16314846179E+02  0.15281976443E+02  0.23557930078E+02  0.51100000000E-03 0.  1.
        -12    1    3    3    0    0  0.41160312135E+00 -0.14939367610E+02  0.10726533340E+02  0.18395995195E+02  0.00000000000E+00 0.  1.
</event>
<event>
 7    1  0.2323330E-008  0.4614232E+02  0.7816164E-02  0.1320468E+00
        -11   -1    0    0    0    0  0.00000000000E+00  0.00000000000E+00  0.45593999997E+02  0.45594000000E+02  0.51100000000E-03 0.  1.
         11   -1    0    0    0    0 -0.00000000000E+00 -0.00000000000E+00 -0.45593999997E+02  0.45594000000E+02  0.51100000000E-03 0. -1.
    9900012    2    1    2    0    0 -0.29486202065E+02  0.10264965387E+02  0.32470106749E+02  0.46142318088E+02  0.10000002981E+02 0.  0.
         12    1    1    2    0    0  0.29486202065E+02 -0.10264965387E+02 -0.32470106749E+02  0.45045681912E+02  0.00000000000E+00 0. -1.
         11    1    3    3    0    0 -0.44777402515E+01  0.34377625231E+01  0.66959571407E+01  0.87580940402E+01  0.51100000000E-03 0. -1.
        -11    1    3    3    0    0 -0.13164932399E+01  0.24576983783E+01  0.14255434821E+01  0.31313911046E+01  0.51100000000E-03 0.  1.
         12    1    3    3    0    0 -0.23691968573E+02  0.43695044851E+01  0.24348606127E+02  0.34252832943E+02  0.00000000000E+00 0. -1.
</event>
<event>
 7    1  0.2323330E-008  0.4614231E+02  0.7816164E-02  0.1320468E+00
        -11   -1    0    0    0    0  0.00000000000E+00  0.00000000000E+00  0.45593999997E+02  0.45594000000E+02  0.51100000000E-03 0.  1.
         11   -1    0    0    0    0 -0.00000000000E+00 -0.00000000000E+00 -0.45593999997E+02  0.45594000000E+02  0.51100000000E-03 0. -1.
    9900012    2    1    2    0    0  0.57895304395E+01 -0.13744239044E+02  0.42505192478E+02  0.46142310337E+02  0.99999322995E+01 0.  0.
         12    1    1    2    0    0 -0.57895304395E+01  0.13744239044E+02 -0.42505192478E+02  0.45045689663E+02  0.00000000000E+00 0. -1.
         11    1    3    3    0    0  0.28994116063E+01 -0.15213877416E+00  0.39182489188E+01  0.48767211034E+01  0.51100000000E-03 0. -1.
        -11    1    3    3    0    0  0.30709282864E+01 -0.69257240046E+01  0.25124992921E+02  0.26242361233E+02  0.51100000000E-03 0.  1.
         12    1    3    3    0    0 -0.18080945319E+00 -0.66663762651E+01  0.13461950639E+02  0.15023228001E+02  0.00000000000E+00 0. -1.
</event>
<event>
 7    1  0.2323330E-008  0.4614232E+02  0.7816164E-02  0.1320468E+00
        -11   -1    0    0    0    0  0.00000000000E+00  0.00000000000E+00  0.45593999997E+02  0.45594000000E+02  0.51100000000E-03 0.  1.
         11   -1    0    0    0    0 -0.00000000000E+00 -0.00000000000E+00 -0.45593999997E+02  0.45594000000E+02  0.51100000000E-03 0. -1.
    9900012    2    1    2    0    0  0.33039034662E+02  0.19558691581E+02  0.23558295279E+02  0.46142317585E+02  0.99999983985E+01 0.  0.
         12    1    1    2    0    0 -0.33039034662E+02 -0.19558691581E+02 -0.23558295279E+02  0.45045682415E+02  0.00000000000E+00 0. -1.
         11    1    3    3    0    0  0.27238527676E+01  0.51704489796E+00  0.37812215357E+00  0.27981575993E+01  0.51100000000E-03 0. -1.
        -11    1    3    3    0    0  0.26622488950E+02  0.13834782134E+02  0.20905062325E+02  0.36567468406E+02  0.51100000000E-03 0.  1.
        -12    1    3    3    0    0  0.36926929442E+01  0.52068645492E+01  0.22751108003E+01  0.67766915798E+01  0.00000000000E+00 0.  1.
</event>
<event>
 7    1  0.2323330E-008  0.4614232E+02  0.7816164E-02  0.1320468E+00
        -11   -1    0    0    0    0  0.00000000000E+00  0.00000000000E+00  0.45593999997E+02  0.45594000000E+02  0.51100000000E-03 0. -1.
         11   -1    0    0    0    0 -0.00000000000E+00 -0.00000000000E+00 -0.45593999997E+02  0.45594000000E+02  0.51100000000E-03 0.  1.
    9900012    2    1    2    0    0 -0.37372807464E+02  0.24903463125E+01 -0.25023684412E+02  0.46142319363E+02  0.10000014606E+02 0.  0.
         12    1    1    2    0    0  0.37372807464E+02 -0.24903463125E+01  0.25023684412E+02  0.45045680637E+02  0.00000000000E+00 0. -1.
         11    1    3    3    0    0 -0.10003326549E+02  0.19080555482E+01 -0.10481598671E+02  0.14614072977E+02  0.51100000000E-03 0. -1.
        -11    1    3    3    0    0 -0.15757745803E+02  0.23297655550E+01 -0.10634195269E+02  0.19152557783E+02  0.51100000000E-03 0.  1.
        -12    1    3    3    0    0 -0.11611735112E+02 -0.17474747907E+01 -0.39078904718E+01  0.12375688603E+02  0.00000000000E+00 0.  1.
</event>
<event>
 7    1  0.2323330E-008  0.4614232E+02  0.7816164E-02  0.1320468E+00
        -11   -1    0    0    0    0  0.00000000000E+00  0.00000000000E+00  0.45593999997E+02  0.45594000000E+02  0.51100000000E-03 0. -1.
         11   -1    0    0    0    0 -0.00000000000E+00 -0.00000000000E+00 -0.45593999997E+02  0.45594000000E+02  0.51100000000E-03 0.  1.
    9900012    2    1    2    0    0  0.29138073316E-01  0.45003563084E+02 -0.19472744891E+01  0.46142318551E+02  0.10000007202E+02 0.  0.
         12    1    1    2    0    0 -0.29138073316E-01 -0.45003563084E+02  0.19472744891E+01  0.45045681449E+02  0.00000000000E+00 0. -1.
         11    1    3    3    0    0  0.65142479430E+00  0.53415140783E+01  0.15062184706E+01  0.55879174344E+01  0.51100000000E-03 0. -1.
        -11    1    3    3    0    0 -0.15897539951E+01  0.17581786521E+02 -0.51459717836E+01  0.18388245183E+02  0.51100000000E-03 0.  1.
        -12    1    3    3    0    0  0.96746727414E+00  0.22080262484E+02  0.16924788238E+01  0.22166155934E+02  0.00000000000E+00 0.  1.
</event>
<event>
 7    1  0.2323330E-008  0.4614232E+02  0.7816164E-02  0.1320468E+00
        -11   -1    0    0    0    0  0.00000000000E+00  0.00000000000E+00  0.45593999997E+02  0.45594000000E+02  0.51100000000E-03 0.  1.
         11   -1    0    0    0    0 -0.00000000000E+00 -0.00000000000E+00 -0.45593999997E+02  0.45594000000E+02  0.51100000000E-03 0. -1.
    9900012    2    1    2    0    0 -0.22758150545E+02  0.27650470038E+02  0.27324560015E+02  0.46142317748E+02  0.99999998769E+01 0.  0.
         12    1    1    2    0    0  0.22758150545E+02 -0.27650470038E+02 -0.27324560015E+02  0.45045682252E+02  0.00000000000E+00 0. -1.
         11    1    3    3    0    0 -0.19853793165E+01  0.50005830376E+01  0.96293489987E+00  0.54657849966E+01  0.51100000000E-03 0. -1.
        -11    1    3    3    0    0 -0.90625022541E+01  0.87597562977E+01  0.85237990441E+01  0.15215696760E+02  0.51100000000E-03 0.  1.
        -12    1    3    3    0    0 -0.11710268974E+02  0.13890130703E+02  0.17837826071E+02  0.25460835991E+02  0.00000000000E+00 0.  1.
</event>
<event>
 7    1  0.2323330E-008  0.4614232E+02  0.7816164E-02  0.1320468E+00
        -11   -1    0    0    0    0  0.00000000000E+00  0.00000000000E+00  0.45593999997E+02  0.45594000000E+02  0.51100000000E-03 0.  1.
         11   -1    0    0    0    0 -0.00000000000E+00 -0.00000000000E+00 -0.45593999997E+02  0.45594000000E+02  0.51100000000E-03 0. -1.
    9900012    2    1    2    0    0  0.37197482215E+02  0.25219796999E+02 -0.30695579740E+01  0.46142322849E+02  0.10000046398E+02 0.  0.
         12    1    1    2    0    0 -0.37197482215E+02 -0.25219796999E+02  0.30695579740E+01  0.45045677151E+02  0.00000000000E+00 0. -1.
         11    1    3    3    0    0  0.19643109836E+02  0.10103919861E+02 -0.70919356023E+00  0.22100767325E+02  0.51100000000E-03 0. -1.
        -11    1    3    3    0    0  0.11111685028E+02  0.89240446373E+01  0.14543958421E+01  0.14325619860E+02  0.51100000000E-03 0.  1.
        -12    1    3    3    0    0  0.64426873510E+01  0.61918325005E+01 -0.38147602558E+01  0.97159356640E+01  0.00000000000E+00 0.  1.
</event>
<event>
 7    1  0.2323330E-008  0.4614232E+02  0.7816164E-02  0.1320468E+00
        -11   -1    0    0    0    0  0.00000000000E+00  0.00000000000E+00  0.45593999997E+02  0.45594000000E+02  0.51100000000E-03 0. -1.
         11   -1    0    0    0    0 -0.00000000000E+00 -0.00000000000E+00 -0.45593999997E+02  0.45594000000E+02  0.51100000000E-03 0.  1.
    9900012    2    1    2    0    0  0.39520821346E+02 -0.20881591929E+01 -0.21514129210E+02  0.46142317806E+02  0.10000000409E+02 0.  0.
         12    1    1    2    0    0 -0.39520821346E+02  0.20881591929E+01  0.21514129210E+02  0.45045682194E+02  0.00000000000E+00 0. -1.
         11    1    3    3    0    0  0.11771728478E+02  0.34840995106E+01 -0.70514584732E+01  0.14157528302E+02  0.51100000000E-03 0. -1.
        -11    1    3    3    0    0  0.59216488352E+00 -0.66522108378E+00 -0.77257004866E+00  0.11790008824E+01  0.51100000000E-03 0.  1.
        -12    1    3    3    0    0  0.27156927985E+02 -0.49070376197E+01 -0.13690100688E+02  0.30805788622E+02  0.00000000000E+00 0.  1.
</event>
<event>
 7    1  0.2323330E-008  0.4614231E+02  0.7816164E-02  0.1320468E+00
        -11   -1    0    0    0    0  0.00000000000E+00  0.00000000000E+00  0.45593999997E+02  0.45594000000E+02  0.51100000000E-03 0. -1.
         11   -1    0    0    0    0 -0.00000000000E+00 -0.00000000000E+00 -0.45593999997E+02  0.45594000000E+02  0.51100000000E-03 0.  1.
    9900012    2    1    2    0    0 -0.41540196048E+02 -0.17421228845E+02  0.16322791194E+00  0.46142314907E+02  0.99999739738E+01 0.  0.
         12    1    1    2    0    0  0.41540196048E+02  0.17421228845E+02 -0.16322791194E+00  0.45045685093E+02  0.00000000000E+00 0. -1.
         11    1    3    3    0    0 -0.12326345691E+02 -0.22649003913E+01 -0.15834372306E+00  0.12533700366E+02  0.51100000000E-03 0. -1.
        -11    1    3    3    0    0 -0.58192602295E+01 -0.56241262530E+01 -0.16871199423E+01  0.82668591187E+01  0.51100000000E-03 0.  1.
         12    1    3    3    0    0 -0.23394590127E+02 -0.95322022007E+01  0.20086915773E+01  0.25341755422E+02  0.00000000000E+00 0. -1.
</event>
<event>
 7    1  0.2323330E-008  0.4614232E+02  0.7816164E-02  0.1320468E+00
        -11   -1    0    0    0    0  0.00000000000E+00  0.00000000000E+00  0.45593999997E+02  0.45594000000E+02  0.51100000000E-03 0. -1.
         11   -1    0    0    0    0 -0.00000000000E+00 -0.00000000000E+00 -0.45593999997E+02  0.45594000000E+02  0.51100000000E-03 0.  1.
    9900012    2    1    2    0    0 -0.14256880840E+02 -0.12095815121E+02 -0.40982262520E+02  0.46142320562E+02  0.10000025541E+02 0.  0.
         12    1    1    2    0    0  0.14256880840E+02  0.12095815121E+02  0.40982262520E+02  0.45045679438E+02  0.00000000000E+00 0. -1.
         11    1    3    3    0    0 -0.37636599522E+01  0.22425406397E+00 -0.55116674737E+01  0.66778667793E+01  0.51100000000E-03 0. -1.
        -11    1    3    3    0    0 -0.27377113722E+01 -0.65685605405E+01 -0.10426170318E+02  0.12623235674E+02  0.51100000000E-03 0.  1.
         12    1    3    3    0    0 -0.77555095155E+01 -0.57515086449E+01 -0.25044424729E+02  0.26841218109E+02  0.00000000000E+00 0. -1.
</event>
<event>
 7    1  0.2323330E-008  0.4614232E+02  0.7816164E-02  0.1320468E+00
        -11   -1    0    0    0    0  0.00000000000E+00  0.00000000000E+00  0.45593999997E+02  0.45594000000E+02  0.51100000000E-03 0. -1.
         11   -1    0    0    0    0 -0.00000000000E+00 -0.00000000000E+00 -0.45593999997E+02  0.45594000000E+02  0.51100000000E-03 0.  1.
    9900012    2    1    2    0    0  0.24660362270E+02 -0.37386157523E+02 -0.48223728571E+01  0.46142317392E+02  0.99999966380E+01 0.  0.
         12    1    1    2    0    0 -0.24660362270E+02  0.37386157523E+02  0.48223728571E+01  0.45045682608E+02  0.00000000000E+00 0. -1.
         11    1    3    3    0    0  0.58813780095E+01 -0.96181708707E+01 -0.35259174877E+01  0.11812362701E+02  0.51100000000E-03 0.  1.
        -11    1    3    3    0    0  0.14593468607E+02 -0.18202900122E+02 -0.36841650248E+01  0.23619652220E+02  0.51100000000E-03 0. -1.
        -12    1    3    3    0    0  0.41855156533E+01 -0.95650865305E+01  0.23877096554E+01  0.10710302471E+02  0.00000000000E+00 0.  1.
</event>
<event>
 7    1  0.2323330E-008  0.4614232E+02  0.7816164E-02  0.1320468E+00
        -11   -1    0    0    0    0  0.00000000000E+00  0.00000000000E+00  0.45593999997E+02  0.45594000000E+02  0.51100000000E-03 0.  1.
         11   -1    0    0    0    0 -0.00000000000E+00 -0.00000000000E+00 -0.45593999997E+02  0.45594000000E+02  0.51100000000E-03 0. -1.
    9900012    2    1    2    0    0 -0.28635787602E+02 -0.25816191812E+02  0.23294407406E+02  0.46142317547E+02  0.99999980440E+01 0.  0.
         12    1    1    2    0    0  0.28635787602E+02  0.25816191812E+02 -0.23294407406E+02  0.45045682453E+02  0.00000000000E+00 0. -1.
         11    1    3    3    0    0 -0.55738416830E+01 -0.25016768012E+01  0.22879626772E+01  0.65238693579E+01  0.51100000000E-03 0.  1.
        -11    1    3    3    0    0 -0.18898948117E+02 -0.21656392536E+02  0.20025495266E+02  0.35031272294E+02  0.51100000000E-03 0. -1.
         12    1    3    3    0    0 -0.41629978021E+01 -0.16581224753E+01  0.98094946265E+00  0.45871758950E+01  0.00000000000E+00 0. -1.
</event>
<event>
 7    1  0.2323330E-008  0.4614232E+02  0.7816164E-02  0.1320468E+00
        -11   -1    0    0    0    0  0.00000000000E+00  0.00000000000E+00  0.45593999997E+02  0.45594000000E+02  0.51100000000E-03 0. -1.
         11   -1    0    0    0    0 -0.00000000000E+00 -0.00000000000E+00 -0.45593999997E+02  0.45594000000E+02  0.51100000000E-03 0.  1.
    9900012    2    1    2    0    0  0.22588433543E+02  0.21932548147E+02 -0.32215516222E+02  0.46142317814E+02  0.10000000481E+02 0.  0.
         12    1    1    2    0    0 -0.22588433543E+02 -0.21932548147E+02  0.32215516222E+02  0.45045682186E+02  0.00000000000E+00 0. -1.
         11    1    3    3    0    0  0.99985696821E+00  0.28237961438E+01 -0.34042315615E+01  0.45345706968E+01  0.51100000000E-03 0. -1.
        -11    1    3    3    0    0  0.19015367010E+01  0.34440238648E+01 -0.90889811442E+00  0.40377268667E+01  0.51100000000E-03 0.  1.
        -12    1    3    3    0    0  0.19687039874E+02  0.15664728139E+02 -0.27902386546E+02  0.37570020250E+02  0.00000000000E+00 0.  1.
</event>
<event>
 7    1  0.2323330E-008  0.4614232E+02  0.7816164E-02  0.1320468E+00
        -11   -1    0    0    0    0  0.00000000000E+00  0.00000000000E+00  0.45593999997E+02  0.45594000000E+02  0.51100000000E-03 0.  1.
         11   -1    0    0    0    0 -0.00000000000E+00 -0.00000000000E+00 -0.45593999997E+02  0.45594000000E+02  0.51100000000E-03 0. -1.
    9900012    2    1    2    0    0  0.39006780893E+02 -0.17990647574E+02  0.13561752606E+02  0.46142317749E+02  0.99999998855E+01 0.  0.
         12    1    1    2    0    0 -0.39006780893E+02  0.17990647574E+02 -0.13561752606E+02  0.45045682251E+02  0.00000000000E+00 0. -1.
         11    1    3    3    0    0  0.15881578721E+02 -0.70710262387E+01  0.61464154019E+01  0.18439153378E+02  0.51100000000E-03 0.  1.
        -11    1    3    3    0    0  0.20924537740E+02 -0.10602154139E+02  0.42565435065E+01  0.23840304421E+02  0.51100000000E-03 0. -1.
         12    1    3    3    0    0  0.22006644318E+01 -0.31746719631E+00  0.31587936980E+01  0.38628599494E+01  0.00000000000E+00 0. -1.
</event>
<event>
 7    1  0.2323330E-008  0.4614232E+02  0.7816164E-02  0.1320468E+00
        -11   -1    0    0    0    0  0.00000000000E+00  0.00000000000E+00  0.45593999997E+02  0.45594000000E+02  0.51100000000E-03 0. -1.
         11   -1    0    0    0    0 -0.00000000000E+00 -0.00000000000E+00 -0.45593999997E+02  0.45594000000E+02  0.51100000000E-03 0.  1.
    9900012    2    1    2    0    0 -0.81434039405E+01  0.24092727126E+02 -0.37179819443E+02  0.46142317610E+02  0.99999986242E+01 0.  0.
         12    1    1    2    0    0  0.81434039405E+01 -0.24092727126E+02  0.37179819443E+02  0.45045682390E+02  0.00000000000E+00 0. -1.
         11    1    3    3    0    0 -0.49673093233E+01  0.10027852076E+02 -0.19248524712E+02  0.22265167483E+02  0.51100000000E-03 0. -1.
        -11    1    3    3    0    0 -0.18750078797E+01  0.21046341120E+01 -0.72882099155E+01  0.78142909677E+01  0.51100000000E-03 0.  1.
         12    1    3    3    0    0 -0.13010867374E+01  0.11960240938E+02 -0.10643084816E+02  0.16062859160E+02  0.00000000000E+00 0. -1.
</event>
<event>
 7    1  0.2323330E-008  0.4614232E+02  0.7816164E-02  0.1320468E+00
        -11   -1    0    0    0    0  0.00000000000E+00  0.00000000000E+00  0.45593999997E+02  0.45594000000E+02  0.51100000000E-03 0. -1.
         11   -1    0    0    0    0 -0.00000000000E+00 -0.00000000000E+00 -0.45593999997E+02  0.45594000000E+02  0.51100000000E-03 0.  1.
    9900012    2    1    2    0    0  0.34173419152E+02  0.15569001056E+01 -0.29306435173E+02  0.46142315889E+02  0.99999829271E+01 0.  0.
         12    1    1    2    0    0 -0.34173419152E+02 -0.15569001056E+01  0.29306435173E+02  0.45045684111E+02  0.00000000000E+00 0. -1.
         11    1    3    3    0    0  0.19528950355E+02  0.30738145781E+01 -0.13649587763E+02  0.24023727529E+02  0.51100000000E-03 0. -1.
        -11    1    3    3    0    0  0.25884045823E+01 -0.98262708074E+00 -0.61886020882E+01  0.67796895452E+01  0.51100000000E-03 0.  1.
        -12    1    3    3    0    0  0.12056064215E+02 -0.53428739178E+00 -0.94682453225E+01  0.15338898815E+02  0.00000000000E+00 0.  1.
</event>
<event>
 7    1  0.2323330E-008  0.4614232E+02  0.7816164E-02  0.1320468E+00
        -11   -1    0    0    0    0  0.00000000000E+00  0.00000000000E+00  0.45593999997E+02  0.45594000000E+02  0.51100000000E-03 0.  1.
         11   -1    0    0    0    0 -0.00000000000E+00 -0.00000000000E+00 -0.45593999997E+02  0.45594000000E+02  0.51100000000E-03 0. -1.
    9900012    2    1    2    0    0  0.31796240989E+01 -0.11827071330E+02  0.43348862175E+02  0.46142317882E+02  0.10000001100E+02 0.  0.
         12    1    1    2    0    0 -0.31796240989E+01  0.11827071330E+02 -0.43348862175E+02  0.45045682118E+02  0.00000000000E+00 0. -1.
         11    1    3    3    0    0  0.56794335511E+00 -0.18331405069E+01  0.67144573351E+01  0.69833302470E+01  0.51100000000E-03 0. -1.
        -11    1    3    3    0    0 -0.56062309636E+00 -0.10587879878E+02  0.27755931083E+02  0.29712105431E+02  0.51100000000E-03 0.  1.
         12    1    3    3    0    0  0.31723038401E+01  0.59394905500E+00  0.88784737564E+01  0.94468822040E+01  0.00000000000E+00 0. -1.
</event>
<event>
 7    1  0.2323330E-008  0.4614232E+02  0.7816164E-02  0.1320468E+00
        -11   -1    0    0    0    0  0.00000000000E+00  0.00000000000E+00  0.45593999997E+02  0.45594000000E+02  0.51100000000E-03 0.  1.
         11   -1    0    0    0    0 -0.00000000000E+00 -0.00000000000E+00 -0.45593999997E+02  0.45594000000E+02  0.51100000000E-03 0. -1.
    9900012    2    1    2    0    0 -0.15326952753E+02  0.49751657989E+00  0.42355052820E+02  0.46142317601E+02  0.99999985379E+01 0.  0.
         12    1    1    2    0    0  0.15326952753E+02 -0.49751657989E+00 -0.42355052820E+02  0.45045682399E+02  0.00000000000E+00 0. -1.
         11    1    3    3    0    0 -0.22656345697E+01 -0.35955712192E+01  0.98574827521E+01  0.10734579585E+02  0.51100000000E-03 0. -1.
        -11    1    3    3    0    0 -0.14854904625E+01 -0.33065380707E+00  0.54116130931E+01  0.56215274068E+01  0.51100000000E-03 0.  1.
        -12    1    3    3    0    0 -0.11575827721E+02  0.44237416061E+01  0.27085956975E+02  0.29786210609E+02  0.00000000000E+00 0.  1.
</event>
<event>
 7    1  0.2323330E-008  0.4614232E+02  0.7816164E-02  0.1320468E+00
        -11   -1    0    0    0    0  0.00000000000E+00  0.00000000000E+00  0.45593999997E+02  0.45594000000E+02  0.51100000000E-03 0.  1.
         11   -1    0    0    0    0 -0.00000000000E+00 -0.00000000000E+00 -0.45593999997E+02  0.45594000000E+02  0.51100000000E-03 0. -1.
    9900012    2    1    2    0    0  0.95213605191E+01  0.17186680801E+02  0.40534864509E+02  0.46142317145E+02  0.99999943856E+01 0.  0.
         12    1    1    2    0    0 -0.95213605191E+01 -0.17186680801E+02 -0.40534864509E+02  0.45045682855E+02  0.00000000000E+00 0. -1.
         11    1    3    3    0    0  0.73651582861E+01  0.10902775099E+02  0.32070708391E+02  0.34664771720E+02  0.51100000000E-03 0. -1.
        -11    1    3    3    0    0 -0.74761752590E+00  0.36427588587E+01  0.50748800003E+01  0.62915046965E+01  0.51100000000E-03 0.  1.
         12    1    3    3    0    0  0.29038197589E+01  0.26411468442E+01  0.33892761175E+01  0.51860407293E+01  0.00000000000E+00 0. -1.
</event>
<event>
 7    1  0.2323330E-008  0.4614232E+02  0.7816164E-02  0.1320468E+00
        -11   -1    0    0    0    0  0.00000000000E+00  0.00000000000E+00  0.45593999997E+02  0.45594000000E+02  0.51100000000E-03 0.  1.
         11   -1    0    0    0    0 -0.00000000000E+00 -0.00000000000E+00 -0.45593999997E+02  0.45594000000E+02  0.51100000000E-03 0. -1.
    9900012    2    1    2    0    0  0.18405465337E+02  0.31042850263E+02  0.26957260019E+02  0.46142316806E+02  0.99999912869E+01 0.  0.
         12    1    1    2    0    0 -0.18405465337E+02 -0.31042850263E+02 -0.26957260019E+02  0.45045683194E+02  0.00000000000E+00 0. -1.
         11    1    3    3    0    0  0.58811415331E+01  0.32245515478E+01  0.61107306625E+01  0.90734000191E+01  0.51100000000E-03 0. -1.
        -11    1    3    3    0    0  0.36543582109E+01  0.53239513783E+01  0.48605055672E+01  0.80822835166E+01  0.51100000000E-03 0.  1.
        -12    1    3    3    0    0  0.88699655932E+01  0.22494347337E+02  0.15986023789E+02  0.28986633270E+02  0.00000000000E+00 0.  1.
</event>
<event>
 7    1  0.2323330E-008  0.4614232E+02  0.7816164E-02  0.1320468E+00
        -11   -1    0    0    0    0  0.00000000000E+00  0.00000000000E+00  0.45593999997E+02  0.45594000000E+02  0.51100000000E-03 0.  1.
         11   -1    0    0    0    0 -0.00000000000E+00 -0.00000000000E+00 -0.45593999997E+02  0.45594000000E+02  0.51100000000E-03 0. -1.
    9900012    2    1    2    0    0  0.10766939222E+02 -0.12787546885E+02  0.41828997459E+02  0.46142319142E+02  0.10000012588E+02 0.  0.
         12    1    1    2    0    0 -0.10766939222E+02  0.12787546885E+02 -0.41828997459E+02  0.45045680858E+02  0.00000000000E+00 0. -1.
         11    1    3    3    0    0 -0.61243651672E+00 -0.43307778742E+01  0.11420140107E+02  0.12229076654E+02  0.51100000000E-03 0. -1.
        -11    1    3    3    0    0  0.65231170540E+01 -0.24503165799E+01  0.10969676806E+02  0.12995726872E+02  0.51100000000E-03 0.  1.
         12    1    3    3    0    0  0.48562586847E+01 -0.60064524306E+01  0.19439180547E+02  0.20917515616E+02  0.00000000000E+00 0. -1.
</event>
<event>
 7    1  0.2323330E-008  0.4614232E+02  0.7816164E-02  0.1320468E+00
        -11   -1    0    0    0    0  0.00000000000E+00  0.00000000000E+00  0.45593999997E+02  0.45594000000E+02  0.51100000000E-03 0.  1.
         11   -1    0    0    0    0 -0.00000000000E+00 -0.00000000000E+00 -0.45593999997E+02  0.45594000000E+02  0.51100000000E-03 0. -1.
    9900012    2    1    2    0    0  0.23033412508E+02  0.38593082284E+02 -0.30248087762E+01  0.46142316965E+02  0.99999927394E+01 0.  0.
         12    1    1    2    0    0 -0.23033412508E+02 -0.38593082284E+02  0.30248087762E+01  0.45045683035E+02  0.00000000000E+00 0. -1.
         11    1    3    3    0    0  0.13835026559E+01  0.44485615129E+01  0.60095636594E+00  0.46973320031E+01  0.51100000000E-03 0. -1.
        -11    1    3    3    0    0  0.12906127248E+01  0.60880078068E+01 -0.26558620715E+01  0.67663227728E+01  0.51100000000E-03 0.  1.
        -12    1    3    3    0    0  0.20359297127E+02  0.28056512965E+02 -0.96990307059E+00  0.34678662189E+02  0.00000000000E+00 0.  1.
</event>
<event>
 7    1  0.2323330E-008  0.4614232E+02  0.7816164E-02  0.1320468E+00
        -11   -1    0    0    0    0  0.00000000000E+00  0.00000000000E+00  0.45593999997E+02  0.45594000000E+02  0.51100000000E-03 0.  1.
         11   -1    0    0    0    0 -0.00000000000E+00 -0.00000000000E+00 -0.45593999997E+02  0.45594000000E+02  0.51100000000E-03 0. -1.
    9900012    2    1    2    0    0  0.99303473765E+01  0.10738236300E+02  0.42605069987E+02  0.46142317561E+02  0.99999981728E+01 0.  0.
         12    1    1    2    0    0 -0.99303473765E+01 -0.10738236300E+02 -0.42605069987E+02  0.45045682439E+02  0.00000000000E+00 0. -1.
         11    1    3    3    0    0  0.58550045269E+01  0.31647628343E+01  0.18071320681E+02  0.19257970641E+02  0.51100000000E-03 0. -1.
        -11    1    3    3    0    0  0.24608005179E+01  0.22231475893E+01  0.25004510528E+01  0.41533336154E+01  0.51100000000E-03 0.  1.
        -12    1    3    3    0    0  0.16145423317E+01  0.53503258761E+01  0.22033298253E+02  0.22731013304E+02  0.00000000000E+00 0.  1.
</event>
<event>
 7    1  0.2323330E-008  0.4614232E+02  0.7816164E-02  0.1320468E+00
        -11   -1    0    0    0    0  0.00000000000E+00  0.00000000000E+00  0.45593999997E+02  0.45594000000E+02  0.51100000000E-03 0.  1.
         11   -1    0    0    0    0 -0.00000000000E+00 -0.00000000000E+00 -0.45593999997E+02  0.45594000000E+02  0.51100000000E-03 0. -1.
    9900012    2    1    2    0    0  0.18499273572E+01 -0.28971367308E+02  0.34443449677E+02  0.46142316738E+02  0.99999906669E+01 0.  0.
         12    1    1    2    0    0 -0.18499273572E+01  0.28971367308E+02 -0.34443449677E+02  0.45045683262E+02  0.00000000000E+00 0. -1.
         11    1    3    3    0    0  0.47627640583E+00 -0.15523405330E+02  0.16712346093E+02  0.22814588851E+02  0.51100000000E-03 0.  1.
        -11    1    3    3    0    0  0.26543847618E+01 -0.67453881762E+01  0.47624373001E+01  0.86733401530E+01  0.51100000000E-03 0. -1.
         12    1    3    3    0    0 -0.12807338105E+01 -0.67025738023E+01  0.12968666284E+02  0.14654387734E+02  0.00000000000E+00 0. -1.
</event>
<event>
 7    1  0.2323330E-008  0.4614232E+02  0.7816164E-02  0.1320468E+00
        -11   -1    0    0    0    0  0.00000000000E+00  0.00000000000E+00  0.45593999997E+02  0.45594000000E+02  0.51100000000E-03 0.  1.
         11   -1    0    0    0    0 -0.00000000000E+00 -0.00000000000E+00 -0.45593999997E+02  0.45594000000E+02  0.51100000000E-03 0. -1.
    9900012    2    1    2    0    0  0.15269567707E+02 -0.70104450007E+01  0.41794825700E+02  0.46142317717E+02  0.99999995939E+01 0.  0.
         12    1    1    2    0    0 -0.15269567707E+02  0.70104450007E+01 -0.41794825700E+02  0.45045682283E+02  0.00000000000E+00 0. -1.
         11    1    3    3    0    0  0.88368986636E+00  0.17135353665E+01  0.67185251546E+01  0.69896846671E+01  0.51100000000E-03 0. -1.
        -11    1    3    3    0    0  0.52537423944E+01 -0.57522327021E+01  0.15501177723E+02  0.17348674337E+02  0.51100000000E-03 0.  1.
        -12    1    3    3    0    0  0.91321354459E+01 -0.29717476650E+01  0.19575122823E+02  0.21803958712E+02  0.00000000000E+00 0.  1.
</event>
<event>
 7    1  0.2323330E-008  0.4614232E+02  0.7816164E-02  0.1320468E+00
        -11   -1    0    0    0    0  0.00000000000E+00  0.00000000000E+00  0.45593999997E+02  0.45594000000E+02  0.51100000000E-03 0.  1.
         11   -1    0    0    0    0 -0.00000000000E+00 -0.00000000000E+00 -0.45593999997E+02  0.45594000000E+02  0.51100000000E-03 0. -1.
    9900012    2    1    2    0    0 -0.42385464306E+02  0.14194222615E+02  0.55776336729E+01  0.46142317216E+02  0.99999950282E+01 0.  0.
         12    1    1    2    0    0  0.42385464306E+02 -0.14194222615E+02 -0.55776336729E+01  0.45045682784E+02  0.00000000000E+00 0. -1.
         11    1    3    3    0    0 -0.90682546981E+01  0.19726658997E+01  0.36548180761E+01  0.99740838904E+01  0.51100000000E-03 0. -1.
        -11    1    3    3    0    0 -0.15575086648E+02  0.31142379899E+01  0.31292584685E+01  0.16188701652E+02  0.51100000000E-03 0.  1.
        -12    1    3    3    0    0 -0.17742122960E+02  0.91073187249E+01 -0.12064428717E+01  0.19979531674E+02  0.00000000000E+00 0.  1.
</event>
<event>
 7    1  0.2323330E-008  0.4614232E+02  0.7816164E-02  0.1320468E+00
        -11   -1    0    0    0    0  0.00000000000E+00  0.00000000000E+00  0.45593999997E+02  0.45594000000E+02  0.51100000000E-03 0.  1.
         11   -1    0    0    0    0 -0.00000000000E+00 -0.00000000000E+00 -0.45593999997E+02  0.45594000000E+02  0.51100000000E-03 0. -1.
    9900012    2    1    2    0    0  0.69559042607E+01  0.13263823167E+02  0.42482936529E+02  0.46142317574E+02  0.99999982977E+01 0.  0.
         12    1    1    2    0    0 -0.69559042607E+01 -0.13263823167E+02 -0.42482936529E+02  0.45045682426E+02  0.00000000000E+00 0. -1.
         11    1    3    3    0    0  0.19645726451E+01  0.42995252060E+01  0.87565210552E+01  0.99509860781E+01  0.51100000000E-03 0. -1.
        -11    1    3    3    0    0  0.22757266300E+01  0.87962458778E+01  0.31136008157E+02  0.32434609254E+02  0.51100000000E-03 0.  1.
        -12    1    3    3    0    0  0.27156049856E+01  0.16805208282E+00  0.25904073160E+01  0.37567222420E+01  0.00000000000E+00 0.  1.
</event>
<event>
 7    1  0.2323330E-008  0.4614232E+02  0.7816164E-02  0.1320468E+00
        -11   -1    0    0    0    0  0.00000000000E+00  0.00000000000E+00  0.45593999997E+02  0.45594000000E+02  0.51100000000E-03 0.  1.
         11   -1    0    0    0    0 -0.00000000000E+00 -0.00000000000E+00 -0.45593999997E+02  0.45594000000E+02  0.51100000000E-03 0. -1.
    9900012    2    1    2    0    0 -0.18280024405E+01 -0.41942926729E+02  0.16326750726E+02  0.46142317801E+02  0.10000000364E+02 0.  0.
         12    1    1    2    0    0  0.18280024405E+01  0.41942926729E+02 -0.16326750726E+02  0.45045682199E+02  0.00000000000E+00 0. -1.
         11    1    3    3    0    0  0.23930260616E+01 -0.43072978127E+01  0.93087015698E+00  0.50145695417E+01  0.51100000000E-03 0. -1.
        -11    1    3    3    0    0  0.39458089154E+00 -0.16119297235E+02  0.61104040296E+01  0.17243099347E+02  0.51100000000E-03 0.  1.
         12    1    3    3    0    0 -0.46156093936E+01 -0.21516331681E+02  0.92854765397E+01  0.23884648912E+02  0.00000000000E+00 0. -1.
</event>
<event>
 7    1  0.2323330E-008  0.4614232E+02  0.7816164E-02  0.1320468E+00
        -11   -1    0    0    0    0  0.00000000000E+00  0.00000000000E+00  0.45593999997E+02  0.45594000000E+02  0.51100000000E-03 0.  1.
         11   -1    0    0    0    0 -0.00000000000E+00 -0.00000000000E+00 -0.45593999997E+02  0.45594000000E+02  0.51100000000E-03 0. -1.
    9900012    2    1    2    0    0  0.35795069017E+02  0.27171154787E+02  0.30910577255E+01  0.46142320337E+02  0.10000023491E+02 0.  0.
         12    1    1    2    0    0 -0.35795069017E+02 -0.27171154787E+02 -0.30910577255E+01  0.45045679663E+02  0.00000000000E+00 0. -1.
         11    1    3    3    0    0  0.11560851414E+02  0.69092766755E+01 -0.13390035442E+01  0.13534560220E+02  0.51100000000E-03 0. -1.
        -11    1    3    3    0    0  0.22158055822E+02  0.16484918443E+02  0.55160459203E+01  0.28163073993E+02  0.51100000000E-03 0.  1.
        -12    1    3    3    0    0  0.20761617811E+01  0.37769596685E+01 -0.10859846507E+01  0.44446861239E+01  0.00000000000E+00 0.  1.
</event>
<event>
 7    1  0.2323330E-008  0.4614232E+02  0.7816164E-02  0.1320468E+00
        -11   -1    0    0    0    0  0.00000000000E+00  0.00000000000E+00  0.45593999997E+02  0.45594000000E+02  0.51100000000E-03 0.  1.
         11   -1    0    0    0    0 -0.00000000000E+00 -0.00000000000E+00 -0.45593999997E+02  0.45594000000E+02  0.51100000000E-03 0. -1.
    9900012    2    1    2    0    0 -0.43719472193E+01 -0.36319922282E+02  0.26284269394E+02  0.46142317692E+02  0.99999993654E+01 0.  0.
         12    1    1    2    0    0  0.43719472193E+01  0.36319922282E+02 -0.26284269394E+02  0.45045682308E+02  0.00000000000E+00 0. -1.
         11    1    3    3    0    0 -0.47462966269E+01 -0.11454878008E+02  0.10225253536E+02  0.16071632525E+02  0.51100000000E-03 0.  1.
        -11    1    3    3    0    0 -0.60819491077E+00 -0.87696871401E+01  0.28974011215E+01  0.92559303748E+01  0.51100000000E-03 0. -1.
         12    1    3    3    0    0  0.98254431840E+00 -0.16095357133E+02  0.13161614736E+02  0.20814754792E+02  0.00000000000E+00 0. -1.
</event>
<event>
 7    1  0.2323330E-008  0.4614231E+02  0.7816164E-02  0.1320468E+00
        -11   -1    0    0    0    0  0.00000000000E+00  0.00000000000E+00  0.45593999997E+02  0.45594000000E+02  0.51100000000E-03 0. -1.
         11   -1    0    0    0    0 -0.00000000000E+00 -0.00000000000E+00 -0.45593999997E+02  0.45594000000E+02  0.51100000000E-03 0.  1.
    9900012    2    1    2    0    0  0.26550855087E+02  0.15859806765E+02 -0.32751070167E+02  0.46142312376E+02  0.99999508902E+01 0.  0.
         12    1    1    2    0    0 -0.26550855087E+02 -0.15859806765E+02  0.32751070167E+02  0.45045687624E+02  0.00000000000E+00 0. -1.
         11    1    3    3    0    0  0.31133900897E+01  0.46948803886E+01 -0.72804054531E+01  0.92054007809E+01  0.51100000000E-03 0. -1.
        -11    1    3    3    0    0  0.23573310142E+01 -0.77665193112E+00 -0.18044203367E+01  0.30685714503E+01  0.51100000000E-03 0.  1.
        -12    1    3    3    0    0  0.21080133983E+02  0.11941578308E+02 -0.23666244377E+02  0.33868340144E+02  0.00000000000E+00 0.  1.
</event>
<event>
 7    1  0.2323330E-008  0.4614232E+02  0.7816164E-02  0.1320468E+00
        -11   -1    0    0    0    0  0.00000000000E+00  0.00000000000E+00  0.45593999997E+02  0.45594000000E+02  0.51100000000E-03 0. -1.
         11   -1    0    0    0    0 -0.00000000000E+00 -0.00000000000E+00 -0.45593999997E+02  0.45594000000E+02  0.51100000000E-03 0.  1.
    9900012    2    1    2    0    0  0.20615290045E+02  0.39264153949E+02 -0.79024996189E+01  0.46142317974E+02  0.10000001941E+02 0.  0.
         12    1    1    2    0    0 -0.20615290045E+02 -0.39264153949E+02  0.79024996189E+01  0.45045682026E+02  0.00000000000E+00 0. -1.
         11    1    3    3    0    0  0.25697742577E+01  0.46349469663E+01  0.53322768422E+00  0.53264251745E+01  0.51100000000E-03 0. -1.
        -11    1    3    3    0    0  0.11373707519E+02  0.28634920833E+02 -0.80173686769E+01  0.31837055684E+02  0.51100000000E-03 0.  1.
         12    1    3    3    0    0  0.66718082680E+01  0.59942861495E+01 -0.41835862617E+00  0.89788371155E+01  0.00000000000E+00 0. -1.
</event>
<event>
 7    1  0.2323330E-008  0.4614232E+02  0.7816164E-02  0.1320468E+00
        -11   -1    0    0    0    0  0.00000000000E+00  0.00000000000E+00  0.45593999997E+02  0.45594000000E+02  0.51100000000E-03 0. -1.
         11   -1    0    0    0    0 -0.00000000000E+00 -0.00000000000E+00 -0.45593999997E+02  0.45594000000E+02  0.51100000000E-03 0.  1.
    9900012    2    1    2    0    0 -0.30058391469E+02 -0.22814829681E+02  0.24598579183E+02  0.46142318200E+02  0.10000003999E+02 0.  0.
         12    1    1    2    0    0  0.30058391469E+02  0.22814829681E+02 -0.24598579183E+02  0.45045681800E+02  0.00000000000E+00 0. -1.
         11    1    3    3    0    0 -0.21220188909E+01 -0.50597616613E+01  0.20794044318E+01  0.58675442303E+01  0.51100000000E-03 0.  1.
        -11    1    3    3    0    0 -0.25446375832E+01 -0.27661716433E+01  0.38234116747E+01  0.53614702354E+01  0.51100000000E-03 0. -1.
        -12    1    3    3    0    0 -0.25391734995E+02 -0.14988896376E+02  0.18695763076E+02  0.34913303734E+02  0.00000000000E+00 0.  1.
</event>
<event>
 7    1  0.2323330E-008  0.4614232E+02  0.7816164E-02  0.1320468E+00
        -11   -1    0    0    0    0  0.00000000000E+00  0.00000000000E+00  0.45593999997E+02  0.45594000000E+02  0.51100000000E-03 0.  1.
         11   -1    0    0    0    0 -0.00000000000E+00 -0.00000000000E+00 -0.45593999997E+02  0.45594000000E+02  0.51100000000E-03 0. -1.
    9900012    2    1    2    0    0 -0.40188734248E+02 -0.16826252554E+02  0.11439248391E+02  0.46142317197E+02  0.99999948545E+01 0.  0.
         12    1    1    2    0    0  0.40188734248E+02  0.16826252554E+02 -0.11439248391E+02  0.45045682803E+02  0.00000000000E+00 0. -1.
         11    1    3    3    0    0 -0.30676198123E+01 -0.33415248694E+01  0.17077161422E+01  0.48468932781E+01  0.51100000000E-03 0. -1.
        -11    1    3    3    0    0 -0.14965507018E+02 -0.75204486978E+01  0.71326566796E+01  0.18204349494E+02  0.51100000000E-03 0.  1.
         12    1    3    3    0    0 -0.22155607418E+02 -0.59642789864E+01  0.25988755690E+01  0.23091074425E+02  0.00000000000E+00 0. -1.
</event>
<event>
 7    1  0.2323330E-008  0.4614232E+02  0.7816164E-02  0.1320468E+00
        -11   -1    0    0    0    0  0.00000000000E+00  0.00000000000E+00  0.45593999997E+02  0.45594000000E+02  0.51100000000E-03 0.  1.
         11   -1    0    0    0    0 -0.00000000000E+00 -0.00000000000E+00 -0.45593999997E+02  0.45594000000E+02  0.51100000000E-03 0. -1.
    9900012    2    1    2    0    0  0.21912917655E+02  0.35463051645E+02  0.17067794717E+02  0.46142316426E+02  0.99999878290E+01 0.  0.
         12    1    1    2    0    0 -0.21912917655E+02 -0.35463051645E+02 -0.17067794717E+02  0.45045683574E+02  0.00000000000E+00 0. -1.
         11    1    3    3    0    0  0.87707436731E+01  0.15049158175E+02  0.51350907607E+01  0.18159632808E+02  0.51100000000E-03 0. -1.
        -11    1    3    3    0    0  0.12897478679E+02  0.17338924900E+02  0.12318022901E+02  0.24874021818E+02  0.51100000000E-03 0.  1.
        -12    1    3    3    0    0  0.24469530260E+00  0.30749685702E+01 -0.38531894427E+00  0.31086618001E+01  0.00000000000E+00 0.  1.
</event>
<event>
 7    1  0.2323330E-008  0.4614232E+02  0.7816164E-02  0.1320468E+00
        -11   -1    0    0    0    0  0.00000000000E+00  0.00000000000E+00  0.45593999997E+02  0.45594000000E+02  0.51100000000E-03 0.  1.
         11   -1    0    0    0    0 -0.00000000000E+00 -0.00000000000E+00 -0.45593999997E+02  0.45594000000E+02  0.51100000000E-03 0. -1.
    9900012    2    1    2    0    0  0.13321992742E+02  0.26754796285E+02  0.33701913363E+02  0.46142316753E+02  0.99999908082E+01 0.  0.
         12    1    1    2    0    0 -0.13321992742E+02 -0.26754796285E+02 -0.33701913363E+02  0.45045683247E+02  0.00000000000E+00 0. -1.
         11    1    3    3    0    0  0.72252965098E+01  0.87678086266E+01  0.13258762032E+02  0.17460645711E+02  0.51100000000E-03 0.  1.
        -11    1    3    3    0    0 -0.14430219623E+01  0.24136935366E+01  0.26901536728E+01  0.38916777766E+01  0.51100000000E-03 0. -1.
         12    1    3    3    0    0  0.75397181946E+01  0.15573294122E+02  0.17752997658E+02  0.24789993265E+02  0.00000000000E+00 0. -1.
</event>
<event>
 7    1  0.2323330E-008  0.4614232E+02  0.7816164E-02  0.1320468E+00
        -11   -1    0    0    0    0  0.00000000000E+00  0.00000000000E+00  0.45593999997E+02  0.45594000000E+02  0.51100000000E-03 0.  1.
         11   -1    0    0    0    0 -0.00000000000E+00 -0.00000000000E+00 -0.45593999997E+02  0.45594000000E+02  0.51100000000E-03 0. -1.
    9900012    2    1    2    0    0  0.36873177791E+02  0.21755884564E+02  0.14005847516E+02  0.46142317429E+02  0.99999969750E+01 0.  0.
         12    1    1    2    0    0 -0.36873177791E+02 -0.21755884564E+02 -0.14005847516E+02  0.45045682571E+02  0.00000000000E+00 0. -1.
         11    1    3    3    0    0  0.24223440606E+01  0.15058691662E+01  0.38862134534E+01  0.48205858524E+01  0.51100000000E-03 0. -1.
        -11    1    3    3    0    0  0.16422994902E+02  0.87660769464E+01  0.59514722718E+01  0.19544280213E+02  0.51100000000E-03 0.  1.
         12    1    3    3    0    0  0.18027838829E+02  0.11483938451E+02  0.41681617913E+01  0.21777451364E+02  0.00000000000E+00 0. -1.
</event>
<event>
 7    1  0.2323330E-008  0.4614232E+02  0.7816164E-02  0.1320468E+00
        -11   -1    0    0    0    0  0.00000000000E+00  0.00000000000E+00  0.45593999997E+02  0.45594000000E+02  0.51100000000E-03 0.  1.
         11   -1    0    0    0    0 -0.00000000000E+00 -0.00000000000E+00 -0.45593999997E+02  0.45594000000E+02  0.51100000000E-03 0. -1.
    9900012    2    1    2    0    0  0.20759945495E+02  0.39651467843E+02  0.50891510459E+01  0.46142315441E+02  0.99999788420E+01 0.  0.
         12    1    1    2    0    0 -0.20759945495E+02 -0.39651467843E+02 -0.50891510459E+01  0.45045684559E+02  0.00000000000E+00 0. -1.
         11    1    3    3    0    0  0.84577211566E+01  0.10919271907E+02 -0.30356475682E+00  0.13815053310E+02  0.51100000000E-03 0. -1.
        -11    1    3    3    0    0  0.61912145477E+01  0.12677041589E+02 -0.63293882947E+00  0.14122292054E+02  0.51100000000E-03 0.  1.
         12    1    3    3    0    0  0.61110097905E+01  0.16055154346E+02  0.60256546322E+01  0.18204970077E+02  0.00000000000E+00 0. -1.
</event>
<event>
 7    1  0.2323330E-008  0.4614232E+02  0.7816164E-02  0.1320468E+00
        -11   -1    0    0    0    0  0.00000000000E+00  0.00000000000E+00  0.45593999997E+02  0.45594000000E+02  0.51100000000E-03 0.  1.
         11   -1    0    0    0    0 -0.00000000000E+00 -0.00000000000E+00 -0.45593999997E+02  0.45594000000E+02  0.51100000000E-03 0. -1.
    9900012    2    1    2    0    0 -0.32391073854E+02 -0.73656955262E+01  0.30424963408E+02  0.46142317250E+02  0.99999953369E+01 0.  0.
         12    1    1    2    0    0  0.32391073854E+02  0.73656955262E+01 -0.30424963408E+02  0.45045682750E+02  0.00000000000E+00 0. -1.
         11    1    3    3    0    0 -0.16755099146E+02 -0.56895341484E+01  0.11584726375E+02  0.21149705239E+02  0.51100000000E-03 0. -1.
        -11    1    3    3    0    0 -0.15708210822E+02 -0.19293044885E+01  0.17368638407E+02  0.23497653147E+02  0.51100000000E-03 0.  1.
         12    1    3    3    0    0  0.72236113363E-01  0.25314311066E+00  0.14715986259E+01  0.14949588644E+01  0.00000000000E+00 0. -1.
</event>
<event>
 7    1  0.2323330E-008  0.4614232E+02  0.7816164E-02  0.1320468E+00
        -11   -1    0    0    0    0  0.00000000000E+00  0.00000000000E+00  0.45593999997E+02  0.45594000000E+02  0.51100000000E-03 0. -1.
         11   -1    0    0    0    0 -0.00000000000E+00 -0.00000000000E+00 -0.45593999997E+02  0.45594000000E+02  0.51100000000E-03 0.  1.
    9900012    2    1    2    0    0  0.92576764532E+01  0.42369782586E+02  0.12174175134E+02  0.46142316634E+02  0.99999897255E+01 0.  0.
         12    1    1    2    0    0 -0.92576764532E+01 -0.42369782586E+02 -0.12174175134E+02  0.45045683366E+02  0.00000000000E+00 0. -1.
         11    1    3    3    0    0 -0.48388451716E-01  0.19931546969E+02  0.55594113743E+01  0.20692413129E+02  0.51100000000E-03 0.  1.
        -11    1    3    3    0    0  0.73174864323E+01  0.17620143869E+02  0.35602841038E+01  0.19408521346E+02  0.51100000000E-03 0. -1.
         12    1    3    3    0    0  0.19885784726E+01  0.48180917476E+01  0.30544796560E+01  0.60413821597E+01  0.00000000000E+00 0. -1.
</event>
<event>
 7    1  0.2323330E-008  0.4614232E+02  0.7816164E-02  0.1320468E+00
        -11   -1    0    0    0    0  0.00000000000E+00  0.00000000000E+00  0.45593999997E+02  0.45594000000E+02  0.51100000000E-03 0.  1.
         11   -1    0    0    0    0 -0.00000000000E+00 -0.00000000000E+00 -0.45593999997E+02  0.45594000000E+02  0.51100000000E-03 0. -1.
    9900012    2    1    2    0    0  0.22940162506E+02 -0.20566951064E+02  0.32861269180E+02  0.46142317144E+02  0.99999943699E+01 0.  0.
         12    1    1    2    0    0 -0.22940162506E+02  0.20566951064E+02 -0.32861269180E+02  0.45045682856E+02  0.00000000000E+00 0. -1.
         11    1    3    3    0    0  0.25256840692E+00 -0.34249379790E+01  0.21776400468E+01  0.40664612865E+01  0.51100000000E-03 0. -1.
        -11    1    3    3    0    0  0.15157222694E+01 -0.26848930667E+01  0.24395649454E+01  0.39316080885E+01  0.51100000000E-03 0.  1.
        -12    1    3    3    0    0  0.21171871830E+02 -0.14457120019E+02  0.28244064187E+02  0.38144247769E+02  0.00000000000E+00 0.  1.
</event>
<event>
 7    1  0.2323330E-008  0.4614232E+02  0.7816164E-02  0.1320468E+00
        -11   -1    0    0    0    0  0.00000000000E+00  0.00000000000E+00  0.45593999997E+02  0.45594000000E+02  0.51100000000E-03 0.  1.
         11   -1    0    0    0    0 -0.00000000000E+00 -0.00000000000E+00 -0.45593999997E+02  0.45594000000E+02  0.51100000000E-03 0. -1.
    9900012    2    1    2    0    0  0.22153365398E+02 -0.25409334074E+02  0.29878213204E+02  0.46142317845E+02  0.10000000765E+02 0.  0.
         12    1    1    2    0    0 -0.22153365398E+02  0.25409334074E+02 -0.29878213204E+02  0.45045682155E+02  0.00000000000E+00 0. -1.
         11    1    3    3    0    0  0.43731375414E+01 -0.77563530169E+01  0.41693029636E+01  0.98320105544E+01  0.51100000000E-03 0. -1.
        -11    1    3    3    0    0  0.37790499807E+01 -0.70134806709E+01  0.66426131050E+01  0.10372773930E+02  0.51100000000E-03 0.  1.
        -12    1    3    3    0    0  0.14001177875E+02 -0.10639500387E+02  0.19066297135E+02  0.25937533361E+02  0.00000000000E+00 0.  1.
</event>
<event>
 7    1  0.2323330E-008  0.4614232E+02  0.7816164E-02  0.1320468E+00
        -11   -1    0    0    0    0  0.00000000000E+00  0.00000000000E+00  0.45593999997E+02  0.45594000000E+02  0.51100000000E-03 0.  1.
         11   -1    0    0    0    0 -0.00000000000E+00 -0.00000000000E+00 -0.45593999997E+02  0.45594000000E+02  0.51100000000E-03 0. -1.
    9900012    2    1    2    0    0 -0.11177407361E+02  0.19521871301E+01  0.43593209276E+02  0.46142319131E+02  0.10000012496E+02 0.  0.
         12    1    1    2    0    0  0.11177407361E+02 -0.19521871301E+01 -0.43593209276E+02  0.45045680869E+02  0.00000000000E+00 0. -1.
         11    1    3    3    0    0 -0.13720731082E+01  0.10141440855E+00  0.55683876627E+01  0.57358356775E+01  0.51100000000E-03 0. -1.
        -11    1    3    3    0    0 -0.64583057606E+01  0.15147262765E-01  0.34844395357E+02  0.35437858722E+02  0.51100000000E-03 0.  1.
         12    1    3    3    0    0 -0.33470284926E+01  0.18356254588E+01  0.31804262568E+01  0.49686247323E+01  0.00000000000E+00 0. -1.
</event>
<event>
 7    1  0.2323330E-008  0.4614232E+02  0.7816164E-02  0.1320468E+00
        -11   -1    0    0    0    0  0.00000000000E+00  0.00000000000E+00  0.45593999997E+02  0.45594000000E+02  0.51100000000E-03 0. -1.
         11   -1    0    0    0    0 -0.00000000000E+00 -0.00000000000E+00 -0.45593999997E+02  0.45594000000E+02  0.51100000000E-03 0.  1.
    9900012    2    1    2    0    0 -0.33369542814E+02  0.28808961443E+02 -0.92537026330E+01  0.46142315862E+02  0.99999826825E+01 0.  0.
         12    1    1    2    0    0  0.33369542814E+02 -0.28808961443E+02  0.92537026330E+01  0.45045684138E+02  0.00000000000E+00 0. -1.
         11    1    3    3    0    0 -0.27418219609E+01  0.22616253034E+01 -0.15221089450E+01  0.38664392637E+01  0.51100000000E-03 0. -1.
        -11    1    3    3    0    0  0.51249635247E+00  0.15442086616E+01 -0.31091985193E+00  0.16564734580E+01  0.51100000000E-03 0.  1.
        -12    1    3    3    0    0 -0.31140217205E+02  0.25003127478E+02 -0.74206738360E+01  0.40619403140E+02  0.00000000000E+00 0.  1.
</event>
<event>
 7    1  0.2323330E-008  0.4614232E+02  0.7816164E-02  0.1320468E+00
        -11   -1    0    0    0    0  0.00000000000E+00  0.00000000000E+00  0.45593999997E+02  0.45594000000E+02  0.51100000000E-03 0.  1.
         11   -1    0    0    0    0 -0.00000000000E+00 -0.00000000000E+00 -0.45593999997E+02  0.45594000000E+02  0.51100000000E-03 0. -1.
    9900012    2    1    2    0    0  0.58360269546E+01 -0.37325558959E+02  0.24532772791E+02  0.46142317598E+02  0.99999985164E+01 0.  0.
         12    1    1    2    0    0 -0.58360269546E+01  0.37325558959E+02 -0.24532772791E+02  0.45045682402E+02  0.00000000000E+00 0. -1.
         11    1    3    3    0    0 -0.96904273450E+00 -0.10443635446E+02  0.30535609367E+01  0.10923955318E+02  0.51100000000E-03 0. -1.
        -11    1    3    3    0    0 -0.31218098803E+00 -0.17287521504E+01  0.11025116265E+01  0.20740234122E+01  0.51100000000E-03 0.  1.
         12    1    3    3    0    0  0.71172506771E+01 -0.25153171363E+02  0.20376700227E+02  0.33144338868E+02  0.00000000000E+00 0. -1.
</event>
<event>
 7    1  0.2323330E-008  0.4614232E+02  0.7816164E-02  0.1320468E+00
        -11   -1    0    0    0    0  0.00000000000E+00  0.00000000000E+00  0.45593999997E+02  0.45594000000E+02  0.51100000000E-03 0.  1.
         11   -1    0    0    0    0 -0.00000000000E+00 -0.00000000000E+00 -0.45593999997E+02  0.45594000000E+02  0.51100000000E-03 0. -1.
    9900012    2    1    2    0    0 -0.62612609334E+00  0.18325186999E+02  0.41144974479E+02  0.46142318327E+02  0.10000005163E+02 0.  0.
         12    1    1    2    0    0  0.62612609334E+00 -0.18325186999E+02 -0.41144974479E+02  0.45045681673E+02  0.00000000000E+00 0. -1.
         11    1    3    3    0    0 -0.40905467749E+00  0.43805297844E+01  0.17806311618E+02  0.18341785644E+02  0.51100000000E-03 0. -1.
        -11    1    3    3    0    0  0.94908368381E+00  0.12550744893E+02  0.22538396858E+02  0.25814749474E+02  0.51100000000E-03 0.  1.
        -12    1    3    3    0    0 -0.11661550997E+01  0.13939123218E+01  0.80026600330E+00  0.19857832091E+01  0.00000000000E+00 0.  1.
</event>
<event>
 7    1  0.2323330E-008  0.4614232E+02  0.7816164E-02  0.1320468E+00
        -11   -1    0    0    0    0  0.00000000000E+00  0.00000000000E+00  0.45593999997E+02  0.45594000000E+02  0.51100000000E-03 0.  1.
         11   -1    0    0    0    0 -0.00000000000E+00 -0.00000000000E+00 -0.45593999997E+02  0.45594000000E+02  0.51100000000E-03 0. -1.
    9900012    2    1    2    0    0  0.31822760429E+02 -0.14145752866E+02  0.28571368215E+02  0.46142317774E+02  0.10000000121E+02 0.  0.
         12    1    1    2    0    0 -0.31822760429E+02  0.14145752866E+02 -0.28571368215E+02  0.45045682226E+02  0.00000000000E+00 0. -1.
         11    1    3    3    0    0  0.13507355994E+02 -0.24383329899E+01  0.11038247640E+02  0.17613547199E+02  0.51100000000E-03 0. -1.
        -11    1    3    3    0    0  0.17737893608E+02 -0.10170082276E+02  0.17456409462E+02  0.26884747994E+02  0.51100000000E-03 0.  1.
         12    1    3    3    0    0  0.57751082704E+00 -0.15373376001E+01  0.76711113822E-01  0.16440225810E+01  0.00000000000E+00 0. -1.
</event>
<event>
 7    1  0.2323330E-008  0.4614232E+02  0.7816164E-02  0.1320468E+00
        -11   -1    0    0    0    0  0.00000000000E+00  0.00000000000E+00  0.45593999997E+02  0.45594000000E+02  0.51100000000E-03 0.  1.
         11   -1    0    0    0    0 -0.00000000000E+00 -0.00000000000E+00 -0.45593999997E+02  0.45594000000E+02  0.51100000000E-03 0. -1.
    9900012    2    1    2    0    0  0.42325805797E+02 -0.14322588776E+02  0.57011506362E+01  0.46142317585E+02  0.99999983970E+01 0.  0.
         12    1    1    2    0    0 -0.42325805797E+02  0.14322588776E+02 -0.57011506362E+01  0.45045682415E+02  0.00000000000E+00 0. -1.
         11    1    3    3    0    0  0.38423721332E+01  0.18887694721E+00 -0.17613104447E+01  0.42310415804E+01  0.51100000000E-03 0. -1.
        -11    1    3    3    0    0  0.19741392375E+01 -0.15111164826E+01  0.39508049924E+00  0.25172976810E+01  0.51100000000E-03 0.  1.
        -12    1    3    3    0    0  0.36509294426E+02 -0.13000349241E+02  0.70673805817E+01  0.39393978324E+02  0.00000000000E+00 0.  1.
</event>
<event>
 7    1  0.2323330E-008  0.4614232E+02  0.7816164E-02  0.1320468E+00
        -11   -1    0    0    0    0  0.00000000000E+00  0.00000000000E+00  0.45593999997E+02  0.45594000000E+02  0.51100000000E-03 0.  1.
         11   -1    0    0    0    0 -0.00000000000E+00 -0.00000000000E+00 -0.45593999997E+02  0.45594000000E+02  0.51100000000E-03 0. -1.
    9900012    2    1    2    0    0  0.18243498712E+02  0.31437846170E+02  0.26607328997E+02  0.46142319037E+02  0.10000011635E+02 0.  0.
         12    1    1    2    0    0 -0.18243498712E+02 -0.31437846170E+02 -0.26607328997E+02  0.45045680963E+02  0.00000000000E+00 0. -1.
         11    1    3    3    0    0  0.80806872831E+01  0.97576428663E+01  0.84758689174E+01  0.15243013332E+02  0.51100000000E-03 0. -1.
        -11    1    3    3    0    0  0.87578457819E+01  0.10236717508E+02  0.10370659639E+02  0.17001200831E+02  0.51100000000E-03 0.  1.
        -12    1    3    3    0    0  0.14049656474E+01  0.11443485795E+02  0.77608004404E+01  0.13898104874E+02  0.00000000000E+00 0.  1.
</event>
<event>
 7    1  0.2323330E-008  0.4614232E+02  0.7816164E-02  0.1320468E+00
        -11   -1    0    0    0    0  0.00000000000E+00  0.00000000000E+00  0.45593999997E+02  0.45594000000E+02  0.51100000000E-03 0.  1.
         11   -1    0    0    0    0 -0.00000000000E+00 -0.00000000000E+00 -0.45593999997E+02  0.45594000000E+02  0.51100000000E-03 0. -1.
    9900012    2    1    2    0    0 -0.56715045252E+01  0.38723810079E+02  0.22302778249E+02  0.46142319316E+02  0.10000014182E+02 0.  0.
         12    1    1    2    0    0  0.56715045252E+01 -0.38723810079E+02 -0.22302778249E+02  0.45045680684E+02  0.00000000000E+00 0. -1.
         11    1    3    3    0    0 -0.13145532452E+01  0.12995028709E+02  0.12327748532E+02  0.17960295251E+02  0.51100000000E-03 0. -1.
        -11    1    3    3    0    0 -0.30274741473E+01  0.22987459072E+02  0.96645028098E+01  0.25119543968E+02  0.51100000000E-03 0.  1.
         12    1    3    3    0    0 -0.13294771327E+01  0.27413222977E+01  0.31052690685E+00  0.30624800973E+01  0.00000000000E+00 0. -1.
</event>
<event>
 7    1  0.2323330E-008  0.4614232E+02  0.7816164E-02  0.1320468E+00
        -11   -1    0    0    0    0  0.00000000000E+00  0.00000000000E+00  0.45593999997E+02  0.45594000000E+02  0.51100000000E-03 0.  1.
         11   -1    0    0    0    0 -0.00000000000E+00 -0.00000000000E+00 -0.45593999997E+02  0.45594000000E+02  0.51100000000E-03 0. -1.
    9900012    2    1    2    0    0  0.37489644654E+02  0.18930239465E+02  0.16287603643E+02  0.46142318132E+02  0.10000003382E+02 0.  0.
         12    1    1    2    0    0 -0.37489644654E+02 -0.18930239465E+02 -0.16287603643E+02  0.45045681868E+02  0.00000000000E+00 0. -1.
         11    1    3    3    0    0  0.20401030225E+02  0.10573558563E+02  0.76729405228E+01  0.24225527682E+02  0.51100000000E-03 0. -1.
        -11    1    3    3    0    0  0.10782471108E+02  0.82961745067E+01  0.42715921969E+01  0.14259547497E+02  0.51100000000E-03 0.  1.
         12    1    3    3    0    0  0.63061433209E+01  0.60506395361E-01  0.43430709231E+01  0.76572429536E+01  0.00000000000E+00 0. -1.
</event>
<event>
 7    1  0.2323330E-008  0.4614232E+02  0.7816164E-02  0.1320468E+00
        -11   -1    0    0    0    0  0.00000000000E+00  0.00000000000E+00  0.45593999997E+02  0.45594000000E+02  0.51100000000E-03 0.  1.
         11   -1    0    0    0    0 -0.00000000000E+00 -0.00000000000E+00 -0.45593999997E+02  0.45594000000E+02  0.51100000000E-03 0. -1.
    9900012    2    1    2    0    0  0.15977798785E+02  0.24733965628E+02  0.34088918416E+02  0.46142317982E+02  0.10000002018E+02 0.  0.
         12    1    1    2    0    0 -0.15977798785E+02 -0.24733965628E+02 -0.34088918416E+02  0.45045682018E+02  0.00000000000E+00 0. -1.
         11    1    3    3    0    0  0.12205571099E+01  0.18186425187E+01  0.53680767965E+01  0.57977123957E+01  0.51100000000E-03 0. -1.
        -11    1    3    3    0    0  0.81877507921E+01  0.10841893600E+02  0.19601050020E+02  0.23849257473E+02  0.51100000000E-03 0.  1.
        -12    1    3    3    0    0  0.65694908828E+01  0.12073429510E+02  0.91197915989E+01  0.16495348114E+02  0.00000000000E+00 0.  1.
</event>
<event>
 7    1  0.2323330E-008  0.4614232E+02  0.7816164E-02  0.1320468E+00
        -11   -1    0    0    0    0  0.00000000000E+00  0.00000000000E+00  0.45593999997E+02  0.45594000000E+02  0.51100000000E-03 0. -1.
         11   -1    0    0    0    0 -0.00000000000E+00 -0.00000000000E+00 -0.45593999997E+02  0.45594000000E+02  0.51100000000E-03 0.  1.
    9900012    2    1    2    0    0 -0.25684527809E+02 -0.24131335450E+02 -0.28055252351E+02  0.46142317589E+02  0.99999984303E+01 0.  0.
         12    1    1    2    0    0  0.25684527809E+02  0.24131335450E+02  0.28055252351E+02  0.45045682411E+02  0.00000000000E+00 0. -1.
         11    1    3    3    0    0 -0.13599800896E+02 -0.16232448058E+02 -0.14219053865E+02  0.25507419459E+02  0.51100000000E-03 0. -1.
        -11    1    3    3    0    0 -0.11675582612E+02 -0.60872117720E+01 -0.10600186426E+02  0.16903766711E+02  0.51100000000E-03 0.  1.
        -12    1    3    3    0    0 -0.40914430078E+00 -0.18116756199E+01 -0.32360120610E+01  0.37311314195E+01  0.00000000000E+00 0.  1.
</event>
<event>
 7    1  0.2323330E-008  0.4614232E+02  0.7816164E-02  0.1320468E+00
        -11   -1    0    0    0    0  0.00000000000E+00  0.00000000000E+00  0.45593999997E+02  0.45594000000E+02  0.51100000000E-03 0.  1.
         11   -1    0    0    0    0 -0.00000000000E+00 -0.00000000000E+00 -0.45593999997E+02  0.45594000000E+02  0.51100000000E-03 0. -1.
    9900012    2    1    2    0    0  0.27850523263E+02 -0.25134443885E+02  0.24934345694E+02  0.46142317514E+02  0.99999977454E+01 0.  0.
         12    1    1    2    0    0 -0.27850523263E+02  0.25134443885E+02 -0.24934345694E+02  0.45045682486E+02  0.00000000000E+00 0. -1.
         11    1    3    3    0    0  0.18560618816E+01 -0.12769048059E+01  0.28954171514E+01  0.36686363043E+01  0.51100000000E-03 0. -1.
        -11    1    3    3    0    0  0.17107525524E+02 -0.10799538573E+02  0.14977490708E+02  0.25171863084E+02  0.51100000000E-03 0.  1.
        -12    1    3    3    0    0  0.88869358582E+01 -0.13058000506E+02  0.70614378343E+01  0.17301818126E+02  0.00000000000E+00 0.  1.
</event>
<event>
 7    1  0.2323330E-008  0.4614232E+02  0.7816164E-02  0.1320468E+00
        -11   -1    0    0    0    0  0.00000000000E+00  0.00000000000E+00  0.45593999997E+02  0.45594000000E+02  0.51100000000E-03 0.  1.
         11   -1    0    0    0    0 -0.00000000000E+00 -0.00000000000E+00 -0.45593999997E+02  0.45594000000E+02  0.51100000000E-03 0. -1.
    9900012    2    1    2    0    0 -0.31340876825E+02 -0.26532465495E+02  0.18517321499E+02  0.46142317845E+02  0.10000000761E+02 0.  0.
         12    1    1    2    0    0  0.31340876825E+02  0.26532465495E+02 -0.18517321499E+02  0.45045682155E+02  0.00000000000E+00 0. -1.
         11    1    3    3    0    0 -0.13337232256E+02 -0.15285580598E+02  0.64708330457E+01  0.21293248203E+02  0.51100000000E-03 0. -1.
        -11    1    3    3    0    0 -0.74965255602E+01 -0.65963966856E+01  0.75153812426E+01  0.12497651787E+02  0.51100000000E-03 0.  1.
         12    1    3    3    0    0 -0.10507119009E+02 -0.46504882110E+01  0.45311072103E+01  0.12351417854E+02  0.00000000000E+00 0. -1.
</event>
<event>
 7    1  0.2323330E-008  0.4614232E+02  0.7816164E-02  0.1320468E+00
        -11   -1    0    0    0    0  0.00000000000E+00  0.00000000000E+00  0.45593999997E+02  0.45594000000E+02  0.51100000000E-03 0.  1.
         11   -1    0    0    0    0 -0.00000000000E+00 -0.00000000000E+00 -0.45593999997E+02  0.45594000000E+02  0.51100000000E-03 0. -1.
    9900012    2    1    2    0    0 -0.31050185343E+02 -0.21217912821E+02  0.24795155885E+02  0.46142316636E+02  0.99999897444E+01 0.  0.
         12    1    1    2    0    0  0.31050185343E+02  0.21217912821E+02 -0.24795155885E+02  0.45045683364E+02  0.00000000000E+00 0. -1.
         11    1    3    3    0    0 -0.76080176967E+01 -0.54198179432E+01  0.93665886594E+01  0.13228353759E+02  0.51100000000E-03 0. -1.
        -11    1    3    3    0    0 -0.16928116075E+02 -0.11935162834E+02  0.14500790620E+02  0.25284029635E+02  0.51100000000E-03 0.  1.
        -12    1    3    3    0    0 -0.65140515708E+01 -0.38629320440E+01  0.92777660631E+00  0.76299332419E+01  0.00000000000E+00 0.  1.
</event>
<event>
 7    1  0.2323330E-008  0.4614232E+02  0.7816164E-02  0.1320468E+00
        -11   -1    0    0    0    0  0.00000000000E+00  0.00000000000E+00  0.45593999997E+02  0.45594000000E+02  0.51100000000E-03 0. -1.
         11   -1    0    0    0    0 -0.00000000000E+00 -0.00000000000E+00 -0.45593999997E+02  0.45594000000E+02  0.51100000000E-03 0.  1.
    9900012    2    1    2    0    0 -0.31711628696E+02 -0.30195356587E+02 -0.10570075324E+02  0.46142318228E+02  0.10000004257E+02 0.  0.
         12    1    1    2    0    0  0.31711628696E+02  0.30195356587E+02  0.10570075324E+02  0.45045681772E+02  0.00000000000E+00 0. -1.
         11    1    3    3    0    0 -0.17623895628E+02 -0.16418085282E+02 -0.10426244532E+02  0.26246176802E+02  0.51100000000E-03 0.  1.
        -11    1    3    3    0    0 -0.99211404843E+00 -0.26757909147E+00  0.31723249449E+00  0.10754187891E+01  0.51100000000E-03 0. -1.
        -12    1    3    3    0    0 -0.13095619019E+02 -0.13509692214E+02 -0.46106328593E+00  0.18820722636E+02  0.00000000000E+00 0.  1.
</event>
<event>
 7    1  0.2323330E-008  0.4614231E+02  0.7816164E-02  0.1320468E+00
        -11   -1    0    0    0    0  0.00000000000E+00  0.00000000000E+00  0.45593999997E+02  0.45594000000E+02  0.51100000000E-03 0. -1.
         11   -1    0    0    0    0 -0.00000000000E+00 -0.00000000000E+00 -0.45593999997E+02  0.45594000000E+02  0.51100000000E-03 0.  1.
    9900012    2    1    2    0    0  0.16859068857E+02 -0.24187261867E+02 -0.34056748006E+02  0.46142312925E+02  0.99999558989E+01 0.  0.
         12    1    1    2    0    0 -0.16859068857E+02  0.24187261867E+02  0.34056748006E+02  0.45045687075E+02  0.00000000000E+00 0. -1.
         11    1    3    3    0    0  0.77564967419E+01 -0.94601058918E+01 -0.91020006062E+01  0.15248057597E+02  0.51100000000E-03 0. -1.
        -11    1    3    3    0    0  0.84250491070E+01 -0.15149116159E+02 -0.23147311330E+02  0.28918423106E+02  0.51100000000E-03 0.  1.
         12    1    3    3    0    0  0.67752300838E+00  0.42196018393E+00 -0.18074360696E+01  0.19758322220E+01  0.00000000000E+00 0. -1.
</event>
<event>
 7    1  0.2323330E-008  0.4614232E+02  0.7816164E-02  0.1320468E+00
        -11   -1    0    0    0    0  0.00000000000E+00  0.00000000000E+00  0.45593999997E+02  0.45594000000E+02  0.51100000000E-03 0.  1.
         11   -1    0    0    0    0 -0.00000000000E+00 -0.00000000000E+00 -0.45593999997E+02  0.45594000000E+02  0.51100000000E-03 0. -1.
    9900012    2    1    2    0    0 -0.16306345047E+02  0.19978829605E+02  0.36933222900E+02  0.46142317910E+02  0.10000001355E+02 0.  0.
         12    1    1    2    0    0  0.16306345047E+02 -0.19978829605E+02 -0.36933222900E+02  0.45045682090E+02  0.00000000000E+00 0. -1.
         11    1    3    3    0    0 -0.45991771625E+01  0.23009388633E+01  0.58467278669E+01  0.77865895767E+01  0.51100000000E-03 0. -1.
        -11    1    3    3    0    0 -0.10035023531E+02  0.10867258683E+02  0.16428146176E+02  0.22106175508E+02  0.51100000000E-03 0.  1.
        -12    1    3    3    0    0 -0.16721443530E+01  0.68106320589E+01  0.14658348858E+02  0.16249552825E+02  0.00000000000E+00 0.  1.
</event>
<event>
 7    1  0.2323330E-008  0.4614232E+02  0.7816164E-02  0.1320468E+00
        -11   -1    0    0    0    0  0.00000000000E+00  0.00000000000E+00  0.45593999997E+02  0.45594000000E+02  0.51100000000E-03 0.  1.
         11   -1    0    0    0    0 -0.00000000000E+00 -0.00000000000E+00 -0.45593999997E+02  0.45594000000E+02  0.51100000000E-03 0. -1.
    9900012    2    1    2    0    0 -0.14921574914E+02 -0.30789955968E+02  0.29299119410E+02  0.46142321133E+02  0.10000030746E+02 0.  0.
         12    1    1    2    0    0  0.14921574914E+02  0.30789955968E+02 -0.29299119410E+02  0.45045678867E+02  0.00000000000E+00 0. -1.
         11    1    3    3    0    0 -0.61533504203E+01 -0.14164472100E+02  0.17183327880E+02  0.23103306009E+02  0.51100000000E-03 0. -1.
        -11    1    3    3    0    0 -0.95483254902E+01 -0.15684408415E+02  0.11162742763E+02  0.21489020760E+02  0.51100000000E-03 0.  1.
         12    1    3    3    0    0  0.78010099680E+00 -0.94107545337E+00  0.95304876691E+00  0.15499943633E+01  0.00000000000E+00 0. -1.
</event>
<event>
 7    1  0.2323330E-008  0.4614232E+02  0.7816164E-02  0.1320468E+00
        -11   -1    0    0    0    0  0.00000000000E+00  0.00000000000E+00  0.45593999997E+02  0.45594000000E+02  0.51100000000E-03 0.  1.
         11   -1    0    0    0    0 -0.00000000000E+00 -0.00000000000E+00 -0.45593999997E+02  0.45594000000E+02  0.51100000000E-03 0. -1.
    9900012    2    1    2    0    0 -0.21010079475E+02  0.16283932059E+02  0.36366518506E+02  0.46142317065E+02  0.99999936496E+01 0.  0.
         12    1    1    2    0    0  0.21010079475E+02 -0.16283932059E+02 -0.36366518506E+02  0.45045682935E+02  0.00000000000E+00 0. -1.
         11    1    3    3    0    0 -0.91764976528E+01  0.11950672781E+02  0.23859963842E+02  0.28219223305E+02  0.51100000000E-03 0. -1.
        -11    1    3    3    0    0 -0.76662231917E+01  0.21598304026E+01  0.92424348266E+01  0.12200756008E+02  0.51100000000E-03 0.  1.
         12    1    3    3    0    0 -0.41673586309E+01  0.21734288749E+01  0.32641198372E+01  0.57223377517E+01  0.00000000000E+00 0. -1.
</event>
<event>
 7    1  0.2323330E-008  0.4614232E+02  0.7816164E-02  0.1320468E+00
        -11   -1    0    0    0    0  0.00000000000E+00  0.00000000000E+00  0.45593999997E+02  0.45594000000E+02  0.51100000000E-03 0.  1.
         11   -1    0    0    0    0 -0.00000000000E+00 -0.00000000000E+00 -0.45593999997E+02  0.45594000000E+02  0.51100000000E-03 0. -1.
    9900012    2    1    2    0    0 -0.27111996482E+02  0.20727771418E+02  0.29400896032E+02  0.46142317092E+02  0.99999938968E+01 0.  0.
         12    1    1    2    0    0  0.27111996482E+02 -0.20727771418E+02 -0.29400896032E+02  0.45045682908E+02  0.00000000000E+00 0. -1.
         11    1    3    3    0    0 -0.67858681837E+01  0.22243658216E+01  0.66433199669E+01  0.97534358438E+01  0.51100000000E-03 0. -1.
        -11    1    3    3    0    0 -0.16202340081E+02  0.11558757198E+02  0.18866106112E+02  0.27423541933E+02  0.51100000000E-03 0.  1.
         12    1    3    3    0    0 -0.41237882169E+01  0.69446483987E+01  0.38914699532E+01  0.89653393151E+01  0.00000000000E+00 0. -1.
</event>
<event>
 7    1  0.2323330E-008  0.4614232E+02  0.7816164E-02  0.1320468E+00
        -11   -1    0    0    0    0  0.00000000000E+00  0.00000000000E+00  0.45593999997E+02  0.45594000000E+02  0.51100000000E-03 0.  1.
         11   -1    0    0    0    0 -0.00000000000E+00 -0.00000000000E+00 -0.45593999997E+02  0.45594000000E+02  0.51100000000E-03 0. -1.
    9900012    2    1    2    0    0  0.17764780746E+02 -0.82296042957E+01  0.40568458897E+02  0.46142315644E+02  0.99999806948E+01 0.  0.
         12    1    1    2    0    0 -0.17764780746E+02  0.82296042957E+01 -0.40568458897E+02  0.45045684356E+02  0.00000000000E+00 0. -1.
         11    1    3    3    0    0  0.69666297618E+00 -0.82472569114E+00  0.66323181823E+00  0.12670392550E+01  0.51100000000E-03 0. -1.
        -11    1    3    3    0    0  0.10451352317E+02 -0.68645608551E+01  0.33031607453E+02  0.35319117376E+02  0.51100000000E-03 0.  1.
         12    1    3    3    0    0  0.66167654533E+01 -0.54031774949E+00  0.68736196255E+01  0.95561590135E+01  0.00000000000E+00 0. -1.
</event>
<event>
 7    1  0.2323330E-008  0.4614232E+02  0.7816164E-02  0.1320468E+00
        -11   -1    0    0    0    0  0.00000000000E+00  0.00000000000E+00  0.45593999997E+02  0.45594000000E+02  0.51100000000E-03 0.  1.
         11   -1    0    0    0    0 -0.00000000000E+00 -0.00000000000E+00 -0.45593999997E+02  0.45594000000E+02  0.51100000000E-03 0. -1.
    9900012    2    1    2    0    0 -0.21394293294E+02 -0.48166055864E+01  0.39347147826E+02  0.46142317443E+02  0.99999971018E+01 0.  0.
         12    1    1    2    0    0  0.21394293294E+02  0.48166055864E+01 -0.39347147826E+02  0.45045682557E+02  0.00000000000E+00 0. -1.
         11    1    3    3    0    0 -0.34153597771E+01 -0.76464746480E+00  0.10549308525E+02  0.11114732510E+02  0.51100000000E-03 0. -1.
        -11    1    3    3    0    0 -0.18281043946E+02 -0.26382823958E+01  0.27127422381E+02  0.32818503120E+02  0.51100000000E-03 0.  1.
        -12    1    3    3    0    0  0.30211042896E+00 -0.14136757259E+01  0.16704169210E+01  0.22090818136E+01  0.00000000000E+00 0.  1.
</event>
<event>
 7    1  0.2323330E-008  0.4614232E+02  0.7816164E-02  0.1320468E+00
        -11   -1    0    0    0    0  0.00000000000E+00  0.00000000000E+00  0.45593999997E+02  0.45594000000E+02  0.51100000000E-03 0.  1.
         11   -1    0    0    0    0 -0.00000000000E+00 -0.00000000000E+00 -0.45593999997E+02  0.45594000000E+02  0.51100000000E-03 0. -1.
    9900012    2    1    2    0    0 -0.29978011816E+02  0.29888906607E+02  0.15397589368E+02  0.46142315535E+02  0.99999796978E+01 0.  0.
         12    1    1    2    0    0  0.29978011816E+02 -0.29888906607E+02 -0.15397589368E+02  0.45045684465E+02  0.00000000000E+00 0. -1.
         11    1    3    3    0    0 -0.84349432365E+01  0.92530344632E+01  0.35673511631E+01  0.13018944226E+02  0.51100000000E-03 0. -1.
        -11    1    3    3    0    0 -0.37297747531E+01  0.85052804020E+01  0.23557076079E+01  0.95812511198E+01  0.51100000000E-03 0.  1.
         12    1    3    3    0    0 -0.17813293826E+02  0.12130591742E+02  0.94745305973E+01  0.23542120189E+02  0.00000000000E+00 0. -1.
</event>
<event>
 7    1  0.2323330E-008  0.4614232E+02  0.7816164E-02  0.1320468E+00
        -11   -1    0    0    0    0  0.00000000000E+00  0.00000000000E+00  0.45593999997E+02  0.45594000000E+02  0.51100000000E-03 0.  1.
         11   -1    0    0    0    0 -0.00000000000E+00 -0.00000000000E+00 -0.45593999997E+02  0.45594000000E+02  0.51100000000E-03 0. -1.
    9900012    2    1    2    0    0 -0.26053130315E+02 -0.13760063349E+02  0.34073574194E+02  0.46142318731E+02  0.10000008848E+02 0.  0.
         12    1    1    2    0    0  0.26053130315E+02  0.13760063349E+02 -0.34073574194E+02  0.45045681269E+02  0.00000000000E+00 0. -1.
         11    1    3    3    0    0 -0.13914857104E+01  0.11314011509E+01  0.16481811808E+01  0.24357344914E+01  0.51100000000E-03 0. -1.
        -11    1    3    3    0    0 -0.39893012055E+01 -0.36298236781E+00  0.51829916889E+01  0.65505483294E+01  0.51100000000E-03 0.  1.
        -12    1    3    3    0    0 -0.20672343399E+02 -0.14528482132E+02  0.27242401325E+02  0.37156035911E+02  0.00000000000E+00 0.  1.
</event>
<event>
 7    1  0.2323330E-008  0.4614232E+02  0.7816164E-02  0.1320468E+00
        -11   -1    0    0    0    0  0.00000000000E+00  0.00000000000E+00  0.45593999997E+02  0.45594000000E+02  0.51100000000E-03 0.  1.
         11   -1    0    0    0    0 -0.00000000000E+00 -0.00000000000E+00 -0.45593999997E+02  0.45594000000E+02  0.51100000000E-03 0. -1.
    9900012    2    1    2    0    0 -0.16788600706E+02  0.40123735521E+02  0.11719307430E+02  0.46142318382E+02  0.10000005662E+02 0.  0.
         12    1    1    2    0    0  0.16788600706E+02 -0.40123735521E+02 -0.11719307430E+02  0.45045681618E+02  0.00000000000E+00 0. -1.
         11    1    3    3    0    0 -0.20608469794E+01  0.77680098590E+01 -0.74446065774E-01  0.80370772000E+01  0.51100000000E-03 0. -1.
        -11    1    3    3    0    0 -0.15785686778E+01  0.11142931568E+02  0.30485081331E+01  0.11659768656E+02  0.51100000000E-03 0.  1.
        -12    1    3    3    0    0 -0.13149185048E+02  0.21212794094E+02  0.87452453625E+01  0.26445472526E+02  0.00000000000E+00 0.  1.
</event>
<event>
 7    1  0.2323330E-008  0.4614232E+02  0.7816164E-02  0.1320468E+00
        -11   -1    0    0    0    0  0.00000000000E+00  0.00000000000E+00  0.45593999997E+02  0.45594000000E+02  0.51100000000E-03 0.  1.
         11   -1    0    0    0    0 -0.00000000000E+00 -0.00000000000E+00 -0.45593999997E+02  0.45594000000E+02  0.51100000000E-03 0. -1.
    9900012    2    1    2    0    0 -0.42375151236E+02  0.46900476008E+01  0.14541784102E+02  0.46142317924E+02  0.10000001488E+02 0.  0.
         12    1    1    2    0    0  0.42375151236E+02 -0.46900476008E+01 -0.14541784102E+02  0.45045682076E+02  0.00000000000E+00 0. -1.
         11    1    3    3    0    0 -0.25486923394E+01 -0.49202477040E+00 -0.11831354134E+01  0.28526707982E+01  0.51100000000E-03 0. -1.
        -11    1    3    3    0    0 -0.45616938906E+01 -0.29733187868E+00  0.26376588821E+01  0.52777553976E+01  0.51100000000E-03 0.  1.
        -12    1    3    3    0    0 -0.35264765006E+02  0.54794042499E+01  0.13087260634E+02  0.38011891728E+02  0.00000000000E+00 0.  1.
</event>
<event>
 7    1  0.2323330E-008  0.4614232E+02  0.7816164E-02  0.1320468E+00
        -11   -1    0    0    0    0  0.00000000000E+00  0.00000000000E+00  0.45593999997E+02  0.45594000000E+02  0.51100000000E-03 0.  1.
         11   -1    0    0    0    0 -0.00000000000E+00 -0.00000000000E+00 -0.45593999997E+02  0.45594000000E+02  0.51100000000E-03 0. -1.
    9900012    2    1    2    0    0  0.20222169914E+02  0.10054399916E+02  0.38975458765E+02  0.46142317636E+02  0.99999988576E+01 0.  0.
         12    1    1    2    0    0 -0.20222169914E+02 -0.10054399916E+02 -0.38975458765E+02  0.45045682364E+02  0.00000000000E+00 0. -1.
         11    1    3    3    0    0  0.12179290356E+01  0.27556980508E+01  0.93441167994E+01  0.98178277590E+01  0.51100000000E-03 0. -1.
        -11    1    3    3    0    0  0.25367083388E+01  0.23971224775E+01  0.77821331981E+01  0.85289320986E+01  0.51100000000E-03 0.  1.
         12    1    3    3    0    0  0.16467532539E+02  0.49015793879E+01  0.21849208768E+02  0.27795557778E+02  0.00000000000E+00 0. -1.
</event>
<event>
 7    1  0.2323330E-008  0.4614232E+02  0.7816164E-02  0.1320468E+00
        -11   -1    0    0    0    0  0.00000000000E+00  0.00000000000E+00  0.45593999997E+02  0.45594000000E+02  0.51100000000E-03 0.  1.
         11   -1    0    0    0    0 -0.00000000000E+00 -0.00000000000E+00 -0.45593999997E+02  0.45594000000E+02  0.51100000000E-03 0. -1.
    9900012    2    1    2    0    0  0.43231178324E+02  0.12307132866E+02  0.29518157745E+01  0.46142317465E+02  0.99999972999E+01 0.  0.
         12    1    1    2    0    0 -0.43231178324E+02 -0.12307132866E+02 -0.29518157745E+01  0.45045682535E+02  0.00000000000E+00 0. -1.
         11    1    3    3    0    0  0.21393247322E+02  0.44398343856E+01 -0.13213751695E+01  0.21889019918E+02  0.51100000000E-03 0. -1.
        -11    1    3    3    0    0  0.95529858251E+01  0.53409998359E+01 -0.17433978119E+00  0.10946059201E+02  0.51100000000E-03 0.  1.
         12    1    3    3    0    0  0.12284945177E+02  0.25262986445E+01  0.44475307252E+01  0.13307238346E+02  0.00000000000E+00 0. -1.
</event>
<event>
 7    1  0.2323330E-008  0.4614232E+02  0.7816164E-02  0.1320468E+00
        -11   -1    0    0    0    0  0.00000000000E+00  0.00000000000E+00  0.45593999997E+02  0.45594000000E+02  0.51100000000E-03 0. -1.
         11   -1    0    0    0    0 -0.00000000000E+00 -0.00000000000E+00 -0.45593999997E+02  0.45594000000E+02  0.51100000000E-03 0.  1.
    9900012    2    1    2    0    0  0.21520451658E+02 -0.31916284414E+02 -0.23395177427E+02  0.46142318995E+02  0.10000011255E+02 0.  0.
         12    1    1    2    0    0 -0.21520451658E+02  0.31916284414E+02  0.23395177427E+02  0.45045681005E+02  0.00000000000E+00 0. -1.
         11    1    3    3    0    0  0.63922629721E+01 -0.67771243021E+01 -0.36895490332E+01  0.10020140320E+02  0.51100000000E-03 0.  1.
        -11    1    3    3    0    0  0.34635615671E+00 -0.26525092097E+01  0.15075606815E+00  0.26792714211E+01  0.51100000000E-03 0. -1.
        -12    1    3    3    0    0  0.14781832529E+02 -0.22486650902E+02 -0.19856384462E+02  0.33442907254E+02  0.00000000000E+00 0.  1.
</event>
<event>
 7    1  0.2323330E-008  0.4614232E+02  0.7816164E-02  0.1320468E+00
        -11   -1    0    0    0    0  0.00000000000E+00  0.00000000000E+00  0.45593999997E+02  0.45594000000E+02  0.51100000000E-03 0.  1.
         11   -1    0    0    0    0 -0.00000000000E+00 -0.00000000000E+00 -0.45593999997E+02  0.45594000000E+02  0.51100000000E-03 0. -1.
    9900012    2    1    2    0    0 -0.28647064105E+02  0.28159979756E+02  0.20383197929E+02  0.46142317637E+02  0.99999988720E+01 0.  0.
         12    1    1    2    0    0  0.28647064105E+02 -0.28159979756E+02 -0.20383197929E+02  0.45045682363E+02  0.00000000000E+00 0. -1.
         11    1    3    3    0    0 -0.79783050601E+01  0.34451276964E+01  0.51076181559E+01  0.10080179560E+02  0.51100000000E-03 0. -1.
        -11    1    3    3    0    0 -0.99770897282E+01  0.78341098070E+01  0.59313698614E+01  0.14003454738E+02  0.51100000000E-03 0.  1.
         12    1    3    3    0    0 -0.10691669317E+02  0.16880742253E+02  0.93442099117E+01  0.22058683339E+02  0.00000000000E+00 0. -1.
</event>
<event>
 7    1  0.2323330E-008  0.4614232E+02  0.7816164E-02  0.1320468E+00
        -11   -1    0    0    0    0  0.00000000000E+00  0.00000000000E+00  0.45593999997E+02  0.45594000000E+02  0.51100000000E-03 0.  1.
         11   -1    0    0    0    0 -0.00000000000E+00 -0.00000000000E+00 -0.45593999997E+02  0.45594000000E+02  0.51100000000E-03 0. -1.
    9900012    2    1    2    0    0 -0.61921620899E+01 -0.13988217829E+02  0.42368625890E+02  0.46142316864E+02  0.99999918183E+01 0.  0.
         12    1    1    2    0    0  0.61921620899E+01  0.13988217829E+02 -0.42368625890E+02  0.45045683136E+02  0.00000000000E+00 0. -1.
         11    1    3    3    0    0 -0.26247689107E+01 -0.89407271201E+01  0.32071223537E+02  0.33397445901E+02  0.51100000000E-03 0. -1.
        -11    1    3    3    0    0  0.99123298487E-01 -0.32200606425E+01  0.59838282976E+01  0.67959412392E+01  0.51100000000E-03 0.  1.
         12    1    3    3    0    0 -0.36665164777E+01 -0.18274300664E+01  0.43135740557E+01  0.59489297241E+01  0.00000000000E+00 0. -1.
</event>
<event>
 7    1  0.2323330E-008  0.4614232E+02  0.7816164E-02  0.1320468E+00
        -11   -1    0    0    0    0  0.00000000000E+00  0.00000000000E+00  0.45593999997E+02  0.45594000000E+02  0.51100000000E-03 0. -1.
         11   -1    0    0    0    0 -0.00000000000E+00 -0.00000000000E+00 -0.45593999997E+02  0.45594000000E+02  0.51100000000E-03 0.  1.
    9900012    2    1    2    0    0  0.23903114438E+02  0.11644302728E+02 -0.36361583341E+02  0.46142318643E+02  0.10000008045E+02 0.  0.
         12    1    1    2    0    0 -0.23903114438E+02 -0.11644302728E+02  0.36361583341E+02  0.45045681357E+02  0.00000000000E+00 0. -1.
         11    1    3    3    0    0  0.12483199635E+02  0.29692969367E+01 -0.18134461514E+02  0.22214988006E+02  0.51100000000E-03 0. -1.
        -11    1    3    3    0    0  0.10366448654E+02  0.49294579577E+01 -0.14893245244E+02  0.18803498813E+02  0.51100000000E-03 0.  1.
         12    1    3    3    0    0  0.10534661482E+01  0.37455478332E+01 -0.33338765832E+01  0.51238318247E+01  0.00000000000E+00 0. -1.
</event>
<event>
 7    1  0.2323330E-008  0.4614232E+02  0.7816164E-02  0.1320468E+00
        -11   -1    0    0    0    0  0.00000000000E+00  0.00000000000E+00  0.45593999997E+02  0.45594000000E+02  0.51100000000E-03 0. -1.
         11   -1    0    0    0    0 -0.00000000000E+00 -0.00000000000E+00 -0.45593999997E+02  0.45594000000E+02  0.51100000000E-03 0.  1.
    9900012    2    1    2    0    0 -0.42102503177E+02 -0.15869356428E+02 -0.21578506724E+01  0.46142316891E+02  0.99999920670E+01 0.  0.
         12    1    1    2    0    0  0.42102503177E+02  0.15869356428E+02  0.21578506724E+01  0.45045683109E+02  0.00000000000E+00 0. -1.
         11    1    3    3    0    0 -0.43783814809E+01 -0.15483497143E+01 -0.33568493720E+01  0.57302747925E+01  0.51100000000E-03 0. -1.
        -11    1    3    3    0    0 -0.16710340791E+02 -0.70661805643E+01  0.11782803200E+01  0.18181164482E+02  0.51100000000E-03 0.  1.
         12    1    3    3    0    0 -0.21013780905E+02 -0.72548261497E+01  0.20718379618E-01  0.22230877617E+02  0.00000000000E+00 0. -1.
</event>
<event>
 7    1  0.2323330E-008  0.4614232E+02  0.7816164E-02  0.1320468E+00
        -11   -1    0    0    0    0  0.00000000000E+00  0.00000000000E+00  0.45593999997E+02  0.45594000000E+02  0.51100000000E-03 0.  1.
         11   -1    0    0    0    0 -0.00000000000E+00 -0.00000000000E+00 -0.45593999997E+02  0.45594000000E+02  0.51100000000E-03 0. -1.
    9900012    2    1    2    0    0  0.23397075410E+01 -0.25726801143E+02  0.36902180594E+02  0.46142318064E+02  0.10000002766E+02 0.  0.
         12    1    1    2    0    0 -0.23397075410E+01  0.25726801143E+02 -0.36902180594E+02  0.45045681936E+02  0.00000000000E+00 0. -1.
         11    1    3    3    0    0 -0.14343475538E+01 -0.54715410357E+00  0.23393133738E+01  0.27980560823E+01  0.51100000000E-03 0. -1.
        -11    1    3    3    0    0  0.16753904165E+01 -0.17887141644E+02  0.19736127955E+02  0.26688415392E+02  0.51100000000E-03 0.  1.
        -12    1    3    3    0    0  0.20986646783E+01 -0.72925053957E+01  0.14826739266E+02  0.16655846590E+02  0.00000000000E+00 0.  1.
</event>
<event>
 7    1  0.2323330E-008  0.4614233E+02  0.7816164E-02  0.1320468E+00
        -11   -1    0    0    0    0  0.00000000000E+00  0.00000000000E+00  0.45593999997E+02  0.45594000000E+02  0.51100000000E-03 0.  1.
         11   -1    0    0    0    0 -0.00000000000E+00 -0.00000000000E+00 -0.45593999997E+02  0.45594000000E+02  0.51100000000E-03 0. -1.
    9900012    2    1    2    0    0 -0.41477424988E+02 -0.15826851533E+02  0.76319513454E+01  0.46142326574E+02  0.10000080359E+02 0.  0.
         12    1    1    2    0    0  0.41477424988E+02  0.15826851533E+02 -0.76319513454E+01  0.45045673426E+02  0.00000000000E+00 0. -1.
         11    1    3    3    0    0 -0.14947904722E+02 -0.37071572657E+01  0.58980815427E+00  0.15412032458E+02  0.51100000000E-03 0. -1.
        -11    1    3    3    0    0 -0.14501935009E+02 -0.44532193977E+01  0.88841974122E+00  0.15196268354E+02  0.51100000000E-03 0.  1.
        -12    1    3    3    0    0 -0.12027585258E+02 -0.76664748695E+01  0.61537234499E+01  0.15534025761E+02  0.00000000000E+00 0.  1.
</event>
<event>
 7    1  0.2323330E-008  0.4614232E+02  0.7816164E-02  0.1320468E+00
        -11   -1    0    0    0    0  0.00000000000E+00  0.00000000000E+00  0.45593999997E+02  0.45594000000E+02  0.51100000000E-03 0. -1.
         11   -1    0    0    0    0 -0.00000000000E+00 -0.00000000000E+00 -0.45593999997E+02  0.45594000000E+02  0.51100000000E-03 0.  1.
    9900012    2    1    2    0    0  0.12224202047E+02 -0.40407544860E+01 -0.43166592725E+02  0.46142317188E+02  0.99999947722E+01 0.  0.
         12    1    1    2    0    0 -0.12224202047E+02  0.40407544860E+01  0.43166592725E+02  0.45045682812E+02  0.00000000000E+00 0. -1.
         11    1    3    3    0    0  0.14248189318E+01  0.19103668176E+01 -0.11143221940E+02  0.11395218551E+02  0.51100000000E-03 0. -1.
        -11    1    3    3    0    0  0.15476017819E+01  0.65259870879E+00 -0.18246819354E+01  0.24800041888E+01  0.51100000000E-03 0.  1.
        -12    1    3    3    0    0  0.92517813336E+01 -0.66037200125E+01 -0.30198688850E+02  0.32267094448E+02  0.00000000000E+00 0.  1.
</event>
<event>
 7    1  0.2323330E-008  0.4614232E+02  0.7816164E-02  0.1320468E+00
        -11   -1    0    0    0    0  0.00000000000E+00  0.00000000000E+00  0.45593999997E+02  0.45594000000E+02  0.51100000000E-03 0. -1.
         11   -1    0    0    0    0 -0.00000000000E+00 -0.00000000000E+00 -0.45593999997E+02  0.45594000000E+02  0.51100000000E-03 0.  1.
    9900012    2    1    2    0    0 -0.38212873245E+02 -0.14200265135E+02 -0.19163563951E+02  0.46142318799E+02  0.10000009464E+02 0.  0.
         12    1    1    2    0    0  0.38212873245E+02  0.14200265135E+02  0.19163563951E+02  0.45045681201E+02  0.00000000000E+00 0. -1.
         11    1    3    3    0    0 -0.20951269224E+01 -0.31905474964E+01 -0.13630255116E+01  0.40530222001E+01  0.51100000000E-03 0. -1.
        -11    1    3    3    0    0 -0.65665819569E+01 -0.14703109299E+01 -0.10617910003E+01  0.68124307862E+01  0.51100000000E-03 0.  1.
        -12    1    3    3    0    0 -0.29551164366E+02 -0.95394067083E+01 -0.16738747439E+02  0.35276865813E+02  0.00000000000E+00 0.  1.
</event>
<event>
 7    1  0.2323330E-008  0.4614232E+02  0.7816164E-02  0.1320468E+00
        -11   -1    0    0    0    0  0.00000000000E+00  0.00000000000E+00  0.45593999997E+02  0.45594000000E+02  0.51100000000E-03 0. -1.
         11   -1    0    0    0    0 -0.00000000000E+00 -0.00000000000E+00 -0.45593999997E+02  0.45594000000E+02  0.51100000000E-03 0.  1.
    9900012    2    1    2    0    0 -0.37790753130E+02  0.22693857766E+02 -0.92715356278E+01  0.46142316796E+02  0.99999911977E+01 0.  0.
         12    1    1    2    0    0  0.37790753130E+02 -0.22693857766E+02  0.92715356278E+01  0.45045683204E+02  0.00000000000E+00 0. -1.
         11    1    3    3    0    0 -0.88645369965E+01  0.37955392918E+01 -0.53325446575E+01  0.11019172721E+02  0.51100000000E-03 0. -1.
        -11    1    3    3    0    0 -0.49935928620E+01  0.31357852816E+01 -0.25731953873E+01  0.64335413084E+01  0.51100000000E-03 0.  1.
         12    1    3    3    0    0 -0.23932623272E+02  0.15762533192E+02 -0.13657955829E+01  0.28689602766E+02  0.00000000000E+00 0. -1.
</event>
<event>
 7    1  0.2323330E-008  0.4614232E+02  0.7816164E-02  0.1320468E+00
        -11   -1    0    0    0    0  0.00000000000E+00  0.00000000000E+00  0.45593999997E+02  0.45594000000E+02  0.51100000000E-03 0.  1.
         11   -1    0    0    0    0 -0.00000000000E+00 -0.00000000000E+00 -0.45593999997E+02  0.45594000000E+02  0.51100000000E-03 0. -1.
    9900012    2    1    2    0    0  0.38526097138E+02  0.21935250532E+02  0.79811056175E+01  0.46142318481E+02  0.10000006567E+02 0.  0.
         12    1    1    2    0    0 -0.38526097138E+02 -0.21935250532E+02 -0.79811056175E+01  0.45045681519E+02  0.00000000000E+00 0. -1.
         11    1    3    3    0    0  0.63989348909E+01 -0.84192644174E-01  0.69004580398E+00  0.64365844679E+01  0.51100000000E-03 0. -1.
        -11    1    3    3    0    0  0.93141988673E+01  0.57877225550E+01  0.10157995470E+01  0.11012896163E+02  0.51100000000E-03 0.  1.
        -12    1    3    3    0    0  0.22812963380E+02  0.16231720621E+02  0.62752602664E+01  0.28692837851E+02  0.00000000000E+00 0.  1.
</event>
<event>
 7    1  0.2323330E-008  0.4614232E+02  0.7816164E-02  0.1320468E+00
        -11   -1    0    0    0    0  0.00000000000E+00  0.00000000000E+00  0.45593999997E+02  0.45594000000E+02  0.51100000000E-03 0.  1.
         11   -1    0    0    0    0 -0.00000000000E+00 -0.00000000000E+00 -0.45593999997E+02  0.45594000000E+02  0.51100000000E-03 0. -1.
    9900012    2    1    2    0    0  0.15510692943E+02 -0.31568236728E+02  0.28142113736E+02  0.46142315065E+02  0.99999754183E+01 0.  0.
         12    1    1    2    0    0 -0.15510692943E+02  0.31568236728E+02 -0.28142113736E+02  0.45045684935E+02  0.00000000000E+00 0. -1.
         11    1    3    3    0    0  0.85675256666E+01 -0.23666047407E+02  0.17666388350E+02  0.30750375176E+02  0.51100000000E-03 0. -1.
        -11    1    3    3    0    0  0.62495194823E+01 -0.71006094114E+01  0.70260234477E+01  0.11783045172E+02  0.51100000000E-03 0.  1.
         12    1    3    3    0    0  0.69364779453E+00 -0.80157990991E+00  0.34497019386E+01  0.36088947172E+01  0.00000000000E+00 0. -1.
</event>
<event>
 7    1  0.2323330E-008  0.4614232E+02  0.7816164E-02  0.1320468E+00
        -11   -1    0    0    0    0  0.00000000000E+00  0.00000000000E+00  0.45593999997E+02  0.45594000000E+02  0.51100000000E-03 0. -1.
         11   -1    0    0    0    0 -0.00000000000E+00 -0.00000000000E+00 -0.45593999997E+02  0.45594000000E+02  0.51100000000E-03 0.  1.
    9900012    2    1    2    0    0  0.13302505604E+02  0.41628080704E+02 -0.10920607942E+02  0.46142318339E+02  0.10000005272E+02 0.  0.
         12    1    1    2    0    0 -0.13302505604E+02 -0.41628080704E+02  0.10920607942E+02  0.45045681661E+02  0.00000000000E+00 0. -1.
         11    1    3    3    0    0  0.11209347138E+01  0.30378457804E+01 -0.30573851592E+01  0.44533813997E+01  0.51100000000E-03 0. -1.
        -11    1    3    3    0    0  0.12043696128E+02  0.32538114506E+02 -0.81079513220E+01  0.35630301528E+02  0.51100000000E-03 0.  1.
        -12    1    3    3    0    0  0.13787476212E+00  0.60521204175E+01  0.24472853924E+00  0.60586354120E+01  0.00000000000E+00 0.  1.
</event>
<event>
 7    1  0.2323330E-008  0.4614232E+02  0.7816164E-02  0.1320468E+00
        -11   -1    0    0    0    0  0.00000000000E+00  0.00000000000E+00  0.45593999997E+02  0.45594000000E+02  0.51100000000E-03 0.  1.
         11   -1    0    0    0    0 -0.00000000000E+00 -0.00000000000E+00 -0.45593999997E+02  0.45594000000E+02  0.51100000000E-03 0. -1.
    9900012    2    1    2    0    0 -0.34230997403E+02 -0.29264750406E+02 -0.96259858354E+00  0.46142318791E+02  0.10000009392E+02 0.  0.
         12    1    1    2    0    0  0.34230997403E+02  0.29264750406E+02  0.96259858354E+00  0.45045681209E+02  0.00000000000E+00 0. -1.
         11    1    3    3    0    0 -0.15011194851E+02 -0.89846675863E+01 -0.13397162233E+01  0.17545798994E+02  0.51100000000E-03 0. -1.
        -11    1    3    3    0    0 -0.11947175527E+02 -0.10669586500E+02 -0.24841548834E+01  0.16209444929E+02  0.51100000000E-03 0.  1.
        -12    1    3    3    0    0 -0.72726270249E+01 -0.96104963194E+01  0.28612725232E+01  0.12387074869E+02  0.00000000000E+00 0.  1.
</event>
<event>
 7    1  0.2323330E-008  0.4614232E+02  0.7816164E-02  0.1320468E+00
        -11   -1    0    0    0    0  0.00000000000E+00  0.00000000000E+00  0.45593999997E+02  0.45594000000E+02  0.51100000000E-03 0.  1.
         11   -1    0    0    0    0 -0.00000000000E+00 -0.00000000000E+00 -0.45593999997E+02  0.45594000000E+02  0.51100000000E-03 0. -1.
    9900012    2    1    2    0    0  0.20927426312E+02  0.21598493269E+02  0.33535964823E+02  0.46142322958E+02  0.10000047393E+02 0.  0.
         12    1    1    2    0    0 -0.20927426312E+02 -0.21598493269E+02 -0.33535964823E+02  0.45045677042E+02  0.00000000000E+00 0. -1.
         11    1    3    3    0    0  0.10281678131E+02  0.75481701472E+01  0.91771403969E+01  0.15713296404E+02  0.51100000000E-03 0. -1.
        -11    1    3    3    0    0  0.64021030820E+00  0.14350057524E+01  0.50693320593E+00  0.16510882122E+01  0.51100000000E-03 0.  1.
         12    1    3    3    0    0  0.10005537873E+02  0.12615317370E+02  0.23851891220E+02  0.28777938342E+02  0.00000000000E+00 0. -1.
</event>
<event>
 7    1  0.2323330E-008  0.4614232E+02  0.7816164E-02  0.1320468E+00
        -11   -1    0    0    0    0  0.00000000000E+00  0.00000000000E+00  0.45593999997E+02  0.45594000000E+02  0.51100000000E-03 0.  1.
         11   -1    0    0    0    0 -0.00000000000E+00 -0.00000000000E+00 -0.45593999997E+02  0.45594000000E+02  0.51100000000E-03 0. -1.
    9900012    2    1    2    0    0  0.16477903534E+02 -0.18298437800E+02  0.37719482504E+02  0.46142317730E+02  0.99999997184E+01 0.  0.
         12    1    1    2    0    0 -0.16477903534E+02  0.18298437800E+02 -0.37719482504E+02  0.45045682270E+02  0.00000000000E+00 0. -1.
         11    1    3    3    0    0  0.67959364803E+00  0.10891511313E+01  0.20730423217E+01  0.24383606054E+01  0.51100000000E-03 0. -1.
        -11    1    3    3    0    0  0.10733566248E+02 -0.10399764066E+02  0.20152814397E+02  0.25089847855E+02  0.51100000000E-03 0.  1.
         12    1    3    3    0    0  0.50647436382E+01 -0.89878248651E+01  0.15493625785E+02  0.18614109269E+02  0.00000000000E+00 0. -1.
</event>
<event>
 7    1  0.2323330E-008  0.4614232E+02  0.7816164E-02  0.1320468E+00
        -11   -1    0    0    0    0  0.00000000000E+00  0.00000000000E+00  0.45593999997E+02  0.45594000000E+02  0.51100000000E-03 0.  1.
         11   -1    0    0    0    0 -0.00000000000E+00 -0.00000000000E+00 -0.45593999997E+02  0.45594000000E+02  0.51100000000E-03 0. -1.
    9900012    2    1    2    0    0  0.22925603019E+02 -0.19564191079E+02  0.33477943611E+02  0.46142317024E+02  0.99999932765E+01 0.  0.
         12    1    1    2    0    0 -0.22925603019E+02  0.19564191079E+02 -0.33477943611E+02  0.45045682976E+02  0.00000000000E+00 0. -1.
         11    1    3    3    0    0  0.19579298627E+02 -0.16031588450E+02  0.25335003385E+02  0.35808143763E+02  0.51100000000E-03 0. -1.
        -11    1    3    3    0    0  0.25392328297E+01 -0.12457519240E+01  0.13750038606E+01  0.31448747348E+01  0.51100000000E-03 0.  1.
         12    1    3    3    0    0  0.80707156247E+00 -0.22868507048E+01  0.67679363650E+01  0.71892985259E+01  0.00000000000E+00 0. -1.
</event>
<event>
 7    1  0.2323330E-008  0.4614232E+02  0.7816164E-02  0.1320468E+00
        -11   -1    0    0    0    0  0.00000000000E+00  0.00000000000E+00  0.45593999997E+02  0.45594000000E+02  0.51100000000E-03 0.  1.
         11   -1    0    0    0    0 -0.00000000000E+00 -0.00000000000E+00 -0.45593999997E+02  0.45594000000E+02  0.51100000000E-03 0. -1.
    9900012    2    1    2    0    0  0.42275910129E+02  0.15534469353E+02  0.73565469807E+00  0.46142317597E+02  0.99999985046E+01 0.  0.
         12    1    1    2    0    0 -0.42275910129E+02 -0.15534469353E+02 -0.73565469807E+00  0.45045682403E+02  0.00000000000E+00 0. -1.
         11    1    3    3    0    0  0.12201517400E+02  0.51473937728E+01 -0.36055028413E+01  0.13724880346E+02  0.51100000000E-03 0. -1.
        -11    1    3    3    0    0  0.13834483495E+02  0.63532951151E+01  0.41302907616E+00  0.15229178759E+02  0.51100000000E-03 0.  1.
        -12    1    3    3    0    0  0.16239909234E+02  0.40337804646E+01  0.39281284632E+01  0.17188258492E+02  0.00000000000E+00 0.  1.
</event>
<event>
 7    1  0.2323330E-008  0.4614232E+02  0.7816164E-02  0.1320468E+00
        -11   -1    0    0    0    0  0.00000000000E+00  0.00000000000E+00  0.45593999997E+02  0.45594000000E+02  0.51100000000E-03 0. -1.
         11   -1    0    0    0    0 -0.00000000000E+00 -0.00000000000E+00 -0.45593999997E+02  0.45594000000E+02  0.51100000000E-03 0.  1.
    9900012    2    1    2    0    0 -0.91342240931E+01 -0.40737089089E+02 -0.16916535530E+02  0.46142315950E+02  0.99999834820E+01 0.  0.
         12    1    1    2    0    0  0.91342240931E+01  0.40737089089E+02  0.16916535530E+02  0.45045684050E+02  0.00000000000E+00 0. -1.
         11    1    3    3    0    0 -0.24910312326E+01 -0.17600759307E+02 -0.10686799413E+02  0.20741254705E+02  0.51100000000E-03 0. -1.
        -11    1    3    3    0    0 -0.32765168335E+01 -0.38961968689E+01 -0.14208342357E+01  0.52853271221E+01  0.51100000000E-03 0.  1.
         12    1    3    3    0    0 -0.33666760271E+01 -0.19240132913E+02 -0.48089018813E+01  0.20115734123E+02  0.00000000000E+00 0. -1.
</event>
<event>
 7    1  0.2323330E-008  0.4614232E+02  0.7816164E-02  0.1320468E+00
        -11   -1    0    0    0    0  0.00000000000E+00  0.00000000000E+00  0.45593999997E+02  0.45594000000E+02  0.51100000000E-03 0. -1.
         11   -1    0    0    0    0 -0.00000000000E+00 -0.00000000000E+00 -0.45593999997E+02  0.45594000000E+02  0.51100000000E-03 0.  1.
    9900012    2    1    2    0    0 -0.39114334213E+02  0.14626370178E+02 -0.16889391798E+02  0.46142318733E+02  0.10000008863E+02 0.  0.
         12    1    1    2    0    0  0.39114334213E+02 -0.14626370178E+02  0.16889391798E+02  0.45045681267E+02  0.00000000000E+00 0. -1.
         11    1    3    3    0    0 -0.24649943828E+01  0.17865688073E+01  0.49590784765E+00  0.30844692031E+01  0.51100000000E-03 0. -1.
        -11    1    3    3    0    0 -0.11171125949E+02  0.30536383570E+01 -0.20798852607E+01  0.11766251958E+02  0.51100000000E-03 0.  1.
         12    1    3    3    0    0 -0.25478213881E+02  0.97861630138E+01 -0.15305414385E+02  0.31291597572E+02  0.00000000000E+00 0. -1.
</event>
<event>
 7    1  0.2323330E-008  0.4614232E+02  0.7816164E-02  0.1320468E+00
        -11   -1    0    0    0    0  0.00000000000E+00  0.00000000000E+00  0.45593999997E+02  0.45594000000E+02  0.51100000000E-03 0.  1.
         11   -1    0    0    0    0 -0.00000000000E+00 -0.00000000000E+00 -0.45593999997E+02  0.45594000000E+02  0.51100000000E-03 0. -1.
    9900012    2    1    2    0    0 -0.13189730969E+02  0.11884094425E+02  0.41399428794E+02  0.46142318655E+02  0.10000008155E+02 0.  0.
         12    1    1    2    0    0  0.13189730969E+02 -0.11884094425E+02 -0.41399428794E+02  0.45045681345E+02  0.00000000000E+00 0. -1.
         11    1    3    3    0    0  0.52882142755E+00  0.19949825712E+01  0.33186522701E+01  0.39080763442E+01  0.51100000000E-03 0.  1.
        -11    1    3    3    0    0 -0.70924876812E+00  0.27714925516E+01  0.29868974544E+01  0.41359111986E+01  0.51100000000E-03 0. -1.
         12    1    3    3    0    0 -0.13009303628E+02  0.71176193021E+01  0.35093879069E+02  0.38098331113E+02  0.00000000000E+00 0. -1.
</event>
<event>
 7    1  0.2323330E-008  0.4614232E+02  0.7816164E-02  0.1320468E+00
        -11   -1    0    0    0    0  0.00000000000E+00  0.00000000000E+00  0.45593999997E+02  0.45594000000E+02  0.51100000000E-03 0.  1.
         11   -1    0    0    0    0 -0.00000000000E+00 -0.00000000000E+00 -0.45593999997E+02  0.45594000000E+02  0.51100000000E-03 0. -1.
    9900012    2    1    2    0    0 -0.14065144083E+02 -0.16016064512E+01  0.42763536896E+02  0.46142317531E+02  0.99999978974E+01 0.  0.
         12    1    1    2    0    0  0.14065144083E+02  0.16016064512E+01 -0.42763536896E+02  0.45045682469E+02  0.00000000000E+00 0. -1.
         11    1    3    3    0    0 -0.34969605666E+01 -0.48043930302E+01  0.15616997092E+02  0.16709324464E+02  0.51100000000E-03 0. -1.
        -11    1    3    3    0    0 -0.23368245354E+01  0.41053796763E+00  0.90708442732E+01  0.93760069551E+01  0.51100000000E-03 0.  1.
         12    1    3    3    0    0 -0.82313589805E+01  0.27922486114E+01  0.18075695531E+02  0.20056986112E+02  0.00000000000E+00 0. -1.
</event>
<event>
 7    1  0.2323330E-008  0.4614232E+02  0.7816164E-02  0.1320468E+00
        -11   -1    0    0    0    0  0.00000000000E+00  0.00000000000E+00  0.45593999997E+02  0.45594000000E+02  0.51100000000E-03 0.  1.
         11   -1    0    0    0    0 -0.00000000000E+00 -0.00000000000E+00 -0.45593999997E+02  0.45594000000E+02  0.51100000000E-03 0. -1.
    9900012    2    1    2    0    0 -0.29823735129E+02 -0.15144438912E+02  0.30171239768E+02  0.46142324112E+02  0.10000057916E+02 0.  0.
         12    1    1    2    0    0  0.29823735129E+02  0.15144438912E+02 -0.30171239768E+02  0.45045675888E+02  0.00000000000E+00 0. -1.
         11    1    3    3    0    0 -0.19753632474E+02 -0.83046424145E+01  0.15306988073E+02  0.26333950818E+02  0.51100000000E-03 0. -1.
        -11    1    3    3    0    0 -0.87251782142E+01 -0.36967998920E+01  0.92961784790E+01  0.13274562098E+02  0.51100000000E-03 0.  1.
         12    1    3    3    0    0 -0.13449244411E+01 -0.31429966058E+01  0.55680732164E+01  0.65338111971E+01  0.00000000000E+00 0. -1.
</event>
<event>
 7    1  0.2323330E-008  0.4614232E+02  0.7816164E-02  0.1320468E+00
        -11   -1    0    0    0    0  0.00000000000E+00  0.00000000000E+00  0.45593999997E+02  0.45594000000E+02  0.51100000000E-03 0.  1.
         11   -1    0    0    0    0 -0.00000000000E+00 -0.00000000000E+00 -0.45593999997E+02  0.45594000000E+02  0.51100000000E-03 0. -1.
    9900012    2    1    2    0    0 -0.35715681839E+02  0.25239570040E+02  0.10792018289E+02  0.46142317811E+02  0.10000000459E+02 0.  0.
         12    1    1    2    0    0  0.35715681839E+02 -0.25239570040E+02 -0.10792018289E+02  0.45045682189E+02  0.00000000000E+00 0. -1.
         11    1    3    3    0    0 -0.18064608050E+01  0.16828466043E+01 -0.10923123088E+01  0.26997073498E+01  0.51100000000E-03 0. -1.
        -11    1    3    3    0    0 -0.15375031553E+02  0.14398484407E+02  0.70348439122E+01  0.22208038581E+02  0.51100000000E-03 0.  1.
         12    1    3    3    0    0 -0.18534189481E+02  0.91582390288E+01  0.48494866856E+01  0.21234571881E+02  0.00000000000E+00 0. -1.
</event>
<event>
 7    1  0.2323330E-008  0.4614232E+02  0.7816164E-02  0.1320468E+00
        -11   -1    0    0    0    0  0.00000000000E+00  0.00000000000E+00  0.45593999997E+02  0.45594000000E+02  0.51100000000E-03 0.  1.
         11   -1    0    0    0    0 -0.00000000000E+00 -0.00000000000E+00 -0.45593999997E+02  0.45594000000E+02  0.51100000000E-03 0. -1.
    9900012    2    1    2    0    0  0.36731157868E+02 -0.39273067049E+01  0.25778125838E+02  0.46142317987E+02  0.10000002061E+02 0.  0.
         12    1    1    2    0    0 -0.36731157868E+02  0.39273067049E+01 -0.25778125838E+02  0.45045682013E+02  0.00000000000E+00 0. -1.
         11    1    3    3    0    0  0.24905526571E+01  0.86981673731E+00  0.92646002962E+00  0.27960261340E+01  0.51100000000E-03 0. -1.
        -11    1    3    3    0    0  0.26759776071E+02 -0.39020446933E+00  0.17570962545E+02  0.32015255737E+02  0.51100000000E-03 0.  1.
         12    1    3    3    0    0  0.74808291403E+01 -0.44069189729E+01  0.72807032628E+01  0.11331036116E+02  0.00000000000E+00 0. -1.
</event>
<event>
 7    1  0.2323330E-008  0.4614232E+02  0.7816164E-02  0.1320468E+00
        -11   -1    0    0    0    0  0.00000000000E+00  0.00000000000E+00  0.45593999997E+02  0.45594000000E+02  0.51100000000E-03 0.  1.
         11   -1    0    0    0    0 -0.00000000000E+00 -0.00000000000E+00 -0.45593999997E+02  0.45594000000E+02  0.51100000000E-03 0. -1.
    9900012    2    1    2    0    0 -0.24996021138E+02  0.14911227042E+01  0.37444480939E+02  0.46142315718E+02  0.99999813664E+01 0.  0.
         12    1    1    2    0    0  0.24996021138E+02 -0.14911227042E+01 -0.37444480939E+02  0.45045684282E+02  0.00000000000E+00 0. -1.
         11    1    3    3    0    0 -0.11896269287E+02 -0.47467989446E+00  0.17246796048E+02  0.20957063681E+02  0.51100000000E-03 0.  1.
        -11    1    3    3    0    0 -0.15294914101E+01 -0.14145928751E+01  0.58405421396E+00  0.21636858741E+01  0.51100000000E-03 0. -1.
         12    1    3    3    0    0 -0.11570260441E+02  0.33803954738E+01  0.19613630677E+02  0.23021566163E+02  0.00000000000E+00 0. -1.
</event>
<event>
 7    1  0.2323330E-008  0.4614232E+02  0.7816164E-02  0.1320468E+00
        -11   -1    0    0    0    0  0.00000000000E+00  0.00000000000E+00  0.45593999997E+02  0.45594000000E+02  0.51100000000E-03 0.  1.
         11   -1    0    0    0    0 -0.00000000000E+00 -0.00000000000E+00 -0.45593999997E+02  0.45594000000E+02  0.51100000000E-03 0. -1.
    9900012    2    1    2    0    0  0.83040295020E+01  0.40661610404E+02  0.17515422399E+02  0.46142317760E+02  0.99999999910E+01 0.  0.
         12    1    1    2    0    0 -0.83040295020E+01 -0.40661610404E+02 -0.17515422399E+02  0.45045682240E+02  0.00000000000E+00 0. -1.
         11    1    3    3    0    0  0.65703233667E+00  0.18169703386E+01  0.27076483758E+01  0.33263242011E+01  0.51100000000E-03 0. -1.
        -11    1    3    3    0    0  0.72398363284E+01  0.19657066634E+02  0.86075569227E+01  0.22647417848E+02  0.51100000000E-03 0.  1.
         12    1    3    3    0    0  0.40716083690E+00  0.19187573431E+02  0.62002171008E+01  0.20168575711E+02  0.00000000000E+00 0. -1.
</event>
<event>
 7    1  0.2323330E-008  0.4614232E+02  0.7816164E-02  0.1320468E+00
        -11   -1    0    0    0    0  0.00000000000E+00  0.00000000000E+00  0.45593999997E+02  0.45594000000E+02  0.51100000000E-03 0.  1.
         11   -1    0    0    0    0 -0.00000000000E+00 -0.00000000000E+00 -0.45593999997E+02  0.45594000000E+02  0.51100000000E-03 0. -1.
    9900012    2    1    2    0    0  0.25729104450E+02 -0.19401330704E+02  0.31475626022E+02  0.46142317828E+02  0.10000000609E+02 0.  0.
         12    1    1    2    0    0 -0.25729104450E+02  0.19401330704E+02 -0.31475626022E+02  0.45045682172E+02  0.00000000000E+00 0. -1.
         11    1    3    3    0    0  0.38336487460E+01 -0.20374600873E+01  0.94229116761E+00  0.44425239697E+01  0.51100000000E-03 0. -1.
        -11    1    3    3    0    0  0.20516499445E+02 -0.14222061163E+02  0.26570743514E+02  0.36458170337E+02  0.51100000000E-03 0.  1.
         12    1    3    3    0    0  0.13789562591E+01 -0.31418094531E+01  0.39625913407E+01  0.52416235212E+01  0.00000000000E+00 0. -1.
</event>
<event>
 7    1  0.2323330E-008  0.4614232E+02  0.7816164E-02  0.1320468E+00
        -11   -1    0    0    0    0  0.00000000000E+00  0.00000000000E+00  0.45593999997E+02  0.45594000000E+02  0.51100000000E-03 0.  1.
         11   -1    0    0    0    0 -0.00000000000E+00 -0.00000000000E+00 -0.45593999997E+02  0.45594000000E+02  0.51100000000E-03 0. -1.
    9900012    2    1    2    0    0  0.39812020999E+02 -0.96104730261E+01  0.18755139277E+02  0.46142318108E+02  0.10000003164E+02 0.  0.
         12    1    1    2    0    0 -0.39812020999E+02  0.96104730261E+01 -0.18755139277E+02  0.45045681892E+02  0.00000000000E+00 0. -1.
         11    1    3    3    0    0  0.82275118938E+01 -0.38206032281E+01  0.84410543103E+00  0.91105145425E+01  0.51100000000E-03 0. -1.
        -11    1    3    3    0    0  0.27038856387E+02 -0.53213069372E+01  0.13524207258E+02  0.30697235127E+02  0.51100000000E-03 0.  1.
         12    1    3    3    0    0  0.45456527184E+01 -0.46856286073E+00  0.43868265881E+01  0.63345684387E+01  0.00000000000E+00 0. -1.
</event>
<event>
 7    1  0.2323330E-008  0.4614232E+02  0.7816164E-02  0.1320468E+00
        -11   -1    0    0    0    0  0.00000000000E+00  0.00000000000E+00  0.45593999997E+02  0.45594000000E+02  0.51100000000E-03 0.  1.
         11   -1    0    0    0    0 -0.00000000000E+00 -0.00000000000E+00 -0.45593999997E+02  0.45594000000E+02  0.51100000000E-03 0. -1.
    9900012    2    1    2    0    0  0.28679956776E+02  0.35285036708E+01  0.34556087661E+02  0.46142318151E+02  0.10000003553E+02 0.  0.
         12    1    1    2    0    0 -0.28679956776E+02 -0.35285036708E+01 -0.34556087661E+02  0.45045681849E+02  0.00000000000E+00 0. -1.
         11    1    3    3    0    0  0.68019509705E+01  0.26262363035E+01  0.80088428504E+01  0.10830753353E+02  0.51100000000E-03 0. -1.
        -11    1    3    3    0    0  0.12206500292E+02  0.44057766818E+01  0.14073516160E+02  0.19143494324E+02  0.51100000000E-03 0.  1.
        -12    1    3    3    0    0  0.96715055133E+01 -0.35035093145E+01  0.12473728650E+02  0.16168070474E+02  0.00000000000E+00 0.  1.
</event>
<event>
 7    1  0.2323330E-008  0.4614232E+02  0.7816164E-02  0.1320468E+00
        -11   -1    0    0    0    0  0.00000000000E+00  0.00000000000E+00  0.45593999997E+02  0.45594000000E+02  0.51100000000E-03 0.  1.
         11   -1    0    0    0    0 -0.00000000000E+00 -0.00000000000E+00 -0.45593999997E+02  0.45594000000E+02  0.51100000000E-03 0. -1.
    9900012    2    1    2    0    0 -0.12044228775E+02  0.15949233960E+02  0.40369196203E+02  0.46142317490E+02  0.99999975244E+01 0.  0.
         12    1    1    2    0    0  0.12044228775E+02 -0.15949233960E+02 -0.40369196203E+02  0.45045682510E+02  0.00000000000E+00 0. -1.
         11    1    3    3    0    0 -0.36485794062E+01  0.15128608032E+01  0.30607387633E+01  0.49968991917E+01  0.51100000000E-03 0. -1.
        -11    1    3    3    0    0 -0.60476253173E+01  0.58907783351E+01  0.16718786792E+02  0.18729465380E+02  0.51100000000E-03 0.  1.
         12    1    3    3    0    0 -0.23480240516E+01  0.85455948220E+01  0.20589670648E+02  0.22415952918E+02  0.00000000000E+00 0. -1.
</event>
<event>
 7    1  0.2323330E-008  0.4614232E+02  0.7816164E-02  0.1320468E+00
        -11   -1    0    0    0    0  0.00000000000E+00  0.00000000000E+00  0.45593999997E+02  0.45594000000E+02  0.51100000000E-03 0.  1.
         11   -1    0    0    0    0 -0.00000000000E+00 -0.00000000000E+00 -0.45593999997E+02  0.45594000000E+02  0.51100000000E-03 0. -1.
    9900012    2    1    2    0    0  0.98713185759E+01 -0.43912029367E+02  0.18450562121E+01  0.46142317787E+02  0.10000000240E+02 0.  0.
         12    1    1    2    0    0 -0.98713185759E+01  0.43912029367E+02 -0.18450562121E+01  0.45045682213E+02  0.00000000000E+00 0. -1.
         11    1    3    3    0    0 -0.15147494646E+01 -0.63429213835E+01 -0.94924103870E-01  0.65219727434E+01  0.51100000000E-03 0. -1.
        -11    1    3    3    0    0  0.42631476074E+01 -0.17272380077E+02 -0.14281428353E+01  0.17847944791E+02  0.51100000000E-03 0.  1.
         12    1    3    3    0    0  0.71229204331E+01 -0.20296727906E+02  0.33681231512E+01  0.21772400253E+02  0.00000000000E+00 0. -1.
</event>
<event>
 7    1  0.2323330E-008  0.4614232E+02  0.7816164E-02  0.1320468E+00
        -11   -1    0    0    0    0  0.00000000000E+00  0.00000000000E+00  0.45593999997E+02  0.45594000000E+02  0.51100000000E-03 0.  1.
         11   -1    0    0    0    0 -0.00000000000E+00 -0.00000000000E+00 -0.45593999997E+02  0.45594000000E+02  0.51100000000E-03 0. -1.
    9900012    2    1    2    0    0 -0.16007150833E+02  0.18150871235E+02  0.37992500767E+02  0.46142321862E+02  0.10000037392E+02 0.  0.
         12    1    1    2    0    0  0.16007150833E+02 -0.18150871235E+02 -0.37992500767E+02  0.45045678138E+02  0.00000000000E+00 0. -1.
         11    1    3    3    0    0 -0.18127788612E-01 -0.68031902540E-01  0.16576629313E+01  0.16591575004E+01  0.51100000000E-03 0. -1.
        -11    1    3    3    0    0 -0.75488213490E+01  0.73975602290E+01  0.23166493030E+02  0.25463601486E+02  0.51100000000E-03 0.  1.
         12    1    3    3    0    0 -0.84402016955E+01  0.10821342909E+02  0.13168344806E+02  0.19019562875E+02  0.00000000000E+00 0. -1.
</event>
<event>
 7    1  0.2323330E-008  0.4614232E+02  0.7816164E-02  0.1320468E+00
        -11   -1    0    0    0    0  0.00000000000E+00  0.00000000000E+00  0.45593999997E+02  0.45594000000E+02  0.51100000000E-03 0. -1.
         11   -1    0    0    0    0 -0.00000000000E+00 -0.00000000000E+00 -0.45593999997E+02  0.45594000000E+02  0.51100000000E-03 0.  1.
    9900012    2    1    2    0    0  0.22162083615E+02  0.12973517465E+02 -0.37008692288E+02  0.46142318625E+02  0.10000007881E+02 0.  0.
         12    1    1    2    0    0 -0.22162083615E+02 -0.12973517465E+02  0.37008692288E+02  0.45045681375E+02  0.00000000000E+00 0. -1.
         11    1    3    3    0    0  0.41126548762E+01  0.88031414687E+00 -0.52971047409E+01  0.67637417178E+01  0.51100000000E-03 0. -1.
        -11    1    3    3    0    0  0.75972664747E+01  0.32464308645E+00 -0.10577271764E+02  0.13026992333E+02  0.51100000000E-03 0.  1.
        -12    1    3    3    0    0  0.10452162265E+02  0.11768560232E+02 -0.21134315784E+02  0.26351584574E+02  0.00000000000E+00 0.  1.
</event>
<event>
 7    1  0.2323330E-008  0.4614232E+02  0.7816164E-02  0.1320468E+00
        -11   -1    0    0    0    0  0.00000000000E+00  0.00000000000E+00  0.45593999997E+02  0.45594000000E+02  0.51100000000E-03 0.  1.
         11   -1    0    0    0    0 -0.00000000000E+00 -0.00000000000E+00 -0.45593999997E+02  0.45594000000E+02  0.51100000000E-03 0. -1.
    9900012    2    1    2    0    0 -0.77321826755E+01  0.41139510134E+02  0.16639337016E+02  0.46142317862E+02  0.10000000916E+02 0.  0.
         12    1    1    2    0    0  0.77321826755E+01 -0.41139510134E+02 -0.16639337016E+02  0.45045682138E+02  0.00000000000E+00 0. -1.
         11    1    3    3    0    0 -0.60449891381E+01  0.13762666701E+02  0.78964774879E+01  0.16979612639E+02  0.51100000000E-03 0. -1.
        -11    1    3    3    0    0 -0.22279575443E+01  0.23145249896E+02  0.88910675871E+01  0.24894125224E+02  0.51100000000E-03 0.  1.
         12    1    3    3    0    0  0.54076400682E+00  0.42315935370E+01 -0.14820805909E+00  0.42685799984E+01  0.00000000000E+00 0. -1.
</event>
<event>
 7    1  0.2323330E-008  0.4614232E+02  0.7816164E-02  0.1320468E+00
        -11   -1    0    0    0    0  0.00000000000E+00  0.00000000000E+00  0.45593999997E+02  0.45594000000E+02  0.51100000000E-03 0. -1.
         11   -1    0    0    0    0 -0.00000000000E+00 -0.00000000000E+00 -0.45593999997E+02  0.45594000000E+02  0.51100000000E-03 0.  1.
    9900012    2    1    2    0    0  0.16268575134E+02  0.35215993437E+01  0.41857438670E+02  0.46142319066E+02  0.10000011896E+02 0.  0.
         12    1    1    2    0    0 -0.16268575134E+02 -0.35215993437E+01 -0.41857438670E+02  0.45045680934E+02  0.00000000000E+00 0. -1.
         11    1    3    3    0    0  0.66623283368E+00 -0.49297379343E+00  0.22434936871E+01  0.23916842465E+01  0.51100000000E-03 0. -1.
        -11    1    3    3    0    0  0.13172657991E+02 -0.26155937517E+00  0.32799254681E+02  0.35346547776E+02  0.51100000000E-03 0.  1.
        -12    1    3    3    0    0  0.24296843100E+01  0.42761325123E+01  0.68146903021E+01  0.84040870428E+01  0.00000000000E+00 0.  1.
</event>
<event>
 7    1  0.2323330E-008  0.4614232E+02  0.7816164E-02  0.1320468E+00
        -11   -1    0    0    0    0  0.00000000000E+00  0.00000000000E+00  0.45593999997E+02  0.45594000000E+02  0.51100000000E-03 0.  1.
         11   -1    0    0    0    0 -0.00000000000E+00 -0.00000000000E+00 -0.45593999997E+02  0.45594000000E+02  0.51100000000E-03 0. -1.
    9900012    2    1    2    0    0  0.20785758118E+02  0.42199938661E+01  0.39739872087E+02  0.46142317385E+02  0.99999965708E+01 0.  0.
         12    1    1    2    0    0 -0.20785758118E+02 -0.42199938661E+01 -0.39739872087E+02  0.45045682615E+02  0.00000000000E+00 0. -1.
         11    1    3    3    0    0  0.60361919823E+01 -0.24427975917E+01  0.99013759194E+01  0.11850743398E+02  0.51100000000E-03 0. -1.
        -11    1    3    3    0    0  0.41554675149E+01  0.38812194990E+01  0.13185993440E+02  0.14359742279E+02  0.51100000000E-03 0.  1.
         12    1    3    3    0    0  0.10594098621E+02  0.27815719588E+01  0.16652502727E+02  0.19931831708E+02  0.00000000000E+00 0. -1.
</event>
<event>
 7    1  0.2323330E-008  0.4614232E+02  0.7816164E-02  0.1320468E+00
        -11   -1    0    0    0    0  0.00000000000E+00  0.00000000000E+00  0.45593999997E+02  0.45594000000E+02  0.51100000000E-03 0.  1.
         11   -1    0    0    0    0 -0.00000000000E+00 -0.00000000000E+00 -0.45593999997E+02  0.45594000000E+02  0.51100000000E-03 0. -1.
    9900012    2    1    2    0    0 -0.58289548630E+01  0.11710329826E+02  0.43104584193E+02  0.46142315214E+02  0.99999767695E+01 0.  0.
         12    1    1    2    0    0  0.58289548630E+01 -0.11710329826E+02 -0.43104584193E+02  0.45045684786E+02  0.00000000000E+00 0. -1.
         11    1    3    3    0    0 -0.29540269446E+01  0.47871839104E+01  0.23339055332E+02  0.24007392799E+02  0.51100000000E-03 0.  1.
        -11    1    3    3    0    0  0.18843015512E+01  0.49532780813E+00  0.44155269416E+01  0.48262636072E+01  0.51100000000E-03 0. -1.
        -12    1    3    3    0    0 -0.47592294696E+01  0.64278181073E+01  0.15350001920E+02  0.17308658807E+02  0.00000000000E+00 0.  1.
</event>
<event>
 7    1  0.2323330E-008  0.4614232E+02  0.7816164E-02  0.1320468E+00
        -11   -1    0    0    0    0  0.00000000000E+00  0.00000000000E+00  0.45593999997E+02  0.45594000000E+02  0.51100000000E-03 0.  1.
         11   -1    0    0    0    0 -0.00000000000E+00 -0.00000000000E+00 -0.45593999997E+02  0.45594000000E+02  0.51100000000E-03 0. -1.
    9900012    2    1    2    0    0  0.32773466881E+02 -0.30459947977E+02 -0.52158326562E+01  0.46142317938E+02  0.10000001610E+02 0.  0.
         12    1    1    2    0    0 -0.32773466881E+02  0.30459947977E+02  0.52158326562E+01  0.45045682062E+02  0.00000000000E+00 0. -1.
         11    1    3    3    0    0  0.51372716814E+01 -0.75325180057E+01 -0.45308957299E+01  0.10181326250E+02  0.51100000000E-03 0. -1.
        -11    1    3    3    0    0  0.65456639247E+01 -0.64593801370E+01 -0.17238665495E+00  0.91977728494E+01  0.51100000000E-03 0.  1.
         12    1    3    3    0    0  0.21090531275E+02 -0.16468049834E+02 -0.51255027138E+00  0.26763218838E+02  0.00000000000E+00 0. -1.
</event>
<event>
 7    1  0.2323330E-008  0.4614232E+02  0.7816164E-02  0.1320468E+00
        -11   -1    0    0    0    0  0.00000000000E+00  0.00000000000E+00  0.45593999997E+02  0.45594000000E+02  0.51100000000E-03 0.  1.
         11   -1    0    0    0    0 -0.00000000000E+00 -0.00000000000E+00 -0.45593999997E+02  0.45594000000E+02  0.51100000000E-03 0. -1.
    9900012    2    1    2    0    0  0.20334948401E+02  0.83182155452E+01  0.39324428311E+02  0.46142317651E+02  0.99999989961E+01 0.  0.
         12    1    1    2    0    0 -0.20334948401E+02 -0.83182155452E+01 -0.39324428311E+02  0.45045682349E+02  0.00000000000E+00 0. -1.
         11    1    3    3    0    0  0.17951471381E-01 -0.11686765402E+00  0.51444013063E+01  0.51457599405E+01  0.51100000000E-03 0.  1.
        -11    1    3    3    0    0  0.64499683812E+01  0.40274005862E+01  0.15963786646E+02  0.17682322583E+02  0.51100000000E-03 0. -1.
        -12    1    3    3    0    0  0.13867028548E+02  0.44076826130E+01  0.18216240359E+02  0.23314235128E+02  0.00000000000E+00 0.  1.
</event>
<event>
 7    1  0.2323330E-008  0.4614232E+02  0.7816164E-02  0.1320468E+00
        -11   -1    0    0    0    0  0.00000000000E+00  0.00000000000E+00  0.45593999997E+02  0.45594000000E+02  0.51100000000E-03 0.  1.
         11   -1    0    0    0    0 -0.00000000000E+00 -0.00000000000E+00 -0.45593999997E+02  0.45594000000E+02  0.51100000000E-03 0. -1.
    9900012    2    1    2    0    0 -0.31857523835E+02 -0.50792478542E+01  0.31439034806E+02  0.46142317708E+02  0.99999995152E+01 0.  0.
         12    1    1    2    0    0  0.31857523835E+02  0.50792478542E+01 -0.31439034806E+02  0.45045682292E+02  0.00000000000E+00 0. -1.
         11    1    3    3    0    0 -0.38344805473E+01 -0.31033143243E+01  0.69617013376E+01  0.85322380791E+01  0.51100000000E-03 0. -1.
        -11    1    3    3    0    0 -0.12624721022E+01 -0.11709015659E+01  0.21106500598E+01  0.27239108323E+01  0.51100000000E-03 0.  1.
        -12    1    3    3    0    0 -0.26760571185E+02 -0.80503196403E+00  0.22366683408E+02  0.34886168797E+02  0.00000000000E+00 0.  1.
</event>
<event>
 7    1  0.2323330E-008  0.4614232E+02  0.7816164E-02  0.1320468E+00
        -11   -1    0    0    0    0  0.00000000000E+00  0.00000000000E+00  0.45593999997E+02  0.45594000000E+02  0.51100000000E-03 0.  1.
         11   -1    0    0    0    0 -0.00000000000E+00 -0.00000000000E+00 -0.45593999997E+02  0.45594000000E+02  0.51100000000E-03 0. -1.
    9900012    2    1    2    0    0 -0.15830113537E+02  0.38660790375E+01  0.41994933673E+02  0.46142317455E+02  0.99999972123E+01 0.  0.
         12    1    1    2    0    0  0.15830113537E+02 -0.38660790375E+01 -0.41994933673E+02  0.45045682545E+02  0.00000000000E+00 0. -1.
         11    1    3    3    0    0 -0.72704052060E+01 -0.35792514077E-01  0.24113701757E+02  0.25185922371E+02  0.51100000000E-03 0. -1.
        -11    1    3    3    0    0 -0.80701201416E+01  0.17357111761E+01  0.16161614289E+02  0.18147652991E+02  0.51100000000E-03 0.  1.
        -12    1    3    3    0    0 -0.48958818925E+00  0.21661603755E+01  0.17196176262E+01  0.28087420935E+01  0.00000000000E+00 0.  1.
</event>
<event>
 7    1  0.2323330E-008  0.4614232E+02  0.7816164E-02  0.1320468E+00
        -11   -1    0    0    0    0  0.00000000000E+00  0.00000000000E+00  0.45593999997E+02  0.45594000000E+02  0.51100000000E-03 0. -1.
         11   -1    0    0    0    0 -0.00000000000E+00 -0.00000000000E+00 -0.45593999997E+02  0.45594000000E+02  0.51100000000E-03 0.  1.
    9900012    2    1    2    0    0 -0.31898374101E+02 -0.17530634815E+02 -0.26538351614E+02  0.46142317258E+02  0.99999954106E+01 0.  0.
         12    1    1    2    0    0  0.31898374101E+02  0.17530634815E+02  0.26538351614E+02  0.45045682742E+02  0.00000000000E+00 0. -1.
         11    1    3    3    0    0 -0.50753347742E+00  0.71269688926E+00 -0.52027710394E-02  0.87495966571E+00  0.51100000000E-03 0. -1.
        -11    1    3    3    0    0 -0.42606269518E+01 -0.88000670056E+00 -0.43832520136E+01  0.61757794885E+01  0.51100000000E-03 0.  1.
        -12    1    3    3    0    0 -0.27130213672E+02 -0.17363325004E+02 -0.22149896830E+02  0.39091578104E+02  0.00000000000E+00 0.  1.
</event>
<event>
 7    1  0.2323330E-008  0.4614232E+02  0.7816164E-02  0.1320468E+00
        -11   -1    0    0    0    0  0.00000000000E+00  0.00000000000E+00  0.45593999997E+02  0.45594000000E+02  0.51100000000E-03 0.  1.
         11   -1    0    0    0    0 -0.00000000000E+00 -0.00000000000E+00 -0.45593999997E+02  0.45594000000E+02  0.51100000000E-03 0. -1.
    9900012    2    1    2    0    0  0.34791558987E+02 -0.27434611382E+02  0.81242261870E+01  0.46142317304E+02  0.99999958290E+01 0.  0.
         12    1    1    2    0    0 -0.34791558987E+02  0.27434611382E+02 -0.81242261870E+01  0.45045682696E+02  0.00000000000E+00 0. -1.
         11    1    3    3    0    0  0.17418156866E+01 -0.18562939941E+01  0.19528779709E+01  0.32083456654E+01  0.51100000000E-03 0. -1.
        -11    1    3    3    0    0  0.87559704207E+00 -0.41483481804E-01  0.13019389100E+01  0.15695337671E+01  0.51100000000E-03 0.  1.
        -12    1    3    3    0    0  0.32174146258E+02 -0.25536833906E+02  0.48694093060E+01  0.41364437871E+02  0.00000000000E+00 0.  1.
</event>
<event>
 7    1  0.2323330E-008  0.4614230E+02  0.7816164E-02  0.1320468E+00
        -11   -1    0    0    0    0  0.00000000000E+00  0.00000000000E+00  0.45593999997E+02  0.45594000000E+02  0.51100000000E-03 0.  1.
         11   -1    0    0    0    0 -0.00000000000E+00 -0.00000000000E+00 -0.45593999997E+02  0.45594000000E+02  0.51100000000E-03 0. -1.
    9900012    2    1    2    0    0 -0.97068027638E+01 -0.23432536861E+02  0.37226453957E+02  0.46142304558E+02  0.99998796060E+01 0.  0.
         12    1    1    2    0    0  0.97068027638E+01  0.23432536861E+02 -0.37226453957E+02  0.45045695442E+02  0.00000000000E+00 0. -1.
         11    1    3    3    0    0  0.73147906966E+00 -0.19643657187E+01  0.62590636554E+01  0.66007327176E+01  0.51100000000E-03 0. -1.
        -11    1    3    3    0    0 -0.17224029889E+01 -0.95354917552E+01  0.14213232504E+02  0.17201984000E+02  0.51100000000E-03 0.  1.
        -12    1    3    3    0    0 -0.87158788446E+01 -0.11932679387E+02  0.16754157797E+02  0.22339587840E+02  0.00000000000E+00 0.  1.
</event>
<event>
 7    1  0.2323330E-008  0.4614232E+02  0.7816164E-02  0.1320468E+00
        -11   -1    0    0    0    0  0.00000000000E+00  0.00000000000E+00  0.45593999997E+02  0.45594000000E+02  0.51100000000E-03 0.  1.
         11   -1    0    0    0    0 -0.00000000000E+00 -0.00000000000E+00 -0.45593999997E+02  0.45594000000E+02  0.51100000000E-03 0. -1.
    9900012    2    1    2    0    0  0.19340954502E+01 -0.45940464763E+01  0.44769045652E+02  0.46142318334E+02  0.10000005220E+02 0.  0.
         12    1    1    2    0    0 -0.19340954502E+01  0.45940464763E+01 -0.44769045652E+02  0.45045681666E+02  0.00000000000E+00 0. -1.
         11    1    3    3    0    0 -0.10391727773E+01 -0.25164628481E+01  0.48597759834E+01  0.55704477555E+01  0.51100000000E-03 0. -1.
        -11    1    3    3    0    0 -0.19640838157E+01 -0.13385628105E+00  0.92988964001E+01  0.95049995929E+01  0.51100000000E-03 0.  1.
        -12    1    3    3    0    0  0.49373520432E+01 -0.19437273471E+01  0.30610373268E+02  0.31066870985E+02  0.00000000000E+00 0.  1.
</event>
<event>
 7    1  0.2323330E-008  0.4614232E+02  0.7816164E-02  0.1320468E+00
        -11   -1    0    0    0    0  0.00000000000E+00  0.00000000000E+00  0.45593999997E+02  0.45594000000E+02  0.51100000000E-03 0.  1.
         11   -1    0    0    0    0 -0.00000000000E+00 -0.00000000000E+00 -0.45593999997E+02  0.45594000000E+02  0.51100000000E-03 0. -1.
    9900012    2    1    2    0    0  0.22147049479E+02  0.30978143522E+02  0.24061927419E+02  0.46142317323E+02  0.99999960079E+01 0.  0.
         12    1    1    2    0    0 -0.22147049479E+02 -0.30978143522E+02 -0.24061927419E+02  0.45045682677E+02  0.00000000000E+00 0. -1.
         11    1    3    3    0    0  0.80729520958E+00  0.29458831736E+01  0.50890489444E+01  0.59353494124E+01  0.51100000000E-03 0. -1.
        -11    1    3    3    0    0  0.49918027396E+01  0.83148813248E+01  0.36623857596E+01  0.10366697437E+02  0.51100000000E-03 0.  1.
        -12    1    3    3    0    0  0.16347951530E+02  0.19717379023E+02  0.15310492715E+02  0.29840270474E+02  0.00000000000E+00 0.  1.
</event>
<event>
 7    1  0.2323330E-008  0.4614232E+02  0.7816164E-02  0.1320468E+00
        -11   -1    0    0    0    0  0.00000000000E+00  0.00000000000E+00  0.45593999997E+02  0.45594000000E+02  0.51100000000E-03 0. -1.
         11   -1    0    0    0    0 -0.00000000000E+00 -0.00000000000E+00 -0.45593999997E+02  0.45594000000E+02  0.51100000000E-03 0.  1.
    9900012    2    1    2    0    0  0.80283026732E+01  0.42876246875E+02 -0.11237762027E+02  0.46142317795E+02  0.10000000310E+02 0.  0.
         12    1    1    2    0    0 -0.80283026732E+01 -0.42876246875E+02  0.11237762027E+02  0.45045682205E+02  0.00000000000E+00 0. -1.
         11    1    3    3    0    0  0.28814952054E+01  0.31281806473E+01 -0.30005115348E+00  0.42636322234E+01  0.51100000000E-03 0. -1.
        -11    1    3    3    0    0  0.45067706237E+01  0.19516513017E+02 -0.72624121193E+01  0.21306052939E+02  0.51100000000E-03 0.  1.
        -12    1    3    3    0    0  0.64003684417E+00  0.20231553212E+02 -0.36752987540E+01  0.20572632633E+02  0.00000000000E+00 0.  1.
</event>
<event>
 7    1  0.2323330E-008  0.4614232E+02  0.7816164E-02  0.1320468E+00
        -11   -1    0    0    0    0  0.00000000000E+00  0.00000000000E+00  0.45593999997E+02  0.45594000000E+02  0.51100000000E-03 0. -1.
         11   -1    0    0    0    0 -0.00000000000E+00 -0.00000000000E+00 -0.45593999997E+02  0.45594000000E+02  0.51100000000E-03 0.  1.
    9900012    2    1    2    0    0 -0.84288746517E+01 -0.43376050449E+02 -0.87513360520E+01  0.46142316931E+02  0.99999924329E+01 0.  0.
         12    1    1    2    0    0  0.84288746517E+01  0.43376050449E+02  0.87513360520E+01  0.45045683069E+02  0.00000000000E+00 0. -1.
         11    1    3    3    0    0 -0.50723050964E+01 -0.10799533183E+02 -0.22216634515E+01  0.12136473323E+02  0.51100000000E-03 0. -1.
        -11    1    3    3    0    0  0.33259913428E+00 -0.20886952594E+02 -0.60099150195E+01  0.21736938368E+02  0.51100000000E-03 0.  1.
        -12    1    3    3    0    0 -0.36891686895E+01 -0.11689564672E+02 -0.51975758107E+00  0.12268905240E+02  0.00000000000E+00 0.  1.
</event>
<event>
 7    1  0.2323330E-008  0.4614232E+02  0.7816164E-02  0.1320468E+00
        -11   -1    0    0    0    0  0.00000000000E+00  0.00000000000E+00  0.45593999997E+02  0.45594000000E+02  0.51100000000E-03 0.  1.
         11   -1    0    0    0    0 -0.00000000000E+00 -0.00000000000E+00 -0.45593999997E+02  0.45594000000E+02  0.51100000000E-03 0. -1.
    9900012    2    1    2    0    0  0.33242079377E+02 -0.30361910340E+02  0.14939943557E+01  0.46142318077E+02  0.10000002877E+02 0.  0.
         12    1    1    2    0    0 -0.33242079377E+02  0.30361910340E+02 -0.14939943557E+01  0.45045681923E+02  0.00000000000E+00 0. -1.
         11    1    3    3    0    0  0.89190405725E+01 -0.85581139876E+01  0.24615066315E+01  0.12603555646E+02  0.51100000000E-03 0.  1.
        -11    1    3    3    0    0  0.31888073198E+01 -0.29833300672E+01  0.24931602063E+01  0.50283793103E+01  0.51100000000E-03 0. -1.
        -12    1    3    3    0    0  0.21134231485E+02 -0.18820466285E+02 -0.34606724821E+01  0.28510383121E+02  0.00000000000E+00 0.  1.
</event>
<event>
 7    1  0.2323330E-008  0.4614232E+02  0.7816164E-02  0.1320468E+00
        -11   -1    0    0    0    0  0.00000000000E+00  0.00000000000E+00  0.45593999997E+02  0.45594000000E+02  0.51100000000E-03 0.  1.
         11   -1    0    0    0    0 -0.00000000000E+00 -0.00000000000E+00 -0.45593999997E+02  0.45594000000E+02  0.51100000000E-03 0. -1.
    9900012    2    1    2    0    0 -0.33921639787E+02 -0.29195760810E+02  0.51032641302E+01  0.46142318742E+02  0.10000008949E+02 0.  0.
         12    1    1    2    0    0  0.33921639787E+02  0.29195760810E+02 -0.51032641302E+01  0.45045681258E+02  0.00000000000E+00 0. -1.
         11    1    3    3    0    0 -0.11840712904E+02 -0.15506106442E+02 -0.55278290181E+00  0.19517873559E+02  0.51100000000E-03 0. -1.
        -11    1    3    3    0    0 -0.84710466730E+01 -0.48323710944E+01  0.15471178382E+01  0.98744121849E+01  0.51100000000E-03 0.  1.
         12    1    3    3    0    0 -0.13609880210E+02 -0.88572832742E+01  0.41089291938E+01  0.16750032998E+02  0.00000000000E+00 0. -1.
</event>
<event>
 7    1  0.2323330E-008  0.4614232E+02  0.7816164E-02  0.1320468E+00
        -11   -1    0    0    0    0  0.00000000000E+00  0.00000000000E+00  0.45593999997E+02  0.45594000000E+02  0.51100000000E-03 0. -1.
         11   -1    0    0    0    0 -0.00000000000E+00 -0.00000000000E+00 -0.45593999997E+02  0.45594000000E+02  0.51100000000E-03 0.  1.
    9900012    2    1    2    0    0 -0.22099745900E+02 -0.39146038159E+02 -0.28813874846E+01  0.46142318007E+02  0.10000002240E+02 0.  0.
         12    1    1    2    0    0  0.22099745900E+02  0.39146038159E+02  0.28813874846E+01  0.45045681993E+02  0.00000000000E+00 0. -1.
         11    1    3    3    0    0 -0.10077465222E+02 -0.14018040570E+02 -0.72074943332E+00  0.17279474724E+02  0.51100000000E-03 0. -1.
        -11    1    3    3    0    0 -0.16308874471E+01 -0.11459052564E+02 -0.15878740066E+01  0.11682937287E+02  0.51100000000E-03 0.  1.
        -12    1    3    3    0    0 -0.10391393231E+02 -0.13668945025E+02 -0.57276404469E+00  0.17179905996E+02  0.00000000000E+00 0.  1.
</event>
<event>
 7    1  0.2323330E-008  0.4614232E+02  0.7816164E-02  0.1320468E+00
        -11   -1    0    0    0    0  0.00000000000E+00  0.00000000000E+00  0.45593999997E+02  0.45594000000E+02  0.51100000000E-03 0.  1.
         11   -1    0    0    0    0 -0.00000000000E+00 -0.00000000000E+00 -0.45593999997E+02  0.45594000000E+02  0.51100000000E-03 0. -1.
    9900012    2    1    2    0    0 -0.12520810201E+02 -0.88075076356E+01  0.42364733264E+02  0.46142317594E+02  0.99999984782E+01 0.  0.
         12    1    1    2    0    0  0.12520810201E+02  0.88075076356E+01 -0.42364733264E+02  0.45045682406E+02  0.00000000000E+00 0. -1.
         11    1    3    3    0    0 -0.32115041524E+01  0.13191190628E+01  0.68300318803E+01  0.76617993820E+01  0.51100000000E-03 0. -1.
        -11    1    3    3    0    0 -0.18433474517E+01 -0.12539977955E+01  0.19910441870E+01  0.29890964378E+01  0.51100000000E-03 0.  1.
         12    1    3    3    0    0 -0.74659585971E+01 -0.88726289029E+01  0.33543657197E+02  0.35491421774E+02  0.00000000000E+00 0. -1.
</event>
<event>
 7    1  0.2323330E-008  0.4614231E+02  0.7816164E-02  0.1320468E+00
        -11   -1    0    0    0    0  0.00000000000E+00  0.00000000000E+00  0.45593999997E+02  0.45594000000E+02  0.51100000000E-03 0.  1.
         11   -1    0    0    0    0 -0.00000000000E+00 -0.00000000000E+00 -0.45593999997E+02  0.45594000000E+02  0.51100000000E-03 0. -1.
    9900012    2    1    2    0    0  0.34489327357E+02  0.23028199013E+02  0.17587006420E+02  0.46142307130E+02  0.99999030597E+01 0.  0.
         12    1    1    2    0    0 -0.34489327357E+02 -0.23028199013E+02 -0.17587006420E+02  0.45045692870E+02  0.00000000000E+00 0. -1.
         11    1    3    3    0    0  0.13472417749E+02  0.85084899962E+01  0.36740220994E+01  0.16352335633E+02  0.51100000000E-03 0. -1.
        -11    1    3    3    0    0  0.18983893607E+02  0.13416676432E+02  0.10133895991E+02  0.25359244294E+02  0.51100000000E-03 0.  1.
         12    1    3    3    0    0  0.20330160008E+01  0.11030325851E+01  0.37790883298E+01  0.44307272030E+01  0.00000000000E+00 0. -1.
</event>
<event>
 7    1  0.2323330E-008  0.4614232E+02  0.7816164E-02  0.1320468E+00
        -11   -1    0    0    0    0  0.00000000000E+00  0.00000000000E+00  0.45593999997E+02  0.45594000000E+02  0.51100000000E-03 0.  1.
         11   -1    0    0    0    0 -0.00000000000E+00 -0.00000000000E+00 -0.45593999997E+02  0.45594000000E+02  0.51100000000E-03 0. -1.
    9900012    2    1    2    0    0 -0.35773120596E+02 -0.22761736326E+02  0.15208578972E+02  0.46142315722E+02  0.99999814028E+01 0.  0.
         12    1    1    2    0    0  0.35773120596E+02  0.22761736326E+02 -0.15208578972E+02  0.45045684278E+02  0.00000000000E+00 0. -1.
         11    1    3    3    0    0 -0.24336687577E+02 -0.11138887997E+02  0.10529997543E+02  0.28761606988E+02  0.51100000000E-03 0. -1.
        -11    1    3    3    0    0 -0.16373968511E+01 -0.37569570158E+01  0.45085138983E+00  0.41229918388E+01  0.51100000000E-03 0.  1.
        -12    1    3    3    0    0 -0.97990361678E+01 -0.78658913133E+01  0.42277300399E+01  0.13257716895E+02  0.00000000000E+00 0.  1.
</event>
<event>
 7    1  0.2323330E-008  0.4614230E+02  0.7816164E-02  0.1320468E+00
        -11   -1    0    0    0    0  0.00000000000E+00  0.00000000000E+00  0.45593999997E+02  0.45594000000E+02  0.51100000000E-03 0.  1.
         11   -1    0    0    0    0 -0.00000000000E+00 -0.00000000000E+00 -0.45593999997E+02  0.45594000000E+02  0.51100000000E-03 0. -1.
    9900012    2    1    2    0    0 -0.13545876718E+02 -0.23734658738E+02  0.35809074928E+02  0.46142304882E+02  0.99998825577E+01 0.  0.
         12    1    1    2    0    0  0.13545876718E+02  0.23734658738E+02 -0.35809074928E+02  0.45045695118E+02  0.00000000000E+00 0. -1.
         11    1    3    3    0    0 -0.25645194470E+01 -0.10091042902E+01  0.81762136570E+00  0.28746402246E+01  0.51100000000E-03 0. -1.
        -11    1    3    3    0    0 -0.39620521468E+01 -0.79626865438E+01  0.97679212048E+01  0.13210394359E+02  0.51100000000E-03 0.  1.
        -12    1    3    3    0    0 -0.70193051239E+01 -0.14762867904E+02  0.25223532357E+02  0.30057270298E+02  0.00000000000E+00 0.  1.
</event>
<event>
 7    1  0.2323330E-008  0.4614232E+02  0.7816164E-02  0.1320468E+00
        -11   -1    0    0    0    0  0.00000000000E+00  0.00000000000E+00  0.45593999997E+02  0.45594000000E+02  0.51100000000E-03 0.  1.
         11   -1    0    0    0    0 -0.00000000000E+00 -0.00000000000E+00 -0.45593999997E+02  0.45594000000E+02  0.51100000000E-03 0. -1.
    9900012    2    1    2    0    0 -0.93935333882E+01  0.13580062347E+02  0.41910106027E+02  0.46142317077E+02  0.99999937595E+01 0.  0.
         12    1    1    2    0    0  0.93935333882E+01 -0.13580062347E+02 -0.41910106027E+02  0.45045682923E+02  0.00000000000E+00 0. -1.
         11    1    3    3    0    0 -0.93177033120E+00 -0.59886422039E+00  0.13904388716E+01  0.17776824298E+01  0.51100000000E-03 0. -1.
        -11    1    3    3    0    0 -0.25854582746E+01  0.60345789455E+01  0.81078877265E+01  0.10432573086E+02  0.51100000000E-03 0.  1.
         12    1    3    3    0    0 -0.58763047825E+01  0.81443476215E+01  0.32411779429E+02  0.33932061561E+02  0.00000000000E+00 0. -1.
</event>
<event>
 7    1  0.2323330E-008  0.4614232E+02  0.7816164E-02  0.1320468E+00
        -11   -1    0    0    0    0  0.00000000000E+00  0.00000000000E+00  0.45593999997E+02  0.45594000000E+02  0.51100000000E-03 0.  1.
         11   -1    0    0    0    0 -0.00000000000E+00 -0.00000000000E+00 -0.45593999997E+02  0.45594000000E+02  0.51100000000E-03 0. -1.
    9900012    2    1    2    0    0  0.26538790318E+02 -0.13612790793E+01  0.36372420573E+02  0.46142318180E+02  0.10000003820E+02 0.  0.
         12    1    1    2    0    0 -0.26538790318E+02  0.13612790793E+01 -0.36372420573E+02  0.45045681820E+02  0.00000000000E+00 0. -1.
         11    1    3    3    0    0  0.28985469328E+01  0.34853901059E+00  0.27106716945E+01  0.39838166449E+01  0.51100000000E-03 0. -1.
        -11    1    3    3    0    0  0.23614479190E+02 -0.20173806864E+00  0.32814128847E+02  0.40428348691E+02  0.51100000000E-03 0.  1.
         12    1    3    3    0    0  0.25764195237E-01 -0.15080800213E+01  0.84762003158E+00  0.17301528436E+01  0.00000000000E+00 0. -1.
</event>
<event>
 7    1  0.2323330E-008  0.4614232E+02  0.7816164E-02  0.1320468E+00
        -11   -1    0    0    0    0  0.00000000000E+00  0.00000000000E+00  0.45593999997E+02  0.45594000000E+02  0.51100000000E-03 0.  1.
         11   -1    0    0    0    0 -0.00000000000E+00 -0.00000000000E+00 -0.45593999997E+02  0.45594000000E+02  0.51100000000E-03 0. -1.
    9900012    2    1    2    0    0 -0.27977056838E+01  0.78936213800E+01  0.44260332771E+02  0.46142317937E+02  0.10000001602E+02 0.  0.
         12    1    1    2    0    0  0.27977056838E+01 -0.78936213800E+01 -0.44260332771E+02  0.45045682063E+02  0.00000000000E+00 0. -1.
         11    1    3    3    0    0 -0.54071360925E+00 -0.29664556906E+00  0.37990473144E+01  0.38487829971E+01  0.51100000000E-03 0. -1.
        -11    1    3    3    0    0 -0.32029304279E+01  0.18802244492E+01  0.28462063909E+02  0.28703363732E+02  0.51100000000E-03 0.  1.
         12    1    3    3    0    0  0.94593835341E+00  0.63100424998E+01  0.11999221547E+02  0.13590171208E+02  0.00000000000E+00 0. -1.
</event>
<event>
 7    1  0.2323330E-008  0.4614232E+02  0.7816164E-02  0.1320468E+00
        -11   -1    0    0    0    0  0.00000000000E+00  0.00000000000E+00  0.45593999997E+02  0.45594000000E+02  0.51100000000E-03 0. -1.
         11   -1    0    0    0    0 -0.00000000000E+00 -0.00000000000E+00 -0.45593999997E+02  0.45594000000E+02  0.51100000000E-03 0.  1.
    9900012    2    1    2    0    0  0.58985347165E+01  0.36564617628E+01 -0.44507876837E+02  0.46142317355E+02  0.99999962934E+01 0.  0.
         12    1    1    2    0    0 -0.58985347165E+01 -0.36564617628E+01  0.44507876837E+02  0.45045682645E+02  0.00000000000E+00 0. -1.
         11    1    3    3    0    0  0.37448784170E+01 -0.24497958339E+01 -0.18786929105E+02  0.19312543060E+02  0.51100000000E-03 0. -1.
        -11    1    3    3    0    0  0.24560440242E+01  0.25408398198E+01 -0.79180744587E+01  0.86708663139E+01  0.51100000000E-03 0.  1.
        -12    1    3    3    0    0 -0.30238772459E+00  0.35654177769E+01 -0.17802873274E+02  0.18158907981E+02  0.00000000000E+00 0.  1.
</event>
<event>
 7    1  0.2323330E-008  0.4614232E+02  0.7816164E-02  0.1320468E+00
        -11   -1    0    0    0    0  0.00000000000E+00  0.00000000000E+00  0.45593999997E+02  0.45594000000E+02  0.51100000000E-03 0.  1.
         11   -1    0    0    0    0 -0.00000000000E+00 -0.00000000000E+00 -0.45593999997E+02  0.45594000000E+02  0.51100000000E-03 0. -1.
    9900012    2    1    2    0    0  0.25317812149E+02  0.24026471391E+02  0.28475435570E+02  0.46142319071E+02  0.10000011942E+02 0.  0.
         12    1    1    2    0    0 -0.25317812149E+02 -0.24026471391E+02 -0.28475435570E+02  0.45045680929E+02  0.00000000000E+00 0. -1.
         11    1    3    3    0    0  0.31180977164E+01  0.14360206106E+01  0.25669548288E+01  0.42864840974E+01  0.51100000000E-03 0. -1.
        -11    1    3    3    0    0  0.15370663948E+02  0.11495123269E+02  0.19407157846E+02  0.27295291628E+02  0.51100000000E-03 0.  1.
        -12    1    3    3    0    0  0.68290504841E+01  0.11095327512E+02  0.65013228952E+01  0.14560543345E+02  0.00000000000E+00 0.  1.
</event>
<event>
 7    1  0.2323330E-008  0.4614232E+02  0.7816164E-02  0.1320468E+00
        -11   -1    0    0    0    0  0.00000000000E+00  0.00000000000E+00  0.45593999997E+02  0.45594000000E+02  0.51100000000E-03 0.  1.
         11   -1    0    0    0    0 -0.00000000000E+00 -0.00000000000E+00 -0.45593999997E+02  0.45594000000E+02  0.51100000000E-03 0. -1.
    9900012    2    1    2    0    0 -0.79064555926E-01  0.15334605713E+02  0.42355132952E+02  0.46142315735E+02  0.99999815210E+01 0.  0.
         12    1    1    2    0    0  0.79064555926E-01 -0.15334605713E+02 -0.42355132952E+02  0.45045684265E+02  0.00000000000E+00 0. -1.
         11    1    3    3    0    0  0.87477029781E+00  0.58450278369E+01  0.94874431220E+01  0.11177707759E+02  0.51100000000E-03 0. -1.
        -11    1    3    3    0    0  0.33708207805E+00 -0.94385815283E+00  0.10345580096E+01  0.14404176743E+01  0.51100000000E-03 0.  1.
        -12    1    3    3    0    0 -0.12909169318E+01  0.10433436029E+02  0.31833131820E+02  0.33524190301E+02  0.00000000000E+00 0.  1.
</event>
<event>
 7    1  0.2323330E-008  0.4614232E+02  0.7816164E-02  0.1320468E+00
        -11   -1    0    0    0    0  0.00000000000E+00  0.00000000000E+00  0.45593999997E+02  0.45594000000E+02  0.51100000000E-03 0. -1.
         11   -1    0    0    0    0 -0.00000000000E+00 -0.00000000000E+00 -0.45593999997E+02  0.45594000000E+02  0.51100000000E-03 0.  1.
    9900012    2    1    2    0    0  0.62612847796E+01 -0.32781164903E+02 -0.30254007169E+02  0.46142318639E+02  0.10000008008E+02 0.  0.
         12    1    1    2    0    0 -0.62612847796E+01  0.32781164903E+02  0.30254007169E+02  0.45045681361E+02  0.00000000000E+00 0. -1.
         11    1    3    3    0    0  0.28478859298E+01 -0.12286187462E+02 -0.16098938198E+02  0.20450835387E+02  0.51100000000E-03 0. -1.
        -11    1    3    3    0    0  0.21816060552E+01 -0.32681017789E+01 -0.42233769693E+01  0.57686053343E+01  0.51100000000E-03 0.  1.
        -12    1    3    3    0    0  0.12317927946E+01 -0.17226875661E+02 -0.99316920014E+01  0.19922877918E+02  0.00000000000E+00 0.  1.
</event>
<event>
 7    1  0.2323330E-008  0.4614232E+02  0.7816164E-02  0.1320468E+00
        -11   -1    0    0    0    0  0.00000000000E+00  0.00000000000E+00  0.45593999997E+02  0.45594000000E+02  0.51100000000E-03 0.  1.
         11   -1    0    0    0    0 -0.00000000000E+00 -0.00000000000E+00 -0.45593999997E+02  0.45594000000E+02  0.51100000000E-03 0. -1.
    9900012    2    1    2    0    0 -0.16576699308E+02 -0.22031881988E+02  0.35621940957E+02  0.46142318060E+02  0.10000002721E+02 0.  0.
         12    1    1    2    0    0  0.16576699308E+02  0.22031881988E+02 -0.35621940957E+02  0.45045681940E+02  0.00000000000E+00 0. -1.
         11    1    3    3    0    0  0.49959719117E+00 -0.19018107065E+00  0.32886507564E+01  0.33318148585E+01  0.51100000000E-03 0. -1.
        -11    1    3    3    0    0 -0.10389640239E+02 -0.11294822004E+02  0.20487772883E+02  0.25598173106E+02  0.51100000000E-03 0.  1.
         12    1    3    3    0    0 -0.66866562607E+01 -0.10546878914E+02  0.11845517318E+02  0.17212330095E+02  0.00000000000E+00 0. -1.
</event>
<event>
 7    1  0.2323330E-008  0.4614232E+02  0.7816164E-02  0.1320468E+00
        -11   -1    0    0    0    0  0.00000000000E+00  0.00000000000E+00  0.45593999997E+02  0.45594000000E+02  0.51100000000E-03 0.  1.
         11   -1    0    0    0    0 -0.00000000000E+00 -0.00000000000E+00 -0.45593999997E+02  0.45594000000E+02  0.51100000000E-03 0. -1.
    9900012    2    1    2    0    0  0.12397100679E+02  0.19285563687E+02  0.38774893339E+02  0.46142318460E+02  0.10000006375E+02 0.  0.
         12    1    1    2    0    0 -0.12397100679E+02 -0.19285563687E+02 -0.38774893339E+02  0.45045681540E+02  0.00000000000E+00 0. -1.
         11    1    3    3    0    0  0.18802962032E-01  0.55381092607E+00 -0.38024092135E+00  0.67204427875E+00  0.51100000000E-03 0. -1.
        -11    1    3    3    0    0  0.44712606098E+01  0.49192921511E+01  0.16450744652E+02  0.17743128433E+02  0.51100000000E-03 0.  1.
        -12    1    3    3    0    0  0.79070371071E+01  0.13812460610E+02  0.22704389608E+02  0.27727145749E+02  0.00000000000E+00 0.  1.
</event>
<event>
 7    1  0.2323330E-008  0.4614232E+02  0.7816164E-02  0.1320468E+00
        -11   -1    0    0    0    0  0.00000000000E+00  0.00000000000E+00  0.45593999997E+02  0.45594000000E+02  0.51100000000E-03 0. -1.
         11   -1    0    0    0    0 -0.00000000000E+00 -0.00000000000E+00 -0.45593999997E+02  0.45594000000E+02  0.51100000000E-03 0.  1.
    9900012    2    1    2    0    0  0.37297357455E+02  0.65253966047E+01  0.24401635846E+02  0.46142317566E+02  0.99999982236E+01 0.  0.
         12    1    1    2    0    0 -0.37297357455E+02 -0.65253966047E+01 -0.24401635846E+02  0.45045682434E+02  0.00000000000E+00 0. -1.
         11    1    3    3    0    0  0.43840997015E+01  0.56350560446E+00  0.33062899513E+00  0.44325144729E+01  0.51100000000E-03 0. -1.
        -11    1    3    3    0    0  0.19048887720E+02  0.44257479460E+01  0.10277396032E+02  0.22092356997E+02  0.51100000000E-03 0.  1.
         12    1    3    3    0    0  0.13864370034E+02  0.15361430543E+01  0.13793610819E+02  0.19617446096E+02  0.00000000000E+00 0. -1.
</event>
<event>
 7    1  0.2323330E-008  0.4614232E+02  0.7816164E-02  0.1320468E+00
        -11   -1    0    0    0    0  0.00000000000E+00  0.00000000000E+00  0.45593999997E+02  0.45594000000E+02  0.51100000000E-03 0.  1.
         11   -1    0    0    0    0 -0.00000000000E+00 -0.00000000000E+00 -0.45593999997E+02  0.45594000000E+02  0.51100000000E-03 0. -1.
    9900012    2    1    2    0    0  0.22402754705E+02 -0.36525162361E+02  0.13897574982E+02  0.46142317696E+02  0.99999994055E+01 0.  0.
         12    1    1    2    0    0 -0.22402754705E+02  0.36525162361E+02 -0.13897574982E+02  0.45045682304E+02  0.00000000000E+00 0. -1.
         11    1    3    3    0    0  0.72462311976E+01 -0.15318250214E+02  0.24516805671E+01  0.17122131703E+02  0.51100000000E-03 0. -1.
        -11    1    3    3    0    0  0.60258122507E+01 -0.65557114990E+01  0.13075558629E+01  0.89998593952E+01  0.51100000000E-03 0.  1.
        -12    1    3    3    0    0  0.91307112567E+01 -0.14651200647E+02  0.10138338552E+02  0.20020326597E+02  0.00000000000E+00 0.  1.
</event>
<event>
 7    1  0.2323330E-008  0.4614232E+02  0.7816164E-02  0.1320468E+00
        -11   -1    0    0    0    0  0.00000000000E+00  0.00000000000E+00  0.45593999997E+02  0.45594000000E+02  0.51100000000E-03 0.  1.
         11   -1    0    0    0    0 -0.00000000000E+00 -0.00000000000E+00 -0.45593999997E+02  0.45594000000E+02  0.51100000000E-03 0. -1.
    9900012    2    1    2    0    0 -0.27898236602E+02 -0.31669645329E+02  0.15742789949E+02  0.46142317897E+02  0.10000001241E+02 0.  0.
         12    1    1    2    0    0  0.27898236602E+02  0.31669645329E+02 -0.15742789949E+02  0.45045682103E+02  0.00000000000E+00 0. -1.
         11    1    3    3    0    0 -0.84593049664E+01 -0.95094385531E+01  0.73678616003E+01  0.14706279167E+02  0.51100000000E-03 0. -1.
        -11    1    3    3    0    0 -0.10542871192E+02 -0.16159909287E+02  0.73851630925E+01  0.20659996014E+02  0.51100000000E-03 0.  1.
        -12    1    3    3    0    0 -0.88960604435E+01 -0.60002974886E+01  0.98976525619E+00  0.10776042716E+02  0.00000000000E+00 0.  1.
</event>
<event>
 7    1  0.2323330E-008  0.4614232E+02  0.7816164E-02  0.1320468E+00
        -11   -1    0    0    0    0  0.00000000000E+00  0.00000000000E+00  0.45593999997E+02  0.45594000000E+02  0.51100000000E-03 0.  1.
         11   -1    0    0    0    0 -0.00000000000E+00 -0.00000000000E+00 -0.45593999997E+02  0.45594000000E+02  0.51100000000E-03 0. -1.
    9900012    2    1    2    0    0 -0.60253170092E+01 -0.28789150027E+00  0.44639961807E+02  0.46142317447E+02  0.99999971357E+01 0.  0.
         12    1    1    2    0    0  0.60253170092E+01  0.28789150027E+00 -0.44639961807E+02  0.45045682553E+02  0.00000000000E+00 0. -1.
         11    1    3    3    0    0  0.40812467317E-01  0.85774985508E+00  0.11416567491E+01  0.14285590171E+01  0.51100000000E-03 0. -1.
        -11    1    3    3    0    0  0.88707729005E-01  0.53645822074E+00 -0.17931961237E+00  0.57254892218E+00  0.51100000000E-03 0.  1.
        -12    1    3    3    0    0 -0.61548372055E+01 -0.16820995761E+01  0.43677624670E+02  0.44141209508E+02  0.00000000000E+00 0.  1.
</event>
<event>
 7    1  0.2323330E-008  0.4614232E+02  0.7816164E-02  0.1320468E+00
        -11   -1    0    0    0    0  0.00000000000E+00  0.00000000000E+00  0.45593999997E+02  0.45594000000E+02  0.51100000000E-03 0.  1.
         11   -1    0    0    0    0 -0.00000000000E+00 -0.00000000000E+00 -0.45593999997E+02  0.45594000000E+02  0.51100000000E-03 0. -1.
    9900012    2    1    2    0    0 -0.45887673095E+01 -0.44083767412E+02  0.80422589056E+01  0.46142320263E+02  0.10000022817E+02 0.  0.
         12    1    1    2    0    0  0.45887673095E+01  0.44083767412E+02 -0.80422589056E+01  0.45045679737E+02  0.00000000000E+00 0. -1.
         11    1    3    3    0    0 -0.43676772318E+01 -0.19931976880E+02 -0.28889646443E+00  0.20406953917E+02  0.51100000000E-03 0. -1.
        -11    1    3    3    0    0  0.84647608217E+00 -0.17240797217E+02  0.48856132487E+01  0.17939644018E+02  0.51100000000E-03 0.  1.
        -12    1    3    3    0    0 -0.10675661599E+01 -0.69109933153E+01  0.34455421213E+01  0.77957223283E+01  0.00000000000E+00 0.  1.
</event>
<event>
 7    1  0.2323330E-008  0.4614232E+02  0.7816164E-02  0.1320468E+00
        -11   -1    0    0    0    0  0.00000000000E+00  0.00000000000E+00  0.45593999997E+02  0.45594000000E+02  0.51100000000E-03 0. -1.
         11   -1    0    0    0    0 -0.00000000000E+00 -0.00000000000E+00 -0.45593999997E+02  0.45594000000E+02  0.51100000000E-03 0.  1.
    9900012    2    1    2    0    0  0.26488021591E+02 -0.36396785880E+02 -0.16649881118E+01  0.46142317681E+02  0.99999992673E+01 0.  0.
         12    1    1    2    0    0 -0.26488021591E+02  0.36396785880E+02  0.16649881118E+01  0.45045682319E+02  0.00000000000E+00 0. -1.
         11    1    3    3    0    0  0.17847139975E+02 -0.21709259392E+02 -0.29377750288E+01  0.28256731428E+02  0.51100000000E-03 0.  1.
        -11    1    3    3    0    0  0.37184304782E+01 -0.95599714493E+01  0.27627187838E+01  0.10623200773E+02  0.51100000000E-03 0. -1.
         12    1    3    3    0    0  0.49224511372E+01 -0.51275550391E+01 -0.14899318668E+01  0.72623854790E+01  0.00000000000E+00 0. -1.
</event>
<event>
 7    1  0.2323330E-008  0.4614232E+02  0.7816164E-02  0.1320468E+00
        -11   -1    0    0    0    0  0.00000000000E+00  0.00000000000E+00  0.45593999997E+02  0.45594000000E+02  0.51100000000E-03 0.  1.
         11   -1    0    0    0    0 -0.00000000000E+00 -0.00000000000E+00 -0.45593999997E+02  0.45594000000E+02  0.51100000000E-03 0. -1.
    9900012    2    1    2    0    0  0.81059345894E+01 -0.12418255846E+02  0.42534623178E+02  0.46142318490E+02  0.10000006648E+02 0.  0.
         12    1    1    2    0    0 -0.81059345894E+01  0.12418255846E+02 -0.42534623178E+02  0.45045681510E+02  0.00000000000E+00 0. -1.
         11    1    3    3    0    0  0.71741557327E+01 -0.71577070014E+01  0.20808915397E+02  0.23145458308E+02  0.51100000000E-03 0. -1.
        -11    1    3    3    0    0  0.23599696753E+01 -0.49933689466E+01  0.12615202604E+02  0.13771220981E+02  0.51100000000E-03 0.  1.
        -12    1    3    3    0    0 -0.14281908185E+01 -0.26717989823E+00  0.91105051766E+01  0.92256392020E+01  0.00000000000E+00 0.  1.
</event>
<event>
 7    1  0.2323330E-008  0.4614232E+02  0.7816164E-02  0.1320468E+00
        -11   -1    0    0    0    0  0.00000000000E+00  0.00000000000E+00  0.45593999997E+02  0.45594000000E+02  0.51100000000E-03 0.  1.
         11   -1    0    0    0    0 -0.00000000000E+00 -0.00000000000E+00 -0.45593999997E+02  0.45594000000E+02  0.51100000000E-03 0. -1.
    9900012    2    1    2    0    0 -0.42942870944E+02  0.13167834656E+02  0.34104965756E+01  0.46142317395E+02  0.99999966615E+01 0.  0.
         12    1    1    2    0    0  0.42942870944E+02 -0.13167834656E+02 -0.34104965756E+01  0.45045682605E+02  0.00000000000E+00 0. -1.
         11    1    3    3    0    0 -0.54452244868E+01  0.79839773382E+00  0.25880506135E+01  0.60816046313E+01  0.51100000000E-03 0. -1.
        -11    1    3    3    0    0 -0.97594161669E+01  0.11787232959E+01  0.23635200916E+01  0.10110480701E+02  0.51100000000E-03 0.  1.
         12    1    3    3    0    0 -0.27738230291E+02  0.11190713626E+02 -0.15410741295E+01  0.29950232062E+02  0.00000000000E+00 0. -1.
</event>
<event>
 7    1  0.2323330E-008  0.4614232E+02  0.7816164E-02  0.1320468E+00
        -11   -1    0    0    0    0  0.00000000000E+00  0.00000000000E+00  0.45593999997E+02  0.45594000000E+02  0.51100000000E-03 0.  1.
         11   -1    0    0    0    0 -0.00000000000E+00 -0.00000000000E+00 -0.45593999997E+02  0.45594000000E+02  0.51100000000E-03 0. -1.
    9900012    2    1    2    0    0  0.34798464954E+01  0.41341737724E+02  0.17546080096E+02  0.46142317228E+02  0.99999951362E+01 0.  0.
         12    1    1    2    0    0 -0.34798464954E+01 -0.41341737724E+02 -0.17546080096E+02  0.45045682772E+02  0.00000000000E+00 0. -1.
         11    1    3    3    0    0  0.20704875597E+01  0.13042258235E+01  0.83562382224E+00  0.25857670364E+01  0.51100000000E-03 0. -1.
        -11    1    3    3    0    0 -0.99827438999E+00  0.67016657170E+01  0.34016565525E+01  0.75815659796E+01  0.51100000000E-03 0.  1.
        -12    1    3    3    0    0  0.24076333257E+01  0.33335846184E+02  0.13308799721E+02  0.35974984212E+02  0.00000000000E+00 0.  1.
</event>
<event>
 7    1  0.2323330E-008  0.4614232E+02  0.7816164E-02  0.1320468E+00
        -11   -1    0    0    0    0  0.00000000000E+00  0.00000000000E+00  0.45593999997E+02  0.45594000000E+02  0.51100000000E-03 0.  1.
         11   -1    0    0    0    0 -0.00000000000E+00 -0.00000000000E+00 -0.45593999997E+02  0.45594000000E+02  0.51100000000E-03 0. -1.
    9900012    2    1    2    0    0  0.18961758610E+02 -0.36053257463E+02  0.19228305671E+02  0.46142318717E+02  0.10000008713E+02 0.  0.
         12    1    1    2    0    0 -0.18961758610E+02  0.36053257463E+02 -0.19228305671E+02  0.45045681283E+02  0.00000000000E+00 0. -1.
         11    1    3    3    0    0  0.26543150248E+01 -0.79566710349E+01  0.65559765041E+01  0.10645883260E+02  0.51100000000E-03 0. -1.
        -11    1    3    3    0    0  0.15652308633E+02 -0.23694805133E+02  0.12542247564E+02  0.31044267266E+02  0.51100000000E-03 0.  1.
        -12    1    3    3    0    0  0.65513495265E+00 -0.44017812949E+01  0.13008160308E+00  0.44521681906E+01  0.00000000000E+00 0.  1.
</event>
<event>
 7    1  0.2323330E-008  0.4614232E+02  0.7816164E-02  0.1320468E+00
        -11   -1    0    0    0    0  0.00000000000E+00  0.00000000000E+00  0.45593999997E+02  0.45594000000E+02  0.51100000000E-03 0.  1.
         11   -1    0    0    0    0 -0.00000000000E+00 -0.00000000000E+00 -0.45593999997E+02  0.45594000000E+02  0.51100000000E-03 0. -1.
    9900012    2    1    2    0    0 -0.40806622987E+02  0.18411919723E+02  0.49934220305E+01  0.46142317288E+02  0.99999956828E+01 0.  0.
         12    1    1    2    0    0  0.40806622987E+02 -0.18411919723E+02 -0.49934220305E+01  0.45045682712E+02  0.00000000000E+00 0. -1.
         11    1    3    3    0    0 -0.11216059230E+02  0.34203716081E+01  0.43087945878E+01  0.12492583306E+02  0.51100000000E-03 0. -1.
        -11    1    3    3    0    0 -0.62025746338E+00 -0.10991543148E+00 -0.71096340177E+00  0.94987890951E+00  0.51100000000E-03 0.  1.
        -12    1    3    3    0    0 -0.28970306293E+02  0.15101463546E+02  0.13955908445E+01  0.32699855072E+02  0.00000000000E+00 0.  1.
</event>
<event>
 7    1  0.2323330E-008  0.4614232E+02  0.7816164E-02  0.1320468E+00
        -11   -1    0    0    0    0  0.00000000000E+00  0.00000000000E+00  0.45593999997E+02  0.45594000000E+02  0.51100000000E-03 0.  1.
         11   -1    0    0    0    0 -0.00000000000E+00 -0.00000000000E+00 -0.45593999997E+02  0.45594000000E+02  0.51100000000E-03 0. -1.
    9900012    2    1    2    0    0  0.30432663177E+02  0.31473952610E+02  0.10599848485E+02  0.46142317978E+02  0.10000001979E+02 0.  0.
         12    1    1    2    0    0 -0.30432663177E+02 -0.31473952610E+02 -0.10599848485E+02  0.45045682022E+02  0.00000000000E+00 0. -1.
         11    1    3    3    0    0  0.80457081611E+01  0.98138535807E+01  0.55918563886E+01  0.13867732333E+02  0.51100000000E-03 0. -1.
        -11    1    3    3    0    0  0.15216818899E+01  0.43527651571E+01  0.19026611895E+01  0.49882061055E+01  0.51100000000E-03 0.  1.
         12    1    3    3    0    0  0.20865273126E+02  0.17307333872E+02  0.31053309068E+01  0.27286379540E+02  0.00000000000E+00 0. -1.
</event>
<event>
 7    1  0.2323330E-008  0.4614232E+02  0.7816164E-02  0.1320468E+00
        -11   -1    0    0    0    0  0.00000000000E+00  0.00000000000E+00  0.45593999997E+02  0.45594000000E+02  0.51100000000E-03 0.  1.
         11   -1    0    0    0    0 -0.00000000000E+00 -0.00000000000E+00 -0.45593999997E+02  0.45594000000E+02  0.51100000000E-03 0. -1.
    9900012    2    1    2    0    0  0.38287346790E+02  0.44656088226E+01  0.23307744405E+02  0.46142317236E+02  0.99999952154E+01 0.  0.
         12    1    1    2    0    0 -0.38287346790E+02 -0.44656088226E+01 -0.23307744405E+02  0.45045682764E+02  0.00000000000E+00 0. -1.
         11    1    3    3    0    0  0.97305121486E+01 -0.10192489568E+01  0.19522602879E+01  0.99766254616E+01  0.51100000000E-03 0. -1.
        -11    1    3    3    0    0  0.72693008489E+01  0.24761798452E+01  0.52331217344E+01  0.92929954700E+01  0.51100000000E-03 0.  1.
        -12    1    3    3    0    0  0.21287533793E+02  0.30086779342E+01  0.16122362383E+02  0.26872696305E+02  0.00000000000E+00 0.  1.
</event>
<event>
 7    1  0.2323330E-008  0.4614232E+02  0.7816164E-02  0.1320468E+00
        -11   -1    0    0    0    0  0.00000000000E+00  0.00000000000E+00  0.45593999997E+02  0.45594000000E+02  0.51100000000E-03 0.  1.
         11   -1    0    0    0    0 -0.00000000000E+00 -0.00000000000E+00 -0.45593999997E+02  0.45594000000E+02  0.51100000000E-03 0. -1.
    9900012    2    1    2    0    0  0.28127605231E+02  0.34386300369E+02  0.74520873295E+01  0.46142318357E+02  0.10000005432E+02 0.  0.
         12    1    1    2    0    0 -0.28127605231E+02 -0.34386300369E+02 -0.74520873295E+01  0.45045681643E+02  0.00000000000E+00 0. -1.
         11    1    3    3    0    0  0.71535073600E+01  0.83928450060E+01 -0.52711145341E+00  0.11040396804E+02  0.51100000000E-03 0. -1.
        -11    1    3    3    0    0  0.12587406324E+02  0.15487990337E+02  0.10672554839E+01  0.19986487365E+02  0.51100000000E-03 0.  1.
        -12    1    3    3    0    0  0.83866915478E+01  0.10505465026E+02  0.69119432989E+01  0.15115434188E+02  0.00000000000E+00 0.  1.
</event>
<event>
 7    1  0.2323330E-008  0.4614232E+02  0.7816164E-02  0.1320468E+00
        -11   -1    0    0    0    0  0.00000000000E+00  0.00000000000E+00  0.45593999997E+02  0.45594000000E+02  0.51100000000E-03 0. -1.
         11   -1    0    0    0    0 -0.00000000000E+00 -0.00000000000E+00 -0.45593999997E+02  0.45594000000E+02  0.51100000000E-03 0.  1.
    9900012    2    1    2    0    0 -0.45541324443E+01  0.36379404035E+02 -0.26170830688E+02  0.46142317198E+02  0.99999948617E+01 0.  0.
         12    1    1    2    0    0  0.45541324443E+01 -0.36379404035E+02  0.26170830688E+02  0.45045682802E+02  0.00000000000E+00 0. -1.
         11    1    3    3    0    0  0.83246872216E+00  0.79913436754E+01 -0.61642847455E+01  0.10126844750E+02  0.51100000000E-03 0. -1.
        -11    1    3    3    0    0 -0.58119308159E+01  0.15739902186E+02 -0.14645886926E+02  0.22271620164E+02  0.51100000000E-03 0.  1.
        -12    1    3    3    0    0  0.42532964943E+00  0.12648158174E+02 -0.53606590166E+01  0.13743852283E+02  0.00000000000E+00 0.  1.
</event>
<event>
 7    1  0.2323330E-008  0.4614232E+02  0.7816164E-02  0.1320468E+00
        -11   -1    0    0    0    0  0.00000000000E+00  0.00000000000E+00  0.45593999997E+02  0.45594000000E+02  0.51100000000E-03 0. -1.
         11   -1    0    0    0    0 -0.00000000000E+00 -0.00000000000E+00 -0.45593999997E+02  0.45594000000E+02  0.51100000000E-03 0.  1.
    9900012    2    1    2    0    0 -0.18951204525E+01  0.45001994181E+02 -0.58525661010E+00  0.46142317775E+02  0.10000000127E+02 0.  0.
         12    1    1    2    0    0  0.18951204525E+01 -0.45001994181E+02  0.58525661010E+00  0.45045682225E+02  0.00000000000E+00 0. -1.
         11    1    3    3    0    0 -0.59277388997E+00  0.10402161084E+02  0.30748958328E+01  0.10863301558E+02  0.51100000000E-03 0. -1.
        -11    1    3    3    0    0  0.16803542147E+01  0.12738884711E+02 -0.30540911633E+01  0.13207204362E+02  0.51100000000E-03 0.  1.
         12    1    3    3    0    0 -0.29827007773E+01  0.21860948387E+02 -0.60606127962E+00  0.22071811855E+02  0.00000000000E+00 0. -1.
</event>
<event>
 7    1  0.2323330E-008  0.4614232E+02  0.7816164E-02  0.1320468E+00
        -11   -1    0    0    0    0  0.00000000000E+00  0.00000000000E+00  0.45593999997E+02  0.45594000000E+02  0.51100000000E-03 0.  1.
         11   -1    0    0    0    0 -0.00000000000E+00 -0.00000000000E+00 -0.45593999997E+02  0.45594000000E+02  0.51100000000E-03 0. -1.
    9900012    2    1    2    0    0  0.37355358192E+01  0.29915517433E+02  0.33469703611E+02  0.46142317954E+02  0.10000001761E+02 0.  0.
         12    1    1    2    0    0 -0.37355358192E+01 -0.29915517433E+02 -0.33469703611E+02  0.45045682046E+02  0.00000000000E+00 0. -1.
         11    1    3    3    0    0  0.50881486976E+01  0.10627004935E+02  0.11515180645E+02  0.16474886239E+02  0.51100000000E-03 0. -1.
        -11    1    3    3    0    0 -0.75873517060E+00  0.53294553724E+01  0.31383486352E+01  0.62312122450E+01  0.51100000000E-03 0.  1.
        -12    1    3    3    0    0 -0.59387770774E+00  0.13959057126E+02  0.18816174331E+02  0.23436219470E+02  0.00000000000E+00 0.  1.
</event>
<event>
 7    1  0.2323330E-008  0.4614231E+02  0.7816164E-02  0.1320468E+00
        -11   -1    0    0    0    0  0.00000000000E+00  0.00000000000E+00  0.45593999997E+02  0.45594000000E+02  0.51100000000E-03 0. -1.
         11   -1    0    0    0    0 -0.00000000000E+00 -0.00000000000E+00 -0.45593999997E+02  0.45594000000E+02  0.51100000000E-03 0.  1.
    9900012    2    1    2    0    0  0.79044977199E+01  0.21635614484E+01 -0.44293925473E+02  0.46142313013E+02  0.99999567044E+01 0.  0.
         12    1    1    2    0    0 -0.79044977199E+01 -0.21635614484E+01  0.44293925473E+02  0.45045686987E+02  0.00000000000E+00 0. -1.
         11    1    3    3    0    0 -0.41713458356E+00 -0.12089196204E+01 -0.11064925309E+01  0.16910984275E+01  0.51100000000E-03 0. -1.
        -11    1    3    3    0    0  0.36915194585E+01 -0.10322844968E+01 -0.11382234512E+02  0.12010336796E+02  0.51100000000E-03 0.  1.
        -12    1    3    3    0    0  0.46301128450E+01  0.44047655656E+01 -0.31805198430E+02  0.32440877790E+02  0.00000000000E+00 0.  1.
</event>
<event>
 7    1  0.2323330E-008  0.4614232E+02  0.7816164E-02  0.1320468E+00
        -11   -1    0    0    0    0  0.00000000000E+00  0.00000000000E+00  0.45593999997E+02  0.45594000000E+02  0.51100000000E-03 0. -1.
         11   -1    0    0    0    0 -0.00000000000E+00 -0.00000000000E+00 -0.45593999997E+02  0.45594000000E+02  0.51100000000E-03 0.  1.
    9900012    2    1    2    0    0  0.39923237326E+02  0.18114223475E+02 -0.10350026048E+02  0.46142323072E+02  0.10000048431E+02 0.  0.
         12    1    1    2    0    0 -0.39923237326E+02 -0.18114223475E+02  0.10350026048E+02  0.45045676928E+02  0.00000000000E+00 0. -1.
         11    1    3    3    0    0  0.80281052003E+01  0.90489192141E+00  0.82101219462E+00  0.81205519382E+01  0.51100000000E-03 0. -1.
        -11    1    3    3    0    0  0.70157892398E+01  0.50337882375E+01 -0.30363053025E+01  0.91531127398E+01  0.51100000000E-03 0.  1.
         12    1    3    3    0    0  0.24879342886E+02  0.12175543316E+02 -0.81347329405E+01  0.28868658394E+02  0.00000000000E+00 0. -1.
</event>
<event>
 7    1  0.2323330E-008  0.4614232E+02  0.7816164E-02  0.1320468E+00
        -11   -1    0    0    0    0  0.00000000000E+00  0.00000000000E+00  0.45593999997E+02  0.45594000000E+02  0.51100000000E-03 0.  1.
         11   -1    0    0    0    0 -0.00000000000E+00 -0.00000000000E+00 -0.45593999997E+02  0.45594000000E+02  0.51100000000E-03 0. -1.
    9900012    2    1    2    0    0  0.43714929253E+02  0.10765008184E+02 -0.14943530713E+01  0.46142317278E+02  0.99999955942E+01 0.  0.
         12    1    1    2    0    0 -0.43714929253E+02 -0.10765008184E+02  0.14943530713E+01  0.45045682722E+02  0.00000000000E+00 0. -1.
         11    1    3    3    0    0  0.14026655807E+00  0.32369398076E+00  0.16295116358E+00  0.38859470316E+00  0.51100000000E-03 0. -1.
        -11    1    3    3    0    0  0.15733696906E+02  0.15176477643E+01 -0.43485917582E+01  0.16393984372E+02  0.51100000000E-03 0.  1.
        -12    1    3    3    0    0  0.27840965789E+02  0.89236664388E+01  0.26912875234E+01  0.29359738203E+02  0.00000000000E+00 0.  1.
</event>
<event>
 7    1  0.2323330E-008  0.4614232E+02  0.7816164E-02  0.1320468E+00
        -11   -1    0    0    0    0  0.00000000000E+00  0.00000000000E+00  0.45593999997E+02  0.45594000000E+02  0.51100000000E-03 0.  1.
         11   -1    0    0    0    0 -0.00000000000E+00 -0.00000000000E+00 -0.45593999997E+02  0.45594000000E+02  0.51100000000E-03 0. -1.
    9900012    2    1    2    0    0 -0.12843935717E+02 -0.10407359889E+02  0.41902670253E+02  0.46142316534E+02  0.99999888106E+01 0.  0.
         12    1    1    2    0    0  0.12843935717E+02  0.10407359889E+02 -0.41902670253E+02  0.45045683466E+02  0.00000000000E+00 0. -1.
         11    1    3    3    0    0 -0.13118155811E+00 -0.95421465071E+00  0.81993669453E+00  0.12649231775E+01  0.51100000000E-03 0. -1.
        -11    1    3    3    0    0 -0.74000911726E+01 -0.90841698689E+01  0.20452789641E+02  0.23571170865E+02  0.51100000000E-03 0.  1.
        -12    1    3    3    0    0 -0.53126629862E+01 -0.36897536970E+00  0.20629943918E+02  0.21306222492E+02  0.00000000000E+00 0.  1.
</event>
<event>
 7    1  0.2323330E-008  0.4614232E+02  0.7816164E-02  0.1320468E+00
        -11   -1    0    0    0    0  0.00000000000E+00  0.00000000000E+00  0.45593999997E+02  0.45594000000E+02  0.51100000000E-03 0.  1.
         11   -1    0    0    0    0 -0.00000000000E+00 -0.00000000000E+00 -0.45593999997E+02  0.45594000000E+02  0.51100000000E-03 0. -1.
    9900012    2    1    2    0    0  0.32301465423E+02  0.31850961644E+01  0.31234339440E+02  0.46142318006E+02  0.10000002233E+02 0.  0.
         12    1    1    2    0    0 -0.32301465423E+02 -0.31850961644E+01 -0.31234339440E+02  0.45045681994E+02  0.00000000000E+00 0. -1.
         11    1    3    3    0    0  0.12705823717E+02  0.41455644300E+01  0.14796457519E+02  0.19938877003E+02  0.51100000000E-03 0. -1.
        -11    1    3    3    0    0  0.68815008803E+01  0.15250209600E+01  0.83671548296E+01  0.10940293575E+02  0.51100000000E-03 0.  1.
         12    1    3    3    0    0  0.12714140826E+02 -0.24854892255E+01  0.80707270908E+01  0.15263147428E+02  0.00000000000E+00 0. -1.
</event>
<event>
 7    1  0.2786012E-008  0.4614232E+02  0.7816164E-02  0.1320468E+00
        -11   -1    0    0    0    0  0.00000000000E+00  0.00000000000E+00  0.45593999997E+02  0.45594000000E+02  0.51100000000E-03 0.  1.
         11   -1    0    0    0    0 -0.00000000000E+00 -0.00000000000E+00 -0.45593999997E+02  0.45594000000E+02  0.51100000000E-03 0. -1.
    9900012    2    1    2    0    0  0.61745590069E+00  0.44661563676E+02  0.58375469762E+01  0.46142317893E+02  0.10000001204E+02 0.  0.
         12    1    1    2    0    0 -0.61745590069E+00 -0.44661563676E+02 -0.58375469762E+01  0.45045682107E+02  0.00000000000E+00 0. -1.
         11    1    3    3    0    0  0.11251994832E+01  0.81626576784E+01  0.60888307342E+00  0.82623116081E+01  0.51100000000E-03 0. -1.
        -11    1    3    3    0    0  0.18296922341E+00  0.36573200377E+02  0.44610642803E+01  0.36844722259E+02  0.51100000000E-03 0.  1.
         12    1    3    3    0    0 -0.69071280595E+00 -0.74294379247E-01  0.76759962248E+00  0.10352840265E+01  0.00000000000E+00 0. -1.
</event>
<event>
 7    1  0.2323330E-008  0.4614232E+02  0.7816164E-02  0.1320468E+00
        -11   -1    0    0    0    0  0.00000000000E+00  0.00000000000E+00  0.45593999997E+02  0.45594000000E+02  0.51100000000E-03 0.  1.
         11   -1    0    0    0    0 -0.00000000000E+00 -0.00000000000E+00 -0.45593999997E+02  0.45594000000E+02  0.51100000000E-03 0. -1.
    9900012    2    1    2    0    0  0.41569254677E+02  0.13477306622E+02  0.10930359436E+02  0.46142317792E+02  0.10000000282E+02 0.  0.
         12    1    1    2    0    0 -0.41569254677E+02 -0.13477306622E+02 -0.10930359436E+02  0.45045682208E+02  0.00000000000E+00 0. -1.
         11    1    3    3    0    0  0.22702823585E+01 -0.10140172000E+01 -0.50247537257E+00  0.25367094099E+01  0.51100000000E-03 0. -1.
        -11    1    3    3    0    0  0.15946670252E+02  0.58503314655E+01  0.25900250296E+01  0.17182284490E+02  0.51100000000E-03 0.  1.
        -12    1    3    3    0    0  0.23352302067E+02  0.86409923566E+01  0.88428097794E+01  0.26423323892E+02  0.00000000000E+00 0.  1.
</event>
<event>
 7    1  0.2323330E-008  0.4614232E+02  0.7816164E-02  0.1320468E+00
        -11   -1    0    0    0    0  0.00000000000E+00  0.00000000000E+00  0.45593999997E+02  0.45594000000E+02  0.51100000000E-03 0.  1.
         11   -1    0    0    0    0 -0.00000000000E+00 -0.00000000000E+00 -0.45593999997E+02  0.45594000000E+02  0.51100000000E-03 0. -1.
    9900012    2    1    2    0    0 -0.41705857822E+02 -0.66973956279E+01  0.15648635561E+02  0.46142317856E+02  0.10000000866E+02 0.  0.
         12    1    1    2    0    0  0.41705857822E+02  0.66973956279E+01 -0.15648635561E+02  0.45045682144E+02  0.00000000000E+00 0. -1.
         11    1    3    3    0    0 -0.10261052920E+02 -0.48193086783E+01  0.22493209592E+01  0.11557438652E+02  0.51100000000E-03 0.  1.
        -11    1    3    3    0    0 -0.43320971611E+00 -0.63322141891E+00 -0.29273681105E-01  0.76778723162E+00  0.51100000000E-03 0. -1.
        -12    1    3    3    0    0 -0.31011595187E+02 -0.12448655307E+01  0.13428588283E+02  0.33817091973E+02  0.00000000000E+00 0.  1.
</event>
<event>
 7    1  0.2323330E-008  0.4614232E+02  0.7816164E-02  0.1320468E+00
        -11   -1    0    0    0    0  0.00000000000E+00  0.00000000000E+00  0.45593999997E+02  0.45594000000E+02  0.51100000000E-03 0. -1.
         11   -1    0    0    0    0 -0.00000000000E+00 -0.00000000000E+00 -0.45593999997E+02  0.45594000000E+02  0.51100000000E-03 0.  1.
    9900012    2    1    2    0    0 -0.38779079750E+02  0.19825994459E+02 -0.11498972621E+02  0.46142318144E+02  0.10000003494E+02 0.  0.
         12    1    1    2    0    0  0.38779079750E+02 -0.19825994459E+02  0.11498972621E+02  0.45045681856E+02  0.00000000000E+00 0. -1.
         11    1    3    3    0    0 -0.48327611058E+01  0.84393795037E+00 -0.17998300268E+01  0.52256291063E+01  0.51100000000E-03 0. -1.
        -11    1    3    3    0    0 -0.14716713885E+02  0.95919126689E+01 -0.84155667692E+01  0.19478403952E+02  0.51100000000E-03 0.  1.
        -12    1    3    3    0    0 -0.19229604759E+02  0.93901438400E+01 -0.12835758245E+01  0.21438285086E+02  0.00000000000E+00 0.  1.
</event>
<event>
 7    1  0.2323330E-008  0.4614232E+02  0.7816164E-02  0.1320468E+00
        -11   -1    0    0    0    0  0.00000000000E+00  0.00000000000E+00  0.45593999997E+02  0.45594000000E+02  0.51100000000E-03 0. -1.
         11   -1    0    0    0    0 -0.00000000000E+00 -0.00000000000E+00 -0.45593999997E+02  0.45594000000E+02  0.51100000000E-03 0.  1.
    9900012    2    1    2    0    0 -0.42760036252E+02 -0.10149031096E+01 -0.14130215802E+02  0.46142315110E+02  0.99999758260E+01 0.  0.
         12    1    1    2    0    0  0.42760036252E+02  0.10149031096E+01  0.14130215802E+02  0.45045684890E+02  0.00000000000E+00 0. -1.
         11    1    3    3    0    0 -0.14261397789E+01 -0.83888847097E+00 -0.25698790940E+01  0.30564501230E+01  0.51100000000E-03 0. -1.
        -11    1    3    3    0    0 -0.29327758832E+02  0.15863842433E+01 -0.82853368062E+01  0.30516894654E+02  0.51100000000E-03 0.  1.
         12    1    3    3    0    0 -0.12006137641E+02 -0.17623988819E+01 -0.32749999016E+01  0.12568970333E+02  0.00000000000E+00 0. -1.
</event>
<event>
 7    1  0.2323330E-008  0.4614232E+02  0.7816164E-02  0.1320468E+00
        -11   -1    0    0    0    0  0.00000000000E+00  0.00000000000E+00  0.45593999997E+02  0.45594000000E+02  0.51100000000E-03 0. -1.
         11   -1    0    0    0    0 -0.00000000000E+00 -0.00000000000E+00 -0.45593999997E+02  0.45594000000E+02  0.51100000000E-03 0.  1.
    9900012    2    1    2    0    0  0.77569187113E+01  0.71056943542E+01 -0.43800147042E+02  0.46142316954E+02  0.99999926413E+01 0.  0.
         12    1    1    2    0    0 -0.77569187113E+01 -0.71056943542E+01  0.43800147042E+02  0.45045683046E+02  0.00000000000E+00 0. -1.
         11    1    3    3    0    0  0.16622512469E+01  0.46653362628E+01 -0.26838704267E+02  0.27291839232E+02  0.51100000000E-03 0. -1.
        -11    1    3    3    0    0  0.43741213731E+01  0.34480865937E+01 -0.15205767637E+02  0.16193752148E+02  0.51100000000E-03 0.  1.
         12    1    3    3    0    0  0.17205460913E+01 -0.10077285023E+01 -0.17556751383E+01  0.26567255744E+01  0.00000000000E+00 0. -1.
</event>
<event>
 7    1  0.2323330E-008  0.4614232E+02  0.7816164E-02  0.1320468E+00
        -11   -1    0    0    0    0  0.00000000000E+00  0.00000000000E+00  0.45593999997E+02  0.45594000000E+02  0.51100000000E-03 0.  1.
         11   -1    0    0    0    0 -0.00000000000E+00 -0.00000000000E+00 -0.45593999997E+02  0.45594000000E+02  0.51100000000E-03 0. -1.
    9900012    2    1    2    0    0  0.15498149378E+02  0.38865788447E+02  0.16684462137E+02  0.46142318492E+02  0.10000006663E+02 0.  0.
         12    1    1    2    0    0 -0.15498149378E+02 -0.38865788447E+02 -0.16684462137E+02  0.45045681508E+02  0.00000000000E+00 0. -1.
         11    1    3    3    0    0  0.10477438505E+02  0.29262943026E+02  0.11165137734E+02  0.33026608258E+02  0.51100000000E-03 0.  1.
        -11    1    3    3    0    0  0.38194168928E+01  0.72117626166E+01  0.63208728592E+01  0.10322349510E+02  0.51100000000E-03 0. -1.
         12    1    3    3    0    0  0.12012939804E+01  0.23910828042E+01 -0.80154845667E+00  0.27933607236E+01  0.00000000000E+00 0. -1.
</event>
<event>
 7    1  0.2323330E-008  0.4614232E+02  0.7816164E-02  0.1320468E+00
        -11   -1    0    0    0    0  0.00000000000E+00  0.00000000000E+00  0.45593999997E+02  0.45594000000E+02  0.51100000000E-03 0. -1.
         11   -1    0    0    0    0 -0.00000000000E+00 -0.00000000000E+00 -0.45593999997E+02  0.45594000000E+02  0.51100000000E-03 0.  1.
    9900012    2    1    2    0    0 -0.69037461758E+01  0.14437769513E+01 -0.44490078299E+02  0.46142320182E+02  0.10000022079E+02 0.  0.
         12    1    1    2    0    0  0.69037461758E+01 -0.14437769513E+01  0.44490078299E+02  0.45045679818E+02  0.00000000000E+00 0. -1.
         11    1    3    3    0    0 -0.13908449893E+01 -0.14796642279E+01 -0.27156470948E+01  0.33909578907E+01  0.51100000000E-03 0. -1.
        -11    1    3    3    0    0 -0.49618948969E+01  0.26876082083E+01 -0.15929553900E+02  0.16899536283E+02  0.51100000000E-03 0.  1.
         12    1    3    3    0    0 -0.55100628951E+00  0.23583297085E+00 -0.25844877304E+02  0.25851826009E+02  0.00000000000E+00 0. -1.
</event>
<event>
 7    1  0.2323330E-008  0.4614232E+02  0.7816164E-02  0.1320468E+00
        -11   -1    0    0    0    0  0.00000000000E+00  0.00000000000E+00  0.45593999997E+02  0.45594000000E+02  0.51100000000E-03 0.  1.
         11   -1    0    0    0    0 -0.00000000000E+00 -0.00000000000E+00 -0.45593999997E+02  0.45594000000E+02  0.51100000000E-03 0. -1.
    9900012    2    1    2    0    0  0.80519958587E+01 -0.31155858950E+01  0.44210541087E+02  0.46142318121E+02  0.10000003278E+02 0.  0.
         12    1    1    2    0    0 -0.80519958587E+01  0.31155858950E+01 -0.44210541087E+02  0.45045681879E+02  0.00000000000E+00 0. -1.
         11    1    3    3    0    0 -0.73399360595E+00  0.30872101284E+00  0.59830639971E+01  0.60358189446E+01  0.51100000000E-03 0. -1.
        -11    1    3    3    0    0  0.23601334797E+01  0.23196859048E+01  0.14182892785E+02  0.14563846358E+02  0.51100000000E-03 0.  1.
         12    1    3    3    0    0  0.64258559850E+01 -0.57439928126E+01  0.24044584305E+02  0.25542652818E+02  0.00000000000E+00 0. -1.
</event>
<event>
 7    1  0.2323330E-008  0.4614232E+02  0.7816164E-02  0.1320468E+00
        -11   -1    0    0    0    0  0.00000000000E+00  0.00000000000E+00  0.45593999997E+02  0.45594000000E+02  0.51100000000E-03 0.  1.
         11   -1    0    0    0    0 -0.00000000000E+00 -0.00000000000E+00 -0.45593999997E+02  0.45594000000E+02  0.51100000000E-03 0. -1.
    9900012    2    1    2    0    0  0.17531723352E+02 -0.33675635218E+02  0.24242600068E+02  0.46142318864E+02  0.10000010054E+02 0.  0.
         12    1    1    2    0    0 -0.17531723352E+02  0.33675635218E+02 -0.24242600068E+02  0.45045681136E+02  0.00000000000E+00 0. -1.
         11    1    3    3    0    0  0.14212182122E+01 -0.74346523178E+01  0.26427764240E+01  0.80173676342E+01  0.51100000000E-03 0. -1.
        -11    1    3    3    0    0  0.12900206203E+02 -0.19419139244E+02  0.19232292266E+02  0.30222497499E+02  0.51100000000E-03 0.  1.
        -12    1    3    3    0    0  0.32102989368E+01 -0.68218436560E+01  0.23675313779E+01  0.79024537301E+01  0.00000000000E+00 0.  1.
</event>
<event>
 7    1  0.2323330E-008  0.4614232E+02  0.7816164E-02  0.1320468E+00
        -11   -1    0    0    0    0  0.00000000000E+00  0.00000000000E+00  0.45593999997E+02  0.45594000000E+02  0.51100000000E-03 0. -1.
         11   -1    0    0    0    0 -0.00000000000E+00 -0.00000000000E+00 -0.45593999997E+02  0.45594000000E+02  0.51100000000E-03 0.  1.
    9900012    2    1    2    0    0  0.18482356966E+02  0.98818108678E+01 -0.39873121183E+02  0.46142317655E+02  0.99999990315E+01 0.  0.
         12    1    1    2    0    0 -0.18482356966E+02 -0.98818108678E+01  0.39873121183E+02  0.45045682345E+02  0.00000000000E+00 0. -1.
         11    1    3    3    0    0  0.75268740489E+01  0.16519303072E+01 -0.14273179163E+02  0.16220553331E+02  0.51100000000E-03 0. -1.
        -11    1    3    3    0    0  0.10875154729E+02  0.46381588707E+01 -0.20813055431E+02  0.23936682827E+02  0.51100000000E-03 0.  1.
         12    1    3    3    0    0  0.80328188580E-01  0.35917216900E+01 -0.47868865884E+01  0.59850814971E+01  0.00000000000E+00 0. -1.
</event>
<event>
 7    1  0.2323330E-008  0.4614232E+02  0.7816164E-02  0.1320468E+00
        -11   -1    0    0    0    0  0.00000000000E+00  0.00000000000E+00  0.45593999997E+02  0.45594000000E+02  0.51100000000E-03 0. -1.
         11   -1    0    0    0    0 -0.00000000000E+00 -0.00000000000E+00 -0.45593999997E+02  0.45594000000E+02  0.51100000000E-03 0.  1.
    9900012    2    1    2    0    0  0.44285937325E+02  0.49267416697E+01  0.66027498963E+01  0.46142319470E+02  0.10000015583E+02 0.  0.
         12    1    1    2    0    0 -0.44285937325E+02 -0.49267416697E+01 -0.66027498963E+01  0.45045680530E+02  0.00000000000E+00 0. -1.
         11    1    3    3    0    0  0.41907572704E+01  0.52886485822E+00  0.20916014766E+01  0.47134850732E+01  0.51100000000E-03 0. -1.
        -11    1    3    3    0    0  0.35009285115E+02  0.58431276652E+01  0.58555857484E+01  0.35973324421E+02  0.51100000000E-03 0.  1.
         12    1    3    3    0    0  0.50858949398E+01 -0.14452508537E+01 -0.13444373287E+01  0.54555099761E+01  0.00000000000E+00 0. -1.
</event>
<event>
 7    1  0.2323330E-008  0.4614231E+02  0.7816164E-02  0.1320468E+00
        -11   -1    0    0    0    0  0.00000000000E+00  0.00000000000E+00  0.45593999997E+02  0.45594000000E+02  0.51100000000E-03 0. -1.
         11   -1    0    0    0    0 -0.00000000000E+00 -0.00000000000E+00 -0.45593999997E+02  0.45594000000E+02  0.51100000000E-03 0.  1.
    9900012    2    1    2    0    0  0.15466155446E+02  0.32358679386E+02 -0.27254866544E+02  0.46142313789E+02  0.99999637774E+01 0.  0.
         12    1    1    2    0    0 -0.15466155446E+02 -0.32358679386E+02  0.27254866544E+02  0.45045686211E+02  0.00000000000E+00 0. -1.
         11    1    3    3    0    0  0.47059186306E+01  0.13197816219E+02 -0.89767455642E+01  0.16640612498E+02  0.51100000000E-03 0.  1.
        -11    1    3    3    0    0  0.81966627008E+00  0.75325206046E+01 -0.82933643906E+01  0.11233459513E+02  0.51100000000E-03 0. -1.
         12    1    3    3    0    0  0.99405705454E+01  0.11628342563E+02 -0.99847565889E+01  0.18268241778E+02  0.00000000000E+00 0. -1.
</event>
<event>
 7    1  0.2323330E-008  0.4614232E+02  0.7816164E-02  0.1320468E+00
        -11   -1    0    0    0    0  0.00000000000E+00  0.00000000000E+00  0.45593999997E+02  0.45594000000E+02  0.51100000000E-03 0.  1.
         11   -1    0    0    0    0 -0.00000000000E+00 -0.00000000000E+00 -0.45593999997E+02  0.45594000000E+02  0.51100000000E-03 0. -1.
    9900012    2    1    2    0    0  0.16481559469E+02  0.27312312549E+02  0.31804233390E+02  0.46142317845E+02  0.10000000762E+02 0.  0.
         12    1    1    2    0    0 -0.16481559469E+02 -0.27312312549E+02 -0.31804233390E+02  0.45045682155E+02  0.00000000000E+00 0. -1.
         11    1    3    3    0    0 -0.24717932149E+00  0.28802082789E+01  0.49691573587E+01  0.57488453156E+01  0.51100000000E-03 0. -1.
        -11    1    3    3    0    0  0.52631402807E+01  0.12638713994E+02  0.13376766848E+02  0.19140941163E+02  0.51100000000E-03 0.  1.
         12    1    3    3    0    0  0.11465598510E+02  0.11793390276E+02  0.13458309183E+02  0.21252531366E+02  0.00000000000E+00 0. -1.
</event>
<event>
 7    1  0.2323330E-008  0.4614232E+02  0.7816164E-02  0.1320468E+00
        -11   -1    0    0    0    0  0.00000000000E+00  0.00000000000E+00  0.45593999997E+02  0.45594000000E+02  0.51100000000E-03 0. -1.
         11   -1    0    0    0    0 -0.00000000000E+00 -0.00000000000E+00 -0.45593999997E+02  0.45594000000E+02  0.51100000000E-03 0.  1.
    9900012    2    1    2    0    0 -0.42689061751E+02 -0.12599477380E+02  0.69289810972E+01  0.46142316495E+02  0.99999884515E+01 0.  0.
         12    1    1    2    0    0  0.42689061751E+02  0.12599477380E+02 -0.69289810972E+01  0.45045683505E+02  0.00000000000E+00 0. -1.
         11    1    3    3    0    0 -0.29889667556E+00 -0.19875219709E+00 -0.85339970714E+00  0.92581476537E+00  0.51100000000E-03 0. -1.
        -11    1    3    3    0    0 -0.30096225859E+02 -0.10366455955E+02  0.34238400307E+01  0.32015135496E+02  0.51100000000E-03 0.  1.
        -12    1    3    3    0    0 -0.12293939217E+02 -0.20342692280E+01  0.43585407737E+01  0.13201366234E+02  0.00000000000E+00 0.  1.
</event>
<event>
 7    1  0.2323330E-008  0.4614232E+02  0.7816164E-02  0.1320468E+00
        -11   -1    0    0    0    0  0.00000000000E+00  0.00000000000E+00  0.45593999997E+02  0.45594000000E+02  0.51100000000E-03 0.  1.
         11   -1    0    0    0    0 -0.00000000000E+00 -0.00000000000E+00 -0.45593999997E+02  0.45594000000E+02  0.51100000000E-03 0. -1.
    9900012    2    1    2    0    0 -0.15914600989E+02 -0.63764470084E+01  0.41655490727E+02  0.46142317535E+02  0.99999979354E+01 0.  0.
         12    1    1    2    0    0  0.15914600989E+02  0.63764470084E+01 -0.41655490727E+02  0.45045682465E+02  0.00000000000E+00 0. -1.
         11    1    3    3    0    0  0.12147819317E+00  0.35053931249E+00 -0.43459327344E-01  0.37352876097E+00  0.51100000000E-03 0. -1.
        -11    1    3    3    0    0 -0.15557002246E+01 -0.15287690395E+01  0.12993782167E+01  0.25388426450E+01  0.51100000000E-03 0.  1.
        -12    1    3    3    0    0 -0.14480378957E+02 -0.51982172814E+01  0.40399571837E+02  0.43229946129E+02  0.00000000000E+00 0.  1.
</event>
<event>
 7    1  0.2323330E-008  0.4614231E+02  0.7816164E-02  0.1320468E+00
        -11   -1    0    0    0    0  0.00000000000E+00  0.00000000000E+00  0.45593999997E+02  0.45594000000E+02  0.51100000000E-03 0.  1.
         11   -1    0    0    0    0 -0.00000000000E+00 -0.00000000000E+00 -0.45593999997E+02  0.45594000000E+02  0.51100000000E-03 0. -1.
    9900012    2    1    2    0    0 -0.22043031291E+02  0.73474507258E+01  0.38590589232E+02  0.46142313881E+02  0.99999646179E+01 0.  0.
         12    1    1    2    0    0  0.22043031291E+02 -0.73474507258E+01 -0.38590589232E+02  0.45045686119E+02  0.00000000000E+00 0. -1.
         11    1    3    3    0    0 -0.11011084593E+02  0.79330639429E+01  0.21899714479E+02  0.25763830887E+02  0.51100000000E-03 0. -1.
        -11    1    3    3    0    0 -0.85907971835E+01  0.10739347483E+01  0.11336380398E+02  0.14264243860E+02  0.51100000000E-03 0.  1.
        -12    1    3    3    0    0 -0.24411495143E+01 -0.16595479653E+01  0.53544943544E+01  0.61142391343E+01  0.00000000000E+00 0.  1.
</event>
<event>
 7    1  0.2323330E-008  0.4614232E+02  0.7816164E-02  0.1320468E+00
        -11   -1    0    0    0    0  0.00000000000E+00  0.00000000000E+00  0.45593999997E+02  0.45594000000E+02  0.51100000000E-03 0.  1.
         11   -1    0    0    0    0 -0.00000000000E+00 -0.00000000000E+00 -0.45593999997E+02  0.45594000000E+02  0.51100000000E-03 0. -1.
    9900012    2    1    2    0    0  0.17569873779E+02 -0.13094022722E+02  0.39356823539E+02  0.46142318134E+02  0.10000003402E+02 0.  0.
         12    1    1    2    0    0 -0.17569873779E+02  0.13094022722E+02 -0.39356823539E+02  0.45045681866E+02  0.00000000000E+00 0. -1.
         11    1    3    3    0    0  0.10128643908E+02 -0.50151354602E+01  0.17528093356E+02  0.20856055908E+02  0.51100000000E-03 0. -1.
        -11    1    3    3    0    0  0.85418256469E+01 -0.68127768423E+01  0.17349868192E+02  0.20503527507E+02  0.51100000000E-03 0.  1.
         12    1    3    3    0    0 -0.11005957755E+01 -0.12661104190E+01  0.44788619912E+01  0.47827347188E+01  0.00000000000E+00 0. -1.
</event>
<event>
 7    1  0.2323330E-008  0.4614232E+02  0.7816164E-02  0.1320468E+00
        -11   -1    0    0    0    0  0.00000000000E+00  0.00000000000E+00  0.45593999997E+02  0.45594000000E+02  0.51100000000E-03 0.  1.
         11   -1    0    0    0    0 -0.00000000000E+00 -0.00000000000E+00 -0.45593999997E+02  0.45594000000E+02  0.51100000000E-03 0. -1.
    9900012    2    1    2    0    0  0.11149020486E+02 -0.36539315061E+01  0.43490936599E+02  0.46142318304E+02  0.10000004949E+02 0.  0.
         12    1    1    2    0    0 -0.11149020486E+02  0.36539315061E+01 -0.43490936599E+02  0.45045681696E+02  0.00000000000E+00 0. -1.
         11    1    3    3    0    0  0.43031962598E+01  0.10458358666E+01  0.92652634755E+01  0.10269195599E+02  0.51100000000E-03 0. -1.
        -11    1    3    3    0    0  0.55534435598E+00  0.15809560805E+01  0.82530860329E+01  0.84214760470E+01  0.51100000000E-03 0.  1.
        -12    1    3    3    0    0  0.62904798700E+01 -0.62807234532E+01  0.25972587090E+02  0.27451646658E+02  0.00000000000E+00 0.  1.
</event>
<event>
 7    1  0.2323330E-008  0.4614232E+02  0.7816164E-02  0.1320468E+00
        -11   -1    0    0    0    0  0.00000000000E+00  0.00000000000E+00  0.45593999997E+02  0.45594000000E+02  0.51100000000E-03 0.  1.
         11   -1    0    0    0    0 -0.00000000000E+00 -0.00000000000E+00 -0.45593999997E+02  0.45594000000E+02  0.51100000000E-03 0. -1.
    9900012    2    1    2    0    0 -0.19732806074E+02  0.97110884899E-01  0.40493461959E+02  0.46142317326E+02  0.99999960367E+01 0.  0.
         12    1    1    2    0    0  0.19732806074E+02 -0.97110884899E-01 -0.40493461959E+02  0.45045682674E+02  0.00000000000E+00 0. -1.
         11    1    3    3    0    0 -0.79111563111E+00  0.29708533860E+00  0.10920052772E+02  0.10952701788E+02  0.51100000000E-03 0. -1.
        -11    1    3    3    0    0 -0.80164863824E+01 -0.68987957497E+00  0.14236644951E+02  0.16353043982E+02  0.51100000000E-03 0.  1.
        -12    1    3    3    0    0 -0.10925204060E+02  0.48990512126E+00  0.15336764236E+02  0.18836571557E+02  0.00000000000E+00 0.  1.
</event>
<event>
 7    1  0.2323330E-008  0.4614232E+02  0.7816164E-02  0.1320468E+00
        -11   -1    0    0    0    0  0.00000000000E+00  0.00000000000E+00  0.45593999997E+02  0.45594000000E+02  0.51100000000E-03 0.  1.
         11   -1    0    0    0    0 -0.00000000000E+00 -0.00000000000E+00 -0.45593999997E+02  0.45594000000E+02  0.51100000000E-03 0. -1.
    9900012    2    1    2    0    0 -0.18767618806E+02 -0.35266308721E+02  0.20812915885E+02  0.46142317476E+02  0.99999973958E+01 0.  0.
         12    1    1    2    0    0  0.18767618806E+02  0.35266308721E+02 -0.20812915885E+02  0.45045682524E+02  0.00000000000E+00 0. -1.
         11    1    3    3    0    0 -0.30220368607E+01 -0.11706346753E+02  0.44374533547E+01  0.12878752021E+02  0.51100000000E-03 0. -1.
        -11    1    3    3    0    0 -0.10314584130E+02 -0.15633997921E+02  0.74752519606E+01  0.20166604298E+02  0.51100000000E-03 0.  1.
        -12    1    3    3    0    0 -0.54309978147E+01 -0.79259640471E+01  0.89002105701E+01  0.13096961156E+02  0.00000000000E+00 0.  1.
</event>
<event>
 7    1  0.2323330E-008  0.4614232E+02  0.7816164E-02  0.1320468E+00
        -11   -1    0    0    0    0  0.00000000000E+00  0.00000000000E+00  0.45593999997E+02  0.45594000000E+02  0.51100000000E-03 0. -1.
         11   -1    0    0    0    0 -0.00000000000E+00 -0.00000000000E+00 -0.45593999997E+02  0.45594000000E+02  0.51100000000E-03 0.  1.
    9900012    2    1    2    0    0 -0.34685003210E+02  0.27133895431E+02  0.94771179479E+01  0.46142317703E+02  0.99999994723E+01 0.  0.
         12    1    1    2    0    0  0.34685003210E+02 -0.27133895431E+02 -0.94771179479E+01  0.45045682297E+02  0.00000000000E+00 0. -1.
         11    1    3    3    0    0 -0.24477338360E+02  0.20228161552E+02  0.96564761831E+01  0.33189850037E+02  0.51100000000E-03 0. -1.
        -11    1    3    3    0    0 -0.70070728002E+01  0.66539292505E+01  0.48019086720E+00  0.96749380994E+01  0.51100000000E-03 0.  1.
         12    1    3    3    0    0 -0.32005920498E+01  0.25180462925E+00 -0.65954910243E+00  0.32775295665E+01  0.00000000000E+00 0. -1.
</event>
<event>
 7    1  0.2323330E-008  0.4614232E+02  0.7816164E-02  0.1320468E+00
        -11   -1    0    0    0    0  0.00000000000E+00  0.00000000000E+00  0.45593999997E+02  0.45594000000E+02  0.51100000000E-03 0. -1.
         11   -1    0    0    0    0 -0.00000000000E+00 -0.00000000000E+00 -0.45593999997E+02  0.45594000000E+02  0.51100000000E-03 0.  1.
    9900012    2    1    2    0    0 -0.42201760713E+02  0.12495525325E+02  0.95909709160E+01  0.46142317815E+02  0.10000000494E+02 0.  0.
         12    1    1    2    0    0  0.42201760713E+02 -0.12495525325E+02 -0.95909709160E+01  0.45045682185E+02  0.00000000000E+00 0. -1.
         11    1    3    3    0    0 -0.28032429534E+01  0.18223305645E+01  0.21304484205E+01  0.39645769605E+01  0.51100000000E-03 0. -1.
        -11    1    3    3    0    0 -0.17428596103E+02  0.86231677214E+01  0.32811262544E+01  0.19720060179E+02  0.51100000000E-03 0.  1.
        -12    1    3    3    0    0 -0.21969921656E+02  0.20500270387E+01  0.41793962411E+01  0.22457680676E+02  0.00000000000E+00 0.  1.
</event>
<event>
 7    1  0.2323330E-008  0.4614232E+02  0.7816164E-02  0.1320468E+00
        -11   -1    0    0    0    0  0.00000000000E+00  0.00000000000E+00  0.45593999997E+02  0.45594000000E+02  0.51100000000E-03 0.  1.
         11   -1    0    0    0    0 -0.00000000000E+00 -0.00000000000E+00 -0.45593999997E+02  0.45594000000E+02  0.51100000000E-03 0. -1.
    9900012    2    1    2    0    0  0.14648075597E+02 -0.20289458903E+02  0.37455108521E+02  0.46142318569E+02  0.10000007367E+02 0.  0.
         12    1    1    2    0    0 -0.14648075597E+02  0.20289458903E+02 -0.37455108521E+02  0.45045681431E+02  0.00000000000E+00 0. -1.
         11    1    3    3    0    0  0.50419587437E+01 -0.18177531550E+01  0.76583113938E+01  0.93474760321E+01  0.51100000000E-03 0. -1.
        -11    1    3    3    0    0  0.39666431562E+01 -0.11607457164E+02  0.13548187472E+02  0.18276233304E+02  0.51100000000E-03 0.  1.
        -12    1    3    3    0    0  0.56394736969E+01 -0.68642485840E+01  0.16248609655E+02  0.18518609233E+02  0.00000000000E+00 0.  1.
</event>
<event>
 7    1  0.2323330E-008  0.4614232E+02  0.7816164E-02  0.1320468E+00
        -11   -1    0    0    0    0  0.00000000000E+00  0.00000000000E+00  0.45593999997E+02  0.45594000000E+02  0.51100000000E-03 0. -1.
         11   -1    0    0    0    0 -0.00000000000E+00 -0.00000000000E+00 -0.45593999997E+02  0.45594000000E+02  0.51100000000E-03 0.  1.
    9900012    2    1    2    0    0  0.29890393236E+02 -0.97335092155E+01 -0.32263550569E+02  0.46142317579E+02  0.99999983406E+01 0.  0.
         12    1    1    2    0    0 -0.29890393236E+02  0.97335092155E+01  0.32263550569E+02  0.45045682421E+02  0.00000000000E+00 0. -1.
         11    1    3    3    0    0  0.20773717722E+02 -0.76533147010E+01 -0.18516859982E+02  0.28861647177E+02  0.51100000000E-03 0. -1.
        -11    1    3    3    0    0  0.69740894851E+01 -0.10623941667E+01 -0.62750920213E+01  0.94415774979E+01  0.51100000000E-03 0.  1.
         12    1    3    3    0    0  0.21425860290E+01 -0.10178003478E+01 -0.74715985658E+01  0.78390929047E+01  0.00000000000E+00 0. -1.
</event>
<event>
 7    1  0.2323330E-008  0.4614232E+02  0.7816164E-02  0.1320468E+00
        -11   -1    0    0    0    0  0.00000000000E+00  0.00000000000E+00  0.45593999997E+02  0.45594000000E+02  0.51100000000E-03 0.  1.
         11   -1    0    0    0    0 -0.00000000000E+00 -0.00000000000E+00 -0.45593999997E+02  0.45594000000E+02  0.51100000000E-03 0. -1.
    9900012    2    1    2    0    0  0.37077578880E+02 -0.34581118815E+01  0.25345771232E+02  0.46142317491E+02  0.99999975371E+01 0.  0.
         12    1    1    2    0    0 -0.37077578880E+02  0.34581118815E+01 -0.25345771232E+02  0.45045682509E+02  0.00000000000E+00 0. -1.
         11    1    3    3    0    0  0.82431740321E+01  0.49703603351E+00  0.78664726182E+01  0.11405189812E+02  0.51100000000E-03 0.  1.
        -11    1    3    3    0    0  0.21752246987E+02 -0.60956182483E+01  0.12485304694E+02  0.25810843543E+02  0.51100000000E-03 0. -1.
         12    1    3    3    0    0  0.70821578604E+01  0.21404703333E+01  0.49939939196E+01  0.89262841360E+01  0.00000000000E+00 0. -1.
</event>
<event>
 7    1  0.2323330E-008  0.4614232E+02  0.7816164E-02  0.1320468E+00
        -11   -1    0    0    0    0  0.00000000000E+00  0.00000000000E+00  0.45593999997E+02  0.45594000000E+02  0.51100000000E-03 0.  1.
         11   -1    0    0    0    0 -0.00000000000E+00 -0.00000000000E+00 -0.45593999997E+02  0.45594000000E+02  0.51100000000E-03 0. -1.
    9900012    2    1    2    0    0  0.23465542493E+02 -0.34021560760E+02 -0.17916899338E+02  0.46142316933E+02  0.99999924511E+01 0.  0.
         12    1    1    2    0    0 -0.23465542493E+02  0.34021560760E+02  0.17916899338E+02  0.45045683067E+02  0.00000000000E+00 0. -1.
         11    1    3    3    0    0  0.85784487150E+01 -0.11567365714E+02 -0.34340187128E+01  0.14804938929E+02  0.51100000000E-03 0. -1.
        -11    1    3    3    0    0  0.60342049684E+01 -0.39970009492E+01 -0.48575056010E+01  0.87168232238E+01  0.51100000000E-03 0.  1.
        -12    1    3    3    0    0  0.88528888097E+01 -0.18457194097E+02 -0.96253750241E+01  0.22620554780E+02  0.00000000000E+00 0.  1.
</event>
<event>
 7    1  0.2323330E-008  0.4614232E+02  0.7816164E-02  0.1320468E+00
        -11   -1    0    0    0    0  0.00000000000E+00  0.00000000000E+00  0.45593999997E+02  0.45594000000E+02  0.51100000000E-03 0.  1.
         11   -1    0    0    0    0 -0.00000000000E+00 -0.00000000000E+00 -0.45593999997E+02  0.45594000000E+02  0.51100000000E-03 0. -1.
    9900012    2    1    2    0    0  0.73470793269E+01  0.40307325517E+02  0.18720402841E+02  0.46142317105E+02  0.99999940132E+01 0.  0.
         12    1    1    2    0    0 -0.73470793269E+01 -0.40307325517E+02 -0.18720402841E+02  0.45045682895E+02  0.00000000000E+00 0. -1.
         11    1    3    3    0    0  0.29261087508E+01  0.83881163196E+01  0.15297253675E+01  0.90145808430E+01  0.51100000000E-03 0. -1.
        -11    1    3    3    0    0 -0.12578082065E+01  0.10934109763E+02  0.40660273259E+01  0.11733261110E+02  0.51100000000E-03 0.  1.
        -12    1    3    3    0    0  0.56787787825E+01  0.20985099434E+02  0.13124650147E+02  0.25394475151E+02  0.00000000000E+00 0.  1.
</event>
<event>
 7    1  0.2323330E-008  0.4614232E+02  0.7816164E-02  0.1320468E+00
        -11   -1    0    0    0    0  0.00000000000E+00  0.00000000000E+00  0.45593999997E+02  0.45594000000E+02  0.51100000000E-03 0.  1.
         11   -1    0    0    0    0 -0.00000000000E+00 -0.00000000000E+00 -0.45593999997E+02  0.45594000000E+02  0.51100000000E-03 0. -1.
    9900012    2    1    2    0    0 -0.21585044017E+01  0.25192027916E+02  0.37280237698E+02  0.46142317248E+02  0.99999953217E+01 0.  0.
         12    1    1    2    0    0  0.21585044017E+01 -0.25192027916E+02 -0.37280237698E+02  0.45045682752E+02  0.00000000000E+00 0. -1.
         11    1    3    3    0    0 -0.26192094126E+01  0.14274203917E+02  0.26249426774E+02  0.29994092112E+02  0.51100000000E-03 0. -1.
        -11    1    3    3    0    0 -0.93905515893E+00  0.10024365304E+02  0.88338481719E+01  0.13394274826E+02  0.51100000000E-03 0.  1.
        -12    1    3    3    0    0  0.13997601698E+01  0.89345869477E+00  0.21969627520E+01  0.27539503093E+01  0.00000000000E+00 0.  1.
</event>
<event>
 7    1  0.2323330E-008  0.4614232E+02  0.7816164E-02  0.1320468E+00
        -11   -1    0    0    0    0  0.00000000000E+00  0.00000000000E+00  0.45593999997E+02  0.45594000000E+02  0.51100000000E-03 0. -1.
         11   -1    0    0    0    0 -0.00000000000E+00 -0.00000000000E+00 -0.45593999997E+02  0.45594000000E+02  0.51100000000E-03 0.  1.
    9900012    2    1    2    0    0  0.28030598960E+02  0.23046658954E+02 -0.26688012201E+02  0.46142323601E+02  0.10000053249E+02 0.  0.
         12    1    1    2    0    0 -0.28030598960E+02 -0.23046658954E+02  0.26688012201E+02  0.45045676399E+02  0.00000000000E+00 0. -1.
         11    1    3    3    0    0  0.97821744718E+01  0.33929219797E+01 -0.85144785131E+01  0.13405193082E+02  0.51100000000E-03 0. -1.
        -11    1    3    3    0    0  0.10170210784E+02  0.12584992404E+02 -0.13313634559E+02  0.20953951575E+02  0.51100000000E-03 0.  1.
        -12    1    3    3    0    0  0.80782137047E+01  0.70687445701E+01 -0.48598991297E+01  0.11783178943E+02  0.00000000000E+00 0.  1.
</event>
<event>
 7    1  0.2323330E-008  0.4614232E+02  0.7816164E-02  0.1320468E+00
        -11   -1    0    0    0    0  0.00000000000E+00  0.00000000000E+00  0.45593999997E+02  0.45594000000E+02  0.51100000000E-03 0.  1.
         11   -1    0    0    0    0 -0.00000000000E+00 -0.00000000000E+00 -0.45593999997E+02  0.45594000000E+02  0.51100000000E-03 0. -1.
    9900012    2    1    2    0    0  0.89830638288E+01  0.42714312558E+01  0.43933731493E+02  0.46142319590E+02  0.10000016674E+02 0.  0.
         12    1    1    2    0    0 -0.89830638288E+01 -0.42714312558E+01 -0.43933731493E+02  0.45045680410E+02  0.00000000000E+00 0. -1.
         11    1    3    3    0    0  0.89199205534E+00  0.18974717269E+01  0.52985036550E+01  0.56982620179E+01  0.51100000000E-03 0. -1.
        -11    1    3    3    0    0  0.45888304429E+01  0.55293665359E+01  0.21302813777E+02  0.22482018019E+02  0.51100000000E-03 0.  1.
        -12    1    3    3    0    0  0.35022413306E+01 -0.31554070070E+01  0.17332414061E+02  0.17962039553E+02  0.00000000000E+00 0.  1.
</event>
<event>
 7    1  0.2323330E-008  0.4614232E+02  0.7816164E-02  0.1320468E+00
        -11   -1    0    0    0    0  0.00000000000E+00  0.00000000000E+00  0.45593999997E+02  0.45594000000E+02  0.51100000000E-03 0. -1.
         11   -1    0    0    0    0 -0.00000000000E+00 -0.00000000000E+00 -0.45593999997E+02  0.45594000000E+02  0.51100000000E-03 0.  1.
    9900012    2    1    2    0    0 -0.44725680925E+02 -0.27691425274E+01 -0.45889889660E+01  0.46142317585E+02  0.99999983896E+01 0.  0.
         12    1    1    2    0    0  0.44725680925E+02  0.27691425274E+01  0.45889889660E+01  0.45045682415E+02  0.00000000000E+00 0. -1.
         11    1    3    3    0    0 -0.80854382166E+01  0.19044339177E+01  0.14490174768E+01  0.84321309057E+01  0.51100000000E-03 0. -1.
        -11    1    3    3    0    0 -0.20333339992E+01  0.35519923895E+00 -0.12511736807E+01  0.24137210883E+01  0.51100000000E-03 0.  1.
         12    1    3    3    0    0 -0.34606908709E+02 -0.50287756840E+01 -0.47868327622E+01  0.35296465590E+02  0.00000000000E+00 0. -1.
</event>
<event>
 7    1  0.2323330E-008  0.4614232E+02  0.7816164E-02  0.1320468E+00
        -11   -1    0    0    0    0  0.00000000000E+00  0.00000000000E+00  0.45593999997E+02  0.45594000000E+02  0.51100000000E-03 0. -1.
         11   -1    0    0    0    0 -0.00000000000E+00 -0.00000000000E+00 -0.45593999997E+02  0.45594000000E+02  0.51100000000E-03 0.  1.
    9900012    2    1    2    0    0 -0.61738048153E+01  0.20555313911E+02 -0.39603999845E+02  0.46142316527E+02  0.99999887437E+01 0.  0.
         12    1    1    2    0    0  0.61738048153E+01 -0.20555313911E+02  0.39603999845E+02  0.45045683473E+02  0.00000000000E+00 0. -1.
         11    1    3    3    0    0 -0.58990194847E+01  0.99009983188E+01 -0.26292286092E+02  0.28707359802E+02  0.51100000000E-03 0. -1.
        -11    1    3    3    0    0 -0.18596876333E+01  0.52943745537E+01 -0.75574012793E+01  0.94129248571E+01  0.51100000000E-03 0.  1.
        -12    1    3    3    0    0  0.15849023027E+01  0.53599410384E+01 -0.57543124734E+01  0.80220318676E+01  0.00000000000E+00 0.  1.
</event>
<event>
 7    1  0.2323330E-008  0.4614231E+02  0.7816164E-02  0.1320468E+00
        -11   -1    0    0    0    0  0.00000000000E+00  0.00000000000E+00  0.45593999997E+02  0.45594000000E+02  0.51100000000E-03 0. -1.
         11   -1    0    0    0    0 -0.00000000000E+00 -0.00000000000E+00 -0.45593999997E+02  0.45594000000E+02  0.51100000000E-03 0.  1.
    9900012    2    1    2    0    0  0.23964493473E+02  0.14172909460E+02 -0.35411102710E+02  0.46142306476E+02  0.99998970897E+01 0.  0.
         12    1    1    2    0    0 -0.23964493473E+02 -0.14172909460E+02  0.35411102710E+02  0.45045693524E+02  0.00000000000E+00 0. -1.
         11    1    3    3    0    0  0.11145495488E+02  0.73904021643E+01 -0.15536557814E+02  0.20499383962E+02  0.51100000000E-03 0. -1.
        -11    1    3    3    0    0  0.12507276257E+02  0.49268505993E+01 -0.19561859764E+02  0.23735462370E+02  0.51100000000E-03 0.  1.
         12    1    3    3    0    0  0.31172172706E+00  0.18556566968E+01 -0.31268513136E+00  0.19074601445E+01  0.00000000000E+00 0. -1.
</event>
<event>
 7    1  0.2323330E-008  0.4614231E+02  0.7816164E-02  0.1320468E+00
        -11   -1    0    0    0    0  0.00000000000E+00  0.00000000000E+00  0.45593999997E+02  0.45594000000E+02  0.51100000000E-03 0.  1.
         11   -1    0    0    0    0 -0.00000000000E+00 -0.00000000000E+00 -0.45593999997E+02  0.45594000000E+02  0.51100000000E-03 0. -1.
    9900012    2    1    2    0    0 -0.78727652468E+01 -0.21614663076E+02  0.38729061132E+02  0.46142309100E+02  0.99999210215E+01 0.  0.
         12    1    1    2    0    0  0.78727652468E+01  0.21614663076E+02 -0.38729061132E+02  0.45045690900E+02  0.00000000000E+00 0. -1.
         11    1    3    3    0    0 -0.24963998475E+01 -0.54002602237E+01  0.54882597454E+01  0.80941842070E+01  0.51100000000E-03 0.  1.
        -11    1    3    3    0    0 -0.53729727890E+01 -0.51774199804E+01  0.12690089524E+02  0.14721171375E+02  0.51100000000E-03 0. -1.
         12    1    3    3    0    0 -0.33926102897E-02 -0.11036982872E+02  0.20550711862E+02  0.23326953518E+02  0.00000000000E+00 0. -1.
</event>
<event>
 7    1  0.2323330E-008  0.4614232E+02  0.7816164E-02  0.1320468E+00
        -11   -1    0    0    0    0  0.00000000000E+00  0.00000000000E+00  0.45593999997E+02  0.45594000000E+02  0.51100000000E-03 0. -1.
         11   -1    0    0    0    0 -0.00000000000E+00 -0.00000000000E+00 -0.45593999997E+02  0.45594000000E+02  0.51100000000E-03 0.  1.
    9900012    2    1    2    0    0  0.28760391740E+02  0.16377956119E+02 -0.30556765708E+02  0.46142317518E+02  0.99999977871E+01 0.  0.
         12    1    1    2    0    0 -0.28760391740E+02 -0.16377956119E+02  0.30556765708E+02  0.45045682482E+02  0.00000000000E+00 0. -1.
         11    1    3    3    0    0  0.14506510698E+01  0.14783235555E+01 -0.49365137726E+01  0.53534098992E+01  0.51100000000E-03 0. -1.
        -11    1    3    3    0    0  0.75386968428E+01  0.43015439223E+01 -0.37346973197E+01  0.94489784916E+01  0.51100000000E-03 0.  1.
         12    1    3    3    0    0  0.19771043828E+02  0.10598088641E+02 -0.21885554616E+02  0.31339929128E+02  0.00000000000E+00 0. -1.
</event>
<event>
 7    1  0.2323330E-008  0.4614232E+02  0.7816164E-02  0.1320468E+00
        -11   -1    0    0    0    0  0.00000000000E+00  0.00000000000E+00  0.45593999997E+02  0.45594000000E+02  0.51100000000E-03 0.  1.
         11   -1    0    0    0    0 -0.00000000000E+00 -0.00000000000E+00 -0.45593999997E+02  0.45594000000E+02  0.51100000000E-03 0. -1.
    9900012    2    1    2    0    0  0.54976199499E+01 -0.14628219496E+02  0.42248134781E+02  0.46142317375E+02  0.99999964773E+01 0.  0.
         12    1    1    2    0    0 -0.54976199499E+01  0.14628219496E+02 -0.42248134781E+02  0.45045682625E+02  0.00000000000E+00 0. -1.
         11    1    3    3    0    0  0.21548168094E+00  0.84870389322E+00  0.47418066873E+01  0.48219769363E+01  0.51100000000E-03 0. -1.
        -11    1    3    3    0    0  0.10649561695E+01 -0.43206315512E+01  0.17239529235E+02  0.17804588093E+02  0.51100000000E-03 0.  1.
         12    1    3    3    0    0  0.42171820994E+01 -0.11156291838E+02  0.20266798858E+02  0.23515752346E+02  0.00000000000E+00 0. -1.
</event>
<event>
 7    1  0.2323330E-008  0.4614232E+02  0.7816164E-02  0.1320468E+00
        -11   -1    0    0    0    0  0.00000000000E+00  0.00000000000E+00  0.45593999997E+02  0.45594000000E+02  0.51100000000E-03 0.  1.
         11   -1    0    0    0    0 -0.00000000000E+00 -0.00000000000E+00 -0.45593999997E+02  0.45594000000E+02  0.51100000000E-03 0. -1.
    9900012    2    1    2    0    0  0.15477622440E+02  0.33606840093E+02  0.25693132661E+02  0.46142316929E+02  0.99999924123E+01 0.  0.
         12    1    1    2    0    0 -0.15477622440E+02 -0.33606840093E+02 -0.25693132661E+02  0.45045683071E+02  0.00000000000E+00 0. -1.
         11    1    3    3    0    0  0.12037438337E+00  0.62575325615E+01  0.42984998239E+01  0.75926480722E+01  0.51100000000E-03 0. -1.
        -11    1    3    3    0    0  0.35722342840E+01  0.46393919335E+01  0.72338856565E+01  0.93066598329E+01  0.51100000000E-03 0.  1.
        -12    1    3    3    0    0  0.11785013772E+02  0.22709915597E+02  0.14160747181E+02  0.29243009024E+02  0.00000000000E+00 0.  1.
</event>
<event>
 7    1  0.2323330E-008  0.4614232E+02  0.7816164E-02  0.1320468E+00
        -11   -1    0    0    0    0  0.00000000000E+00  0.00000000000E+00  0.45593999997E+02  0.45594000000E+02  0.51100000000E-03 0.  1.
         11   -1    0    0    0    0 -0.00000000000E+00 -0.00000000000E+00 -0.45593999997E+02  0.45594000000E+02  0.51100000000E-03 0. -1.
    9900012    2    1    2    0    0  0.31443496290E+02  0.17892319999E+02  0.26838125270E+02  0.46142317167E+02  0.99999945804E+01 0.  0.
         12    1    1    2    0    0 -0.31443496290E+02 -0.17892319999E+02 -0.26838125270E+02  0.45045682833E+02  0.00000000000E+00 0. -1.
         11    1    3    3    0    0  0.55713189359E+01  0.73854732098E+00  0.51051927503E+01  0.75926306449E+01  0.51100000000E-03 0. -1.
        -11    1    3    3    0    0  0.49724572904E+01  0.29180639253E+00  0.36458405658E+01  0.61727332818E+01  0.51100000000E-03 0.  1.
         12    1    3    3    0    0  0.20899720064E+02  0.16861966285E+02  0.18087091954E+02  0.32376953240E+02  0.00000000000E+00 0. -1.
</event>
<event>
 7    1  0.2323330E-008  0.4614232E+02  0.7816164E-02  0.1320468E+00
        -11   -1    0    0    0    0  0.00000000000E+00  0.00000000000E+00  0.45593999997E+02  0.45594000000E+02  0.51100000000E-03 0. -1.
         11   -1    0    0    0    0 -0.00000000000E+00 -0.00000000000E+00 -0.45593999997E+02  0.45594000000E+02  0.51100000000E-03 0.  1.
    9900012    2    1    2    0    0  0.50407941304E+01  0.43770289377E+02 -0.93736693182E+01  0.46142317475E+02  0.99999973949E+01 0.  0.
         12    1    1    2    0    0 -0.50407941304E+01 -0.43770289377E+02  0.93736693182E+01  0.45045682525E+02  0.00000000000E+00 0. -1.
         11    1    3    3    0    0 -0.76165563818E+00  0.10929606471E+02  0.11819545223E+01  0.11019683919E+02  0.51100000000E-03 0. -1.
        -11    1    3    3    0    0  0.14163586753E+01  0.54823486573E+01 -0.65912285666E+00  0.57005843471E+01  0.51100000000E-03 0.  1.
        -12    1    3    3    0    0  0.43860910933E+01  0.27358334249E+02 -0.98965009839E+01  0.29422049209E+02  0.00000000000E+00 0.  1.
</event>
<event>
 7    1  0.2323330E-008  0.4614231E+02  0.7816164E-02  0.1320468E+00
        -11   -1    0    0    0    0  0.00000000000E+00  0.00000000000E+00  0.45593999997E+02  0.45594000000E+02  0.51100000000E-03 0. -1.
         11   -1    0    0    0    0 -0.00000000000E+00 -0.00000000000E+00 -0.45593999997E+02  0.45594000000E+02  0.51100000000E-03 0.  1.
    9900012    2    1    2    0    0 -0.24161810367E+02  0.36781793308E+02  0.96135640093E+01  0.46142311948E+02  0.99999469892E+01 0.  0.
         12    1    1    2    0    0  0.24161810367E+02 -0.36781793308E+02 -0.96135640093E+01  0.45045688052E+02  0.00000000000E+00 0. -1.
         11    1    3    3    0    0 -0.26249436737E+01  0.41221898087E+01  0.33289879012E+01  0.59131158298E+01  0.51100000000E-03 0. -1.
        -11    1    3    3    0    0 -0.16675469939E+02  0.29386373677E+02  0.44017771281E+01  0.34073536619E+02  0.51100000000E-03 0.  1.
        -12    1    3    3    0    0 -0.48613967542E+01  0.32732298220E+01  0.18827989800E+01  0.61556594990E+01  0.00000000000E+00 0.  1.
</event>
<event>
 7    1  0.2323330E-008  0.4614232E+02  0.7816164E-02  0.1320468E+00
        -11   -1    0    0    0    0  0.00000000000E+00  0.00000000000E+00  0.45593999997E+02  0.45594000000E+02  0.51100000000E-03 0. -1.
         11   -1    0    0    0    0 -0.00000000000E+00 -0.00000000000E+00 -0.45593999997E+02  0.45594000000E+02  0.51100000000E-03 0.  1.
    9900012    2    1    2    0    0  0.23996984302E+02  0.16365892727E+02 -0.34429864949E+02  0.46142319844E+02  0.10000018990E+02 0.  0.
         12    1    1    2    0    0 -0.23996984302E+02 -0.16365892727E+02  0.34429864949E+02  0.45045680156E+02  0.00000000000E+00 0. -1.
         11    1    3    3    0    0  0.21047783057E+02  0.13017675092E+02 -0.33182488336E+02  0.41395006569E+02  0.51100000000E-03 0.  1.
        -11    1    3    3    0    0  0.15454025562E+01  0.98767004339E+00 -0.49138258264E+00  0.18987412354E+01  0.51100000000E-03 0. -1.
        -12    1    3    3    0    0  0.14037986889E+01  0.23605475907E+01 -0.75599403036E+00  0.28485720390E+01  0.00000000000E+00 0.  1.
</event>
<event>
 7    1  0.2323330E-008  0.4614231E+02  0.7816164E-02  0.1320468E+00
        -11   -1    0    0    0    0  0.00000000000E+00  0.00000000000E+00  0.45593999997E+02  0.45594000000E+02  0.51100000000E-03 0.  1.
         11   -1    0    0    0    0 -0.00000000000E+00 -0.00000000000E+00 -0.45593999997E+02  0.45594000000E+02  0.51100000000E-03 0. -1.
    9900012    2    1    2    0    0  0.11693460893E+02 -0.17178021049E+02  0.39966141314E+02  0.46142313343E+02  0.99999597127E+01 0.  0.
         12    1    1    2    0    0 -0.11693460893E+02  0.17178021049E+02 -0.39966141314E+02  0.45045686657E+02  0.00000000000E+00 0. -1.
         11    1    3    3    0    0  0.18363315983E+01 -0.98906562826E+01  0.19070810884E+02  0.21561378052E+02  0.51100000000E-03 0. -1.
        -11    1    3    3    0    0  0.79513007610E+00  0.37468265840E+00  0.57867049815E+00  0.10523681575E+01  0.51100000000E-03 0.  1.
        -12    1    3    3    0    0  0.90619992185E+01 -0.76620474250E+01  0.20316659932E+02  0.23528567134E+02  0.00000000000E+00 0.  1.
</event>
<event>
 7    1  0.2323330E-008  0.4614232E+02  0.7816164E-02  0.1320468E+00
        -11   -1    0    0    0    0  0.00000000000E+00  0.00000000000E+00  0.45593999997E+02  0.45594000000E+02  0.51100000000E-03 0.  1.
         11   -1    0    0    0    0 -0.00000000000E+00 -0.00000000000E+00 -0.45593999997E+02  0.45594000000E+02  0.51100000000E-03 0. -1.
    9900012    2    1    2    0    0 -0.11832934835E+02  0.31096167659E+02  0.30366485953E+02  0.46142318087E+02  0.10000002971E+02 0.  0.
         12    1    1    2    0    0  0.11832934835E+02 -0.31096167659E+02 -0.30366485953E+02  0.45045681913E+02  0.00000000000E+00 0. -1.
         11    1    3    3    0    0 -0.37051700858E+01  0.75177834205E+01  0.53913196066E+01  0.99655245865E+01  0.51100000000E-03 0. -1.
        -11    1    3    3    0    0  0.93194892149E+00  0.66193744970E+01  0.87977766574E+01  0.11049231733E+02  0.51100000000E-03 0.  1.
        -12    1    3    3    0    0 -0.90597136711E+01  0.16959009741E+02  0.16177389689E+02  0.25127561767E+02  0.00000000000E+00 0.  1.
</event>
<event>
 7    1  0.2323330E-008  0.4614232E+02  0.7816164E-02  0.1320468E+00
        -11   -1    0    0    0    0  0.00000000000E+00  0.00000000000E+00  0.45593999997E+02  0.45594000000E+02  0.51100000000E-03 0.  1.
         11   -1    0    0    0    0 -0.00000000000E+00 -0.00000000000E+00 -0.45593999997E+02  0.45594000000E+02  0.51100000000E-03 0. -1.
    9900012    2    1    2    0    0 -0.22518403836E+02 -0.18431352662E+02  0.34384879886E+02  0.46142320551E+02  0.10000025440E+02 0.  0.
         12    1    1    2    0    0  0.22518403836E+02  0.18431352662E+02 -0.34384879886E+02  0.45045679449E+02  0.00000000000E+00 0. -1.
         11    1    3    3    0    0 -0.37617216271E+01 -0.12731862939E+01  0.12863623625E+01  0.41744797673E+01  0.51100000000E-03 0. -1.
        -11    1    3    3    0    0 -0.93628941975E+01 -0.57482186907E+01  0.15229224973E+02  0.18778580868E+02  0.51100000000E-03 0.  1.
         12    1    3    3    0    0 -0.93937880116E+01 -0.11409947677E+02  0.17869292550E+02  0.23189259916E+02  0.00000000000E+00 0. -1.
</event>
<event>
 7    1  0.2323330E-008  0.4614232E+02  0.7816164E-02  0.1320468E+00
        -11   -1    0    0    0    0  0.00000000000E+00  0.00000000000E+00  0.45593999997E+02  0.45594000000E+02  0.51100000000E-03 0.  1.
         11   -1    0    0    0    0 -0.00000000000E+00 -0.00000000000E+00 -0.45593999997E+02  0.45594000000E+02  0.51100000000E-03 0. -1.
    9900012    2    1    2    0    0  0.43490482149E+02  0.53562695743E+01 -0.10440399265E+02  0.46142316543E+02  0.99999888878E+01 0.  0.
         12    1    1    2    0    0 -0.43490482149E+02 -0.53562695743E+01  0.10440399265E+02  0.45045683457E+02  0.00000000000E+00 0. -1.
         11    1    3    3    0    0  0.43237263647E+01  0.24946177146E+01 -0.47919739386E+00  0.50147141117E+01  0.51100000000E-03 0. -1.
        -11    1    3    3    0    0  0.13124793308E+02  0.19503541641E-01 -0.67508606041E-01  0.13124981426E+02  0.51100000000E-03 0.  1.
         12    1    3    3    0    0  0.26041962477E+02  0.28421483180E+01 -0.98936932654E+01  0.28002621005E+02  0.00000000000E+00 0. -1.
</event>
<event>
 7    1  0.2323330E-008  0.4614232E+02  0.7816164E-02  0.1320468E+00
        -11   -1    0    0    0    0  0.00000000000E+00  0.00000000000E+00  0.45593999997E+02  0.45594000000E+02  0.51100000000E-03 0. -1.
         11   -1    0    0    0    0 -0.00000000000E+00 -0.00000000000E+00 -0.45593999997E+02  0.45594000000E+02  0.51100000000E-03 0.  1.
    9900012    2    1    2    0    0 -0.39052833229E+02  0.90126635738E+01 -0.20561167680E+02  0.46142317584E+02  0.99999983894E+01 0.  0.
         12    1    1    2    0    0  0.39052833229E+02 -0.90126635738E+01  0.20561167680E+02  0.45045682416E+02  0.00000000000E+00 0. -1.
         11    1    3    3    0    0 -0.12120788130E+02  0.38685919227E+00 -0.72212183977E+01  0.14114147524E+02  0.51100000000E-03 0. -1.
        -11    1    3    3    0    0 -0.26989082480E+02  0.75710013565E+01 -0.13118978208E+02  0.30948961600E+02  0.51100000000E-03 0.  1.
        -12    1    3    3    0    0  0.57037380691E-01  0.10548030250E+01 -0.22097107352E+00  0.10792084598E+01  0.00000000000E+00 0.  1.
</event>
<event>
 7    1  0.2323330E-008  0.4614232E+02  0.7816164E-02  0.1320468E+00
        -11   -1    0    0    0    0  0.00000000000E+00  0.00000000000E+00  0.45593999997E+02  0.45594000000E+02  0.51100000000E-03 0. -1.
         11   -1    0    0    0    0 -0.00000000000E+00 -0.00000000000E+00 -0.45593999997E+02  0.45594000000E+02  0.51100000000E-03 0.  1.
    9900012    2    1    2    0    0  0.16930706951E+02  0.41401651745E+02 -0.53261536959E+01  0.46142317430E+02  0.99999969783E+01 0.  0.
         12    1    1    2    0    0 -0.16930706951E+02 -0.41401651745E+02  0.53261536959E+01  0.45045682570E+02  0.00000000000E+00 0. -1.
         11    1    3    3    0    0  0.41269942711E+00  0.16135464415E+01 -0.18100861907E+01  0.24597286872E+01  0.51100000000E-03 0. -1.
        -11    1    3    3    0    0  0.89290716571E+01  0.13925759202E+02 -0.23078455901E+01  0.16702731559E+02  0.51100000000E-03 0.  1.
         12    1    3    3    0    0  0.75889358665E+01  0.25862346101E+02 -0.12082219152E+01  0.26979857183E+02  0.00000000000E+00 0. -1.
</event>
<event>
 7    1  0.2323330E-008  0.4614232E+02  0.7816164E-02  0.1320468E+00
        -11   -1    0    0    0    0  0.00000000000E+00  0.00000000000E+00  0.45593999997E+02  0.45594000000E+02  0.51100000000E-03 0.  1.
         11   -1    0    0    0    0 -0.00000000000E+00 -0.00000000000E+00 -0.45593999997E+02  0.45594000000E+02  0.51100000000E-03 0. -1.
    9900012    2    1    2    0    0  0.21731901238E+02 -0.24263315668E+02  0.31114778195E+02  0.46142318290E+02  0.10000004823E+02 0.  0.
         12    1    1    2    0    0 -0.21731901238E+02  0.24263315668E+02 -0.31114778195E+02  0.45045681710E+02  0.00000000000E+00 0. -1.
         11    1    3    3    0    0  0.10721128276E+02 -0.84715989917E+01  0.18667625870E+02  0.23134191943E+02  0.51100000000E-03 0. -1.
        -11    1    3    3    0    0  0.95372389590E+01 -0.12333871041E+02  0.99538986726E+01  0.18497659335E+02  0.51100000000E-03 0.  1.
         12    1    3    3    0    0  0.14735340025E+01 -0.34578456348E+01  0.24932536525E+01  0.45104670120E+01  0.00000000000E+00 0. -1.
</event>
<event>
 7    1  0.2323330E-008  0.4614232E+02  0.7816164E-02  0.1320468E+00
        -11   -1    0    0    0    0  0.00000000000E+00  0.00000000000E+00  0.45593999997E+02  0.45594000000E+02  0.51100000000E-03 0.  1.
         11   -1    0    0    0    0 -0.00000000000E+00 -0.00000000000E+00 -0.45593999997E+02  0.45594000000E+02  0.51100000000E-03 0. -1.
    9900012    2    1    2    0    0  0.44157484262E+02  0.13422542913E+01  0.87993392903E+01  0.46142318355E+02  0.10000005414E+02 0.  0.
         12    1    1    2    0    0 -0.44157484262E+02 -0.13422542913E+01 -0.87993392903E+01  0.45045681645E+02  0.00000000000E+00 0. -1.
         11    1    3    3    0    0  0.51957611024E+01 -0.64035044894E+00 -0.25391722514E+00  0.52412266073E+01  0.51100000000E-03 0. -1.
        -11    1    3    3    0    0  0.35675903908E+02  0.29527797786E+01  0.10308103594E+02  0.37252463382E+02  0.51100000000E-03 0.  1.
        -12    1    3    3    0    0  0.32858192517E+01 -0.97017503836E+00 -0.12548470781E+01  0.36486283655E+01  0.00000000000E+00 0.  1.
</event>
<event>
 7    1  0.2323330E-008  0.4614232E+02  0.7816164E-02  0.1320468E+00
        -11   -1    0    0    0    0  0.00000000000E+00  0.00000000000E+00  0.45593999997E+02  0.45594000000E+02  0.51100000000E-03 0. -1.
         11   -1    0    0    0    0 -0.00000000000E+00 -0.00000000000E+00 -0.45593999997E+02  0.45594000000E+02  0.51100000000E-03 0.  1.
    9900012    2    1    2    0    0 -0.19208009871E+02  0.21266436935E+02 -0.34754922283E+02  0.46142316455E+02  0.99999880937E+01 0.  0.
         12    1    1    2    0    0  0.19208009871E+02 -0.21266436935E+02  0.34754922283E+02  0.45045683545E+02  0.00000000000E+00 0. -1.
         11    1    3    3    0    0 -0.22714375346E+00  0.41521556486E+01 -0.47146495394E+01  0.62864864078E+01  0.51100000000E-03 0. -1.
        -11    1    3    3    0    0 -0.53373122221E+01  0.80573807712E+01 -0.91210622091E+01  0.13289170882E+02  0.51100000000E-03 0.  1.
         12    1    3    3    0    0 -0.13643553895E+02  0.90569005148E+01 -0.20919210535E+02  0.26566659166E+02  0.00000000000E+00 0. -1.
</event>
<event>
 7    1  0.2323330E-008  0.4614232E+02  0.7816164E-02  0.1320468E+00
        -11   -1    0    0    0    0  0.00000000000E+00  0.00000000000E+00  0.45593999997E+02  0.45594000000E+02  0.51100000000E-03 0. -1.
         11   -1    0    0    0    0 -0.00000000000E+00 -0.00000000000E+00 -0.45593999997E+02  0.45594000000E+02  0.51100000000E-03 0.  1.
    9900012    2    1    2    0    0  0.37615861769E+02  0.14615017831E+02 -0.20014043273E+02  0.46142315068E+02  0.99999754427E+01 0.  0.
         12    1    1    2    0    0 -0.37615861769E+02 -0.14615017831E+02  0.20014043273E+02  0.45045684932E+02  0.00000000000E+00 0. -1.
         11    1    3    3    0    0  0.10628758968E+02  0.52562463017E+01 -0.10546984485E+02  0.15869389540E+02  0.51100000000E-03 0. -1.
        -11    1    3    3    0    0  0.87752553344E+01  0.19695643339E+01 -0.17724801204E+01  0.91665683812E+01  0.51100000000E-03 0.  1.
        -12    1    3    3    0    0  0.18211847467E+02  0.73892071959E+01 -0.76945786677E+01  0.21106357147E+02  0.00000000000E+00 0.  1.
</event>
<event>
 7    1  0.2323330E-008  0.4614232E+02  0.7816164E-02  0.1320468E+00
        -11   -1    0    0    0    0  0.00000000000E+00  0.00000000000E+00  0.45593999997E+02  0.45594000000E+02  0.51100000000E-03 0. -1.
         11   -1    0    0    0    0 -0.00000000000E+00 -0.00000000000E+00 -0.45593999997E+02  0.45594000000E+02  0.51100000000E-03 0.  1.
    9900012    2    1    2    0    0 -0.87260169731E+01 -0.38900736356E+02 -0.20969093529E+02  0.46142317136E+02  0.99999943042E+01 0.  0.
         12    1    1    2    0    0  0.87260169731E+01  0.38900736356E+02  0.20969093529E+02  0.45045682864E+02  0.00000000000E+00 0. -1.
         11    1    3    3    0    0 -0.48008742814E+01 -0.29516075981E+02 -0.14018928002E+02  0.33026920501E+02  0.51100000000E-03 0.  1.
        -11    1    3    3    0    0  0.66537534666E+00 -0.21687847404E+01 -0.28165392172E+01  0.36165238870E+01  0.51100000000E-03 0. -1.
        -12    1    3    3    0    0 -0.45905180383E+01 -0.72158756342E+01 -0.41336263096E+01  0.94988727487E+01  0.00000000000E+00 0.  1.
</event>
<event>
 7    1  0.2323330E-008  0.4614232E+02  0.7816164E-02  0.1320468E+00
        -11   -1    0    0    0    0  0.00000000000E+00  0.00000000000E+00  0.45593999997E+02  0.45594000000E+02  0.51100000000E-03 0. -1.
         11   -1    0    0    0    0 -0.00000000000E+00 -0.00000000000E+00 -0.45593999997E+02  0.45594000000E+02  0.51100000000E-03 0.  1.
    9900012    2    1    2    0    0 -0.20760526409E+02 -0.34839172391E+02 -0.19604742503E+02  0.46142319649E+02  0.10000017214E+02 0.  0.
         12    1    1    2    0    0  0.20760526409E+02  0.34839172391E+02  0.19604742503E+02  0.45045680351E+02  0.00000000000E+00 0. -1.
         11    1    3    3    0    0 -0.10018291054E+02 -0.24138107326E+02 -0.12676426090E+02  0.29046620450E+02  0.51100000000E-03 0. -1.
        -11    1    3    3    0    0 -0.10099767350E+02 -0.10497544498E+02 -0.56006185093E+01  0.15606750750E+02  0.51100000000E-03 0.  1.
        -12    1    3    3    0    0 -0.64246800559E+00 -0.20352056713E+00 -0.13276979038E+01  0.14889484488E+01  0.00000000000E+00 0.  1.
</event>
<event>
 7    1  0.2323330E-008  0.4614232E+02  0.7816164E-02  0.1320468E+00
        -11   -1    0    0    0    0  0.00000000000E+00  0.00000000000E+00  0.45593999997E+02  0.45594000000E+02  0.51100000000E-03 0.  1.
         11   -1    0    0    0    0 -0.00000000000E+00 -0.00000000000E+00 -0.45593999997E+02  0.45594000000E+02  0.51100000000E-03 0. -1.
    9900012    2    1    2    0    0  0.10160043860E+02 -0.41405455964E+02  0.14542194104E+02  0.46142315588E+02  0.99999801827E+01 0.  0.
         12    1    1    2    0    0 -0.10160043860E+02  0.41405455964E+02 -0.14542194104E+02  0.45045684412E+02  0.00000000000E+00 0. -1.
         11    1    3    3    0    0  0.24882004745E+01 -0.12776395581E+02  0.18432712855E+01  0.13146295103E+02  0.51100000000E-03 0. -1.
        -11    1    3    3    0    0  0.47004194729E+01 -0.23699251901E+02  0.76602970303E+01  0.25346175940E+02  0.51100000000E-03 0.  1.
        -12    1    3    3    0    0  0.29714239124E+01 -0.49298084811E+01  0.50386257885E+01  0.76498445451E+01  0.00000000000E+00 0.  1.
</event>
<event>
 7    1  0.2323330E-008  0.4614232E+02  0.7816164E-02  0.1320468E+00
        -11   -1    0    0    0    0  0.00000000000E+00  0.00000000000E+00  0.45593999997E+02  0.45594000000E+02  0.51100000000E-03 0. -1.
         11   -1    0    0    0    0 -0.00000000000E+00 -0.00000000000E+00 -0.45593999997E+02  0.45594000000E+02  0.51100000000E-03 0.  1.
    9900012    2    1    2    0    0  0.20602826133E+02  0.40008220032E+02 -0.19948440399E+01  0.46142317437E+02  0.99999970471E+01 0.  0.
         12    1    1    2    0    0 -0.20602826133E+02 -0.40008220032E+02  0.19948440399E+01  0.45045682563E+02  0.00000000000E+00 0. -1.
         11    1    3    3    0    0  0.44402134027E+00  0.57017634536E+01  0.10595411935E+01  0.58163467257E+01  0.51100000000E-03 0. -1.
        -11    1    3    3    0    0  0.29432668914E+01  0.46151844428E+01  0.15701943140E+01  0.56945814491E+01  0.51100000000E-03 0.  1.
        -12    1    3    3    0    0  0.17215537902E+02  0.29691272136E+02 -0.46245795474E+01  0.34631389263E+02  0.00000000000E+00 0.  1.
</event>
<event>
 7    1  0.2323330E-008  0.4614232E+02  0.7816164E-02  0.1320468E+00
        -11   -1    0    0    0    0  0.00000000000E+00  0.00000000000E+00  0.45593999997E+02  0.45594000000E+02  0.51100000000E-03 0. -1.
         11   -1    0    0    0    0 -0.00000000000E+00 -0.00000000000E+00 -0.45593999997E+02  0.45594000000E+02  0.51100000000E-03 0.  1.
    9900012    2    1    2    0    0  0.37859596149E+02  0.10262482150E+01 -0.24386702875E+02  0.46142317820E+02  0.10000000539E+02 0.  0.
         12    1    1    2    0    0 -0.37859596149E+02 -0.10262482150E+01  0.24386702875E+02  0.45045682180E+02  0.00000000000E+00 0. -1.
         11    1    3    3    0    0  0.62830095372E+01 -0.17997840093E+01 -0.23083350025E+01  0.69313665369E+01  0.51100000000E-03 0. -1.
        -11    1    3    3    0    0  0.16108558976E+02  0.82149601812E+00 -0.72290688344E+01  0.17675405638E+02  0.51100000000E-03 0.  1.
         12    1    3    3    0    0  0.15468027636E+02  0.20045362061E+01 -0.14849299038E+02  0.21535545646E+02  0.00000000000E+00 0. -1.
</event>
<event>
 7    1  0.2323330E-008  0.4614232E+02  0.7816164E-02  0.1320468E+00
        -11   -1    0    0    0    0  0.00000000000E+00  0.00000000000E+00  0.45593999997E+02  0.45594000000E+02  0.51100000000E-03 0.  1.
         11   -1    0    0    0    0 -0.00000000000E+00 -0.00000000000E+00 -0.45593999997E+02  0.45594000000E+02  0.51100000000E-03 0. -1.
    9900012    2    1    2    0    0  0.39028435924E+02  0.22430744907E+02 -0.16602225555E+01  0.46142318002E+02  0.10000002193E+02 0.  0.
         12    1    1    2    0    0 -0.39028435924E+02 -0.22430744907E+02  0.16602225555E+01  0.45045681998E+02  0.00000000000E+00 0. -1.
         11    1    3    3    0    0  0.67821300937E+01  0.44199946260E+01 -0.24685373202E+01  0.84632923773E+01  0.51100000000E-03 0. -1.
        -11    1    3    3    0    0  0.18054245557E+02  0.73066350181E+01 -0.23718721349E+01  0.19620613538E+02  0.51100000000E-03 0.  1.
         12    1    3    3    0    0  0.14192060274E+02  0.10704115263E+02  0.31801868996E+01  0.18058412086E+02  0.00000000000E+00 0. -1.
</event>
<event>
 7    1  0.2323330E-008  0.4614232E+02  0.7816164E-02  0.1320468E+00
        -11   -1    0    0    0    0  0.00000000000E+00  0.00000000000E+00  0.45593999997E+02  0.45594000000E+02  0.51100000000E-03 0.  1.
         11   -1    0    0    0    0 -0.00000000000E+00 -0.00000000000E+00 -0.45593999997E+02  0.45594000000E+02  0.51100000000E-03 0. -1.
    9900012    2    1    2    0    0  0.21729071218E+02  0.15395076549E+02  0.36331150800E+02  0.46142318338E+02  0.10000005262E+02 0.  0.
         12    1    1    2    0    0 -0.21729071218E+02 -0.15395076549E+02 -0.36331150800E+02  0.45045681662E+02  0.00000000000E+00 0. -1.
         11    1    3    3    0    0  0.66293576045E+01  0.92641911264E+00  0.53798975316E+01  0.85877780789E+01  0.51100000000E-03 0. -1.
        -11    1    3    3    0    0  0.11939934786E+02  0.12603271484E+02  0.23180333967E+02  0.28960876677E+02  0.51100000000E-03 0.  1.
         12    1    3    3    0    0  0.31597788273E+01  0.18653859522E+01  0.77709193009E+01  0.85936635825E+01  0.00000000000E+00 0. -1.
</event>
<event>
 7    1  0.2323330E-008  0.4614232E+02  0.7816164E-02  0.1320468E+00
        -11   -1    0    0    0    0  0.00000000000E+00  0.00000000000E+00  0.45593999997E+02  0.45594000000E+02  0.51100000000E-03 0.  1.
         11   -1    0    0    0    0 -0.00000000000E+00 -0.00000000000E+00 -0.45593999997E+02  0.45594000000E+02  0.51100000000E-03 0. -1.
    9900012    2    1    2    0    0 -0.98217305492E+01  0.19030097993E+02  0.39629564280E+02  0.46142318902E+02  0.10000010401E+02 0.  0.
         12    1    1    2    0    0  0.98217305492E+01 -0.19030097993E+02 -0.39629564280E+02  0.45045681098E+02  0.00000000000E+00 0. -1.
         11    1    3    3    0    0 -0.38536099958E+01  0.77645565060E+01  0.23098796514E+02  0.24671705421E+02  0.51100000000E-03 0.  1.
        -11    1    3    3    0    0 -0.27925311139E+01  0.12280505794E+01  0.49960160921E+01  0.58537607827E+01  0.51100000000E-03 0. -1.
        -12    1    3    3    0    0 -0.31755894395E+01  0.10037490908E+02  0.11534751673E+02  0.15616852698E+02  0.00000000000E+00 0.  1.
</event>
<event>
 7    1  0.2323330E-008  0.4614233E+02  0.7816164E-02  0.1320468E+00
        -11   -1    0    0    0    0  0.00000000000E+00  0.00000000000E+00  0.45593999997E+02  0.45594000000E+02  0.51100000000E-03 0.  1.
         11   -1    0    0    0    0 -0.00000000000E+00 -0.00000000000E+00 -0.45593999997E+02  0.45594000000E+02  0.51100000000E-03 0. -1.
    9900012    2    1    2    0    0  0.30000316773E+02  0.12551868644E+02  0.31169600021E+02  0.46142330082E+02  0.10000112347E+02 0.  0.
         12    1    1    2    0    0 -0.30000316773E+02 -0.12551868644E+02 -0.31169600021E+02  0.45045669918E+02  0.00000000000E+00 0. -1.
         11    1    3    3    0    0  0.46721797007E+00 -0.38923871794E+00  0.24278403126E+01  0.25028400380E+01  0.51100000000E-03 0. -1.
        -11    1    3    3    0    0  0.23056766857E+02  0.75927948318E+01  0.19379093753E+02  0.31061460143E+02  0.51100000000E-03 0.  1.
         12    1    3    3    0    0  0.64763319462E+01  0.53483125304E+01  0.93626659549E+01  0.12578029901E+02  0.00000000000E+00 0. -1.
</event>
<event>
 7    1  0.2323330E-008  0.4614232E+02  0.7816164E-02  0.1320468E+00
        -11   -1    0    0    0    0  0.00000000000E+00  0.00000000000E+00  0.45593999997E+02  0.45594000000E+02  0.51100000000E-03 0.  1.
         11   -1    0    0    0    0 -0.00000000000E+00 -0.00000000000E+00 -0.45593999997E+02  0.45594000000E+02  0.51100000000E-03 0. -1.
    9900012    2    1    2    0    0  0.35586665943E+02 -0.20045223755E+02  0.18997149847E+02  0.46142317736E+02  0.99999997673E+01 0.  0.
         12    1    1    2    0    0 -0.35586665943E+02  0.20045223755E+02 -0.18997149847E+02  0.45045682264E+02  0.00000000000E+00 0. -1.
         11    1    3    3    0    0  0.32952781149E+01 -0.16351826893E+01  0.28233805696E+01  0.46372576361E+01  0.51100000000E-03 0.  1.
        -11    1    3    3    0    0  0.16512845065E+02 -0.77478946728E+01  0.12495792527E+02  0.22109924359E+02  0.51100000000E-03 0. -1.
         12    1    3    3    0    0  0.15778542763E+02 -0.10662146393E+02  0.36779767512E+01  0.19395135741E+02  0.00000000000E+00 0. -1.
</event>
<event>
 7    1  0.2323330E-008  0.4614232E+02  0.7816164E-02  0.1320468E+00
        -11   -1    0    0    0    0  0.00000000000E+00  0.00000000000E+00  0.45593999997E+02  0.45594000000E+02  0.51100000000E-03 0. -1.
         11   -1    0    0    0    0 -0.00000000000E+00 -0.00000000000E+00 -0.45593999997E+02  0.45594000000E+02  0.51100000000E-03 0.  1.
    9900012    2    1    2    0    0 -0.16552118802E+02  0.21750652472E+02 -0.35805722588E+02  0.46142319965E+02  0.10000020097E+02 0.  0.
         12    1    1    2    0    0  0.16552118802E+02 -0.21750652472E+02  0.35805722588E+02  0.45045680035E+02  0.00000000000E+00 0. -1.
         11    1    3    3    0    0 -0.46909945742E+00  0.20894300957E+01 -0.22067186995E+01  0.30749601795E+01  0.51100000000E-03 0. -1.
        -11    1    3    3    0    0 -0.92585909152E+01  0.49568001925E+01 -0.10527697100E+02  0.14870231349E+02  0.51100000000E-03 0.  1.
        -12    1    3    3    0    0 -0.68244284293E+01  0.14704422183E+02 -0.23071306789E+02  0.28197128437E+02  0.00000000000E+00 0.  1.
</event>
<event>
 7    1  0.2323330E-008  0.4614232E+02  0.7816164E-02  0.1320468E+00
        -11   -1    0    0    0    0  0.00000000000E+00  0.00000000000E+00  0.45593999997E+02  0.45594000000E+02  0.51100000000E-03 0. -1.
         11   -1    0    0    0    0 -0.00000000000E+00 -0.00000000000E+00 -0.45593999997E+02  0.45594000000E+02  0.51100000000E-03 0.  1.
    9900012    2    1    2    0    0  0.30633479884E+02 -0.41863148008E+01 -0.32759397921E+02  0.46142317926E+02  0.10000001499E+02 0.  0.
         12    1    1    2    0    0 -0.30633479884E+02  0.41863148008E+01  0.32759397921E+02  0.45045682074E+02  0.00000000000E+00 0. -1.
         11    1    3    3    0    0  0.33856651556E+01 -0.19925820268E+01 -0.17533992099E+01  0.43020368118E+01  0.51100000000E-03 0. -1.
        -11    1    3    3    0    0  0.16792879246E+02 -0.45034128222E+01 -0.19134874082E+02  0.25853915116E+02  0.51100000000E-03 0.  1.
        -12    1    3    3    0    0  0.10454935482E+02  0.23096800481E+01 -0.11871124629E+02  0.15986365998E+02  0.00000000000E+00 0.  1.
</event>
<event>
 7    1  0.2323330E-008  0.4614232E+02  0.7816164E-02  0.1320468E+00
        -11   -1    0    0    0    0  0.00000000000E+00  0.00000000000E+00  0.45593999997E+02  0.45594000000E+02  0.51100000000E-03 0. -1.
         11   -1    0    0    0    0 -0.00000000000E+00 -0.00000000000E+00 -0.45593999997E+02  0.45594000000E+02  0.51100000000E-03 0.  1.
    9900012    2    1    2    0    0  0.38224263894E+02  0.45604988428E+01  0.23392755048E+02  0.46142317758E+02  0.99999999704E+01 0.  0.
         12    1    1    2    0    0 -0.38224263894E+02 -0.45604988428E+01 -0.23392755048E+02  0.45045682242E+02  0.00000000000E+00 0. -1.
         11    1    3    3    0    0  0.29447171196E+01  0.11143735112E+01 -0.38950270012E+00  0.31725226321E+01  0.51100000000E-03 0. -1.
        -11    1    3    3    0    0  0.42012746022E+01  0.19405621634E+01  0.38329912697E+01  0.60090192318E+01  0.51100000000E-03 0.  1.
        -12    1    3    3    0    0  0.31078272172E+02  0.15055631681E+01  0.19949266478E+02  0.36960775894E+02  0.00000000000E+00 0.  1.
</event>
<event>
 7    1  0.2323330E-008  0.4614232E+02  0.7816164E-02  0.1320468E+00
        -11   -1    0    0    0    0  0.00000000000E+00  0.00000000000E+00  0.45593999997E+02  0.45594000000E+02  0.51100000000E-03 0. -1.
         11   -1    0    0    0    0 -0.00000000000E+00 -0.00000000000E+00 -0.45593999997E+02  0.45594000000E+02  0.51100000000E-03 0.  1.
    9900012    2    1    2    0    0 -0.38196156516E+02  0.16188074712E+02 -0.17553159611E+02  0.46142317102E+02  0.99999939888E+01 0.  0.
         12    1    1    2    0    0  0.38196156516E+02 -0.16188074712E+02  0.17553159611E+02  0.45045682898E+02  0.00000000000E+00 0. -1.
         11    1    3    3    0    0 -0.34992641210E+01  0.15146631995E+01  0.79214690781E+00  0.38944256292E+01  0.51100000000E-03 0. -1.
        -11    1    3    3    0    0 -0.10521732660E+02  0.23864939277E+01 -0.35620971880E+01  0.11361810950E+02  0.51100000000E-03 0.  1.
        -12    1    3    3    0    0 -0.24175159735E+02  0.12286917585E+02 -0.14783209331E+02  0.30886080523E+02  0.00000000000E+00 0.  1.
</event>
<event>
 7    1  0.2323330E-008  0.4614232E+02  0.7816164E-02  0.1320468E+00
        -11   -1    0    0    0    0  0.00000000000E+00  0.00000000000E+00  0.45593999997E+02  0.45594000000E+02  0.51100000000E-03 0.  1.
         11   -1    0    0    0    0 -0.00000000000E+00 -0.00000000000E+00 -0.45593999997E+02  0.45594000000E+02  0.51100000000E-03 0. -1.
    9900012    2    1    2    0    0  0.18204318581E+02  0.15025797080E+02  0.38365892335E+02  0.46142317770E+02  0.10000000082E+02 0.  0.
         12    1    1    2    0    0 -0.18204318581E+02 -0.15025797080E+02 -0.38365892335E+02  0.45045682230E+02  0.00000000000E+00 0. -1.
         11    1    3    3    0    0  0.13720054057E+01 -0.34347287736E+00  0.70054709572E+00  0.15783342311E+01  0.51100000000E-03 0. -1.
        -11    1    3    3    0    0  0.12839882711E+01 -0.56626922979E+00  0.36465013649E+01  0.39072060588E+01  0.51100000000E-03 0.  1.
         12    1    3    3    0    0  0.15548324904E+02  0.15935539187E+02  0.34018843874E+02  0.40656777480E+02  0.00000000000E+00 0. -1.
</event>
<event>
 7    1  0.2323330E-008  0.4614232E+02  0.7816164E-02  0.1320468E+00
        -11   -1    0    0    0    0  0.00000000000E+00  0.00000000000E+00  0.45593999997E+02  0.45594000000E+02  0.51100000000E-03 0. -1.
         11   -1    0    0    0    0 -0.00000000000E+00 -0.00000000000E+00 -0.45593999997E+02  0.45594000000E+02  0.51100000000E-03 0.  1.
    9900012    2    1    2    0    0 -0.33604202721E+02 -0.29703569045E+02 -0.41914777306E+01  0.46142323847E+02  0.10000055494E+02 0.  0.
         12    1    1    2    0    0  0.33604202721E+02  0.29703569045E+02  0.41914777306E+01  0.45045676153E+02  0.00000000000E+00 0. -1.
         11    1    3    3    0    0 -0.15745533212E+02 -0.12061917410E+02  0.20137511003E+01  0.19936570956E+02  0.51100000000E-03 0. -1.
        -11    1    3    3    0    0 -0.58551127141E+01 -0.80891760471E+01 -0.11409601900E+01  0.10050816108E+02  0.51100000000E-03 0.  1.
         12    1    3    3    0    0 -0.12003556795E+02 -0.95524755884E+01 -0.50642686409E+01  0.16154936783E+02  0.00000000000E+00 0. -1.
</event>
<event>
 7    1  0.2323330E-008  0.4614232E+02  0.7816164E-02  0.1320468E+00
        -11   -1    0    0    0    0  0.00000000000E+00  0.00000000000E+00  0.45593999997E+02  0.45594000000E+02  0.51100000000E-03 0.  1.
         11   -1    0    0    0    0 -0.00000000000E+00 -0.00000000000E+00 -0.45593999997E+02  0.45594000000E+02  0.51100000000E-03 0. -1.
    9900012    2    1    2    0    0 -0.26058462149E+02  0.32496672004E+02  0.17147486752E+02  0.46142318267E+02  0.10000004616E+02 0.  0.
         12    1    1    2    0    0  0.26058462149E+02 -0.32496672004E+02 -0.17147486752E+02  0.45045681733E+02  0.00000000000E+00 0. -1.
         11    1    3    3    0    0 -0.13595656906E+01  0.92358423542E+00  0.29595432098E+01  0.33853098793E+01  0.51100000000E-03 0. -1.
        -11    1    3    3    0    0 -0.78088518421E+01  0.76045034350E+01  0.52842245711E+01  0.12113202267E+02  0.51100000000E-03 0.  1.
        -12    1    3    3    0    0 -0.16890044616E+02  0.23968584333E+02  0.89037189709E+01  0.30643806121E+02  0.00000000000E+00 0.  1.
</event>
<event>
 7    1  0.2323330E-008  0.4614232E+02  0.7816164E-02  0.1320468E+00
        -11   -1    0    0    0    0  0.00000000000E+00  0.00000000000E+00  0.45593999997E+02  0.45594000000E+02  0.51100000000E-03 0. -1.
         11   -1    0    0    0    0 -0.00000000000E+00 -0.00000000000E+00 -0.45593999997E+02  0.45594000000E+02  0.51100000000E-03 0.  1.
    9900012    2    1    2    0    0  0.33534834490E+02 -0.33439130423E+01 -0.29888904027E+02  0.46142318047E+02  0.10000002604E+02 0.  0.
         12    1    1    2    0    0 -0.33534834490E+02  0.33439130423E+01  0.29888904027E+02  0.45045681953E+02  0.00000000000E+00 0. -1.
         11    1    3    3    0    0  0.14319923529E+01  0.12854806293E+01 -0.17591695585E+01  0.26072476568E+01  0.51100000000E-03 0. -1.
        -11    1    3    3    0    0  0.28022610408E+02 -0.57852883618E+01 -0.22057288831E+02  0.36128385604E+02  0.51100000000E-03 0.  1.
        -12    1    3    3    0    0  0.40802317293E+01  0.11558946903E+01 -0.60724456376E+01  0.74066847861E+01  0.00000000000E+00 0.  1.
</event>
<event>
 7    1  0.2323330E-008  0.4614232E+02  0.7816164E-02  0.1320468E+00
        -11   -1    0    0    0    0  0.00000000000E+00  0.00000000000E+00  0.45593999997E+02  0.45594000000E+02  0.51100000000E-03 0.  1.
         11   -1    0    0    0    0 -0.00000000000E+00 -0.00000000000E+00 -0.45593999997E+02  0.45594000000E+02  0.51100000000E-03 0. -1.
    9900012    2    1    2    0    0  0.10676912787E+02  0.43641658387E+02 -0.32438457055E+01  0.46142319315E+02  0.10000014167E+02 0.  0.
         12    1    1    2    0    0 -0.10676912787E+02 -0.43641658387E+02  0.32438457055E+01  0.45045680685E+02  0.00000000000E+00 0. -1.
         11    1    3    3    0    0  0.66637705896E+01  0.15845444754E+02  0.17983419608E+01  0.17283460070E+02  0.51100000000E-03 0. -1.
        -11    1    3    3    0    0  0.44181380334E+01  0.17705903547E+02 -0.22887221090E+01  0.18391770259E+02  0.51100000000E-03 0.  1.
         12    1    3    3    0    0 -0.40499583649E+00  0.10090310086E+02 -0.27534655573E+01  0.10467088985E+02  0.00000000000E+00 0. -1.
</event>
<event>
 7    1  0.2323330E-008  0.4614232E+02  0.7816164E-02  0.1320468E+00
        -11   -1    0    0    0    0  0.00000000000E+00  0.00000000000E+00  0.45593999997E+02  0.45594000000E+02  0.51100000000E-03 0.  1.
         11   -1    0    0    0    0 -0.00000000000E+00 -0.00000000000E+00 -0.45593999997E+02  0.45594000000E+02  0.51100000000E-03 0. -1.
    9900012    2    1    2    0    0  0.18660159471E+02  0.38678557493E+02  0.13597100022E+02  0.46142317740E+02  0.99999998109E+01 0.  0.
         12    1    1    2    0    0 -0.18660159471E+02 -0.38678557493E+02 -0.13597100022E+02  0.45045682260E+02  0.00000000000E+00 0. -1.
         11    1    3    3    0    0  0.98646251515E+00  0.43937189697E+00 -0.69247048048E+00  0.12828373183E+01  0.51100000000E-03 0. -1.
        -11    1    3    3    0    0  0.12785319329E+02  0.24732298931E+02  0.68000170157E+01  0.28659923804E+02  0.51100000000E-03 0.  1.
        -12    1    3    3    0    0  0.48883776271E+01  0.13506886665E+02  0.74895534863E+01  0.16199556618E+02  0.00000000000E+00 0.  1.
</event>
<event>
 7    1  0.2323330E-008  0.4614232E+02  0.7816164E-02  0.1320468E+00
        -11   -1    0    0    0    0  0.00000000000E+00  0.00000000000E+00  0.45593999997E+02  0.45594000000E+02  0.51100000000E-03 0.  1.
         11   -1    0    0    0    0 -0.00000000000E+00 -0.00000000000E+00 -0.45593999997E+02  0.45594000000E+02  0.51100000000E-03 0. -1.
    9900012    2    1    2    0    0  0.22046469500E+02  0.48343593553E+01  0.38983272149E+02  0.46142319239E+02  0.10000013473E+02 0.  0.
         12    1    1    2    0    0 -0.22046469500E+02 -0.48343593553E+01 -0.38983272149E+02  0.45045680761E+02  0.00000000000E+00 0. -1.
         11    1    3    3    0    0  0.93804639537E+01  0.45353207069E+01  0.19501105868E+02  0.22110073908E+02  0.51100000000E-03 0. -1.
        -11    1    3    3    0    0  0.12213051657E+02  0.18704428679E+01  0.17949894594E+02  0.21791188666E+02  0.51100000000E-03 0.  1.
         12    1    3    3    0    0  0.45295388952E+00 -0.15714042196E+01  0.15322716877E+01  0.22410566642E+01  0.00000000000E+00 0. -1.
</event>
<event>
 7    1  0.2323330E-008  0.4614232E+02  0.7816164E-02  0.1320468E+00
        -11   -1    0    0    0    0  0.00000000000E+00  0.00000000000E+00  0.45593999997E+02  0.45594000000E+02  0.51100000000E-03 0.  1.
         11   -1    0    0    0    0 -0.00000000000E+00 -0.00000000000E+00 -0.45593999997E+02  0.45594000000E+02  0.51100000000E-03 0. -1.
    9900012    2    1    2    0    0  0.21191998641E+01 -0.34304369817E+02  0.29117567209E+02  0.46142317446E+02  0.99999971240E+01 0.  0.
         12    1    1    2    0    0 -0.21191998641E+01  0.34304369817E+02 -0.29117567209E+02  0.45045682554E+02  0.00000000000E+00 0. -1.
         11    1    3    3    0    0  0.33166741263E+01 -0.10160972702E+02  0.10595176978E+02  0.15050032191E+02  0.51100000000E-03 0. -1.
        -11    1    3    3    0    0  0.25724307686E+01 -0.86103745169E+01  0.68825844477E+01  0.11319271987E+02  0.51100000000E-03 0.  1.
         12    1    3    3    0    0 -0.37699050308E+01 -0.15533022599E+02  0.11639805783E+02  0.19773013267E+02  0.00000000000E+00 0. -1.
</event>
<event>
 7    1  0.2323330E-008  0.4614232E+02  0.7816164E-02  0.1320468E+00
        -11   -1    0    0    0    0  0.00000000000E+00  0.00000000000E+00  0.45593999997E+02  0.45594000000E+02  0.51100000000E-03 0.  1.
         11   -1    0    0    0    0 -0.00000000000E+00 -0.00000000000E+00 -0.45593999997E+02  0.45594000000E+02  0.51100000000E-03 0. -1.
    9900012    2    1    2    0    0  0.43030568054E+02  0.72713738677E+01 -0.11162919609E+02  0.46142318307E+02  0.10000004978E+02 0.  0.
         12    1    1    2    0    0 -0.43030568054E+02 -0.72713738677E+01  0.11162919609E+02  0.45045681693E+02  0.00000000000E+00 0. -1.
         11    1    3    3    0    0  0.29453422502E+02  0.46333258658E+01 -0.43797514084E+01  0.30135594043E+02  0.51100000000E-03 0. -1.
        -11    1    3    3    0    0  0.12712584266E+02  0.13365207056E+01 -0.52535199684E+01  0.13820114278E+02  0.51100000000E-03 0.  1.
         12    1    3    3    0    0  0.86456128609E+00  0.13015272963E+01 -0.15296482322E+01  0.21866099868E+01  0.00000000000E+00 0. -1.
</event>
<event>
 7    1  0.2323330E-008  0.4614232E+02  0.7816164E-02  0.1320468E+00
        -11   -1    0    0    0    0  0.00000000000E+00  0.00000000000E+00  0.45593999997E+02  0.45594000000E+02  0.51100000000E-03 0.  1.
         11   -1    0    0    0    0 -0.00000000000E+00 -0.00000000000E+00 -0.45593999997E+02  0.45594000000E+02  0.51100000000E-03 0. -1.
    9900012    2    1    2    0    0  0.34742835377E+02 -0.45224715016E+01  0.28312474492E+02  0.46142316851E+02  0.99999917024E+01 0.  0.
         12    1    1    2    0    0 -0.34742835377E+02  0.45224715016E+01 -0.28312474492E+02  0.45045683149E+02  0.00000000000E+00 0. -1.
         11    1    3    3    0    0  0.29519559836E+00 -0.37864718165E+00  0.90444736108E+00  0.10239821383E+01  0.51100000000E-03 0. -1.
        -11    1    3    3    0    0  0.98298519649E+01  0.25847882499E+01  0.97488268931E+01  0.14083562973E+02  0.51100000000E-03 0.  1.
        -12    1    3    3    0    0  0.24617787813E+02 -0.67286125698E+01  0.17659200238E+02  0.31034771740E+02  0.00000000000E+00 0.  1.
</event>
<event>
 7    1  0.2323330E-008  0.4614232E+02  0.7816164E-02  0.1320468E+00
        -11   -1    0    0    0    0  0.00000000000E+00  0.00000000000E+00  0.45593999997E+02  0.45594000000E+02  0.51100000000E-03 0. -1.
         11   -1    0    0    0    0 -0.00000000000E+00 -0.00000000000E+00 -0.45593999997E+02  0.45594000000E+02  0.51100000000E-03 0.  1.
    9900012    2    1    2    0    0 -0.17411988528E+02 -0.41428823315E+02  0.30965690931E+01  0.46142317788E+02  0.10000000247E+02 0.  0.
         12    1    1    2    0    0  0.17411988528E+02  0.41428823315E+02 -0.30965690931E+01  0.45045682212E+02  0.00000000000E+00 0. -1.
         11    1    3    3    0    0 -0.37789865877E+01 -0.97710668138E+01 -0.93787946663E+00  0.10518274786E+02  0.51100000000E-03 0. -1.
        -11    1    3    3    0    0 -0.60055372510E+01 -0.22682553500E+02  0.11224952082E+01  0.23490949464E+02  0.51100000000E-03 0.  1.
         12    1    3    3    0    0 -0.76274646897E+01 -0.89752030012E+01  0.29119533515E+01  0.12133093539E+02  0.00000000000E+00 0. -1.
</event>
<event>
 7    1  0.2323330E-008  0.4614232E+02  0.7816164E-02  0.1320468E+00
        -11   -1    0    0    0    0  0.00000000000E+00  0.00000000000E+00  0.45593999997E+02  0.45594000000E+02  0.51100000000E-03 0. -1.
         11   -1    0    0    0    0 -0.00000000000E+00 -0.00000000000E+00 -0.45593999997E+02  0.45594000000E+02  0.51100000000E-03 0.  1.
    9900012    2    1    2    0    0  0.20380626612E+02  0.25583827715E+02 -0.30971135894E+02  0.46142318296E+02  0.10000004877E+02 0.  0.
         12    1    1    2    0    0 -0.20380626612E+02 -0.25583827715E+02  0.30971135894E+02  0.45045681704E+02  0.00000000000E+00 0. -1.
         11    1    3    3    0    0  0.27379230697E+00  0.13617063168E+00  0.25347360447E+00  0.39718232284E+00  0.51100000000E-03 0. -1.
        -11    1    3    3    0    0  0.60141475917E+01  0.76887722005E+01 -0.46457226428E+01  0.10810639590E+02  0.51100000000E-03 0.  1.
         12    1    3    3    0    0  0.14092686713E+02  0.17758884882E+02 -0.26578886856E+02  0.34934496383E+02  0.00000000000E+00 0. -1.
</event>
<event>
 7    1  0.2323330E-008  0.4614232E+02  0.7816164E-02  0.1320468E+00
        -11   -1    0    0    0    0  0.00000000000E+00  0.00000000000E+00  0.45593999997E+02  0.45594000000E+02  0.51100000000E-03 0.  1.
         11   -1    0    0    0    0 -0.00000000000E+00 -0.00000000000E+00 -0.45593999997E+02  0.45594000000E+02  0.51100000000E-03 0. -1.
    9900012    2    1    2    0    0  0.44108999163E+02  0.50867520513E+01  0.75917639977E+01  0.46142315032E+02  0.99999751159E+01 0.  0.
         12    1    1    2    0    0 -0.44108999163E+02 -0.50867520513E+01 -0.75917639977E+01  0.45045684968E+02  0.00000000000E+00 0. -1.
         11    1    3    3    0    0  0.18517462997E+02  0.20442952696E+01  0.41148060723E+01  0.19078972936E+02  0.51100000000E-03 0. -1.
        -11    1    3    3    0    0  0.11670881773E+02  0.33114357670E+01  0.48657791964E+01  0.13070994440E+02  0.51100000000E-03 0.  1.
         12    1    3    3    0    0  0.13920654393E+02 -0.26897898527E+00 -0.13888212710E+01  0.13992347656E+02  0.00000000000E+00 0. -1.
</event>
<event>
 7    1  0.2323330E-008  0.4614232E+02  0.7816164E-02  0.1320468E+00
        -11   -1    0    0    0    0  0.00000000000E+00  0.00000000000E+00  0.45593999997E+02  0.45594000000E+02  0.51100000000E-03 0.  1.
         11   -1    0    0    0    0 -0.00000000000E+00 -0.00000000000E+00 -0.45593999997E+02  0.45594000000E+02  0.51100000000E-03 0. -1.
    9900012    2    1    2    0    0 -0.61316722530E+01  0.24542643414E+02  0.37271634507E+02  0.46142317752E+02  0.99999999162E+01 0.  0.
         12    1    1    2    0    0  0.61316722530E+01 -0.24542643414E+02 -0.37271634507E+02  0.45045682248E+02  0.00000000000E+00 0. -1.
         11    1    3    3    0    0 -0.25425117034E+01  0.21148135557E+01  0.90476192335E+01  0.96330792685E+01  0.51100000000E-03 0. -1.
        -11    1    3    3    0    0 -0.31444481952E+01  0.95646250287E+01  0.99306165754E+01  0.14141667236E+02  0.51100000000E-03 0.  1.
         12    1    3    3    0    0 -0.44471235442E+00  0.12863204830E+02  0.18293398698E+02  0.22367571247E+02  0.00000000000E+00 0. -1.
</event>
<event>
 7    1  0.2323330E-008  0.4614232E+02  0.7816164E-02  0.1320468E+00
        -11   -1    0    0    0    0  0.00000000000E+00  0.00000000000E+00  0.45593999997E+02  0.45594000000E+02  0.51100000000E-03 0. -1.
         11   -1    0    0    0    0 -0.00000000000E+00 -0.00000000000E+00 -0.45593999997E+02  0.45594000000E+02  0.51100000000E-03 0.  1.
    9900012    2    1    2    0    0 -0.39325273325E+02  0.14657023515E+02 -0.16364841506E+02  0.46142317655E+02  0.99999990296E+01 0.  0.
         12    1    1    2    0    0  0.39325273325E+02 -0.14657023515E+02  0.16364841506E+02  0.45045682345E+02  0.00000000000E+00 0. -1.
         11    1    3    3    0    0 -0.16326492239E+02  0.22176921672E+01 -0.51052328729E+01  0.17249229268E+02  0.51100000000E-03 0. -1.
        -11    1    3    3    0    0 -0.23176990049E+02  0.12019452779E+02 -0.11270031110E+02  0.28436837277E+02  0.51100000000E-03 0.  1.
        -12    1    3    3    0    0  0.17820896311E+00  0.41987856888E+00  0.10422476681E-01  0.45625110976E+00  0.00000000000E+00 0.  1.
</event>
<event>
 7    1  0.2323330E-008  0.4614232E+02  0.7816164E-02  0.1320468E+00
        -11   -1    0    0    0    0  0.00000000000E+00  0.00000000000E+00  0.45593999997E+02  0.45594000000E+02  0.51100000000E-03 0.  1.
         11   -1    0    0    0    0 -0.00000000000E+00 -0.00000000000E+00 -0.45593999997E+02  0.45594000000E+02  0.51100000000E-03 0. -1.
    9900012    2    1    2    0    0 -0.37999800054E+01 -0.44884106185E+02  0.30146045814E+00  0.46142315251E+02  0.99999771119E+01 0.  0.
         12    1    1    2    0    0  0.37999800054E+01  0.44884106185E+02 -0.30146045814E+00  0.45045684749E+02  0.00000000000E+00 0. -1.
         11    1    3    3    0    0  0.26650732734E+01 -0.85207886106E+01 -0.80000853957E-01  0.89282055586E+01  0.51100000000E-03 0. -1.
        -11    1    3    3    0    0 -0.16518814312E+00 -0.13363093827E+02  0.24150747133E+00  0.13366296790E+02  0.51100000000E-03 0.  1.
        -12    1    3    3    0    0 -0.62998651357E+01 -0.23000223748E+02  0.13995384077E+00  0.23847812903E+02  0.00000000000E+00 0.  1.
</event>
<event>
 7    1  0.2323330E-008  0.4614232E+02  0.7816164E-02  0.1320468E+00
        -11   -1    0    0    0    0  0.00000000000E+00  0.00000000000E+00  0.45593999997E+02  0.45594000000E+02  0.51100000000E-03 0.  1.
         11   -1    0    0    0    0 -0.00000000000E+00 -0.00000000000E+00 -0.45593999997E+02  0.45594000000E+02  0.51100000000E-03 0. -1.
    9900012    2    1    2    0    0  0.17344941401E+02  0.13715821937E+02  0.39244651192E+02  0.46142318622E+02  0.10000007853E+02 0.  0.
         12    1    1    2    0    0 -0.17344941401E+02 -0.13715821937E+02 -0.39244651192E+02  0.45045681378E+02  0.00000000000E+00 0. -1.
         11    1    3    3    0    0 -0.16451980582E+00  0.33334549328E+01  0.39703247576E+01  0.51867588624E+01  0.51100000000E-03 0. -1.
        -11    1    3    3    0    0  0.13687316988E+02  0.99284304715E+01  0.29809537395E+02  0.34271342225E+02  0.51100000000E-03 0.  1.
        -12    1    3    3    0    0  0.38221442190E+01  0.45393653308E+00  0.54647890391E+01  0.66842175345E+01  0.00000000000E+00 0.  1.
</event>
<event>
 7    1  0.2323330E-008  0.4614232E+02  0.7816164E-02  0.1320468E+00
        -11   -1    0    0    0    0  0.00000000000E+00  0.00000000000E+00  0.45593999997E+02  0.45594000000E+02  0.51100000000E-03 0.  1.
         11   -1    0    0    0    0 -0.00000000000E+00 -0.00000000000E+00 -0.45593999997E+02  0.45594000000E+02  0.51100000000E-03 0. -1.
    9900012    2    1    2    0    0 -0.38902544312E+02  0.20739731785E+02 -0.92503551169E+01  0.46142317652E+02  0.99999990028E+01 0.  0.
         12    1    1    2    0    0  0.38902544312E+02 -0.20739731785E+02  0.92503551169E+01  0.45045682348E+02  0.00000000000E+00 0. -1.
         11    1    3    3    0    0  0.17263048269E+00 -0.10639069518E+00  0.52842012025E+00  0.56599324040E+00  0.51100000000E-03 0. -1.
        -11    1    3    3    0    0 -0.13650969112E+01  0.13465656409E+01  0.30574452788E+00  0.19417024952E+01  0.51100000000E-03 0.  1.
        -12    1    3    3    0    0 -0.37710077883E+02  0.19499556839E+02 -0.10084519765E+02  0.43634621916E+02  0.00000000000E+00 0.  1.
</event>
<event>
 7    1  0.2323330E-008  0.4614232E+02  0.7816164E-02  0.1320468E+00
        -11   -1    0    0    0    0  0.00000000000E+00  0.00000000000E+00  0.45593999997E+02  0.45594000000E+02  0.51100000000E-03 0. -1.
         11   -1    0    0    0    0 -0.00000000000E+00 -0.00000000000E+00 -0.45593999997E+02  0.45594000000E+02  0.51100000000E-03 0.  1.
    9900012    2    1    2    0    0  0.38836413631E+02  0.22170313494E+02 -0.54151373668E+01  0.46142317223E+02  0.99999950940E+01 0.  0.
         12    1    1    2    0    0 -0.38836413631E+02 -0.22170313494E+02  0.54151373668E+01  0.45045682777E+02  0.00000000000E+00 0. -1.
         11    1    3    3    0    0  0.44735928161E+01  0.43552354648E+01 -0.70195516062E+00  0.62828218141E+01  0.51100000000E-03 0. -1.
        -11    1    3    3    0    0  0.56282987116E+01  0.41696965635E+01  0.21311548785E+01  0.73216075554E+01  0.51100000000E-03 0.  1.
        -12    1    3    3    0    0  0.28734522103E+02  0.13645381465E+02 -0.68443370847E+01  0.32537887854E+02  0.00000000000E+00 0.  1.
</event>
<event>
 7    1  0.2323330E-008  0.4614232E+02  0.7816164E-02  0.1320468E+00
        -11   -1    0    0    0    0  0.00000000000E+00  0.00000000000E+00  0.45593999997E+02  0.45594000000E+02  0.51100000000E-03 0. -1.
         11   -1    0    0    0    0 -0.00000000000E+00 -0.00000000000E+00 -0.45593999997E+02  0.45594000000E+02  0.51100000000E-03 0.  1.
    9900012    2    1    2    0    0  0.23158208767E+02 -0.38427720547E+02 -0.40151195793E+01  0.46142317355E+02  0.99999962946E+01 0.  0.
         12    1    1    2    0    0 -0.23158208767E+02  0.38427720547E+02  0.40151195793E+01  0.45045682645E+02  0.00000000000E+00 0. -1.
         11    1    3    3    0    0  0.74963366625E+01 -0.11356356102E+02 -0.14318350352E-01  0.13607427845E+02  0.51100000000E-03 0. -1.
        -11    1    3    3    0    0  0.14374031089E+02 -0.26023237853E+02 -0.18076167158E+01  0.29784041978E+02  0.51100000000E-03 0.  1.
         12    1    3    3    0    0  0.12878410158E+01 -0.10481265916E+01 -0.21931845131E+01  0.27508475317E+01  0.00000000000E+00 0. -1.
</event>
<event>
 7    1  0.2323330E-008  0.4614232E+02  0.7816164E-02  0.1320468E+00
        -11   -1    0    0    0    0  0.00000000000E+00  0.00000000000E+00  0.45593999997E+02  0.45594000000E+02  0.51100000000E-03 0.  1.
         11   -1    0    0    0    0 -0.00000000000E+00 -0.00000000000E+00 -0.45593999997E+02  0.45594000000E+02  0.51100000000E-03 0. -1.
    9900012    2    1    2    0    0 -0.28983778345E+02  0.24799821787E+02  0.23958777631E+02  0.46142316595E+02  0.99999893710E+01 0.  0.
         12    1    1    2    0    0  0.28983778345E+02 -0.24799821787E+02 -0.23958777631E+02  0.45045683405E+02  0.00000000000E+00 0. -1.
         11    1    3    3    0    0 -0.41954594008E+00  0.19811050133E+01  0.91747918562E+00  0.22231878433E+01  0.51100000000E-03 0. -1.
        -11    1    3    3    0    0 -0.17036162496E+02  0.13352680719E+02  0.90280450094E+01  0.23452729306E+02  0.51100000000E-03 0.  1.
        -12    1    3    3    0    0 -0.11528069909E+02  0.94660360545E+01  0.14013253436E+02  0.20466399446E+02  0.00000000000E+00 0.  1.
</event>
<event>
 7    1  0.2323330E-008  0.4614231E+02  0.7816164E-02  0.1320468E+00
        -11   -1    0    0    0    0  0.00000000000E+00  0.00000000000E+00  0.45593999997E+02  0.45594000000E+02  0.51100000000E-03 0. -1.
         11   -1    0    0    0    0 -0.00000000000E+00 -0.00000000000E+00 -0.45593999997E+02  0.45594000000E+02  0.51100000000E-03 0.  1.
    9900012    2    1    2    0    0  0.21440586012E+02  0.39611679632E+02 -0.57440611245E+00  0.46142313923E+02  0.99999649993E+01 0.  0.
         12    1    1    2    0    0 -0.21440586012E+02 -0.39611679632E+02  0.57440611245E+00  0.45045686077E+02  0.00000000000E+00 0. -1.
         11    1    3    3    0    0  0.10863182506E+02  0.16614150101E+02 -0.12369185722E+01  0.19888908606E+02  0.51100000000E-03 0. -1.
        -11    1    3    3    0    0  0.10799179637E+01  0.27900542074E+01 -0.22400373194E+01  0.37374313026E+01  0.51100000000E-03 0.  1.
        -12    1    3    3    0    0  0.94974855422E+01  0.20207475323E+02  0.29025497792E+01  0.22515974014E+02  0.00000000000E+00 0.  1.
</event>
<event>
 7    1  0.2323330E-008  0.4614232E+02  0.7816164E-02  0.1320468E+00
        -11   -1    0    0    0    0  0.00000000000E+00  0.00000000000E+00  0.45593999997E+02  0.45594000000E+02  0.51100000000E-03 0.  1.
         11   -1    0    0    0    0 -0.00000000000E+00 -0.00000000000E+00 -0.45593999997E+02  0.45594000000E+02  0.51100000000E-03 0. -1.
    9900012    2    1    2    0    0 -0.95003026803E+01  0.51255922424E+01  0.43733123325E+02  0.46142317381E+02  0.99999965322E+01 0.  0.
         12    1    1    2    0    0  0.95003026803E+01 -0.51255922424E+01 -0.43733123325E+02  0.45045682619E+02  0.00000000000E+00 0. -1.
         11    1    3    3    0    0 -0.37161170117E+01  0.17531624773E+01  0.13992597057E+02  0.14583411020E+02  0.51100000000E-03 0. -1.
        -11    1    3    3    0    0 -0.64265121716E+01  0.30788229483E+01  0.29978384807E+02  0.30813678218E+02  0.51100000000E-03 0.  1.
         12    1    3    3    0    0  0.64232650303E+00  0.29360681681E+00 -0.23785853919E+00  0.74522814228E+00  0.00000000000E+00 0. -1.
</event>
<event>
 7    1  0.2323330E-008  0.4614232E+02  0.7816164E-02  0.1320468E+00
        -11   -1    0    0    0    0  0.00000000000E+00  0.00000000000E+00  0.45593999997E+02  0.45594000000E+02  0.51100000000E-03 0.  1.
         11   -1    0    0    0    0 -0.00000000000E+00 -0.00000000000E+00 -0.45593999997E+02  0.45594000000E+02  0.51100000000E-03 0. -1.
    9900012    2    1    2    0    0 -0.36841822136E+02  0.17020341181E+02 -0.19547419477E+02  0.46142317849E+02  0.10000000804E+02 0.  0.
         12    1    1    2    0    0  0.36841822136E+02 -0.17020341181E+02  0.19547419477E+02  0.45045682151E+02  0.00000000000E+00 0. -1.
         11    1    3    3    0    0 -0.11859154435E+02  0.40743495643E+01 -0.69373680241E+01  0.14330629562E+02  0.51100000000E-03 0.  1.
        -11    1    3    3    0    0 -0.21274348798E+02  0.74278526114E+01 -0.10266527229E+02  0.24762320020E+02  0.51100000000E-03 0. -1.
         12    1    3    3    0    0 -0.37083189034E+01  0.55181390058E+01 -0.23435242234E+01  0.70493682669E+01  0.00000000000E+00 0. -1.
</event>
<event>
 7    1  0.2323330E-008  0.4614232E+02  0.7816164E-02  0.1320468E+00
        -11   -1    0    0    0    0  0.00000000000E+00  0.00000000000E+00  0.45593999997E+02  0.45594000000E+02  0.51100000000E-03 0.  1.
         11   -1    0    0    0    0 -0.00000000000E+00 -0.00000000000E+00 -0.45593999997E+02  0.45594000000E+02  0.51100000000E-03 0. -1.
    9900012    2    1    2    0    0 -0.28030816311E+02 -0.10786885543E+02  0.33571266348E+02  0.46142317777E+02  0.10000000143E+02 0.  0.
         12    1    1    2    0    0  0.28030816311E+02  0.10786885543E+02 -0.33571266348E+02  0.45045682223E+02  0.00000000000E+00 0. -1.
         11    1    3    3    0    0 -0.84414548818E+01 -0.69513239997E+01  0.10733382298E+02  0.15322681282E+02  0.51100000000E-03 0. -1.
        -11    1    3    3    0    0 -0.16179276237E+02 -0.31996278928E+01  0.21510425345E+02  0.27105442202E+02  0.51100000000E-03 0.  1.
         12    1    3    3    0    0 -0.34100851920E+01 -0.63593365086E+00  0.13274587048E+01  0.37141942919E+01  0.00000000000E+00 0. -1.
</event>
<event>
 7    1  0.2323330E-008  0.4614232E+02  0.7816164E-02  0.1320468E+00
        -11   -1    0    0    0    0  0.00000000000E+00  0.00000000000E+00  0.45593999997E+02  0.45594000000E+02  0.51100000000E-03 0.  1.
         11   -1    0    0    0    0 -0.00000000000E+00 -0.00000000000E+00 -0.45593999997E+02  0.45594000000E+02  0.51100000000E-03 0. -1.
    9900012    2    1    2    0    0 -0.38590774319E+02  0.18897423336E+02  0.13518617659E+02  0.46142317691E+02  0.99999993588E+01 0.  0.
         12    1    1    2    0    0  0.38590774319E+02 -0.18897423336E+02 -0.13518617659E+02  0.45045682309E+02  0.00000000000E+00 0. -1.
         11    1    3    3    0    0 -0.33088496296E+02  0.18303653065E+02  0.10758483554E+02  0.39314339259E+02  0.51100000000E-03 0.  1.
        -11    1    3    3    0    0 -0.52698059579E+01  0.15673145935E+00  0.15110876531E+01  0.54844148038E+01  0.51100000000E-03 0. -1.
        -12    1    3    3    0    0 -0.23247206449E+00  0.43703881172E+00  0.12490464522E+01  0.13435636284E+01  0.00000000000E+00 0.  1.
</event>
<event>
 7    1  0.2323330E-008  0.4614232E+02  0.7816164E-02  0.1320468E+00
        -11   -1    0    0    0    0  0.00000000000E+00  0.00000000000E+00  0.45593999997E+02  0.45594000000E+02  0.51100000000E-03 0.  1.
         11   -1    0    0    0    0 -0.00000000000E+00 -0.00000000000E+00 -0.45593999997E+02  0.45594000000E+02  0.51100000000E-03 0. -1.
    9900012    2    1    2    0    0 -0.34791455578E+02  0.16750469286E+01  0.28563303232E+02  0.46142318132E+02  0.10000003381E+02 0.  0.
         12    1    1    2    0    0  0.34791455578E+02 -0.16750469286E+01 -0.28563303232E+02  0.45045681868E+02  0.00000000000E+00 0. -1.
         11    1    3    3    0    0 -0.17866374030E+01  0.11133444512E+01  0.29781454277E+01  0.36470480565E+01  0.51100000000E-03 0. -1.
        -11    1    3    3    0    0 -0.22651964190E+01 -0.18801432846E+01  0.34581720738E+01  0.45414764053E+01  0.51100000000E-03 0.  1.
        -12    1    3    3    0    0 -0.30739621756E+02  0.24418457620E+01  0.22126985730E+02  0.37953793670E+02  0.00000000000E+00 0.  1.
</event>
<event>
 7    1  0.2323330E-008  0.4614232E+02  0.7816164E-02  0.1320468E+00
        -11   -1    0    0    0    0  0.00000000000E+00  0.00000000000E+00  0.45593999997E+02  0.45594000000E+02  0.51100000000E-03 0. -1.
         11   -1    0    0    0    0 -0.00000000000E+00 -0.00000000000E+00 -0.45593999997E+02  0.45594000000E+02  0.51100000000E-03 0.  1.
    9900012    2    1    2    0    0  0.31052334016E+02  0.31727787865E+02 -0.76297717081E+01  0.46142318886E+02  0.10000010261E+02 0.  0.
         12    1    1    2    0    0 -0.31052334016E+02 -0.31727787865E+02  0.76297717081E+01  0.45045681114E+02  0.00000000000E+00 0. -1.
         11    1    3    3    0    0  0.61182462655E+01  0.11654526478E+02 -0.20953851935E+01  0.13328599482E+02  0.51100000000E-03 0. -1.
        -11    1    3    3    0    0  0.13843901965E+02  0.13992843249E+02 -0.38074267380E+01  0.20048685304E+02  0.51100000000E-03 0.  1.
         12    1    3    3    0    0  0.11090185786E+02  0.60804181385E+01 -0.17269597765E+01  0.12765034100E+02  0.00000000000E+00 0. -1.
</event>
<event>
 7    1  0.2323330E-008  0.4614232E+02  0.7816164E-02  0.1320468E+00
        -11   -1    0    0    0    0  0.00000000000E+00  0.00000000000E+00  0.45593999997E+02  0.45594000000E+02  0.51100000000E-03 0.  1.
         11   -1    0    0    0    0 -0.00000000000E+00 -0.00000000000E+00 -0.45593999997E+02  0.45594000000E+02  0.51100000000E-03 0. -1.
    9900012    2    1    2    0    0  0.36420656402E+02 -0.12410779232E+02  0.23422677808E+02  0.46142317748E+02  0.99999998783E+01 0.  0.
         12    1    1    2    0    0 -0.36420656402E+02  0.12410779232E+02 -0.23422677808E+02  0.45045682252E+02  0.00000000000E+00 0. -1.
         11    1    3    3    0    0  0.23367940524E+02 -0.12673598058E+02  0.14234522086E+02  0.30154640627E+02  0.51100000000E-03 0. -1.
        -11    1    3    3    0    0  0.55502388305E+01 -0.31335303710E+00  0.38781983825E+01  0.67781829539E+01  0.51100000000E-03 0.  1.
         12    1    3    3    0    0  0.75024770471E+01  0.57617186338E+00  0.53099573402E+01  0.92094941670E+01  0.00000000000E+00 0. -1.
</event>
<event>
 7    1  0.2323330E-008  0.4614231E+02  0.7816164E-02  0.1320468E+00
        -11   -1    0    0    0    0  0.00000000000E+00  0.00000000000E+00  0.45593999997E+02  0.45594000000E+02  0.51100000000E-03 0.  1.
         11   -1    0    0    0    0 -0.00000000000E+00 -0.00000000000E+00 -0.45593999997E+02  0.45594000000E+02  0.51100000000E-03 0. -1.
    9900012    2    1    2    0    0 -0.40861025245E+02 -0.86615208488E+01  0.16866199289E+02  0.46142312016E+02  0.99999476151E+01 0.  0.
         12    1    1    2    0    0  0.40861025245E+02  0.86615208488E+01 -0.16866199289E+02  0.45045687984E+02  0.00000000000E+00 0. -1.
         11    1    3    3    0    0 -0.38127328727E+00 -0.50491939995E+00 -0.77121474286E+00  0.99753965373E+00  0.51100000000E-03 0. -1.
        -11    1    3    3    0    0 -0.24998667760E+02 -0.45733002293E+01  0.13247751491E+02  0.28659228611E+02  0.51100000000E-03 0.  1.
         12    1    3    3    0    0 -0.15481084198E+02 -0.35833012196E+01  0.43896625406E+01  0.16485543752E+02  0.00000000000E+00 0. -1.
</event>
<event>
 7    1  0.2323330E-008  0.4614232E+02  0.7816164E-02  0.1320468E+00
        -11   -1    0    0    0    0  0.00000000000E+00  0.00000000000E+00  0.45593999997E+02  0.45594000000E+02  0.51100000000E-03 0. -1.
         11   -1    0    0    0    0 -0.00000000000E+00 -0.00000000000E+00 -0.45593999997E+02  0.45594000000E+02  0.51100000000E-03 0.  1.
    9900012    2    1    2    0    0  0.44861460506E+02  0.32111928765E+01  0.25002149422E+01  0.46142317929E+02  0.10000001533E+02 0.  0.
         12    1    1    2    0    0 -0.44861460506E+02 -0.32111928765E+01 -0.25002149422E+01  0.45045682071E+02  0.00000000000E+00 0. -1.
         11    1    3    3    0    0  0.31372632014E+01  0.11929596568E+01 -0.35046302110E+00  0.33746700176E+01  0.51100000000E-03 0. -1.
        -11    1    3    3    0    0  0.88615810667E+01 -0.24736169534E+01  0.27385611747E+01  0.95992769209E+01  0.51100000000E-03 0.  1.
         12    1    3    3    0    0  0.32862616238E+02  0.44918501731E+01  0.11211678855E+00  0.33168370991E+02  0.00000000000E+00 0. -1.
</event>
<event>
 7    1  0.2323330E-008  0.4614232E+02  0.7816164E-02  0.1320468E+00
        -11   -1    0    0    0    0  0.00000000000E+00  0.00000000000E+00  0.45593999997E+02  0.45594000000E+02  0.51100000000E-03 0.  1.
         11   -1    0    0    0    0 -0.00000000000E+00 -0.00000000000E+00 -0.45593999997E+02  0.45594000000E+02  0.51100000000E-03 0. -1.
    9900012    2    1    2    0    0  0.55992729971E+01  0.17228178143E+02  0.41242593702E+02  0.46142317460E+02  0.99999972559E+01 0.  0.
         12    1    1    2    0    0 -0.55992729971E+01 -0.17228178143E+02 -0.41242593702E+02  0.45045682540E+02  0.00000000000E+00 0. -1.
         11    1    3    3    0    0 -0.10772256298E+01  0.94850295770E+01  0.13850872034E+02  0.16821797095E+02  0.51100000000E-03 0. -1.
        -11    1    3    3    0    0  0.38977334314E+01  0.60443147009E+01  0.19431705840E+02  0.20719972448E+02  0.51100000000E-03 0.  1.
         12    1    3    3    0    0  0.27787651955E+01  0.16988338656E+01  0.79600158273E+01  0.86005479178E+01  0.00000000000E+00 0. -1.
</event>
<event>
 7    1  0.2323330E-008  0.4614232E+02  0.7816164E-02  0.1320468E+00
        -11   -1    0    0    0    0  0.00000000000E+00  0.00000000000E+00  0.45593999997E+02  0.45594000000E+02  0.51100000000E-03 0. -1.
         11   -1    0    0    0    0 -0.00000000000E+00 -0.00000000000E+00 -0.45593999997E+02  0.45594000000E+02  0.51100000000E-03 0.  1.
    9900012    2    1    2    0    0 -0.38896069875E+02 -0.14900381516E+02 -0.17151906773E+02  0.46142317332E+02  0.99999960890E+01 0.  0.
         12    1    1    2    0    0  0.38896069875E+02  0.14900381516E+02  0.17151906773E+02  0.45045682668E+02  0.00000000000E+00 0. -1.
         11    1    3    3    0    0 -0.96988533789E+01 -0.36462741156E+01 -0.46253770558E+01  0.11347122321E+02  0.51100000000E-03 0. -1.
        -11    1    3    3    0    0 -0.27256028948E+02 -0.12668816934E+02 -0.11736026554E+02  0.32266458685E+02  0.51100000000E-03 0.  1.
         12    1    3    3    0    0 -0.19411875478E+01  0.14147095329E+01 -0.79050316309E+00  0.25287363265E+01  0.00000000000E+00 0. -1.
</event>
<event>
 7    1  0.2323330E-008  0.4614232E+02  0.7816164E-02  0.1320468E+00
        -11   -1    0    0    0    0  0.00000000000E+00  0.00000000000E+00  0.45593999997E+02  0.45594000000E+02  0.51100000000E-03 0.  1.
         11   -1    0    0    0    0 -0.00000000000E+00 -0.00000000000E+00 -0.45593999997E+02  0.45594000000E+02  0.51100000000E-03 0. -1.
    9900012    2    1    2    0    0  0.41953691116E+02 -0.75062791398E+01 -0.14582764868E+02  0.46142318120E+02  0.10000003275E+02 0.  0.
         12    1    1    2    0    0 -0.41953691116E+02  0.75062791398E+01  0.14582764868E+02  0.45045681880E+02  0.00000000000E+00 0. -1.
         11    1    3    3    0    0  0.43667200849E+01 -0.37869860715E+01 -0.21275640346E+01  0.61592237163E+01  0.51100000000E-03 0. -1.
        -11    1    3    3    0    0  0.68752785452E+01 -0.12208868378E+01 -0.75575031284E+00  0.70236157740E+01  0.51100000000E-03 0.  1.
         12    1    3    3    0    0  0.30711692486E+02 -0.24984062306E+01 -0.11699450521E+02  0.32959478630E+02  0.00000000000E+00 0. -1.
</event>
<event>
 7    1  0.2323330E-008  0.4614232E+02  0.7816164E-02  0.1320468E+00
        -11   -1    0    0    0    0  0.00000000000E+00  0.00000000000E+00  0.45593999997E+02  0.45594000000E+02  0.51100000000E-03 0.  1.
         11   -1    0    0    0    0 -0.00000000000E+00 -0.00000000000E+00 -0.45593999997E+02  0.45594000000E+02  0.51100000000E-03 0. -1.
    9900012    2    1    2    0    0 -0.11778477929E+02 -0.30774748966E+02  0.30713121014E+02  0.46142317425E+02  0.99999969325E+01 0.  0.
         12    1    1    2    0    0  0.11778477929E+02  0.30774748966E+02 -0.30713121014E+02  0.45045682575E+02  0.00000000000E+00 0. -1.
         11    1    3    3    0    0 -0.40101662107E+01 -0.39429972230E+01  0.35113236836E+01  0.66300870590E+01  0.51100000000E-03 0. -1.
        -11    1    3    3    0    0 -0.79616591471E+01 -0.21843447359E+02  0.19552111548E+02  0.30377776007E+02  0.51100000000E-03 0.  1.
         12    1    3    3    0    0  0.19334742928E+00 -0.49883043847E+01  0.76496857822E+01  0.91344543586E+01  0.00000000000E+00 0. -1.
</event>
<event>
 7    1  0.2323330E-008  0.4614232E+02  0.7816164E-02  0.1320468E+00
        -11   -1    0    0    0    0  0.00000000000E+00  0.00000000000E+00  0.45593999997E+02  0.45594000000E+02  0.51100000000E-03 0.  1.
         11   -1    0    0    0    0 -0.00000000000E+00 -0.00000000000E+00 -0.45593999997E+02  0.45594000000E+02  0.51100000000E-03 0. -1.
    9900012    2    1    2    0    0  0.10169959033E+02  0.75519713243E+01  0.43227920011E+02  0.46142318674E+02  0.10000008325E+02 0.  0.
         12    1    1    2    0    0 -0.10169959033E+02 -0.75519713243E+01 -0.43227920011E+02  0.45045681326E+02  0.00000000000E+00 0. -1.
         11    1    3    3    0    0  0.18030943412E+01  0.21969017556E+00  0.85573499016E+01  0.87480083777E+01  0.51100000000E-03 0. -1.
        -11    1    3    3    0    0  0.96607154869E+01  0.43876090318E+01  0.28925783185E+02  0.30810411712E+02  0.51100000000E-03 0.  1.
         12    1    3    3    0    0 -0.12938507956E+01  0.29446721169E+01  0.57447869245E+01  0.65838985841E+01  0.00000000000E+00 0. -1.
</event>
<event>
 7    1  0.2323330E-008  0.4614232E+02  0.7816164E-02  0.1320468E+00
        -11   -1    0    0    0    0  0.00000000000E+00  0.00000000000E+00  0.45593999997E+02  0.45594000000E+02  0.51100000000E-03 0.  1.
         11   -1    0    0    0    0 -0.00000000000E+00 -0.00000000000E+00 -0.45593999997E+02  0.45594000000E+02  0.51100000000E-03 0. -1.
    9900012    2    1    2    0    0 -0.27703368547E+02  0.15980837205E+02  0.31721438557E+02  0.46142318179E+02  0.10000003811E+02 0.  0.
         12    1    1    2    0    0  0.27703368547E+02 -0.15980837205E+02 -0.31721438557E+02  0.45045681821E+02  0.00000000000E+00 0. -1.
         11    1    3    3    0    0 -0.62776721572E+01  0.34176782367E+01  0.20682009063E+01  0.74409103941E+01  0.51100000000E-03 0. -1.
        -11    1    3    3    0    0 -0.13562068584E+02  0.83788442253E+01  0.19763868906E+02  0.25391834302E+02  0.51100000000E-03 0.  1.
         12    1    3    3    0    0 -0.78636278055E+01  0.41843147431E+01  0.98893687443E+01  0.13309573483E+02  0.00000000000E+00 0. -1.
</event>
<event>
 7    1  0.2323330E-008  0.4614232E+02  0.7816164E-02  0.1320468E+00
        -11   -1    0    0    0    0  0.00000000000E+00  0.00000000000E+00  0.45593999997E+02  0.45594000000E+02  0.51100000000E-03 0.  1.
         11   -1    0    0    0    0 -0.00000000000E+00 -0.00000000000E+00 -0.45593999997E+02  0.45594000000E+02  0.51100000000E-03 0. -1.
    9900012    2    1    2    0    0  0.94225099817E+01  0.41844917716E+02 -0.13759819236E+02  0.46142318094E+02  0.10000003032E+02 0.  0.
         12    1    1    2    0    0 -0.94225099817E+01 -0.41844917716E+02  0.13759819236E+02  0.45045681906E+02  0.00000000000E+00 0. -1.
         11    1    3    3    0    0  0.16242224683E+01  0.25238151061E+02 -0.76896245847E+01  0.26433552431E+02  0.51100000000E-03 0. -1.
        -11    1    3    3    0    0  0.30897387090E+01  0.70424435216E+01 -0.56618058975E+00  0.77112292642E+01  0.51100000000E-03 0.  1.
        -12    1    3    3    0    0  0.47085488044E+01  0.95643231329E+01 -0.55040140615E+01  0.11997536398E+02  0.00000000000E+00 0.  1.
</event>
<event>
 7    1  0.2323330E-008  0.4614232E+02  0.7816164E-02  0.1320468E+00
        -11   -1    0    0    0    0  0.00000000000E+00  0.00000000000E+00  0.45593999997E+02  0.45594000000E+02  0.51100000000E-03 0.  1.
         11   -1    0    0    0    0 -0.00000000000E+00 -0.00000000000E+00 -0.45593999997E+02  0.45594000000E+02  0.51100000000E-03 0. -1.
    9900012    2    1    2    0    0  0.42215361908E+02 -0.15676585283E+02 -0.11051642144E+01  0.46142317687E+02  0.99999993201E+01 0.  0.
         12    1    1    2    0    0 -0.42215361908E+02  0.15676585283E+02  0.11051642144E+01  0.45045682313E+02  0.00000000000E+00 0. -1.
         11    1    3    3    0    0  0.50926323336E+00 -0.12114943384E+01  0.68359743878E+00  0.14813417203E+01  0.51100000000E-03 0. -1.
        -11    1    3    3    0    0  0.20631791962E+01  0.45273443203E+00  0.71550518434E+00  0.22301625034E+01  0.51100000000E-03 0.  1.
         12    1    3    3    0    0  0.39642919478E+02 -0.14917825376E+02 -0.25042668375E+01  0.42430813463E+02  0.00000000000E+00 0. -1.
</event>
<event>
 7    1  0.2323330E-008  0.4614232E+02  0.7816164E-02  0.1320468E+00
        -11   -1    0    0    0    0  0.00000000000E+00  0.00000000000E+00  0.45593999997E+02  0.45594000000E+02  0.51100000000E-03 0. -1.
         11   -1    0    0    0    0 -0.00000000000E+00 -0.00000000000E+00 -0.45593999997E+02  0.45594000000E+02  0.51100000000E-03 0.  1.
    9900012    2    1    2    0    0  0.25144872809E+02 -0.31857726939E+02 -0.19543135294E+02  0.46142317283E+02  0.99999956384E+01 0.  0.
         12    1    1    2    0    0 -0.25144872809E+02  0.31857726939E+02  0.19543135294E+02  0.45045682717E+02  0.00000000000E+00 0. -1.
         11    1    3    3    0    0  0.22169216752E+01 -0.49102750520E+01 -0.66107856681E+00  0.54279432507E+01  0.51100000000E-03 0. -1.
        -11    1    3    3    0    0  0.63342651428E+01 -0.12730643444E+02 -0.75659427029E+01  0.16107007377E+02  0.51100000000E-03 0.  1.
        -12    1    3    3    0    0  0.16593685991E+02 -0.14216808444E+02 -0.11316114025E+02  0.24607366655E+02  0.00000000000E+00 0.  1.
</event>
<event>
 7    1  0.2323330E-008  0.4614232E+02  0.7816164E-02  0.1320468E+00
        -11   -1    0    0    0    0  0.00000000000E+00  0.00000000000E+00  0.45593999997E+02  0.45594000000E+02  0.51100000000E-03 0.  1.
         11   -1    0    0    0    0 -0.00000000000E+00 -0.00000000000E+00 -0.45593999997E+02  0.45594000000E+02  0.51100000000E-03 0. -1.
    9900012    2    1    2    0    0  0.24638381198E+02  0.42044955276E+01  0.37475137150E+02  0.46142317464E+02  0.99999972943E+01 0.  0.
         12    1    1    2    0    0 -0.24638381198E+02 -0.42044955276E+01 -0.37475137150E+02  0.45045682536E+02  0.00000000000E+00 0. -1.
         11    1    3    3    0    0  0.39733101766E+01 -0.19236587884E+01  0.11060646213E+02  0.11909053355E+02  0.51100000000E-03 0. -1.
        -11    1    3    3    0    0  0.69595057974E+01  0.32136733681E+01  0.10929071821E+02  0.13349420534E+02  0.51100000000E-03 0.  1.
         12    1    3    3    0    0  0.13705565224E+02  0.29144809479E+01  0.15485419116E+02  0.20883843576E+02  0.00000000000E+00 0. -1.
</event>
<event>
 7    1  0.2323330E-008  0.4614232E+02  0.7816164E-02  0.1320468E+00
        -11   -1    0    0    0    0  0.00000000000E+00  0.00000000000E+00  0.45593999997E+02  0.45594000000E+02  0.51100000000E-03 0. -1.
         11   -1    0    0    0    0 -0.00000000000E+00 -0.00000000000E+00 -0.45593999997E+02  0.45594000000E+02  0.51100000000E-03 0.  1.
    9900012    2    1    2    0    0  0.33265155197E+02 -0.30007196443E+02 -0.47022358520E+01  0.46142318623E+02  0.10000007863E+02 0.  0.
         12    1    1    2    0    0 -0.33265155197E+02  0.30007196443E+02  0.47022358520E+01  0.45045681377E+02  0.00000000000E+00 0. -1.
         11    1    3    3    0    0  0.18033826985E+02 -0.16424437318E+02 -0.44082632337E+01  0.24787372630E+02  0.51100000000E-03 0. -1.
        -11    1    3    3    0    0  0.11978807090E+02 -0.94265671468E+01 -0.28236475075E+01  0.15502418295E+02  0.51100000000E-03 0.  1.
        -12    1    3    3    0    0  0.32525211223E+01 -0.41561919783E+01  0.25296748893E+01  0.58525276981E+01  0.00000000000E+00 0.  1.
</event>
<event>
 7    1  0.2323330E-008  0.4614232E+02  0.7816164E-02  0.1320468E+00
        -11   -1    0    0    0    0  0.00000000000E+00  0.00000000000E+00  0.45593999997E+02  0.45594000000E+02  0.51100000000E-03 0. -1.
         11   -1    0    0    0    0 -0.00000000000E+00 -0.00000000000E+00 -0.45593999997E+02  0.45594000000E+02  0.51100000000E-03 0.  1.
    9900012    2    1    2    0    0  0.26160710650E+02 -0.22085875237E+02  0.29273619916E+02  0.46142317747E+02  0.99999998668E+01 0.  0.
         12    1    1    2    0    0 -0.26160710650E+02  0.22085875237E+02 -0.29273619916E+02  0.45045682253E+02  0.00000000000E+00 0. -1.
         11    1    3    3    0    0  0.58860980037E-01 -0.97392224439E+00  0.16723719593E+01  0.19361862990E+01  0.51100000000E-03 0. -1.
        -11    1    3    3    0    0  0.23528795952E+02 -0.17279656332E+02  0.26576355718E+02  0.39477758870E+02  0.51100000000E-03 0.  1.
        -12    1    3    3    0    0  0.25730537177E+01 -0.38322966607E+01  0.10248922391E+01  0.47283725774E+01  0.00000000000E+00 0.  1.
</event>
<event>
 7    1  0.2323330E-008  0.4614231E+02  0.7816164E-02  0.1320468E+00
        -11   -1    0    0    0    0  0.00000000000E+00  0.00000000000E+00  0.45593999997E+02  0.45594000000E+02  0.51100000000E-03 0.  1.
         11   -1    0    0    0    0 -0.00000000000E+00 -0.00000000000E+00 -0.45593999997E+02  0.45594000000E+02  0.51100000000E-03 0. -1.
    9900012    2    1    2    0    0 -0.29218705156E+02  0.11184005833E+02  0.32408320950E+02  0.46142312256E+02  0.99999498015E+01 0.  0.
         12    1    1    2    0    0  0.29218705156E+02 -0.11184005833E+02 -0.32408320950E+02  0.45045687744E+02  0.00000000000E+00 0. -1.
         11    1    3    3    0    0 -0.45675840527E+01  0.47465832629E+01  0.82717611492E+01  0.10574256925E+02  0.51100000000E-03 0. -1.
        -11    1    3    3    0    0 -0.13792872157E+02  0.44101795563E+01  0.17370038794E+02  0.22614403685E+02  0.51100000000E-03 0.  1.
        -12    1    3    3    0    0 -0.10858248946E+02  0.20272430136E+01  0.67665210069E+01  0.12953651646E+02  0.00000000000E+00 0.  1.
</event>
<event>
 7    1  0.2323330E-008  0.4614232E+02  0.7816164E-02  0.1320468E+00
        -11   -1    0    0    0    0  0.00000000000E+00  0.00000000000E+00  0.45593999997E+02  0.45594000000E+02  0.51100000000E-03 0.  1.
         11   -1    0    0    0    0 -0.00000000000E+00 -0.00000000000E+00 -0.45593999997E+02  0.45594000000E+02  0.51100000000E-03 0. -1.
    9900012    2    1    2    0    0  0.11687559749E+02 -0.51897683866E+01  0.43192369634E+02  0.46142317150E+02  0.99999944314E+01 0.  0.
         12    1    1    2    0    0 -0.11687559749E+02  0.51897683866E+01 -0.43192369634E+02  0.45045682850E+02  0.00000000000E+00 0. -1.
         11    1    3    3    0    0  0.11825364457E+02 -0.53078128920E+01  0.33261182631E+02  0.35697596453E+02  0.51100000000E-03 0. -1.
        -11    1    3    3    0    0  0.10720329153E+01 -0.90607792185E-01  0.84619432627E+01  0.85300614527E+01  0.51100000000E-03 0.  1.
         12    1    3    3    0    0 -0.12098376233E+01  0.20865229762E+00  0.14692437401E+01  0.19146592449E+01  0.00000000000E+00 0. -1.
</event>
<event>
 7    1  0.2323330E-008  0.4614232E+02  0.7816164E-02  0.1320468E+00
        -11   -1    0    0    0    0  0.00000000000E+00  0.00000000000E+00  0.45593999997E+02  0.45594000000E+02  0.51100000000E-03 0. -1.
         11   -1    0    0    0    0 -0.00000000000E+00 -0.00000000000E+00 -0.45593999997E+02  0.45594000000E+02  0.51100000000E-03 0.  1.
    9900012    2    1    2    0    0 -0.21943663773E+02 -0.25988366900E+02  0.29532929742E+02  0.46142317265E+02  0.99999954771E+01 0.  0.
         12    1    1    2    0    0  0.21943663773E+02  0.25988366900E+02 -0.29532929742E+02  0.45045682735E+02  0.00000000000E+00 0. -1.
         11    1    3    3    0    0 -0.75151923445E+01 -0.55036793274E+01  0.92799992332E+01  0.13148649670E+02  0.51100000000E-03 0. -1.
        -11    1    3    3    0    0 -0.12389764992E+02 -0.11799393809E+02  0.13845754755E+02  0.22009927211E+02  0.51100000000E-03 0.  1.
         12    1    3    3    0    0 -0.20387064361E+01 -0.86852937638E+01  0.64071757537E+01  0.10983740385E+02  0.00000000000E+00 0. -1.
</event>
<event>
 7    1  0.2323330E-008  0.4614232E+02  0.7816164E-02  0.1320468E+00
        -11   -1    0    0    0    0  0.00000000000E+00  0.00000000000E+00  0.45593999997E+02  0.45594000000E+02  0.51100000000E-03 0. -1.
         11   -1    0    0    0    0 -0.00000000000E+00 -0.00000000000E+00 -0.45593999997E+02  0.45594000000E+02  0.51100000000E-03 0.  1.
    9900012    2    1    2    0    0  0.28843305839E+02  0.20398837720E+02 -0.27947533697E+02  0.46142317501E+02  0.99999976298E+01 0.  0.
         12    1    1    2    0    0 -0.28843305839E+02 -0.20398837720E+02  0.27947533697E+02  0.45045682499E+02  0.00000000000E+00 0. -1.
         11    1    3    3    0    0  0.37112202767E+01  0.56091421821E+01 -0.44679047194E+01  0.80745157628E+01  0.51100000000E-03 0. -1.
        -11    1    3    3    0    0  0.13758916027E+02  0.11194786629E+02 -0.11363261444E+02  0.21065486674E+02  0.51100000000E-03 0.  1.
        -12    1    3    3    0    0  0.11373169536E+02  0.35949089089E+01 -0.12116367533E+02  0.17002315065E+02  0.00000000000E+00 0.  1.
</event>
<event>
 7    1  0.2323330E-008  0.4614232E+02  0.7816164E-02  0.1320468E+00
        -11   -1    0    0    0    0  0.00000000000E+00  0.00000000000E+00  0.45593999997E+02  0.45594000000E+02  0.51100000000E-03 0. -1.
         11   -1    0    0    0    0 -0.00000000000E+00 -0.00000000000E+00 -0.45593999997E+02  0.45594000000E+02  0.51100000000E-03 0.  1.
    9900012    2    1    2    0    0  0.24046641289E+02  0.32752412904E+02 -0.19446130179E+02  0.46142317774E+02  0.10000000114E+02 0.  0.
         12    1    1    2    0    0 -0.24046641289E+02 -0.32752412904E+02  0.19446130179E+02  0.45045682226E+02  0.00000000000E+00 0. -1.
         11    1    3    3    0    0  0.88297643253E+01  0.11834922326E+02 -0.94872192086E+01  0.17550995786E+02  0.51100000000E-03 0. -1.
        -11    1    3    3    0    0  0.12567193098E+02  0.11562326334E+02 -0.64462640750E+01  0.18253110787E+02  0.51100000000E-03 0.  1.
         12    1    3    3    0    0  0.26496838653E+01  0.93551642441E+01 -0.35126468952E+01  0.10338211201E+02  0.00000000000E+00 0. -1.
</event>
<event>
 7    1  0.2323330E-008  0.4614231E+02  0.7816164E-02  0.1320468E+00
        -11   -1    0    0    0    0  0.00000000000E+00  0.00000000000E+00  0.45593999997E+02  0.45594000000E+02  0.51100000000E-03 0.  1.
         11   -1    0    0    0    0 -0.00000000000E+00 -0.00000000000E+00 -0.45593999997E+02  0.45594000000E+02  0.51100000000E-03 0. -1.
    9900012    2    1    2    0    0 -0.20331871343E+02  0.21676275144E+02  0.33850670405E+02  0.46142314487E+02  0.99999701463E+01 0.  0.
         12    1    1    2    0    0  0.20331871343E+02 -0.21676275144E+02 -0.33850670405E+02  0.45045685513E+02  0.00000000000E+00 0. -1.
         11    1    3    3    0    0  0.44887954816E+00  0.22383830848E+01  0.55882473617E+01  0.60365851704E+01  0.51100000000E-03 0. -1.
        -11    1    3    3    0    0 -0.14180776470E+02  0.13380003902E+02  0.19347479254E+02  0.27467141814E+02  0.51100000000E-03 0.  1.
         12    1    3    3    0    0 -0.65999744212E+01  0.60578881579E+01  0.89149437897E+01  0.12638587503E+02  0.00000000000E+00 0. -1.
</event>
<event>
 7    1  0.2323330E-008  0.4614232E+02  0.7816164E-02  0.1320468E+00
        -11   -1    0    0    0    0  0.00000000000E+00  0.00000000000E+00  0.45593999997E+02  0.45594000000E+02  0.51100000000E-03 0.  1.
         11   -1    0    0    0    0 -0.00000000000E+00 -0.00000000000E+00 -0.45593999997E+02  0.45594000000E+02  0.51100000000E-03 0. -1.
    9900012    2    1    2    0    0  0.23003522324E+02  0.24442979973E+01  0.38651997091E+02  0.46142317508E+02  0.99999976953E+01 0.  0.
         12    1    1    2    0    0 -0.23003522324E+02 -0.24442979973E+01 -0.38651997091E+02  0.45045682492E+02  0.00000000000E+00 0. -1.
         11    1    3    3    0    0  0.28367701899E+01  0.11734884000E-01  0.10600399186E+02  0.10973416331E+02  0.51100000000E-03 0. -1.
        -11    1    3    3    0    0  0.19398294534E+02  0.35774752396E+01  0.26984279743E+02  0.33425192796E+02  0.51100000000E-03 0.  1.
         12    1    3    3    0    0  0.76845759975E+00 -0.11449121263E+01  0.10673181620E+01  0.17437083812E+01  0.00000000000E+00 0. -1.
</event>
<event>
 7    1  0.2323330E-008  0.4614232E+02  0.7816164E-02  0.1320468E+00
        -11   -1    0    0    0    0  0.00000000000E+00  0.00000000000E+00  0.45593999997E+02  0.45594000000E+02  0.51100000000E-03 0.  1.
         11   -1    0    0    0    0 -0.00000000000E+00 -0.00000000000E+00 -0.45593999997E+02  0.45594000000E+02  0.51100000000E-03 0. -1.
    9900012    2    1    2    0    0  0.31826258345E+02 -0.58141531487E+01 -0.31343235577E+02  0.46142317482E+02  0.99999974556E+01 0.  0.
         12    1    1    2    0    0 -0.31826258345E+02  0.58141531487E+01  0.31343235577E+02  0.45045682518E+02  0.00000000000E+00 0. -1.
         11    1    3    3    0    0  0.82305561975E+01 -0.47292231673E+01 -0.11174768518E+02  0.14662300597E+02  0.51100000000E-03 0. -1.
        -11    1    3    3    0    0  0.19864262932E+02 -0.23489239064E+01 -0.18335450312E+02  0.27134758590E+02  0.51100000000E-03 0.  1.
        -12    1    3    3    0    0  0.37314392150E+01  0.12639939250E+01 -0.18330167474E+01  0.43452582954E+01  0.00000000000E+00 0.  1.
</event>
<event>
 7    1  0.2323330E-008  0.4614232E+02  0.7816164E-02  0.1320468E+00
        -11   -1    0    0    0    0  0.00000000000E+00  0.00000000000E+00  0.45593999997E+02  0.45594000000E+02  0.51100000000E-03 0.  1.
         11   -1    0    0    0    0 -0.00000000000E+00 -0.00000000000E+00 -0.45593999997E+02  0.45594000000E+02  0.51100000000E-03 0. -1.
    9900012    2    1    2    0    0 -0.41055179612E+02 -0.74634786339E+01  0.16967095832E+02  0.46142316219E+02  0.99999859379E+01 0.  0.
         12    1    1    2    0    0  0.41055179612E+02  0.74634786339E+01 -0.16967095832E+02  0.45045683781E+02  0.00000000000E+00 0. -1.
         11    1    3    3    0    0 -0.30720083495E+02 -0.65272520729E+01  0.11058363204E+02  0.33295884830E+02  0.51100000000E-03 0. -1.
        -11    1    3    3    0    0 -0.45126583975E+01 -0.26327766661E+01  0.18207339201E+01  0.55326911223E+01  0.51100000000E-03 0.  1.
         12    1    3    3    0    0 -0.58224377195E+01  0.16965501050E+01  0.40879987078E+01  0.73137402668E+01  0.00000000000E+00 0. -1.
</event>
<event>
 7    1  0.2323330E-008  0.4614232E+02  0.7816164E-02  0.1320468E+00
        -11   -1    0    0    0    0  0.00000000000E+00  0.00000000000E+00  0.45593999997E+02  0.45594000000E+02  0.51100000000E-03 0.  1.
         11   -1    0    0    0    0 -0.00000000000E+00 -0.00000000000E+00 -0.45593999997E+02  0.45594000000E+02  0.51100000000E-03 0. -1.
    9900012    2    1    2    0    0  0.17627066421E+02  0.49681745706E+00  0.41450612362E+02  0.46142316928E+02  0.99999924064E+01 0.  0.
         12    1    1    2    0    0 -0.17627066421E+02 -0.49681745706E+00 -0.41450612362E+02  0.45045683072E+02  0.00000000000E+00 0. -1.
         11    1    3    3    0    0  0.57271373082E+01  0.25257621842E+01  0.15575270448E+02  0.16785965154E+02  0.51100000000E-03 0. -1.
        -11    1    3    3    0    0  0.27110425308E+01  0.99192556567E+00  0.12626443138E+02  0.12952248242E+02  0.51100000000E-03 0.  1.
         12    1    3    3    0    0  0.91888865817E+01 -0.30208702928E+01  0.13248898776E+02  0.16404103533E+02  0.00000000000E+00 0. -1.
</event>
<event>
 7    1  0.2323330E-008  0.4614232E+02  0.7816164E-02  0.1320468E+00
        -11   -1    0    0    0    0  0.00000000000E+00  0.00000000000E+00  0.45593999997E+02  0.45594000000E+02  0.51100000000E-03 0.  1.
         11   -1    0    0    0    0 -0.00000000000E+00 -0.00000000000E+00 -0.45593999997E+02  0.45594000000E+02  0.51100000000E-03 0. -1.
    9900012    2    1    2    0    0  0.26282613948E+02  0.61421868281E+01  0.36063988674E+02  0.46142317255E+02  0.99999953812E+01 0.  0.
         12    1    1    2    0    0 -0.26282613948E+02 -0.61421868281E+01 -0.36063988674E+02  0.45045682745E+02  0.00000000000E+00 0. -1.
         11    1    3    3    0    0  0.85226453842E+01  0.93072164163E+00  0.67050983959E+01  0.10883936415E+02  0.51100000000E-03 0. -1.
        -11    1    3    3    0    0  0.10294122886E+02  0.17524481401E+01  0.11147257945E+02  0.15274207031E+02  0.51100000000E-03 0.  1.
         12    1    3    3    0    0  0.74658456778E+01  0.34590170463E+01  0.18211632332E+02  0.19984173809E+02  0.00000000000E+00 0. -1.
</event>
<event>
 7    1  0.2323330E-008  0.4614232E+02  0.7816164E-02  0.1320468E+00
        -11   -1    0    0    0    0  0.00000000000E+00  0.00000000000E+00  0.45593999997E+02  0.45594000000E+02  0.51100000000E-03 0. -1.
         11   -1    0    0    0    0 -0.00000000000E+00 -0.00000000000E+00 -0.45593999997E+02  0.45594000000E+02  0.51100000000E-03 0.  1.
    9900012    2    1    2    0    0  0.30706502374E+02  0.15398217547E+01 -0.32921924436E+02  0.46142318213E+02  0.10000004122E+02 0.  0.
         12    1    1    2    0    0 -0.30706502374E+02 -0.15398217547E+01  0.32921924436E+02  0.45045681787E+02  0.00000000000E+00 0. -1.
         11    1    3    3    0    0  0.21516312811E+02 -0.16616599311E+01 -0.26999129712E+02  0.34563938378E+02  0.51100000000E-03 0. -1.
        -11    1    3    3    0    0  0.12859660874E+01 -0.22589340036E+00 -0.10854153541E+01  0.16978996902E+01  0.51100000000E-03 0.  1.
         12    1    3    3    0    0  0.79042234756E+01  0.34273750862E+01 -0.48373793700E+01  0.98804801454E+01  0.00000000000E+00 0. -1.
</event>
<event>
 7    1  0.2323330E-008  0.4614232E+02  0.7816164E-02  0.1320468E+00
        -11   -1    0    0    0    0  0.00000000000E+00  0.00000000000E+00  0.45593999997E+02  0.45594000000E+02  0.51100000000E-03 0.  1.
         11   -1    0    0    0    0 -0.00000000000E+00 -0.00000000000E+00 -0.45593999997E+02  0.45594000000E+02  0.51100000000E-03 0. -1.
    9900012    2    1    2    0    0 -0.31709134904E+02 -0.56066170032E+01  0.31499365424E+02  0.46142318601E+02  0.10000007659E+02 0.  0.
         12    1    1    2    0    0  0.31709134904E+02  0.56066170032E+01 -0.31499365424E+02  0.45045681399E+02  0.00000000000E+00 0. -1.
         11    1    3    3    0    0 -0.46176151186E+01 -0.13199917286E+01  0.78585131673E+01  0.92098304549E+01  0.51100000000E-03 0. -1.
        -11    1    3    3    0    0 -0.11561765449E+01 -0.84206237038E+00 -0.30835874162E+00  0.14631809913E+01  0.51100000000E-03 0.  1.
         12    1    3    3    0    0 -0.25935343241E+02 -0.34445629043E+01  0.23949210998E+02  0.35469307155E+02  0.00000000000E+00 0. -1.
</event>
<event>
 7    1  0.2323330E-008  0.4614232E+02  0.7816164E-02  0.1320468E+00
        -11   -1    0    0    0    0  0.00000000000E+00  0.00000000000E+00  0.45593999997E+02  0.45594000000E+02  0.51100000000E-03 0.  1.
         11   -1    0    0    0    0 -0.00000000000E+00 -0.00000000000E+00 -0.45593999997E+02  0.45594000000E+02  0.51100000000E-03 0. -1.
    9900012    2    1    2    0    0 -0.45798315596E+01  0.42009793789E+02  0.15598583999E+02  0.46142318142E+02  0.10000003471E+02 0.  0.
         12    1    1    2    0    0  0.45798315596E+01 -0.42009793789E+02 -0.15598583999E+02  0.45045681858E+02  0.00000000000E+00 0. -1.
         11    1    3    3    0    0 -0.45564869270E+01  0.33167379571E+02  0.10931895737E+02  0.35218503451E+02  0.51100000000E-03 0.  1.
        -11    1    3    3    0    0  0.14347599580E+01  0.45570175677E+01  0.55705145239E+00  0.48099118319E+01  0.51100000000E-03 0. -1.
         12    1    3    3    0    0 -0.14581045906E+01  0.42853966504E+01  0.41096368104E+01  0.61139028584E+01  0.00000000000E+00 0. -1.
</event>
<event>
 7    1  0.2323330E-008  0.4614232E+02  0.7816164E-02  0.1320468E+00
        -11   -1    0    0    0    0  0.00000000000E+00  0.00000000000E+00  0.45593999997E+02  0.45594000000E+02  0.51100000000E-03 0.  1.
         11   -1    0    0    0    0 -0.00000000000E+00 -0.00000000000E+00 -0.45593999997E+02  0.45594000000E+02  0.51100000000E-03 0. -1.
    9900012    2    1    2    0    0  0.17691640536E+02  0.41936990495E+01  0.41213252587E+02  0.46142318238E+02  0.10000004350E+02 0.  0.
         12    1    1    2    0    0 -0.17691640536E+02 -0.41936990495E+01 -0.41213252587E+02  0.45045681762E+02  0.00000000000E+00 0. -1.
         11    1    3    3    0    0  0.30474552413E+01  0.21345071221E+01  0.10841883465E+02  0.11462527707E+02  0.51100000000E-03 0. -1.
        -11    1    3    3    0    0  0.90237924893E+01  0.42582515385E+01  0.23521674787E+02  0.25550552286E+02  0.51100000000E-03 0.  1.
         12    1    3    3    0    0  0.56203928052E+01 -0.21990596111E+01  0.68496943349E+01  0.91292382452E+01  0.00000000000E+00 0. -1.
</event>
<event>
 7    1  0.2323330E-008  0.4614232E+02  0.7816164E-02  0.1320468E+00
        -11   -1    0    0    0    0  0.00000000000E+00  0.00000000000E+00  0.45593999997E+02  0.45594000000E+02  0.51100000000E-03 0.  1.
         11   -1    0    0    0    0 -0.00000000000E+00 -0.00000000000E+00 -0.45593999997E+02  0.45594000000E+02  0.51100000000E-03 0. -1.
    9900012    2    1    2    0    0 -0.14820726037E+01  0.34610231327E+02  0.28793207611E+02  0.46142318118E+02  0.10000003253E+02 0.  0.
         12    1    1    2    0    0  0.14820726037E+01 -0.34610231327E+02 -0.28793207611E+02  0.45045681882E+02  0.00000000000E+00 0. -1.
         11    1    3    3    0    0 -0.71021377488E-01  0.36125414755E+01  0.20932723095E+01  0.41757980281E+01  0.51100000000E-03 0. -1.
        -11    1    3    3    0    0 -0.38613694091E+01  0.22416624403E+02  0.14982214351E+02  0.27237510357E+02  0.51100000000E-03 0.  1.
         12    1    3    3    0    0  0.24503181829E+01  0.85810654486E+01  0.11717720951E+02  0.14729009733E+02  0.00000000000E+00 0. -1.
</event>
<event>
 7    1  0.2323330E-008  0.4614232E+02  0.7816164E-02  0.1320468E+00
        -11   -1    0    0    0    0  0.00000000000E+00  0.00000000000E+00  0.45593999997E+02  0.45594000000E+02  0.51100000000E-03 0.  1.
         11   -1    0    0    0    0 -0.00000000000E+00 -0.00000000000E+00 -0.45593999997E+02  0.45594000000E+02  0.51100000000E-03 0. -1.
    9900012    2    1    2    0    0 -0.25119515427E+02 -0.36195999495E+02  0.93793946277E+01  0.46142317873E+02  0.10000001021E+02 0.  0.
         12    1    1    2    0    0  0.25119515427E+02  0.36195999495E+02 -0.93793946277E+01  0.45045682127E+02  0.00000000000E+00 0. -1.
         11    1    3    3    0    0 -0.58483937286E+01 -0.11764301544E+02  0.21826364948E+01  0.13317897821E+02  0.51100000000E-03 0. -1.
        -11    1    3    3    0    0 -0.18172243692E+02 -0.18474476396E+02  0.65731768032E+01  0.26734684820E+02  0.51100000000E-03 0.  1.
         12    1    3    3    0    0 -0.10988780065E+01 -0.59572215544E+01  0.62358132975E+00  0.60897352321E+01  0.00000000000E+00 0. -1.
</event>
<event>
 7    1  0.2323330E-008  0.4614232E+02  0.7816164E-02  0.1320468E+00
        -11   -1    0    0    0    0  0.00000000000E+00  0.00000000000E+00  0.45593999997E+02  0.45594000000E+02  0.51100000000E-03 0. -1.
         11   -1    0    0    0    0 -0.00000000000E+00 -0.00000000000E+00 -0.45593999997E+02  0.45594000000E+02  0.51100000000E-03 0.  1.
    9900012    2    1    2    0    0 -0.29231089329E+02  0.41356140785E+01 -0.34022841247E+02  0.46142316371E+02  0.99999873195E+01 0.  0.
         12    1    1    2    0    0  0.29231089329E+02 -0.41356140785E+01  0.34022841247E+02  0.45045683629E+02  0.00000000000E+00 0. -1.
         11    1    3    3    0    0 -0.37835760703E+01  0.45697745675E+00 -0.22071331845E+01  0.44040564745E+01  0.51100000000E-03 0. -1.
        -11    1    3    3    0    0 -0.45247799362E+01  0.12383520322E+01 -0.17061258326E+01  0.49917947518E+01  0.51100000000E-03 0.  1.
        -12    1    3    3    0    0 -0.20922733322E+02  0.24402845896E+01 -0.30109582230E+02  0.36746465144E+02  0.00000000000E+00 0.  1.
</event>
<event>
 7    1  0.2323330E-008  0.4614232E+02  0.7816164E-02  0.1320468E+00
        -11   -1    0    0    0    0  0.00000000000E+00  0.00000000000E+00  0.45593999997E+02  0.45594000000E+02  0.51100000000E-03 0.  1.
         11   -1    0    0    0    0 -0.00000000000E+00 -0.00000000000E+00 -0.45593999997E+02  0.45594000000E+02  0.51100000000E-03 0. -1.
    9900012    2    1    2    0    0  0.17336520341E+02 -0.49637976201E+01  0.41278556956E+02  0.46142317757E+02  0.99999999660E+01 0.  0.
         12    1    1    2    0    0 -0.17336520341E+02  0.49637976201E+01 -0.41278556956E+02  0.45045682243E+02  0.00000000000E+00 0. -1.
         11    1    3    3    0    0  0.10093728836E+02 -0.15517556866E+01  0.20679318324E+02  0.23063510447E+02  0.51100000000E-03 0. -1.
        -11    1    3    3    0    0  0.45033010086E+01 -0.62286518437E+00  0.17525825823E+02  0.18105862367E+02  0.51100000000E-03 0.  1.
         12    1    3    3    0    0  0.27394904967E+01 -0.27891767491E+01  0.30734128087E+01  0.49729449436E+01  0.00000000000E+00 0. -1.
</event>
<event>
 7    1  0.2323330E-008  0.4614232E+02  0.7816164E-02  0.1320468E+00
        -11   -1    0    0    0    0  0.00000000000E+00  0.00000000000E+00  0.45593999997E+02  0.45594000000E+02  0.51100000000E-03 0.  1.
         11   -1    0    0    0    0 -0.00000000000E+00 -0.00000000000E+00 -0.45593999997E+02  0.45594000000E+02  0.51100000000E-03 0. -1.
    9900012    2    1    2    0    0 -0.34362191824E+01 -0.26981277343E+02  0.35907053697E+02  0.46142318359E+02  0.10000005451E+02 0.  0.
         12    1    1    2    0    0  0.34362191824E+01  0.26981277343E+02 -0.35907053697E+02  0.45045681641E+02  0.00000000000E+00 0. -1.
         11    1    3    3    0    0  0.19816805970E+01 -0.55988980072E+01  0.73640605797E+01  0.94606609370E+01  0.51100000000E-03 0. -1.
        -11    1    3    3    0    0 -0.47701458687E+01 -0.18613922825E+02  0.20254750755E+02  0.27919300546E+02  0.51100000000E-03 0.  1.
        -12    1    3    3    0    0 -0.64775391063E+00 -0.27684565115E+01  0.82882423615E+01  0.87623568763E+01  0.00000000000E+00 0.  1.
</event>
<event>
 7    1  0.2323330E-008  0.4614232E+02  0.7816164E-02  0.1320468E+00
        -11   -1    0    0    0    0  0.00000000000E+00  0.00000000000E+00  0.45593999997E+02  0.45594000000E+02  0.51100000000E-03 0. -1.
         11   -1    0    0    0    0 -0.00000000000E+00 -0.00000000000E+00 -0.45593999997E+02  0.45594000000E+02  0.51100000000E-03 0.  1.
    9900012    2    1    2    0    0 -0.37653957971E+02  0.87039408814E+01 -0.23141614006E+02  0.46142318336E+02  0.10000005243E+02 0.  0.
         12    1    1    2    0    0  0.37653957971E+02 -0.87039408814E+01  0.23141614006E+02  0.45045681664E+02  0.00000000000E+00 0. -1.
         11    1    3    3    0    0 -0.12786948506E+02  0.65371583558E+01 -0.10024898750E+02  0.17513968330E+02  0.51100000000E-03 0. -1.
        -11    1    3    3    0    0 -0.10205387102E+02  0.14858815554E+01 -0.81122133579E+01  0.13121195666E+02  0.51100000000E-03 0.  1.
        -12    1    3    3    0    0 -0.14661622363E+02  0.68090097021E+00 -0.50045018989E+01  0.15507154339E+02  0.00000000000E+00 0.  1.
</event>
<event>
 7    1  0.2323330E-008  0.4614232E+02  0.7816164E-02  0.1320468E+00
        -11   -1    0    0    0    0  0.00000000000E+00  0.00000000000E+00  0.45593999997E+02  0.45594000000E+02  0.51100000000E-03 0.  1.
         11   -1    0    0    0    0 -0.00000000000E+00 -0.00000000000E+00 -0.45593999997E+02  0.45594000000E+02  0.51100000000E-03 0. -1.
    9900012    2    1    2    0    0  0.37588360692E+02  0.25155964087E+01  0.24696162235E+02  0.46142317477E+02  0.99999974095E+01 0.  0.
         12    1    1    2    0    0 -0.37588360692E+02 -0.25155964087E+01 -0.24696162235E+02  0.45045682523E+02  0.00000000000E+00 0. -1.
         11    1    3    3    0    0  0.28976091299E+02  0.52990416140E+01  0.16683216047E+02  0.33852967476E+02  0.51100000000E-03 0. -1.
        -11    1    3    3    0    0  0.66802566908E+01 -0.15856098252E+01  0.49012890306E+01  0.84357941176E+01  0.51100000000E-03 0.  1.
         12    1    3    3    0    0  0.19320127022E+01 -0.11978353802E+01  0.31116571577E+01  0.38535558834E+01  0.00000000000E+00 0. -1.
</event>
<event>
 7    1  0.2323330E-008  0.4614232E+02  0.7816164E-02  0.1320468E+00
        -11   -1    0    0    0    0  0.00000000000E+00  0.00000000000E+00  0.45593999997E+02  0.45594000000E+02  0.51100000000E-03 0. -1.
         11   -1    0    0    0    0 -0.00000000000E+00 -0.00000000000E+00 -0.45593999997E+02  0.45594000000E+02  0.51100000000E-03 0.  1.
    9900012    2    1    2    0    0 -0.37113873105E+02  0.21565195544E+02 -0.13660750930E+02  0.46142319279E+02  0.10000013838E+02 0.  0.
         12    1    1    2    0    0  0.37113873105E+02 -0.21565195544E+02  0.13660750930E+02  0.45045680721E+02  0.00000000000E+00 0. -1.
         11    1    3    3    0    0 -0.15771721211E+02  0.40478358777E+01 -0.32365610882E+01  0.16601430457E+02  0.51100000000E-03 0. -1.
        -11    1    3    3    0    0 -0.36253318660E+01  0.24305477541E+01 -0.18678126689E+01  0.47475591572E+01  0.51100000000E-03 0.  1.
         12    1    3    3    0    0 -0.17716820027E+02  0.15086811912E+02 -0.85563771730E+01  0.24793329665E+02  0.00000000000E+00 0. -1.
</event>
<event>
 7    1  0.2323330E-008  0.4614232E+02  0.7816164E-02  0.1320468E+00
        -11   -1    0    0    0    0  0.00000000000E+00  0.00000000000E+00  0.45593999997E+02  0.45594000000E+02  0.51100000000E-03 0. -1.
         11   -1    0    0    0    0 -0.00000000000E+00 -0.00000000000E+00 -0.45593999997E+02  0.45594000000E+02  0.51100000000E-03 0.  1.
    9900012    2    1    2    0    0 -0.24511011644E+02  0.37230670196E+02  0.64962207571E+01  0.46142318973E+02  0.10000011050E+02 0.  0.
         12    1    1    2    0    0  0.24511011644E+02 -0.37230670196E+02 -0.64962207571E+01  0.45045681027E+02  0.00000000000E+00 0. -1.
         11    1    3    3    0    0 -0.17589858731E+02  0.23546252696E+02  0.29659902566E+01  0.29540247877E+02  0.51100000000E-03 0. -1.
        -11    1    3    3    0    0 -0.22260697631E+01  0.97138039944E+01  0.12488990293E+01  0.10043561305E+02  0.51100000000E-03 0.  1.
        -12    1    3    3    0    0 -0.46950831495E+01  0.39706135065E+01  0.22813314713E+01  0.65585097911E+01  0.00000000000E+00 0.  1.
</event>
<event>
 7    1  0.2323330E-008  0.4614232E+02  0.7816164E-02  0.1320468E+00
        -11   -1    0    0    0    0  0.00000000000E+00  0.00000000000E+00  0.45593999997E+02  0.45594000000E+02  0.51100000000E-03 0.  1.
         11   -1    0    0    0    0 -0.00000000000E+00 -0.00000000000E+00 -0.45593999997E+02  0.45594000000E+02  0.51100000000E-03 0. -1.
    9900012    2    1    2    0    0 -0.52053270887E+01  0.63572540991E+01  0.44289992348E+02  0.46142317277E+02  0.99999955881E+01 0.  0.
         12    1    1    2    0    0  0.52053270887E+01 -0.63572540991E+01 -0.44289992348E+02  0.45045682723E+02  0.00000000000E+00 0. -1.
         11    1    3    3    0    0 -0.27983543474E+01  0.23668789360E+00  0.26606798859E+01  0.38685948262E+01  0.51100000000E-03 0. -1.
        -11    1    3    3    0    0 -0.11159415477E+01  0.99960902348E-01  0.45051279919E+01  0.46423589051E+01  0.51100000000E-03 0.  1.
        -12    1    3    3    0    0 -0.12910311936E+01  0.60206053031E+01  0.37124184470E+02  0.37631363546E+02  0.00000000000E+00 0.  1.
</event>
<event>
 7    1  0.2323330E-008  0.4614232E+02  0.7816164E-02  0.1320468E+00
        -11   -1    0    0    0    0  0.00000000000E+00  0.00000000000E+00  0.45593999997E+02  0.45594000000E+02  0.51100000000E-03 0.  1.
         11   -1    0    0    0    0 -0.00000000000E+00 -0.00000000000E+00 -0.45593999997E+02  0.45594000000E+02  0.51100000000E-03 0. -1.
    9900012    2    1    2    0    0 -0.14847506285E+02  0.41680137309E+02  0.84517017586E+01  0.46142317059E+02  0.99999935988E+01 0.  0.
         12    1    1    2    0    0  0.14847506285E+02 -0.41680137309E+02 -0.84517017586E+01  0.45045682941E+02  0.00000000000E+00 0. -1.
         11    1    3    3    0    0 -0.66295051460E+01  0.95943337025E+01  0.29994571714E+01  0.12041524873E+02  0.51100000000E-03 0. -1.
        -11    1    3    3    0    0 -0.25047382964E+01  0.30346348743E+01 -0.27464544607E+00  0.39443824784E+01  0.51100000000E-03 0.  1.
        -12    1    3    3    0    0 -0.57132628424E+01  0.29051168732E+02  0.57268900333E+01  0.30156409708E+02  0.00000000000E+00 0.  1.
</event>
<event>
 7    1  0.2323330E-008  0.4614232E+02  0.7816164E-02  0.1320468E+00
        -11   -1    0    0    0    0  0.00000000000E+00  0.00000000000E+00  0.45593999997E+02  0.45594000000E+02  0.51100000000E-03 0.  1.
         11   -1    0    0    0    0 -0.00000000000E+00 -0.00000000000E+00 -0.45593999997E+02  0.45594000000E+02  0.51100000000E-03 0. -1.
    9900012    2    1    2    0    0 -0.90607716797E+01 -0.37298077730E+02  0.23576881598E+02  0.46142317280E+02  0.99999956167E+01 0.  0.
         12    1    1    2    0    0  0.90607716797E+01  0.37298077730E+02 -0.23576881598E+02  0.45045682720E+02  0.00000000000E+00 0. -1.
         11    1    3    3    0    0  0.71526694284E-01 -0.13895667363E+01  0.20011267016E+01  0.24373182229E+01  0.51100000000E-03 0.  1.
        -11    1    3    3    0    0 -0.19637290055E+01 -0.12309091203E+02  0.11831051098E+02  0.17185567439E+02  0.51100000000E-03 0. -1.
        -12    1    3    3    0    0 -0.71685693685E+01 -0.23599419791E+02  0.97447037975E+01  0.26519431618E+02  0.00000000000E+00 0.  1.
</event>
<event>
 7    1  0.2323330E-008  0.4614232E+02  0.7816164E-02  0.1320468E+00
        -11   -1    0    0    0    0  0.00000000000E+00  0.00000000000E+00  0.45593999997E+02  0.45594000000E+02  0.51100000000E-03 0. -1.
         11   -1    0    0    0    0 -0.00000000000E+00 -0.00000000000E+00 -0.45593999997E+02  0.45594000000E+02  0.51100000000E-03 0.  1.
    9900012    2    1    2    0    0  0.17502603646E+02  0.37539972004E+02  0.17706576225E+02  0.46142317920E+02  0.10000001446E+02 0.  0.
         12    1    1    2    0    0 -0.17502603646E+02 -0.37539972004E+02 -0.17706576225E+02  0.45045682080E+02  0.00000000000E+00 0. -1.
         11    1    3    3    0    0  0.11655029119E+02  0.27089779856E+02  0.12929303099E+02  0.32200353341E+02  0.51100000000E-03 0. -1.
        -11    1    3    3    0    0  0.34114302462E+01  0.89124556656E+01  0.16405428985E+01  0.96830317349E+01  0.51100000000E-03 0.  1.
         12    1    3    3    0    0  0.24361442810E+01  0.15377364827E+01  0.31367302270E+01  0.42589328435E+01  0.00000000000E+00 0. -1.
</event>
<event>
 7    1  0.2323330E-008  0.4614232E+02  0.7816164E-02  0.1320468E+00
        -11   -1    0    0    0    0  0.00000000000E+00  0.00000000000E+00  0.45593999997E+02  0.45594000000E+02  0.51100000000E-03 0.  1.
         11   -1    0    0    0    0 -0.00000000000E+00 -0.00000000000E+00 -0.45593999997E+02  0.45594000000E+02  0.51100000000E-03 0. -1.
    9900012    2    1    2    0    0 -0.43809440815E+02 -0.10164371469E+02 -0.25557644694E+01  0.46142317810E+02  0.10000000450E+02 0.  0.
         12    1    1    2    0    0  0.43809440815E+02  0.10164371469E+02  0.25557644694E+01  0.45045682190E+02  0.00000000000E+00 0. -1.
         11    1    3    3    0    0 -0.18241725895E+01 -0.20922583496E+00  0.89836262248E+00  0.20441224887E+01  0.51100000000E-03 0. -1.
        -11    1    3    3    0    0 -0.14775564561E+02  0.17949779471E+00  0.55399872049E+00  0.14787036295E+02  0.51100000000E-03 0.  1.
        -12    1    3    3    0    0 -0.27209703665E+02 -0.10134643428E+02 -0.40081258124E+01  0.29311159027E+02  0.00000000000E+00 0.  1.
</event>
<event>
 7    1  0.2323330E-008  0.4614232E+02  0.7816164E-02  0.1320468E+00
        -11   -1    0    0    0    0  0.00000000000E+00  0.00000000000E+00  0.45593999997E+02  0.45594000000E+02  0.51100000000E-03 0.  1.
         11   -1    0    0    0    0 -0.00000000000E+00 -0.00000000000E+00 -0.45593999997E+02  0.45594000000E+02  0.51100000000E-03 0. -1.
    9900012    2    1    2    0    0  0.10563896712E+02  0.21133441886E+02  0.38352251516E+02  0.46142317898E+02  0.10000001246E+02 0.  0.
         12    1    1    2    0    0 -0.10563896712E+02 -0.21133441886E+02 -0.38352251516E+02  0.45045682102E+02  0.00000000000E+00 0. -1.
         11    1    3    3    0    0  0.59101543829E+01  0.11732180274E+02  0.21029800128E+02  0.24795694637E+02  0.51100000000E-03 0. -1.
        -11    1    3    3    0    0  0.57482118609E+01  0.57269440127E+01  0.86261991121E+01  0.11842767358E+02  0.51100000000E-03 0.  1.
         12    1    3    3    0    0 -0.10944695319E+01  0.36743175992E+01  0.86962522758E+01  0.95038559027E+01  0.00000000000E+00 0. -1.
</event>
<event>
 7    1  0.2323330E-008  0.4614232E+02  0.7816164E-02  0.1320468E+00
        -11   -1    0    0    0    0  0.00000000000E+00  0.00000000000E+00  0.45593999997E+02  0.45594000000E+02  0.51100000000E-03 0. -1.
         11   -1    0    0    0    0 -0.00000000000E+00 -0.00000000000E+00 -0.45593999997E+02  0.45594000000E+02  0.51100000000E-03 0.  1.
    9900012    2    1    2    0    0 -0.30438761199E+02  0.28139596231E+02 -0.17628339931E+02  0.46142318430E+02  0.10000006098E+02 0.  0.
         12    1    1    2    0    0  0.30438761199E+02 -0.28139596231E+02  0.17628339931E+02  0.45045681570E+02  0.00000000000E+00 0. -1.
         11    1    3    3    0    0 -0.22347690390E+01  0.24201973873E+01 -0.36856561655E+01  0.49432387847E+01  0.51100000000E-03 0. -1.
        -11    1    3    3    0    0 -0.55288387775E+01  0.33525828522E+01 -0.48304268710E+01  0.80709908949E+01  0.51100000000E-03 0.  1.
        -12    1    3    3    0    0 -0.22675153383E+02  0.22366815992E+02 -0.91122568945E+01  0.33128088750E+02  0.00000000000E+00 0.  1.
</event>
<event>
 7    1  0.2323330E-008  0.4614232E+02  0.7816164E-02  0.1320468E+00
        -11   -1    0    0    0    0  0.00000000000E+00  0.00000000000E+00  0.45593999997E+02  0.45594000000E+02  0.51100000000E-03 0. -1.
         11   -1    0    0    0    0 -0.00000000000E+00 -0.00000000000E+00 -0.45593999997E+02  0.45594000000E+02  0.51100000000E-03 0.  1.
    9900012    2    1    2    0    0 -0.11600592724E+02 -0.30237209529E+02 -0.31308956666E+02  0.46142319195E+02  0.10000013077E+02 0.  0.
         12    1    1    2    0    0  0.11600592724E+02  0.30237209529E+02  0.31308956666E+02  0.45045680805E+02  0.00000000000E+00 0. -1.
         11    1    3    3    0    0 -0.37250164668E+01 -0.49250224809E+01 -0.21952048153E+01  0.65536645137E+01  0.51100000000E-03 0. -1.
        -11    1    3    3    0    0 -0.28714345771E+01 -0.83654571005E+01 -0.12664426951E+02  0.15447126570E+02  0.51100000000E-03 0.  1.
         12    1    3    3    0    0 -0.50041416799E+01 -0.16946729948E+02 -0.16449324900E+02  0.24141528111E+02  0.00000000000E+00 0. -1.
</event>
<event>
 7    1  0.2323330E-008  0.4614232E+02  0.7816164E-02  0.1320468E+00
        -11   -1    0    0    0    0  0.00000000000E+00  0.00000000000E+00  0.45593999997E+02  0.45594000000E+02  0.51100000000E-03 0. -1.
         11   -1    0    0    0    0 -0.00000000000E+00 -0.00000000000E+00 -0.45593999997E+02  0.45594000000E+02  0.51100000000E-03 0.  1.
    9900012    2    1    2    0    0 -0.26394363522E+02  0.33404723248E+02  0.14716504034E+02  0.46142318165E+02  0.10000003681E+02 0.  0.
         12    1    1    2    0    0  0.26394363522E+02 -0.33404723248E+02 -0.14716504034E+02  0.45045681835E+02  0.00000000000E+00 0. -1.
         11    1    3    3    0    0 -0.87308371659E+01  0.12196954977E+02  0.11958615228E+01  0.15047368985E+02  0.51100000000E-03 0. -1.
        -11    1    3    3    0    0 -0.29400478049E+00 -0.15939494558E-01 -0.26830835890E+00  0.39834973957E+00  0.51100000000E-03 0.  1.
        -12    1    3    3    0    0 -0.17369521576E+02  0.21223707765E+02  0.13788950870E+02  0.30696599440E+02  0.00000000000E+00 0.  1.
</event>
<event>
 7    1  0.2323330E-008  0.4614232E+02  0.7816164E-02  0.1320468E+00
        -11   -1    0    0    0    0  0.00000000000E+00  0.00000000000E+00  0.45593999997E+02  0.45594000000E+02  0.51100000000E-03 0.  1.
         11   -1    0    0    0    0 -0.00000000000E+00 -0.00000000000E+00 -0.45593999997E+02  0.45594000000E+02  0.51100000000E-03 0. -1.
    9900012    2    1    2    0    0  0.42283415532E+02  0.13582834997E+02  0.75321174934E+01  0.46142318414E+02  0.10000005951E+02 0.  0.
         12    1    1    2    0    0 -0.42283415532E+02 -0.13582834997E+02 -0.75321174934E+01  0.45045681586E+02  0.00000000000E+00 0. -1.
         11    1    3    3    0    0  0.11984160685E+02  0.56824536392E+01  0.46922699803E+01  0.14068680980E+02  0.51100000000E-03 0. -1.
        -11    1    3    3    0    0  0.28573181247E+02  0.79787593835E+01  0.11984942626E+01  0.29690464406E+02  0.51100000000E-03 0.  1.
        -12    1    3    3    0    0  0.17260736001E+01 -0.78378025214E-01  0.16413532505E+01  0.23831730279E+01  0.00000000000E+00 0.  1.
</event>
<event>
 7    1  0.2323330E-008  0.4614232E+02  0.7816164E-02  0.1320468E+00
        -11   -1    0    0    0    0  0.00000000000E+00  0.00000000000E+00  0.45593999997E+02  0.45594000000E+02  0.51100000000E-03 0.  1.
         11   -1    0    0    0    0 -0.00000000000E+00 -0.00000000000E+00 -0.45593999997E+02  0.45594000000E+02  0.51100000000E-03 0. -1.
    9900012    2    1    2    0    0 -0.39380274404E+02  0.21205461972E+02  0.53512400542E+01  0.46142318746E+02  0.10000008977E+02 0.  0.
         12    1    1    2    0    0  0.39380274404E+02 -0.21205461972E+02 -0.53512400542E+01  0.45045681254E+02  0.00000000000E+00 0. -1.
         11    1    3    3    0    0 -0.65962376582E+00  0.80134683252E+00  0.33000000397E+00  0.10891099679E+01  0.51100000000E-03 0. -1.
        -11    1    3    3    0    0 -0.29073285446E+02  0.17672888864E+02  0.43139579808E+00  0.34026063980E+02  0.51100000000E-03 0.  1.
        -12    1    3    3    0    0 -0.96473651922E+01  0.27312262759E+01  0.45898442522E+01  0.11027144797E+02  0.00000000000E+00 0.  1.
</event>
<event>
 7    1  0.2323330E-008  0.4614231E+02  0.7816164E-02  0.1320468E+00
        -11   -1    0    0    0    0  0.00000000000E+00  0.00000000000E+00  0.45593999997E+02  0.45594000000E+02  0.51100000000E-03 0.  1.
         11   -1    0    0    0    0 -0.00000000000E+00 -0.00000000000E+00 -0.45593999997E+02  0.45594000000E+02  0.51100000000E-03 0. -1.
    9900012    2    1    2    0    0  0.25048333232E+02 -0.11914750138E+02  0.35492725694E+02  0.46142313794E+02  0.99999638252E+01 0.  0.
         12    1    1    2    0    0 -0.25048333232E+02  0.11914750138E+02 -0.35492725694E+02  0.45045686206E+02  0.00000000000E+00 0. -1.
         11    1    3    3    0    0  0.55957214877E+01 -0.15744413698E+01  0.40471323438E+01  0.70830957260E+01  0.51100000000E-03 0. -1.
        -11    1    3    3    0    0  0.34400984655E+01 -0.49404928388E+01  0.58930463083E+01  0.84244134511E+01  0.51100000000E-03 0.  1.
        -12    1    3    3    0    0  0.16012513279E+02 -0.53998159299E+01  0.25552547042E+02  0.30634804617E+02  0.00000000000E+00 0.  1.
</event>
<event>
 7    1  0.2323330E-008  0.4614232E+02  0.7816164E-02  0.1320468E+00
        -11   -1    0    0    0    0  0.00000000000E+00  0.00000000000E+00  0.45593999997E+02  0.45594000000E+02  0.51100000000E-03 0.  1.
         11   -1    0    0    0    0 -0.00000000000E+00 -0.00000000000E+00 -0.45593999997E+02  0.45594000000E+02  0.51100000000E-03 0. -1.
    9900012    2    1    2    0    0 -0.40466787559E+02  0.44975845433E+01 -0.19269776023E+02  0.46142318408E+02  0.10000005902E+02 0.  0.
         12    1    1    2    0    0  0.40466787559E+02 -0.44975845433E+01  0.19269776023E+02  0.45045681592E+02  0.00000000000E+00 0. -1.
         11    1    3    3    0    0 -0.66779110683E+01  0.11862058440E+01 -0.44710200716E+01  0.81235214828E+01  0.51100000000E-03 0. -1.
        -11    1    3    3    0    0 -0.34235553803E+02  0.32291386289E+01 -0.15006606504E+02  0.37519311288E+02  0.51100000000E-03 0.  1.
        -12    1    3    3    0    0  0.44667731217E+00  0.82240070377E-01  0.20785055209E+00  0.49948563781E+00  0.00000000000E+00 0.  1.
</event>
<event>
 7    1  0.2323330E-008  0.4614232E+02  0.7816164E-02  0.1320468E+00
        -11   -1    0    0    0    0  0.00000000000E+00  0.00000000000E+00  0.45593999997E+02  0.45594000000E+02  0.51100000000E-03 0.  1.
         11   -1    0    0    0    0 -0.00000000000E+00 -0.00000000000E+00 -0.45593999997E+02  0.45594000000E+02  0.51100000000E-03 0. -1.
    9900012    2    1    2    0    0 -0.41900181905E+02 -0.74855228905E+01  0.14746356294E+02  0.46142319624E+02  0.10000016983E+02 0.  0.
         12    1    1    2    0    0  0.41900181905E+02  0.74855228905E+01 -0.14746356294E+02  0.45045680376E+02  0.00000000000E+00 0. -1.
         11    1    3    3    0    0 -0.46567017691E+01  0.19364140646E+01  0.17763956533E+00  0.50463974152E+01  0.51100000000E-03 0. -1.
        -11    1    3    3    0    0 -0.74816392790E+01 -0.15533049878E+01  0.27638817072E+01  0.81256830505E+01  0.51100000000E-03 0.  1.
         12    1    3    3    0    0 -0.29761840857E+02 -0.78686319673E+01  0.11804835022E+02  0.32970239158E+02  0.00000000000E+00 0. -1.
</event>
<event>
 7    1  0.2323330E-008  0.4614232E+02  0.7816164E-02  0.1320468E+00
        -11   -1    0    0    0    0  0.00000000000E+00  0.00000000000E+00  0.45593999997E+02  0.45594000000E+02  0.51100000000E-03 0.  1.
         11   -1    0    0    0    0 -0.00000000000E+00 -0.00000000000E+00 -0.45593999997E+02  0.45594000000E+02  0.51100000000E-03 0. -1.
    9900012    2    1    2    0    0 -0.19307809800E+02 -0.32016702246E+02  0.25124742488E+02  0.46142318442E+02  0.10000006207E+02 0.  0.
         12    1    1    2    0    0  0.19307809800E+02  0.32016702246E+02 -0.25124742488E+02  0.45045681558E+02  0.00000000000E+00 0. -1.
         11    1    3    3    0    0 -0.88146055358E+01 -0.18400835758E+02  0.14578235611E+02  0.25076143666E+02  0.51100000000E-03 0.  1.
        -11    1    3    3    0    0 -0.10269710431E+02 -0.12951113962E+02  0.11311248006E+02  0.20028545551E+02  0.51100000000E-03 0. -1.
        -12    1    3    3    0    0 -0.22349383261E+00 -0.66475252587E+00 -0.76474112893E+00  0.10376292248E+01  0.00000000000E+00 0.  1.
</event>
<event>
 7    1  0.2323330E-008  0.4614232E+02  0.7816164E-02  0.1320468E+00
        -11   -1    0    0    0    0  0.00000000000E+00  0.00000000000E+00  0.45593999997E+02  0.45594000000E+02  0.51100000000E-03 0.  1.
         11   -1    0    0    0    0 -0.00000000000E+00 -0.00000000000E+00 -0.45593999997E+02  0.45594000000E+02  0.51100000000E-03 0. -1.
    9900012    2    1    2    0    0 -0.23670073841E+02  0.36352964248E+02 -0.12136849658E+02  0.46142317356E+02  0.99999963044E+01 0.  0.
         12    1    1    2    0    0  0.23670073841E+02 -0.36352964248E+02  0.12136849658E+02  0.45045682644E+02  0.00000000000E+00 0. -1.
         11    1    3    3    0    0 -0.92107780404E+01  0.88949915375E+01 -0.26719505363E+01  0.13080467365E+02  0.51100000000E-03 0. -1.
        -11    1    3    3    0    0 -0.13165723388E+02  0.27078223258E+02 -0.98156494631E+01  0.31668808342E+02  0.51100000000E-03 0.  1.
        -12    1    3    3    0    0 -0.12935724129E+01  0.37974945268E+00  0.35075034150E+00  0.13930416491E+01  0.00000000000E+00 0.  1.
</event>
<event>
 7    1  0.2323330E-008  0.4614231E+02  0.7816164E-02  0.1320468E+00
        -11   -1    0    0    0    0  0.00000000000E+00  0.00000000000E+00  0.45593999997E+02  0.45594000000E+02  0.51100000000E-03 0. -1.
         11   -1    0    0    0    0 -0.00000000000E+00 -0.00000000000E+00 -0.45593999997E+02  0.45594000000E+02  0.51100000000E-03 0.  1.
    9900012    2    1    2    0    0 -0.25976038193E+02 -0.11780286055E+01 -0.36782761706E+02  0.46142313522E+02  0.99999613450E+01 0.  0.
         12    1    1    2    0    0  0.25976038193E+02  0.11780286055E+01  0.36782761706E+02  0.45045686478E+02  0.00000000000E+00 0. -1.
         11    1    3    3    0    0 -0.18787648160E+02 -0.15400536465E+01 -0.25181465318E+02  0.31455582723E+02  0.51100000000E-03 0.  1.
        -11    1    3    3    0    0 -0.51536171737E+01  0.20416406729E+01 -0.10405538537E+02  0.11789966036E+02  0.51100000000E-03 0. -1.
         12    1    3    3    0    0 -0.20347728589E+01 -0.16796156319E+01 -0.11957578503E+01  0.28967647635E+01  0.00000000000E+00 0. -1.
</event>
<event>
 7    1  0.2323330E-008  0.4614232E+02  0.7816164E-02  0.1320468E+00
        -11   -1    0    0    0    0  0.00000000000E+00  0.00000000000E+00  0.45593999997E+02  0.45594000000E+02  0.51100000000E-03 0.  1.
         11   -1    0    0    0    0 -0.00000000000E+00 -0.00000000000E+00 -0.45593999997E+02  0.45594000000E+02  0.51100000000E-03 0. -1.
    9900012    2    1    2    0    0 -0.25292054279E+02 -0.32829550887E+02  0.17653500620E+02  0.46142317573E+02  0.99999982862E+01 0.  0.
         12    1    1    2    0    0  0.25292054279E+02  0.32829550887E+02 -0.17653500620E+02  0.45045682427E+02  0.00000000000E+00 0. -1.
         11    1    3    3    0    0 -0.13682185922E+02 -0.14497745822E+02  0.12354912401E+02  0.23452733449E+02  0.51100000000E-03 0.  1.
        -11    1    3    3    0    0 -0.67662651638E+01 -0.11423240903E+02  0.51797446334E+01  0.14251404553E+02  0.51100000000E-03 0. -1.
        -12    1    3    3    0    0 -0.48436031941E+01 -0.69085641620E+01  0.11884358559E+00  0.84381795715E+01  0.00000000000E+00 0.  1.
</event>
<event>
 7    1  0.2323330E-008  0.4614232E+02  0.7816164E-02  0.1320468E+00
        -11   -1    0    0    0    0  0.00000000000E+00  0.00000000000E+00  0.45593999997E+02  0.45594000000E+02  0.51100000000E-03 0. -1.
         11   -1    0    0    0    0 -0.00000000000E+00 -0.00000000000E+00 -0.45593999997E+02  0.45594000000E+02  0.51100000000E-03 0.  1.
    9900012    2    1    2    0    0 -0.30213233892E+02 -0.33391972185E+02 -0.11181067588E+01  0.46142317950E+02  0.10000001725E+02 0.  0.
         12    1    1    2    0    0  0.30213233892E+02  0.33391972185E+02  0.11181067588E+01  0.45045682050E+02  0.00000000000E+00 0. -1.
         11    1    3    3    0    0 -0.52734794157E+01 -0.30339602878E+01 -0.18640900544E+01  0.63631228314E+01  0.51100000000E-03 0. -1.
        -11    1    3    3    0    0 -0.98854462321E+01 -0.77786201315E+01 -0.74058574450E+00  0.12600692277E+02  0.51100000000E-03 0.  1.
         12    1    3    3    0    0 -0.15054308244E+02 -0.22579391765E+02  0.14865690401E+01  0.27178502842E+02  0.00000000000E+00 0. -1.
</event>
<event>
 7    1  0.2323330E-008  0.4614232E+02  0.7816164E-02  0.1320468E+00
        -11   -1    0    0    0    0  0.00000000000E+00  0.00000000000E+00  0.45593999997E+02  0.45594000000E+02  0.51100000000E-03 0.  1.
         11   -1    0    0    0    0 -0.00000000000E+00 -0.00000000000E+00 -0.45593999997E+02  0.45594000000E+02  0.51100000000E-03 0. -1.
    9900012    2    1    2    0    0 -0.18988530755E+01 -0.16567973415E+02  0.41845071125E+02  0.46142319147E+02  0.10000012637E+02 0.  0.
         12    1    1    2    0    0  0.18988530755E+01  0.16567973415E+02 -0.41845071125E+02  0.45045680853E+02  0.00000000000E+00 0. -1.
         11    1    3    3    0    0 -0.24009226900E+01  0.10515494906E-01  0.48204678079E+01  0.53852994798E+01  0.51100000000E-03 0. -1.
        -11    1    3    3    0    0 -0.67129090324E+00 -0.56694782728E+00  0.31550590000E+01  0.32751273060E+01  0.51100000000E-03 0.  1.
        -12    1    3    3    0    0  0.11733605177E+01 -0.16011541083E+02  0.33869544317E+02  0.37481892361E+02  0.00000000000E+00 0.  1.
</event>
<event>
 7    1  0.2323330E-008  0.4614232E+02  0.7816164E-02  0.1320468E+00
        -11   -1    0    0    0    0  0.00000000000E+00  0.00000000000E+00  0.45593999997E+02  0.45594000000E+02  0.51100000000E-03 0.  1.
         11   -1    0    0    0    0 -0.00000000000E+00 -0.00000000000E+00 -0.45593999997E+02  0.45594000000E+02  0.51100000000E-03 0. -1.
    9900012    2    1    2    0    0 -0.94879871112E+00 -0.38368296322E+02  0.23581497787E+02  0.46142318526E+02  0.10000006970E+02 0.  0.
         12    1    1    2    0    0  0.94879871112E+00  0.38368296322E+02 -0.23581497787E+02  0.45045681474E+02  0.00000000000E+00 0. -1.
         11    1    3    3    0    0  0.43708303006E-02 -0.79454380259E+01  0.42298002101E+01  0.90011785121E+01  0.51100000000E-03 0. -1.
        -11    1    3    3    0    0  0.26144348552E+01 -0.22298800073E+02  0.16351050048E+02  0.27774603368E+02  0.51100000000E-03 0.  1.
         12    1    3    3    0    0 -0.35676043966E+01 -0.81240582231E+01  0.30006475283E+01  0.93665366455E+01  0.00000000000E+00 0. -1.
</event>
<event>
 7    1  0.2323330E-008  0.4614232E+02  0.7816164E-02  0.1320468E+00
        -11   -1    0    0    0    0  0.00000000000E+00  0.00000000000E+00  0.45593999997E+02  0.45594000000E+02  0.51100000000E-03 0.  1.
         11   -1    0    0    0    0 -0.00000000000E+00 -0.00000000000E+00 -0.45593999997E+02  0.45594000000E+02  0.51100000000E-03 0. -1.
    9900012    2    1    2    0    0 -0.26009284532E+02  0.28917777202E+02  0.22724276028E+02  0.46142318285E+02  0.10000004775E+02 0.  0.
         12    1    1    2    0    0  0.26009284532E+02 -0.28917777202E+02 -0.22724276028E+02  0.45045681715E+02  0.00000000000E+00 0. -1.
         11    1    3    3    0    0 -0.34657903456E+01  0.75519248899E+01  0.63136352620E+01  0.10435768431E+02  0.51100000000E-03 0. -1.
        -11    1    3    3    0    0 -0.80848894493E+01  0.11883186087E+02  0.64694788805E+01  0.15761653030E+02  0.51100000000E-03 0.  1.
        -12    1    3    3    0    0 -0.14458604737E+02  0.94826662253E+01  0.99411618860E+01  0.19944896824E+02  0.00000000000E+00 0.  1.
</event>
<event>
 7    1  0.2323330E-008  0.4614232E+02  0.7816164E-02  0.1320468E+00
        -11   -1    0    0    0    0  0.00000000000E+00  0.00000000000E+00  0.45593999997E+02  0.45594000000E+02  0.51100000000E-03 0.  1.
         11   -1    0    0    0    0 -0.00000000000E+00 -0.00000000000E+00 -0.45593999997E+02  0.45594000000E+02  0.51100000000E-03 0. -1.
    9900012    2    1    2    0    0 -0.37815653606E+02  0.15989687347E+02  0.18531587680E+02  0.46142317620E+02  0.99999987144E+01 0.  0.
         12    1    1    2    0    0  0.37815653606E+02 -0.15989687347E+02 -0.18531587680E+02  0.45045682380E+02  0.00000000000E+00 0. -1.
         11    1    3    3    0    0 -0.15409858147E+02  0.55312781146E+01  0.11571332514E+02  0.20048803009E+02  0.51100000000E-03 0. -1.
        -11    1    3    3    0    0 -0.11912733504E+02  0.80582197443E+01  0.38263055771E+01  0.14882497761E+02  0.51100000000E-03 0.  1.
         12    1    3    3    0    0 -0.10493061955E+02  0.24001894885E+01  0.31339495890E+01  0.11211016850E+02  0.00000000000E+00 0. -1.
</event>
<event>
 7    1  0.2323330E-008  0.4614232E+02  0.7816164E-02  0.1320468E+00
        -11   -1    0    0    0    0  0.00000000000E+00  0.00000000000E+00  0.45593999997E+02  0.45594000000E+02  0.51100000000E-03 0.  1.
         11   -1    0    0    0    0 -0.00000000000E+00 -0.00000000000E+00 -0.45593999997E+02  0.45594000000E+02  0.51100000000E-03 0. -1.
    9900012    2    1    2    0    0  0.92375778059E+01 -0.54467269525E+01  0.43750579475E+02  0.46142324485E+02  0.10000061315E+02 0.  0.
         12    1    1    2    0    0 -0.92375778059E+01  0.54467269525E+01 -0.43750579475E+02  0.45045675515E+02  0.00000000000E+00 0. -1.
         11    1    3    3    0    0  0.39641015031E+01  0.48680149895E+00  0.99823169880E+01  0.10751638440E+02  0.51100000000E-03 0. -1.
        -11    1    3    3    0    0  0.52007497532E+01 -0.43506714543E+01  0.32884675221E+02  0.33576450151E+02  0.51100000000E-03 0.  1.
        -12    1    3    3    0    0  0.72726549598E-01 -0.15828569971E+01  0.88358726589E+00  0.18142358945E+01  0.00000000000E+00 0.  1.
</event>
<event>
 7    1  0.2323330E-008  0.4614232E+02  0.7816164E-02  0.1320468E+00
        -11   -1    0    0    0    0  0.00000000000E+00  0.00000000000E+00  0.45593999997E+02  0.45594000000E+02  0.51100000000E-03 0. -1.
         11   -1    0    0    0    0 -0.00000000000E+00 -0.00000000000E+00 -0.45593999997E+02  0.45594000000E+02  0.51100000000E-03 0.  1.
    9900012    2    1    2    0    0 -0.26820743113E+02 -0.11841610421E+02 -0.34198501219E+02  0.46142317808E+02  0.10000000430E+02 0.  0.
         12    1    1    2    0    0  0.26820743113E+02  0.11841610421E+02  0.34198501219E+02  0.45045682192E+02  0.00000000000E+00 0. -1.
         11    1    3    3    0    0 -0.99315828539E+01 -0.54952995682E+01 -0.11915739385E+02  0.16456594443E+02  0.51100000000E-03 0. -1.
        -11    1    3    3    0    0 -0.16877117404E+02 -0.70029875460E+01 -0.19087636642E+02  0.26423792296E+02  0.51100000000E-03 0.  1.
        -12    1    3    3    0    0 -0.12042855441E-01  0.65667669306E+00 -0.31951251916E+01  0.32619310691E+01  0.00000000000E+00 0.  1.
</event>
<event>
 7    1  0.2323330E-008  0.4614232E+02  0.7816164E-02  0.1320468E+00
        -11   -1    0    0    0    0  0.00000000000E+00  0.00000000000E+00  0.45593999997E+02  0.45594000000E+02  0.51100000000E-03 0.  1.
         11   -1    0    0    0    0 -0.00000000000E+00 -0.00000000000E+00 -0.45593999997E+02  0.45594000000E+02  0.51100000000E-03 0. -1.
    9900012    2    1    2    0    0  0.24303714215E+02 -0.13053907029E+02  0.35609528108E+02  0.46142317572E+02  0.99999982724E+01 0.  0.
         12    1    1    2    0    0 -0.24303714215E+02  0.13053907029E+02 -0.35609528108E+02  0.45045682428E+02  0.00000000000E+00 0. -1.
         11    1    3    3    0    0  0.50046411021E+01 -0.14805697808E+01  0.93706553922E+01  0.10726029190E+02  0.51100000000E-03 0. -1.
        -11    1    3    3    0    0  0.68253582540E+01 -0.76934614899E+01  0.14980038188E+02  0.18170756984E+02  0.51100000000E-03 0.  1.
         12    1    3    3    0    0  0.12473714859E+02 -0.38798757586E+01  0.11258834528E+02  0.17245531398E+02  0.00000000000E+00 0. -1.
</event>
<event>
 7    1  0.2323330E-008  0.4614232E+02  0.7816164E-02  0.1320468E+00
        -11   -1    0    0    0    0  0.00000000000E+00  0.00000000000E+00  0.45593999997E+02  0.45594000000E+02  0.51100000000E-03 0.  1.
         11   -1    0    0    0    0 -0.00000000000E+00 -0.00000000000E+00 -0.45593999997E+02  0.45594000000E+02  0.51100000000E-03 0. -1.
    9900012    2    1    2    0    0  0.32977294617E+02  0.23312993320E+02  0.19952837891E+02  0.46142319212E+02  0.10000013227E+02 0.  0.
         12    1    1    2    0    0 -0.32977294617E+02 -0.23312993320E+02 -0.19952837891E+02  0.45045680788E+02  0.00000000000E+00 0. -1.
         11    1    3    3    0    0  0.88743196269E+01  0.46819778582E+01  0.46978101359E+01  0.11078983971E+02  0.51100000000E-03 0. -1.
        -11    1    3    3    0    0  0.24025029415E+02  0.18497854666E+02  0.16013027912E+02  0.34289790446E+02  0.51100000000E-03 0.  1.
        -12    1    3    3    0    0  0.77945574387E-01  0.13316079627E+00 -0.75800015723E+00  0.77354479417E+00  0.00000000000E+00 0.  1.
</event>
<event>
 7    1  0.2323330E-008  0.4614232E+02  0.7816164E-02  0.1320468E+00
        -11   -1    0    0    0    0  0.00000000000E+00  0.00000000000E+00  0.45593999997E+02  0.45594000000E+02  0.51100000000E-03 0.  1.
         11   -1    0    0    0    0 -0.00000000000E+00 -0.00000000000E+00 -0.45593999997E+02  0.45594000000E+02  0.51100000000E-03 0. -1.
    9900012    2    1    2    0    0  0.31989854967E+02  0.15679696832E+02  0.27566461057E+02  0.46142317757E+02  0.99999999611E+01 0.  0.
         12    1    1    2    0    0 -0.31989854967E+02 -0.15679696832E+02 -0.27566461057E+02  0.45045682243E+02  0.00000000000E+00 0. -1.
         11    1    3    3    0    0  0.70971506116E+01  0.41407524157E+01  0.83640161040E+01  0.11724851514E+02  0.51100000000E-03 0. -1.
        -11    1    3    3    0    0  0.89872753037E+01  0.59904353245E+01  0.34081277441E+01  0.11325712681E+02  0.51100000000E-03 0.  1.
         12    1    3    3    0    0  0.15905429052E+02  0.55485090920E+01  0.15794317209E+02  0.23091753562E+02  0.00000000000E+00 0. -1.
</event>
<event>
 7    1  0.2323330E-008  0.4614232E+02  0.7816164E-02  0.1320468E+00
        -11   -1    0    0    0    0  0.00000000000E+00  0.00000000000E+00  0.45593999997E+02  0.45594000000E+02  0.51100000000E-03 0. -1.
         11   -1    0    0    0    0 -0.00000000000E+00 -0.00000000000E+00 -0.45593999997E+02  0.45594000000E+02  0.51100000000E-03 0.  1.
    9900012    2    1    2    0    0 -0.31158286504E+00  0.28137618088E+02 -0.35175144548E+02  0.46142318414E+02  0.10000005955E+02 0.  0.
         12    1    1    2    0    0  0.31158286504E+00 -0.28137618088E+02  0.35175144548E+02  0.45045681586E+02  0.00000000000E+00 0. -1.
         11    1    3    3    0    0  0.17803550053E+01  0.47709012239E+01 -0.27546864327E+01  0.57895992984E+01  0.51100000000E-03 0. -1.
        -11    1    3    3    0    0 -0.29270144657E+01  0.22615901725E+02 -0.29991554463E+02  0.37676780169E+02  0.51100000000E-03 0.  1.
        -12    1    3    3    0    0  0.83507659544E+00  0.75081513859E+00 -0.24289036530E+01  0.26759389470E+01  0.00000000000E+00 0.  1.
</event>
<event>
 7    1  0.2323330E-008  0.4614232E+02  0.7816164E-02  0.1320468E+00
        -11   -1    0    0    0    0  0.00000000000E+00  0.00000000000E+00  0.45593999997E+02  0.45594000000E+02  0.51100000000E-03 0.  1.
         11   -1    0    0    0    0 -0.00000000000E+00 -0.00000000000E+00 -0.45593999997E+02  0.45594000000E+02  0.51100000000E-03 0. -1.
    9900012    2    1    2    0    0 -0.11204070077E+02  0.29924225518E+02  0.31750954430E+02  0.46142316895E+02  0.99999921045E+01 0.  0.
         12    1    1    2    0    0  0.11204070077E+02 -0.29924225518E+02 -0.31750954430E+02  0.45045683105E+02  0.00000000000E+00 0. -1.
         11    1    3    3    0    0 -0.10976448123E+01  0.56147401151E+01  0.27330297204E+01  0.63403140622E+01  0.51100000000E-03 0. -1.
        -11    1    3    3    0    0 -0.59668034931E+01  0.14961253642E+02  0.12552854955E+02  0.20420970159E+02  0.51100000000E-03 0.  1.
        -12    1    3    3    0    0 -0.41396217714E+01  0.93482317609E+01  0.16465069755E+02  0.19381032674E+02  0.00000000000E+00 0.  1.
</event>
<event>
 7    1  0.2323330E-008  0.4614232E+02  0.7816164E-02  0.1320468E+00
        -11   -1    0    0    0    0  0.00000000000E+00  0.00000000000E+00  0.45593999997E+02  0.45594000000E+02  0.51100000000E-03 0.  1.
         11   -1    0    0    0    0 -0.00000000000E+00 -0.00000000000E+00 -0.45593999997E+02  0.45594000000E+02  0.51100000000E-03 0. -1.
    9900012    2    1    2    0    0  0.55529816470E+01 -0.29314340726E+01  0.44605881169E+02  0.46142317125E+02  0.99999941953E+01 0.  0.
         12    1    1    2    0    0 -0.55529816470E+01  0.29314340726E+01 -0.44605881169E+02  0.45045682875E+02  0.00000000000E+00 0. -1.
         11    1    3    3    0    0 -0.13465457455E+01 -0.15064875028E+01  0.18214120886E+02  0.18325853048E+02  0.51100000000E-03 0.  1.
        -11    1    3    3    0    0  0.35585485873E+01 -0.21585000153E+01  0.21162111168E+02  0.21567506572E+02  0.51100000000E-03 0. -1.
         12    1    3    3    0    0  0.33409788052E+01  0.73355344551E+00  0.52296491149E+01  0.62489575050E+01  0.00000000000E+00 0. -1.
</event>
<event>
 7    1  0.2323330E-008  0.4614232E+02  0.7816164E-02  0.1320468E+00
        -11   -1    0    0    0    0  0.00000000000E+00  0.00000000000E+00  0.45593999997E+02  0.45594000000E+02  0.51100000000E-03 0. -1.
         11   -1    0    0    0    0 -0.00000000000E+00 -0.00000000000E+00 -0.45593999997E+02  0.45594000000E+02  0.51100000000E-03 0.  1.
    9900012    2    1    2    0    0 -0.17503501862E+02  0.40840555279E+02 -0.74020256314E+01  0.46142317450E+02  0.99999971650E+01 0.  0.
         12    1    1    2    0    0  0.17503501862E+02 -0.40840555279E+02  0.74020256314E+01  0.45045682550E+02  0.00000000000E+00 0. -1.
         11    1    3    3    0    0 -0.34306220999E+01  0.46979890341E+01 -0.36206613371E+01  0.68519674354E+01  0.51100000000E-03 0. -1.
        -11    1    3    3    0    0 -0.13012584575E+02  0.27880693499E+02 -0.26026077239E+01  0.30877726512E+02  0.51100000000E-03 0.  1.
        -12    1    3    3    0    0 -0.10602951872E+01  0.82618727460E+01 -0.11787565704E+01  0.84126235033E+01  0.00000000000E+00 0.  1.
</event>
<event>
 7    1  0.2323330E-008  0.4614232E+02  0.7816164E-02  0.1320468E+00
        -11   -1    0    0    0    0  0.00000000000E+00  0.00000000000E+00  0.45593999997E+02  0.45594000000E+02  0.51100000000E-03 0.  1.
         11   -1    0    0    0    0 -0.00000000000E+00 -0.00000000000E+00 -0.45593999997E+02  0.45594000000E+02  0.51100000000E-03 0. -1.
    9900012    2    1    2    0    0 -0.11378734345E+02  0.49877935364E+01  0.43298497116E+02  0.46142317275E+02  0.99999955650E+01 0.  0.
         12    1    1    2    0    0  0.11378734345E+02 -0.49877935364E+01 -0.43298497116E+02  0.45045682725E+02  0.00000000000E+00 0. -1.
         11    1    3    3    0    0 -0.58723113012E+01  0.17840868639E+01  0.23350287770E+02  0.24143383051E+02  0.51100000000E-03 0.  1.
        -11    1    3    3    0    0  0.67871967165E+00 -0.92624944235E+00  0.65521567900E+00  0.13220840629E+01  0.51100000000E-03 0. -1.
         12    1    3    3    0    0 -0.61851427154E+01  0.41299561148E+01  0.19292993667E+02  0.20676850161E+02  0.00000000000E+00 0. -1.
</event>
<event>
 7    1  0.2323330E-008  0.4614232E+02  0.7816164E-02  0.1320468E+00
        -11   -1    0    0    0    0  0.00000000000E+00  0.00000000000E+00  0.45593999997E+02  0.45594000000E+02  0.51100000000E-03 0.  1.
         11   -1    0    0    0    0 -0.00000000000E+00 -0.00000000000E+00 -0.45593999997E+02  0.45594000000E+02  0.51100000000E-03 0. -1.
    9900012    2    1    2    0    0  0.37984545271E+02  0.20576410565E+02 -0.12763195180E+02  0.46142317606E+02  0.99999985858E+01 0.  0.
         12    1    1    2    0    0 -0.37984545271E+02 -0.20576410565E+02  0.12763195180E+02  0.45045682394E+02  0.00000000000E+00 0. -1.
         11    1    3    3    0    0  0.10065209807E+01  0.53440080098E+00  0.27095964801E+00  0.11713616404E+01  0.51100000000E-03 0. -1.
        -11    1    3    3    0    0  0.19809973445E+02  0.70595996755E+01 -0.98135079696E+01  0.23207281926E+02  0.51100000000E-03 0.  1.
        -12    1    3    3    0    0  0.17168050845E+02  0.12982410088E+02 -0.32206468585E+01  0.21763674040E+02  0.00000000000E+00 0.  1.
</event>
<event>
 7    1  0.2323330E-008  0.4614232E+02  0.7816164E-02  0.1320468E+00
        -11   -1    0    0    0    0  0.00000000000E+00  0.00000000000E+00  0.45593999997E+02  0.45594000000E+02  0.51100000000E-03 0. -1.
         11   -1    0    0    0    0 -0.00000000000E+00 -0.00000000000E+00 -0.45593999997E+02  0.45594000000E+02  0.51100000000E-03 0.  1.
    9900012    2    1    2    0    0  0.26428098818E+02  0.52314300690E+01  0.36101263335E+02  0.46142317831E+02  0.10000000637E+02 0.  0.
         12    1    1    2    0    0 -0.26428098818E+02 -0.52314300690E+01 -0.36101263335E+02  0.45045682169E+02  0.00000000000E+00 0. -1.
         11    1    3    3    0    0  0.15308073349E+02  0.56018552887E+01  0.24164555798E+02  0.29148647473E+02  0.51100000000E-03 0. -1.
        -11    1    3    3    0    0  0.33695353116E+01  0.13009028999E+01  0.63124946527E+01  0.72728058941E+01  0.51100000000E-03 0.  1.
        -12    1    3    3    0    0  0.77504901571E+01 -0.16713281196E+01  0.56242128848E+01  0.97208644642E+01  0.00000000000E+00 0.  1.
</event>
<event>
 7    1  0.2323330E-008  0.4614232E+02  0.7816164E-02  0.1320468E+00
        -11   -1    0    0    0    0  0.00000000000E+00  0.00000000000E+00  0.45593999997E+02  0.45594000000E+02  0.51100000000E-03 0.  1.
         11   -1    0    0    0    0 -0.00000000000E+00 -0.00000000000E+00 -0.45593999997E+02  0.45594000000E+02  0.51100000000E-03 0. -1.
    9900012    2    1    2    0    0 -0.16957483420E+02 -0.17083922796E+02  0.38074884511E+02  0.46142317714E+02  0.99999995734E+01 0.  0.
         12    1    1    2    0    0  0.16957483420E+02  0.17083922796E+02 -0.38074884511E+02  0.45045682286E+02  0.00000000000E+00 0. -1.
         11    1    3    3    0    0 -0.81901590397E+01 -0.83039479955E+01  0.26369362235E+02  0.28833617920E+02  0.51100000000E-03 0.  1.
        -11    1    3    3    0    0 -0.11213122889E+01 -0.27203003360E+01  0.33974094321E+01  0.44944150095E+01  0.51100000000E-03 0. -1.
        -12    1    3    3    0    0 -0.76460120918E+01 -0.60596744641E+01  0.83081128440E+01  0.12814284785E+02  0.00000000000E+00 0.  1.
</event>
<event>
 7    1  0.2323330E-008  0.4614232E+02  0.7816164E-02  0.1320468E+00
        -11   -1    0    0    0    0  0.00000000000E+00  0.00000000000E+00  0.45593999997E+02  0.45594000000E+02  0.51100000000E-03 0. -1.
         11   -1    0    0    0    0 -0.00000000000E+00 -0.00000000000E+00 -0.45593999997E+02  0.45594000000E+02  0.51100000000E-03 0.  1.
    9900012    2    1    2    0    0  0.42031464269E+02 -0.13133218731E+02  0.94862087918E+01  0.46142316743E+02  0.99999907154E+01 0.  0.
         12    1    1    2    0    0 -0.42031464269E+02  0.13133218731E+02 -0.94862087918E+01  0.45045683257E+02  0.00000000000E+00 0. -1.
         11    1    3    3    0    0  0.29953776995E+00  0.36254155854E+00 -0.13539766136E+00  0.48937924467E+00  0.51100000000E-03 0. -1.
        -11    1    3    3    0    0  0.22060563269E+02 -0.34751817273E+01  0.25830410283E+01  0.22481491076E+02  0.51100000000E-03 0.  1.
        -12    1    3    3    0    0  0.19671363230E+02 -0.10020578562E+02  0.70385654249E+01  0.23171446422E+02  0.00000000000E+00 0.  1.
</event>
<event>
 7    1  0.2323330E-008  0.4614232E+02  0.7816164E-02  0.1320468E+00
        -11   -1    0    0    0    0  0.00000000000E+00  0.00000000000E+00  0.45593999997E+02  0.45594000000E+02  0.51100000000E-03 0.  1.
         11   -1    0    0    0    0 -0.00000000000E+00 -0.00000000000E+00 -0.45593999997E+02  0.45594000000E+02  0.51100000000E-03 0. -1.
    9900012    2    1    2    0    0  0.34823573715E+02 -0.13787510088E+02  0.25026720352E+02  0.46142318162E+02  0.10000003652E+02 0.  0.
         12    1    1    2    0    0 -0.34823573715E+02  0.13787510088E+02 -0.25026720352E+02  0.45045681838E+02  0.00000000000E+00 0. -1.
         11    1    3    3    0    0  0.23888169587E+02 -0.12689247002E+02  0.15443375933E+02  0.31147383456E+02  0.51100000000E-03 0. -1.
        -11    1    3    3    0    0  0.83059447577E+01 -0.11182352589E+01  0.51391128068E+01  0.98310553408E+01  0.51100000000E-03 0.  1.
         12    1    3    3    0    0  0.26294593699E+01  0.19972173254E-01  0.44442316124E+01  0.51638793644E+01  0.00000000000E+00 0. -1.
</event>
<event>
 7    1  0.2323330E-008  0.4614232E+02  0.7816164E-02  0.1320468E+00
        -11   -1    0    0    0    0  0.00000000000E+00  0.00000000000E+00  0.45593999997E+02  0.45594000000E+02  0.51100000000E-03 0.  1.
         11   -1    0    0    0    0 -0.00000000000E+00 -0.00000000000E+00 -0.45593999997E+02  0.45594000000E+02  0.51100000000E-03 0. -1.
    9900012    2    1    2    0    0 -0.35233272446E+02  0.12538453906E+02  0.25110099793E+02  0.46142318462E+02  0.10000006393E+02 0.  0.
         12    1    1    2    0    0  0.35233272446E+02 -0.12538453906E+02 -0.25110099793E+02  0.45045681538E+02  0.00000000000E+00 0. -1.
         11    1    3    3    0    0 -0.79277650893E+01  0.44721230640E+01  0.23488037493E+01  0.94003310220E+01  0.51100000000E-03 0. -1.
        -11    1    3    3    0    0 -0.52234246879E+01  0.17681293676E+01  0.22622531306E+01  0.59605567205E+01  0.51100000000E-03 0.  1.
        -12    1    3    3    0    0 -0.22082082669E+02  0.62982014742E+01  0.20499042913E+02  0.30781430720E+02  0.00000000000E+00 0.  1.
</event>
<event>
 7    1  0.2323330E-008  0.4614232E+02  0.7816164E-02  0.1320468E+00
        -11   -1    0    0    0    0  0.00000000000E+00  0.00000000000E+00  0.45593999997E+02  0.45594000000E+02  0.51100000000E-03 0.  1.
         11   -1    0    0    0    0 -0.00000000000E+00 -0.00000000000E+00 -0.45593999997E+02  0.45594000000E+02  0.51100000000E-03 0. -1.
    9900012    2    1    2    0    0  0.38056690517E+01 -0.16974456014E+02  0.41551151879E+02  0.46142317673E+02  0.99999991923E+01 0.  0.
         12    1    1    2    0    0 -0.38056690517E+01  0.16974456014E+02 -0.41551151879E+02  0.45045682327E+02  0.00000000000E+00 0. -1.
         11    1    3    3    0    0  0.57050834766E+00 -0.86460016503E+00  0.12797005923E+01  0.16464042903E+01  0.51100000000E-03 0. -1.
        -11    1    3    3    0    0  0.58884141079E+01 -0.10993334297E+02  0.32575005834E+02  0.34880622486E+02  0.51100000000E-03 0.  1.
        -12    1    3    3    0    0 -0.26532534038E+01 -0.51165215519E+01  0.76964454525E+01  0.96152908962E+01  0.00000000000E+00 0.  1.
</event>
<event>
 7    1  0.2323330E-008  0.4614232E+02  0.7816164E-02  0.1320468E+00
        -11   -1    0    0    0    0  0.00000000000E+00  0.00000000000E+00  0.45593999997E+02  0.45594000000E+02  0.51100000000E-03 0.  1.
         11   -1    0    0    0    0 -0.00000000000E+00 -0.00000000000E+00 -0.45593999997E+02  0.45594000000E+02  0.51100000000E-03 0. -1.
    9900012    2    1    2    0    0  0.37561389226E+02 -0.44033298848E+01  0.24471740596E+02  0.46142319159E+02  0.10000012746E+02 0.  0.
         12    1    1    2    0    0 -0.37561389226E+02  0.44033298848E+01 -0.24471740596E+02  0.45045680841E+02  0.00000000000E+00 0. -1.
         11    1    3    3    0    0  0.24889109876E+01 -0.49490826670E+00  0.23257010477E+00  0.25482741633E+01  0.51100000000E-03 0. -1.
        -11    1    3    3    0    0  0.32518511621E+02 -0.50574442099E+01  0.19989874163E+02  0.38504888122E+02  0.51100000000E-03 0.  1.
        -12    1    3    3    0    0  0.25539666173E+01  0.11490225919E+01  0.42492963282E+01  0.50891568736E+01  0.00000000000E+00 0.  1.
</event>
<event>
 7    1  0.2323330E-008  0.4614232E+02  0.7816164E-02  0.1320468E+00
        -11   -1    0    0    0    0  0.00000000000E+00  0.00000000000E+00  0.45593999997E+02  0.45594000000E+02  0.51100000000E-03 0.  1.
         11   -1    0    0    0    0 -0.00000000000E+00 -0.00000000000E+00 -0.45593999997E+02  0.45594000000E+02  0.51100000000E-03 0. -1.
    9900012    2    1    2    0    0 -0.18641329690E+02 -0.40998883864E+02 -0.84013181680E+00  0.46142317940E+02  0.10000001633E+02 0.  0.
         12    1    1    2    0    0  0.18641329690E+02  0.40998883864E+02  0.84013181680E+00  0.45045682060E+02  0.00000000000E+00 0. -1.
         11    1    3    3    0    0  0.72804729906E+00 -0.32115445578E+01 -0.97738794260E+00  0.34350194713E+01  0.51100000000E-03 0. -1.
        -11    1    3    3    0    0 -0.14511108366E+02 -0.31190239072E+02 -0.11177295296E+01  0.34418782647E+02  0.51100000000E-03 0.  1.
        -12    1    3    3    0    0 -0.48582686240E+01 -0.65971002348E+01  0.12549856554E+01  0.82885158217E+01  0.00000000000E+00 0.  1.
</event>
<event>
 7    1  0.2323330E-008  0.4614232E+02  0.7816164E-02  0.1320468E+00
        -11   -1    0    0    0    0  0.00000000000E+00  0.00000000000E+00  0.45593999997E+02  0.45594000000E+02  0.51100000000E-03 0.  1.
         11   -1    0    0    0    0 -0.00000000000E+00 -0.00000000000E+00 -0.45593999997E+02  0.45594000000E+02  0.51100000000E-03 0. -1.
    9900012    2    1    2    0    0  0.23432554043E+02  0.25133271636E+02  0.29126406685E+02  0.46142317649E+02  0.99999989771E+01 0.  0.
         12    1    1    2    0    0 -0.23432554043E+02 -0.25133271636E+02 -0.29126406685E+02  0.45045682351E+02  0.00000000000E+00 0. -1.
         11    1    3    3    0    0  0.33903513572E+01  0.60890595253E+01  0.67959528853E+01  0.97342747088E+01  0.51100000000E-03 0. -1.
        -11    1    3    3    0    0  0.74564221605E+01  0.12428230283E+02  0.10269324065E+02  0.17762830754E+02  0.51100000000E-03 0.  1.
         12    1    3    3    0    0  0.12585780525E+02  0.66159818281E+01  0.12061129735E+02  0.18645212186E+02  0.00000000000E+00 0. -1.
</event>
<event>
 7    1  0.2323330E-008  0.4614232E+02  0.7816164E-02  0.1320468E+00
        -11   -1    0    0    0    0  0.00000000000E+00  0.00000000000E+00  0.45593999997E+02  0.45594000000E+02  0.51100000000E-03 0.  1.
         11   -1    0    0    0    0 -0.00000000000E+00 -0.00000000000E+00 -0.45593999997E+02  0.45594000000E+02  0.51100000000E-03 0. -1.
    9900012    2    1    2    0    0 -0.26445760041E+02 -0.29558430298E+01  0.36345540442E+02  0.46142317164E+02  0.99999945512E+01 0.  0.
         12    1    1    2    0    0  0.26445760041E+02  0.29558430298E+01 -0.36345540442E+02  0.45045682836E+02  0.00000000000E+00 0. -1.
         11    1    3    3    0    0 -0.59233279527E+01 -0.54306934178E+00  0.47192240776E+01  0.75928791970E+01  0.51100000000E-03 0. -1.
        -11    1    3    3    0    0 -0.10268862660E+02 -0.41762816956E+00  0.91334159552E+01  0.13749299651E+02  0.51100000000E-03 0.  1.
         12    1    3    3    0    0 -0.10253569429E+02 -0.19951455184E+01  0.22492900409E+02  0.24800138316E+02  0.00000000000E+00 0. -1.
</event>
<event>
 7    1  0.2323330E-008  0.4614232E+02  0.7816164E-02  0.1320468E+00
        -11   -1    0    0    0    0  0.00000000000E+00  0.00000000000E+00  0.45593999997E+02  0.45594000000E+02  0.51100000000E-03 0.  1.
         11   -1    0    0    0    0 -0.00000000000E+00 -0.00000000000E+00 -0.45593999997E+02  0.45594000000E+02  0.51100000000E-03 0. -1.
    9900012    2    1    2    0    0  0.29724796846E+02  0.12700131896E+02  0.31372858675E+02  0.46142321416E+02  0.10000033326E+02 0.  0.
         12    1    1    2    0    0 -0.29724796846E+02 -0.12700131896E+02 -0.31372858675E+02  0.45045678584E+02  0.00000000000E+00 0. -1.
         11    1    3    3    0    0  0.31866088053E+01  0.25949332364E+01  0.73474505993E+01  0.84186213093E+01  0.51100000000E-03 0. -1.
        -11    1    3    3    0    0  0.38895541615E+01  0.41020243529E+01  0.46810752607E+01  0.73394619166E+01  0.51100000000E-03 0.  1.
        -12    1    3    3    0    0  0.22648633879E+02  0.60031743064E+01  0.19344332814E+02  0.30384238190E+02  0.00000000000E+00 0.  1.
</event>
<event>
 7    1  0.2323330E-008  0.4614231E+02  0.7816164E-02  0.1320468E+00
        -11   -1    0    0    0    0  0.00000000000E+00  0.00000000000E+00  0.45593999997E+02  0.45594000000E+02  0.51100000000E-03 0.  1.
         11   -1    0    0    0    0 -0.00000000000E+00 -0.00000000000E+00 -0.45593999997E+02  0.45594000000E+02  0.51100000000E-03 0. -1.
    9900012    2    1    2    0    0  0.36418339848E+02  0.11578393892E+02  0.23848670499E+02  0.46142314669E+02  0.99999718013E+01 0.  0.
         12    1    1    2    0    0 -0.36418339848E+02 -0.11578393892E+02 -0.23848670499E+02  0.45045685331E+02  0.00000000000E+00 0. -1.
         11    1    3    3    0    0  0.77738796288E+01  0.40329178946E+01  0.83639156511E+01  0.12110025455E+02  0.51100000000E-03 0. -1.
        -11    1    3    3    0    0  0.23212791920E+02  0.81315211825E+01  0.14269958359E+02  0.28435665234E+02  0.51100000000E-03 0.  1.
         12    1    3    3    0    0  0.54316682987E+01 -0.58604518494E+00  0.12147964888E+01  0.55966239801E+01  0.00000000000E+00 0. -1.
</event>
<event>
 7    1  0.2323330E-008  0.4614232E+02  0.7816164E-02  0.1320468E+00
        -11   -1    0    0    0    0  0.00000000000E+00  0.00000000000E+00  0.45593999997E+02  0.45594000000E+02  0.51100000000E-03 0.  1.
         11   -1    0    0    0    0 -0.00000000000E+00 -0.00000000000E+00 -0.45593999997E+02  0.45594000000E+02  0.51100000000E-03 0. -1.
    9900012    2    1    2    0    0 -0.14094658089E+02  0.35304827843E+02  0.24166573242E+02  0.46142317433E+02  0.99999970036E+01 0.  0.
         12    1    1    2    0    0  0.14094658089E+02 -0.35304827843E+02 -0.24166573242E+02  0.45045682567E+02  0.00000000000E+00 0. -1.
         11    1    3    3    0    0 -0.48385963365E+01  0.76673281736E+01  0.42350562106E+01  0.10006779562E+02  0.51100000000E-03 0. -1.
        -11    1    3    3    0    0 -0.79951563158E+01  0.16804005690E+02  0.89184472057E+01  0.20635790088E+02  0.51100000000E-03 0.  1.
        -12    1    3    3    0    0 -0.12609054366E+01  0.10833493980E+02  0.11013069826E+02  0.15499747783E+02  0.00000000000E+00 0.  1.
</event>
<event>
 7    1  0.2323330E-008  0.4614232E+02  0.7816164E-02  0.1320468E+00
        -11   -1    0    0    0    0  0.00000000000E+00  0.00000000000E+00  0.45593999997E+02  0.45594000000E+02  0.51100000000E-03 0. -1.
         11   -1    0    0    0    0 -0.00000000000E+00 -0.00000000000E+00 -0.45593999997E+02  0.45594000000E+02  0.51100000000E-03 0.  1.
    9900012    2    1    2    0    0  0.13635382173E+02  0.18941507222E+02 -0.38528028431E+02  0.46142319656E+02  0.10000017279E+02 0.  0.
         12    1    1    2    0    0 -0.13635382173E+02 -0.18941507222E+02  0.38528028431E+02  0.45045680344E+02  0.00000000000E+00 0. -1.
         11    1    3    3    0    0  0.17572457124E+01  0.11988064016E+01 -0.10085423497E+01  0.23541892903E+01  0.51100000000E-03 0. -1.
        -11    1    3    3    0    0  0.12144534988E+02  0.14290860921E+02 -0.28399072695E+02  0.34032716114E+02  0.51100000000E-03 0.  1.
         12    1    3    3    0    0 -0.26639852739E+00  0.34518398991E+01 -0.91204133873E+01  0.97554142515E+01  0.00000000000E+00 0. -1.
</event>
<event>
 7    1  0.2323330E-008  0.4614232E+02  0.7816164E-02  0.1320468E+00
        -11   -1    0    0    0    0  0.00000000000E+00  0.00000000000E+00  0.45593999997E+02  0.45594000000E+02  0.51100000000E-03 0.  1.
         11   -1    0    0    0    0 -0.00000000000E+00 -0.00000000000E+00 -0.45593999997E+02  0.45594000000E+02  0.51100000000E-03 0. -1.
    9900012    2    1    2    0    0 -0.38028873487E+02 -0.19383369516E+02  0.14394559524E+02  0.46142316784E+02  0.99999910931E+01 0.  0.
         12    1    1    2    0    0  0.38028873487E+02  0.19383369516E+02 -0.14394559524E+02  0.45045683216E+02  0.00000000000E+00 0. -1.
         11    1    3    3    0    0 -0.11762367664E+02 -0.81340638637E+01  0.15233918331E+01  0.14381829193E+02  0.51100000000E-03 0. -1.
        -11    1    3    3    0    0 -0.12723529046E+02 -0.77066861303E+01  0.49578402121E+01  0.15679967549E+02  0.51100000000E-03 0.  1.
         12    1    3    3    0    0 -0.13542976777E+02 -0.35426195221E+01  0.79133274785E+01  0.16080520042E+02  0.00000000000E+00 0. -1.
</event>
<event>
 7    1  0.2323330E-008  0.4614232E+02  0.7816164E-02  0.1320468E+00
        -11   -1    0    0    0    0  0.00000000000E+00  0.00000000000E+00  0.45593999997E+02  0.45594000000E+02  0.51100000000E-03 0. -1.
         11   -1    0    0    0    0 -0.00000000000E+00 -0.00000000000E+00 -0.45593999997E+02  0.45594000000E+02  0.51100000000E-03 0.  1.
    9900012    2    1    2    0    0  0.39108735186E+02 -0.10214258169E+02 -0.19881880925E+02  0.46142318443E+02  0.10000006219E+02 0.  0.
         12    1    1    2    0    0 -0.39108735186E+02  0.10214258169E+02  0.19881880925E+02  0.45045681557E+02  0.00000000000E+00 0. -1.
         11    1    3    3    0    0  0.10256545453E+01  0.11807825494E+01 -0.13261802268E+01  0.20506020897E+01  0.51100000000E-03 0. -1.
        -11    1    3    3    0    0  0.11406912235E+02 -0.35121977809E+01 -0.33795880446E+01  0.12404627991E+02  0.51100000000E-03 0.  1.
         12    1    3    3    0    0  0.26676168406E+02 -0.78828429371E+01 -0.15176112654E+02  0.31687088362E+02  0.00000000000E+00 0. -1.
</event>
<event>
 7    1  0.2323330E-008  0.4614232E+02  0.7816164E-02  0.1320468E+00
        -11   -1    0    0    0    0  0.00000000000E+00  0.00000000000E+00  0.45593999997E+02  0.45594000000E+02  0.51100000000E-03 0.  1.
         11   -1    0    0    0    0 -0.00000000000E+00 -0.00000000000E+00 -0.45593999997E+02  0.45594000000E+02  0.51100000000E-03 0. -1.
    9900012    2    1    2    0    0 -0.38307454693E+01 -0.35508956667E+02  0.27450913079E+02  0.46142320481E+02  0.10000024806E+02 0.  0.
         12    1    1    2    0    0  0.38307454693E+01  0.35508956667E+02 -0.27450913079E+02  0.45045679519E+02  0.00000000000E+00 0. -1.
         11    1    3    3    0    0 -0.32445494632E+01 -0.18185389406E+02  0.11656782759E+02  0.21842986829E+02  0.51100000000E-03 0.  1.
        -11    1    3    3    0    0 -0.17288007291E+01 -0.10761853350E+01  0.89204189892E+00  0.22232107068E+01  0.51100000000E-03 0. -1.
        -12    1    3    3    0    0  0.11426047231E+01 -0.16247381926E+02  0.14902088422E+02  0.22076122946E+02  0.00000000000E+00 0.  1.
</event>
<event>
 7    1  0.2323330E-008  0.4614232E+02  0.7816164E-02  0.1320468E+00
        -11   -1    0    0    0    0  0.00000000000E+00  0.00000000000E+00  0.45593999997E+02  0.45594000000E+02  0.51100000000E-03 0.  1.
         11   -1    0    0    0    0 -0.00000000000E+00 -0.00000000000E+00 -0.45593999997E+02  0.45594000000E+02  0.51100000000E-03 0. -1.
    9900012    2    1    2    0    0 -0.36951470688E+02  0.17529189929E+02  0.18879348897E+02  0.46142317628E+02  0.99999987895E+01 0.  0.
         12    1    1    2    0    0  0.36951470688E+02 -0.17529189929E+02 -0.18879348897E+02  0.45045682372E+02  0.00000000000E+00 0. -1.
         11    1    3    3    0    0 -0.65571727755E+01  0.57571299306E+01  0.61155797622E+01  0.10655579568E+02  0.51100000000E-03 0. -1.
        -11    1    3    3    0    0 -0.23440541371E+01 -0.61246994368E+00  0.57251801415E+00  0.24894751188E+01  0.51100000000E-03 0.  1.
        -12    1    3    3    0    0 -0.28050243776E+02  0.12384529942E+02  0.12191251120E+02  0.32997262941E+02  0.00000000000E+00 0.  1.
</event>
<event>
 7    1  0.2323330E-008  0.4614232E+02  0.7816164E-02  0.1320468E+00
        -11   -1    0    0    0    0  0.00000000000E+00  0.00000000000E+00  0.45593999997E+02  0.45594000000E+02  0.51100000000E-03 0.  1.
         11   -1    0    0    0    0 -0.00000000000E+00 -0.00000000000E+00 -0.45593999997E+02  0.45594000000E+02  0.51100000000E-03 0. -1.
    9900012    2    1    2    0    0 -0.21250338121E+02  0.37830457231E+01  0.39537642391E+02  0.46142317953E+02  0.10000001754E+02 0.  0.
         12    1    1    2    0    0  0.21250338121E+02 -0.37830457231E+01 -0.39537642391E+02  0.45045682047E+02  0.00000000000E+00 0. -1.
         11    1    3    3    0    0 -0.52476375024E+01  0.30239729591E+01  0.14530241426E+02  0.15741982974E+02  0.51100000000E-03 0. -1.
        -11    1    3    3    0    0 -0.29670292424E+01  0.27660872102E+01  0.50307207849E+01  0.64624030249E+01  0.51100000000E-03 0.  1.
        -12    1    3    3    0    0 -0.13035671376E+02 -0.20070144462E+01  0.19976680180E+02  0.23937931954E+02  0.00000000000E+00 0.  1.
</event>
<event>
 7    1  0.2323330E-008  0.4614232E+02  0.7816164E-02  0.1320468E+00
        -11   -1    0    0    0    0  0.00000000000E+00  0.00000000000E+00  0.45593999997E+02  0.45594000000E+02  0.51100000000E-03 0. -1.
         11   -1    0    0    0    0 -0.00000000000E+00 -0.00000000000E+00 -0.45593999997E+02  0.45594000000E+02  0.51100000000E-03 0.  1.
    9900012    2    1    2    0    0 -0.24945671508E+02  0.19780597988E+02 -0.31867772529E+02  0.46142317524E+02  0.99999978366E+01 0.  0.
         12    1    1    2    0    0  0.24945671508E+02 -0.19780597988E+02  0.31867772529E+02  0.45045682476E+02  0.00000000000E+00 0. -1.
         11    1    3    3    0    0  0.49051193434E+00  0.61792271170E+00 -0.43621752917E+00  0.90150786422E+00  0.51100000000E-03 0. -1.
        -11    1    3    3    0    0 -0.37596136292E+01  0.62750764521E+01 -0.67211281065E+01  0.99340244818E+01  0.51100000000E-03 0.  1.
        -12    1    3    3    0    0 -0.21676569813E+02  0.12887598825E+02 -0.24710426894E+02  0.35306785178E+02  0.00000000000E+00 0.  1.
</event>
<event>
 7    1  0.2323330E-008  0.4614232E+02  0.7816164E-02  0.1320468E+00
        -11   -1    0    0    0    0  0.00000000000E+00  0.00000000000E+00  0.45593999997E+02  0.45594000000E+02  0.51100000000E-03 0.  1.
         11   -1    0    0    0    0 -0.00000000000E+00 -0.00000000000E+00 -0.45593999997E+02  0.45594000000E+02  0.51100000000E-03 0. -1.
    9900012    2    1    2    0    0 -0.10637388780E+02  0.23190941929E+02  0.37123303256E+02  0.46142317940E+02  0.10000001631E+02 0.  0.
         12    1    1    2    0    0  0.10637388780E+02 -0.23190941929E+02 -0.37123303256E+02  0.45045682060E+02  0.00000000000E+00 0. -1.
         11    1    3    3    0    0  0.14884960780E+00  0.69278337842E+01  0.14353693207E+02  0.15938806294E+02  0.51100000000E-03 0. -1.
        -11    1    3    3    0    0  0.15719973427E+00  0.50601767897E+00  0.16416979796E+00  0.55472302239E+00  0.51100000000E-03 0.  1.
        -12    1    3    3    0    0 -0.10943438122E+02  0.15757090466E+02  0.22605440251E+02  0.29648788623E+02  0.00000000000E+00 0.  1.
</event>
<event>
 7    1  0.2323330E-008  0.4614232E+02  0.7816164E-02  0.1320468E+00
        -11   -1    0    0    0    0  0.00000000000E+00  0.00000000000E+00  0.45593999997E+02  0.45594000000E+02  0.51100000000E-03 0. -1.
         11   -1    0    0    0    0 -0.00000000000E+00 -0.00000000000E+00 -0.45593999997E+02  0.45594000000E+02  0.51100000000E-03 0.  1.
    9900012    2    1    2    0    0 -0.10033778577E+02  0.64024533737E+01 -0.43444736300E+02  0.46142320586E+02  0.10000025757E+02 0.  0.
         12    1    1    2    0    0  0.10033778577E+02 -0.64024533737E+01  0.43444736300E+02  0.45045679414E+02  0.00000000000E+00 0. -1.
         11    1    3    3    0    0 -0.52931425032E+01  0.64889239056E+01 -0.18519783956E+02  0.20325006495E+02  0.51100000000E-03 0. -1.
        -11    1    3    3    0    0 -0.12151587030E+01  0.15362407366E+01 -0.32264893378E+01  0.37745039386E+01  0.51100000000E-03 0.  1.
        -12    1    3    3    0    0 -0.35254773709E+01 -0.16227112684E+01 -0.21698463006E+02  0.22042810152E+02  0.00000000000E+00 0.  1.
</event>
<event>
 7    1  0.2323330E-008  0.4614232E+02  0.7816164E-02  0.1320468E+00
        -11   -1    0    0    0    0  0.00000000000E+00  0.00000000000E+00  0.45593999997E+02  0.45594000000E+02  0.51100000000E-03 0.  1.
         11   -1    0    0    0    0 -0.00000000000E+00 -0.00000000000E+00 -0.45593999997E+02  0.45594000000E+02  0.51100000000E-03 0. -1.
    9900012    2    1    2    0    0  0.12701009419E+02 -0.37602351312E+02  0.21304015319E+02  0.46142317264E+02  0.99999954640E+01 0.  0.
         12    1    1    2    0    0 -0.12701009419E+02  0.37602351312E+02 -0.21304015319E+02  0.45045682736E+02  0.00000000000E+00 0. -1.
         11    1    3    3    0    0  0.42637970706E+01 -0.66700108767E+01  0.62575261226E+01  0.10090869338E+02  0.51100000000E-03 0. -1.
        -11    1    3    3    0    0  0.76766995770E+01 -0.17162750184E+02  0.10477453049E+02  0.21523678425E+02  0.51100000000E-03 0.  1.
        -12    1    3    3    0    0  0.76051277158E+00 -0.13769590251E+02  0.45690361477E+01  0.14527769501E+02  0.00000000000E+00 0.  1.
</event>
<event>
 7    1  0.2323330E-008  0.4614232E+02  0.7816164E-02  0.1320468E+00
        -11   -1    0    0    0    0  0.00000000000E+00  0.00000000000E+00  0.45593999997E+02  0.45594000000E+02  0.51100000000E-03 0.  1.
         11   -1    0    0    0    0 -0.00000000000E+00 -0.00000000000E+00 -0.45593999997E+02  0.45594000000E+02  0.51100000000E-03 0. -1.
    9900012    2    1    2    0    0 -0.34974225963E+02  0.68161023342E+01  0.27558262784E+02  0.46142316739E+02  0.99999906826E+01 0.  0.
         12    1    1    2    0    0  0.34974225963E+02 -0.68161023342E+01 -0.27558262784E+02  0.45045683261E+02  0.00000000000E+00 0. -1.
         11    1    3    3    0    0 -0.69160051215E+01  0.15070668303E+00  0.13956705568E+01  0.70570344982E+01  0.51100000000E-03 0. -1.
        -11    1    3    3    0    0 -0.11650902010E+02  0.11632892816E+01  0.11331827739E+02  0.16294387984E+02  0.51100000000E-03 0.  1.
         12    1    3    3    0    0 -0.16407318831E+02  0.55021063696E+01  0.14830764488E+02  0.22790894257E+02  0.00000000000E+00 0. -1.
</event>
<event>
 7    1  0.2323330E-008  0.4614232E+02  0.7816164E-02  0.1320468E+00
        -11   -1    0    0    0    0  0.00000000000E+00  0.00000000000E+00  0.45593999997E+02  0.45594000000E+02  0.51100000000E-03 0.  1.
         11   -1    0    0    0    0 -0.00000000000E+00 -0.00000000000E+00 -0.45593999997E+02  0.45594000000E+02  0.51100000000E-03 0. -1.
    9900012    2    1    2    0    0 -0.22360460794E+02  0.10668424933E+02  0.37620578790E+02  0.46142318232E+02  0.10000004294E+02 0.  0.
         12    1    1    2    0    0  0.22360460794E+02 -0.10668424933E+02 -0.37620578790E+02  0.45045681768E+02  0.00000000000E+00 0. -1.
         11    1    3    3    0    0 -0.92731425231E+01  0.28474206672E+01  0.11290411529E+02  0.14885307168E+02  0.51100000000E-03 0. -1.
        -11    1    3    3    0    0 -0.11350212229E+02  0.44269824856E+01  0.15127821369E+02  0.19423606030E+02  0.51100000000E-03 0.  1.
        -12    1    3    3    0    0 -0.17371060422E+01  0.33940217801E+01  0.11202345892E+02  0.11833405035E+02  0.00000000000E+00 0.  1.
</event>
<event>
 7    1  0.2323330E-008  0.4614232E+02  0.7816164E-02  0.1320468E+00
        -11   -1    0    0    0    0  0.00000000000E+00  0.00000000000E+00  0.45593999997E+02  0.45594000000E+02  0.51100000000E-03 0. -1.
         11   -1    0    0    0    0 -0.00000000000E+00 -0.00000000000E+00 -0.45593999997E+02  0.45594000000E+02  0.51100000000E-03 0.  1.
    9900012    2    1    2    0    0 -0.24224345449E+02 -0.22946846359E+01 -0.37908164069E+02  0.46142318818E+02  0.10000009641E+02 0.  0.
         12    1    1    2    0    0  0.24224345449E+02  0.22946846359E+01  0.37908164069E+02  0.45045681182E+02  0.00000000000E+00 0. -1.
         11    1    3    3    0    0 -0.84616427321E+01  0.21031810939E+00 -0.97021048158E+01  0.12875343473E+02  0.51100000000E-03 0. -1.
        -11    1    3    3    0    0 -0.88651116912E+01 -0.40537476888E+01 -0.21102593653E+02  0.23245269084E+02  0.51100000000E-03 0.  1.
        -12    1    3    3    0    0 -0.68975910257E+01  0.15487449435E+01 -0.71034656002E+01  0.10021706261E+02  0.00000000000E+00 0.  1.
</event>
<event>
 7    1  0.2323330E-008  0.4614232E+02  0.7816164E-02  0.1320468E+00
        -11   -1    0    0    0    0  0.00000000000E+00  0.00000000000E+00  0.45593999997E+02  0.45594000000E+02  0.51100000000E-03 0.  1.
         11   -1    0    0    0    0 -0.00000000000E+00 -0.00000000000E+00 -0.45593999997E+02  0.45594000000E+02  0.51100000000E-03 0. -1.
    9900012    2    1    2    0    0 -0.21178904226E+02  0.39686191190E+02 -0.23608738365E+01  0.46142317847E+02  0.10000000780E+02 0.  0.
         12    1    1    2    0    0  0.21178904226E+02 -0.39686191190E+02  0.23608738365E+01  0.45045682153E+02  0.00000000000E+00 0. -1.
         11    1    3    3    0    0 -0.10932452521E+01  0.57176264080E+01 -0.20484384331E+01  0.61711050225E+01  0.51100000000E-03 0. -1.
        -11    1    3    3    0    0 -0.13136123121E+02  0.26850601770E+02 -0.16316836732E+01  0.29936181085E+02  0.51100000000E-03 0.  1.
         12    1    3    3    0    0 -0.69495358537E+01  0.71179630116E+01  0.13192482698E+01  0.10035031739E+02  0.00000000000E+00 0. -1.
</event>
<event>
 7    1  0.2323330E-008  0.4614232E+02  0.7816164E-02  0.1320468E+00
        -11   -1    0    0    0    0  0.00000000000E+00  0.00000000000E+00  0.45593999997E+02  0.45594000000E+02  0.51100000000E-03 0.  1.
         11   -1    0    0    0    0 -0.00000000000E+00 -0.00000000000E+00 -0.45593999997E+02  0.45594000000E+02  0.51100000000E-03 0. -1.
    9900012    2    1    2    0    0 -0.42497188463E+02  0.34186838509E+01  0.14540116784E+02  0.46142318490E+02  0.10000006651E+02 0.  0.
         12    1    1    2    0    0  0.42497188463E+02 -0.34186838509E+01 -0.14540116784E+02  0.45045681510E+02  0.00000000000E+00 0. -1.
         11    1    3    3    0    0 -0.19500841063E+02 -0.22722228862E-01  0.35146999764E+01  0.19815055757E+02  0.51100000000E-03 0. -1.
        -11    1    3    3    0    0 -0.29145429962E+01 -0.15898164965E+00  0.35568908214E+01  0.46012290335E+01  0.51100000000E-03 0.  1.
        -12    1    3    3    0    0 -0.20081804404E+02  0.36003877294E+01  0.74685259865E+01  0.21726033700E+02  0.00000000000E+00 0.  1.
</event>
<event>
 7    1  0.2323330E-008  0.4614232E+02  0.7816164E-02  0.1320468E+00
        -11   -1    0    0    0    0  0.00000000000E+00  0.00000000000E+00  0.45593999997E+02  0.45594000000E+02  0.51100000000E-03 0. -1.
         11   -1    0    0    0    0 -0.00000000000E+00 -0.00000000000E+00 -0.45593999997E+02  0.45594000000E+02  0.51100000000E-03 0.  1.
    9900012    2    1    2    0    0 -0.88494993745E+01  0.39747896065E+02 -0.19258884768E+02  0.46142317374E+02  0.99999964698E+01 0.  0.
         12    1    1    2    0    0  0.88494993745E+01 -0.39747896065E+02  0.19258884768E+02  0.45045682626E+02  0.00000000000E+00 0. -1.
         11    1    3    3    0    0 -0.10805263757E+01  0.24140057511E+01 -0.34071136843E+01  0.43131641441E+01  0.51100000000E-03 0. -1.
        -11    1    3    3    0    0 -0.87041067450E+01  0.30871087216E+02 -0.14295326899E+02  0.35116119824E+02  0.51100000000E-03 0.  1.
        -12    1    3    3    0    0  0.93513374617E+00  0.64628030978E+01 -0.15564441845E+01  0.67130334055E+01  0.00000000000E+00 0.  1.
</event>
<event>
 7    1  0.2323330E-008  0.4614232E+02  0.7816164E-02  0.1320468E+00
        -11   -1    0    0    0    0  0.00000000000E+00  0.00000000000E+00  0.45593999997E+02  0.45594000000E+02  0.51100000000E-03 0. -1.
         11   -1    0    0    0    0 -0.00000000000E+00 -0.00000000000E+00 -0.45593999997E+02  0.45594000000E+02  0.51100000000E-03 0.  1.
    9900012    2    1    2    0    0  0.21893314564E+02 -0.50255601526E+01 -0.39045358387E+02  0.46142317754E+02  0.99999999355E+01 0.  0.
         12    1    1    2    0    0 -0.21893314564E+02  0.50255601526E+01  0.39045358387E+02  0.45045682246E+02  0.00000000000E+00 0. -1.
         11    1    3    3    0    0  0.21715621305E+01 -0.12777088791E+01 -0.75922281404E+01  0.79993843803E+01  0.51100000000E-03 0. -1.
        -11    1    3    3    0    0  0.10489754235E+02 -0.56808389225E+01 -0.14854888187E+02  0.19051891719E+02  0.51100000000E-03 0.  1.
         12    1    3    3    0    0  0.92319981990E+01  0.19329876490E+01 -0.16598242060E+02  0.19091041655E+02  0.00000000000E+00 0. -1.
</event>
<event>
 7    1  0.2323330E-008  0.4614231E+02  0.7816164E-02  0.1320468E+00
        -11   -1    0    0    0    0  0.00000000000E+00  0.00000000000E+00  0.45593999997E+02  0.45594000000E+02  0.51100000000E-03 0.  1.
         11   -1    0    0    0    0 -0.00000000000E+00 -0.00000000000E+00 -0.45593999997E+02  0.45594000000E+02  0.51100000000E-03 0. -1.
    9900012    2    1    2    0    0 -0.18208795215E+02  0.24385554246E+02  0.33209917714E+02  0.46142310821E+02  0.99999367133E+01 0.  0.
         12    1    1    2    0    0  0.18208795215E+02 -0.24385554246E+02 -0.33209917714E+02  0.45045689179E+02  0.00000000000E+00 0. -1.
         11    1    3    3    0    0 -0.76815718729E+01  0.46994483928E+01  0.69045909534E+01  0.11347455139E+02  0.51100000000E-03 0.  1.
        -11    1    3    3    0    0 -0.27737776743E+01  0.25785076070E+01  0.63259974354E+01  0.73729768668E+01  0.51100000000E-03 0. -1.
        -12    1    3    3    0    0 -0.77534456682E+01  0.17107598246E+02  0.19979329325E+02  0.27421878815E+02  0.00000000000E+00 0.  1.
</event>
<event>
 7    1  0.2323330E-008  0.4614232E+02  0.7816164E-02  0.1320468E+00
        -11   -1    0    0    0    0  0.00000000000E+00  0.00000000000E+00  0.45593999997E+02  0.45594000000E+02  0.51100000000E-03 0.  1.
         11   -1    0    0    0    0 -0.00000000000E+00 -0.00000000000E+00 -0.45593999997E+02  0.45594000000E+02  0.51100000000E-03 0. -1.
    9900012    2    1    2    0    0  0.31261824332E+02 -0.16578432364E+02  0.27874133369E+02  0.46142318839E+02  0.10000009830E+02 0.  0.
         12    1    1    2    0    0 -0.31261824332E+02  0.16578432364E+02 -0.27874133369E+02  0.45045681161E+02  0.00000000000E+00 0. -1.
         11    1    3    3    0    0  0.13775794853E+02 -0.54111210085E+01  0.11150138708E+02  0.18530470795E+02  0.51100000000E-03 0.  1.
        -11    1    3    3    0    0  0.15647037938E+02 -0.99460690062E+01  0.17269902613E+02  0.25337790382E+02  0.51100000000E-03 0. -1.
         12    1    3    3    0    0  0.18389915409E+01 -0.12212423488E+01 -0.54590795181E+00  0.22740576628E+01  0.00000000000E+00 0. -1.
</event>
<event>
 7    1  0.2323330E-008  0.4614232E+02  0.7816164E-02  0.1320468E+00
        -11   -1    0    0    0    0  0.00000000000E+00  0.00000000000E+00  0.45593999997E+02  0.45594000000E+02  0.51100000000E-03 0. -1.
         11   -1    0    0    0    0 -0.00000000000E+00 -0.00000000000E+00 -0.45593999997E+02  0.45594000000E+02  0.51100000000E-03 0.  1.
    9900012    2    1    2    0    0 -0.33598864740E+02 -0.20715532730E+01  0.29932229579E+02  0.46142318605E+02  0.10000007698E+02 0.  0.
         12    1    1    2    0    0  0.33598864740E+02  0.20715532730E+01 -0.29932229579E+02  0.45045681395E+02  0.00000000000E+00 0. -1.
         11    1    3    3    0    0 -0.20039572986E+01 -0.71442066327E+00  0.15897669105E+00  0.21334281305E+01  0.51100000000E-03 0. -1.
        -11    1    3    3    0    0 -0.28165643117E+02 -0.37206190620E+00  0.23047911955E+02  0.36395715792E+02  0.51100000000E-03 0.  1.
        -12    1    3    3    0    0 -0.34292643247E+01 -0.98507070357E+00  0.67253409321E+01  0.76131746829E+01  0.00000000000E+00 0.  1.
</event>
<event>
 7    1  0.2323330E-008  0.4614232E+02  0.7816164E-02  0.1320468E+00
        -11   -1    0    0    0    0  0.00000000000E+00  0.00000000000E+00  0.45593999997E+02  0.45594000000E+02  0.51100000000E-03 0.  1.
         11   -1    0    0    0    0 -0.00000000000E+00 -0.00000000000E+00 -0.45593999997E+02  0.45594000000E+02  0.51100000000E-03 0. -1.
    9900012    2    1    2    0    0  0.37503088911E+02 -0.15459304877E+02  0.19586773811E+02  0.46142317705E+02  0.99999994860E+01 0.  0.
         12    1    1    2    0    0 -0.37503088911E+02  0.15459304877E+02 -0.19586773811E+02  0.45045682295E+02  0.00000000000E+00 0. -1.
         11    1    3    3    0    0  0.20369184773E+02 -0.72937653507E+01  0.11055718480E+02  0.24296740783E+02  0.51100000000E-03 0. -1.
        -11    1    3    3    0    0  0.98748297390E+01 -0.10737310310E+01  0.48125153647E+01  0.11037457366E+02  0.51100000000E-03 0.  1.
         12    1    3    3    0    0  0.72590743985E+01 -0.70918084950E+01  0.37185399664E+01  0.10808119556E+02  0.00000000000E+00 0. -1.
</event>
<event>
 7    1  0.2323330E-008  0.4614232E+02  0.7816164E-02  0.1320468E+00
        -11   -1    0    0    0    0  0.00000000000E+00  0.00000000000E+00  0.45593999997E+02  0.45594000000E+02  0.51100000000E-03 0.  1.
         11   -1    0    0    0    0 -0.00000000000E+00 -0.00000000000E+00 -0.45593999997E+02  0.45594000000E+02  0.51100000000E-03 0. -1.
    9900012    2    1    2    0    0 -0.12925385661E+02  0.25140759022E+02  0.35071214702E+02  0.46142318083E+02  0.10000002935E+02 0.  0.
         12    1    1    2    0    0  0.12925385661E+02 -0.25140759022E+02 -0.35071214702E+02  0.45045681917E+02  0.00000000000E+00 0. -1.
         11    1    3    3    0    0 -0.50924087358E+01  0.38498554668E+01  0.41627035341E+01  0.76211623012E+01  0.51100000000E-03 0. -1.
        -11    1    3    3    0    0 -0.27678906881E+01  0.85275403367E+01  0.15289352795E+02  0.17724121197E+02  0.51100000000E-03 0.  1.
         12    1    3    3    0    0 -0.50650862373E+01  0.12763363218E+02  0.15619158373E+02  0.20797034585E+02  0.00000000000E+00 0. -1.
</event>
<event>
 7    1  0.2323330E-008  0.4614232E+02  0.7816164E-02  0.1320468E+00
        -11   -1    0    0    0    0  0.00000000000E+00  0.00000000000E+00  0.45593999997E+02  0.45594000000E+02  0.51100000000E-03 0.  1.
         11   -1    0    0    0    0 -0.00000000000E+00 -0.00000000000E+00 -0.45593999997E+02  0.45594000000E+02  0.51100000000E-03 0. -1.
    9900012    2    1    2    0    0 -0.11622609624E+02  0.30477770616E+02  0.31066605447E+02  0.46142317297E+02  0.99999957664E+01 0.  0.
         12    1    1    2    0    0  0.11622609624E+02 -0.30477770616E+02 -0.31066605447E+02  0.45045682703E+02  0.00000000000E+00 0. -1.
         11    1    3    3    0    0 -0.28827129820E+01  0.46780049181E+01  0.70461988314E+01  0.89354732601E+01  0.51100000000E-03 0. -1.
        -11    1    3    3    0    0 -0.27357035443E+01  0.17048255436E+02  0.18261733511E+02  0.25132011428E+02  0.51100000000E-03 0.  1.
        -12    1    3    3    0    0 -0.60041930974E+01  0.87515102620E+01  0.57586731043E+01  0.12074832609E+02  0.00000000000E+00 0.  1.
</event>
<event>
 7    1  0.2323330E-008  0.4614232E+02  0.7816164E-02  0.1320468E+00
        -11   -1    0    0    0    0  0.00000000000E+00  0.00000000000E+00  0.45593999997E+02  0.45594000000E+02  0.51100000000E-03 0.  1.
         11   -1    0    0    0    0 -0.00000000000E+00 -0.00000000000E+00 -0.45593999997E+02  0.45594000000E+02  0.51100000000E-03 0. -1.
    9900012    2    1    2    0    0  0.62272830381E+01 -0.98981905432E+00  0.44602183788E+02  0.46142316583E+02  0.99999892607E+01 0.  0.
         12    1    1    2    0    0 -0.62272830381E+01  0.98981905432E+00 -0.44602183788E+02  0.45045683417E+02  0.00000000000E+00 0. -1.
         11    1    3    3    0    0  0.23877238930E+01 -0.20254216980E+01  0.15822184999E+02  0.16129014132E+02  0.51100000000E-03 0. -1.
        -11    1    3    3    0    0  0.15891965525E+01 -0.31300268939E+01  0.16098864351E+02  0.16477137120E+02  0.51100000000E-03 0.  1.
        -12    1    3    3    0    0  0.22503625926E+01  0.41656295376E+01  0.12681134438E+02  0.13536165332E+02  0.00000000000E+00 0.  1.
</event>
<event>
 7    1  0.2323330E-008  0.4614232E+02  0.7816164E-02  0.1320468E+00
        -11   -1    0    0    0    0  0.00000000000E+00  0.00000000000E+00  0.45593999997E+02  0.45594000000E+02  0.51100000000E-03 0. -1.
         11   -1    0    0    0    0 -0.00000000000E+00 -0.00000000000E+00 -0.45593999997E+02  0.45594000000E+02  0.51100000000E-03 0.  1.
    9900012    2    1    2    0    0 -0.10535651896E+02  0.41928768418E+02 -0.12652743897E+02  0.46142317520E+02  0.99999978033E+01 0.  0.
         12    1    1    2    0    0  0.10535651896E+02 -0.41928768418E+02  0.12652743897E+02  0.45045682480E+02  0.00000000000E+00 0. -1.
         11    1    3    3    0    0 -0.74580501931E+00  0.48185518568E+01 -0.38676772951E+01  0.62236319817E+01  0.51100000000E-03 0. -1.
        -11    1    3    3    0    0 -0.44583641275E+01  0.25929428712E+02 -0.38732755547E+01  0.26593505745E+02  0.51100000000E-03 0.  1.
        -12    1    3    3    0    0 -0.53314827493E+01  0.11180787850E+02 -0.49117910468E+01  0.13325179794E+02  0.00000000000E+00 0.  1.
</event>
<event>
 7    1  0.2323330E-008  0.4614232E+02  0.7816164E-02  0.1320468E+00
        -11   -1    0    0    0    0  0.00000000000E+00  0.00000000000E+00  0.45593999997E+02  0.45594000000E+02  0.51100000000E-03 0.  1.
         11   -1    0    0    0    0 -0.00000000000E+00 -0.00000000000E+00 -0.45593999997E+02  0.45594000000E+02  0.51100000000E-03 0. -1.
    9900012    2    1    2    0    0  0.28981291272E+02  0.34472974424E+02 -0.90127153831E+00  0.46142317634E+02  0.99999988409E+01 0.  0.
         12    1    1    2    0    0 -0.28981291272E+02 -0.34472974424E+02  0.90127153831E+00  0.45045682366E+02  0.00000000000E+00 0. -1.
         11    1    3    3    0    0  0.15197773576E+02  0.21239317865E+02  0.25860766703E+01  0.26244403934E+02  0.51100000000E-03 0. -1.
        -11    1    3    3    0    0  0.67988970866E+00  0.78798434716E+00  0.81368605111E+00  0.13210808447E+01  0.51100000000E-03 0.  1.
        -12    1    3    3    0    0  0.13103627987E+02  0.12445672212E+02 -0.43010342597E+01  0.18576832855E+02  0.00000000000E+00 0.  1.
</event>
<event>
 7    1  0.2323330E-008  0.4614232E+02  0.7816164E-02  0.1320468E+00
        -11   -1    0    0    0    0  0.00000000000E+00  0.00000000000E+00  0.45593999997E+02  0.45594000000E+02  0.51100000000E-03 0. -1.
         11   -1    0    0    0    0 -0.00000000000E+00 -0.00000000000E+00 -0.45593999997E+02  0.45594000000E+02  0.51100000000E-03 0.  1.
    9900012    2    1    2    0    0  0.30908896910E+01 -0.26537795921E+02 -0.36267138102E+02  0.46142317437E+02  0.99999970474E+01 0.  0.
         12    1    1    2    0    0 -0.30908896910E+01  0.26537795921E+02  0.36267138102E+02  0.45045682563E+02  0.00000000000E+00 0. -1.
         11    1    3    3    0    0 -0.25703564142E+01 -0.11207205316E+02 -0.17054422827E+02  0.20568459381E+02  0.51100000000E-03 0. -1.
        -11    1    3    3    0    0  0.23970014342E+01 -0.60483031795E+01 -0.10895156683E+02  0.12689839504E+02  0.51100000000E-03 0.  1.
         12    1    3    3    0    0  0.32642446710E+01 -0.92822874260E+01 -0.83175585923E+01  0.12884018553E+02  0.00000000000E+00 0. -1.
</event>
<event>
 7    1  0.2323330E-008  0.4614232E+02  0.7816164E-02  0.1320468E+00
        -11   -1    0    0    0    0  0.00000000000E+00  0.00000000000E+00  0.45593999997E+02  0.45594000000E+02  0.51100000000E-03 0.  1.
         11   -1    0    0    0    0 -0.00000000000E+00 -0.00000000000E+00 -0.45593999997E+02  0.45594000000E+02  0.51100000000E-03 0. -1.
    9900012    2    1    2    0    0  0.16116278432E+02  0.10193064721E+02  0.40810299638E+02  0.46142317016E+02  0.99999932055E+01 0.  0.
         12    1    1    2    0    0 -0.16116278432E+02 -0.10193064721E+02 -0.40810299638E+02  0.45045682984E+02  0.00000000000E+00 0. -1.
         11    1    3    3    0    0 -0.12230076516E+01  0.17239733369E+01  0.48942205447E+01  0.53311562333E+01  0.51100000000E-03 0. -1.
        -11    1    3    3    0    0  0.13450453753E+01  0.44546731502E+00  0.18376152823E+01  0.23204349543E+01  0.51100000000E-03 0.  1.
        -12    1    3    3    0    0  0.15994240709E+02  0.80236240691E+01  0.34078463811E+02  0.38490725828E+02  0.00000000000E+00 0.  1.
</event>
<event>
 7    1  0.2323330E-008  0.4614230E+02  0.7816164E-02  0.1320468E+00
        -11   -1    0    0    0    0  0.00000000000E+00  0.00000000000E+00  0.45593999997E+02  0.45594000000E+02  0.51100000000E-03 0. -1.
         11   -1    0    0    0    0 -0.00000000000E+00 -0.00000000000E+00 -0.45593999997E+02  0.45594000000E+02  0.51100000000E-03 0.  1.
    9900012    2    1    2    0    0 -0.31497246329E+02 -0.53257064393E+01 -0.31759645635E+02  0.46142303577E+02  0.99998706555E+01 0.  0.
         12    1    1    2    0    0  0.31497246329E+02  0.53257064393E+01  0.31759645635E+02  0.45045696423E+02  0.00000000000E+00 0. -1.
         11    1    3    3    0    0 -0.62784030512E+01 -0.19698079005E+01 -0.82451843529E+01  0.10549007219E+02  0.51100000000E-03 0.  1.
        -11    1    3    3    0    0 -0.13339080177E+02  0.21569317666E+01 -0.10319228864E+02  0.17002055735E+02  0.51100000000E-03 0. -1.
         12    1    3    3    0    0 -0.11879763101E+02 -0.55128303054E+01 -0.13195232418E+02  0.18591240622E+02  0.00000000000E+00 0. -1.
</event>
<event>
 7    1  0.2323330E-008  0.4614232E+02  0.7816164E-02  0.1320468E+00
        -11   -1    0    0    0    0  0.00000000000E+00  0.00000000000E+00  0.45593999997E+02  0.45594000000E+02  0.51100000000E-03 0.  1.
         11   -1    0    0    0    0 -0.00000000000E+00 -0.00000000000E+00 -0.45593999997E+02  0.45594000000E+02  0.51100000000E-03 0. -1.
    9900012    2    1    2    0    0  0.24445279083E+02 -0.20779553835E+02  0.31618854446E+02  0.46142317815E+02  0.10000000490E+02 0.  0.
         12    1    1    2    0    0 -0.24445279083E+02  0.20779553835E+02 -0.31618854446E+02  0.45045682185E+02  0.00000000000E+00 0. -1.
         11    1    3    3    0    0  0.54653959736E+01 -0.59817470580E+01  0.93660310424E+01  0.12384441399E+02  0.51100000000E-03 0.  1.
        -11    1    3    3    0    0  0.95575721245E+01 -0.12168765428E+02  0.11948500433E+02  0.19549749354E+02  0.51100000000E-03 0. -1.
         12    1    3    3    0    0  0.94223109854E+01 -0.26290413492E+01  0.10304322971E+02  0.14208127062E+02  0.00000000000E+00 0. -1.
</event>
<event>
 7    1  0.2323330E-008  0.4614232E+02  0.7816164E-02  0.1320468E+00
        -11   -1    0    0    0    0  0.00000000000E+00  0.00000000000E+00  0.45593999997E+02  0.45594000000E+02  0.51100000000E-03 0.  1.
         11   -1    0    0    0    0 -0.00000000000E+00 -0.00000000000E+00 -0.45593999997E+02  0.45594000000E+02  0.51100000000E-03 0. -1.
    9900012    2    1    2    0    0  0.98663630660E+01  0.10909418434E+02  0.42576436887E+02  0.46142317535E+02  0.99999979406E+01 0.  0.
         12    1    1    2    0    0 -0.98663630660E+01 -0.10909418434E+02 -0.42576436887E+02  0.45045682465E+02  0.00000000000E+00 0. -1.
         11    1    3    3    0    0  0.36630374013E+01  0.65309202814E+01  0.13270386678E+02  0.15237254529E+02  0.51100000000E-03 0. -1.
        -11    1    3    3    0    0  0.11315909484E+01  0.18996168270E+01  0.18747211015E+01  0.28989000731E+01  0.51100000000E-03 0.  1.
        -12    1    3    3    0    0  0.50717347163E+01  0.24788813256E+01  0.27431329107E+02  0.28006162933E+02  0.00000000000E+00 0.  1.
</event>
<event>
 7    1  0.2323330E-008  0.4614232E+02  0.7816164E-02  0.1320468E+00
        -11   -1    0    0    0    0  0.00000000000E+00  0.00000000000E+00  0.45593999997E+02  0.45594000000E+02  0.51100000000E-03 0. -1.
         11   -1    0    0    0    0 -0.00000000000E+00 -0.00000000000E+00 -0.45593999997E+02  0.45594000000E+02  0.51100000000E-03 0.  1.
    9900012    2    1    2    0    0 -0.32497639301E+02  0.17671463673E+02 -0.25704791613E+02  0.46142317629E+02  0.99999987909E+01 0.  0.
         12    1    1    2    0    0  0.32497639301E+02 -0.17671463673E+02  0.25704791613E+02  0.45045682371E+02  0.00000000000E+00 0. -1.
         11    1    3    3    0    0 -0.44566846733E+01  0.66007854108E+01 -0.49520665614E+01  0.93784524206E+01  0.51100000000E-03 0. -1.
        -11    1    3    3    0    0 -0.16946917942E+02  0.84689171409E+01 -0.12597528165E+02  0.22751226371E+02  0.51100000000E-03 0.  1.
        -12    1    3    3    0    0 -0.11094036685E+02  0.26017611212E+01 -0.81551968864E+01  0.14012638837E+02  0.00000000000E+00 0.  1.
</event>
<event>
 7    1  0.2323330E-008  0.4614232E+02  0.7816164E-02  0.1320468E+00
        -11   -1    0    0    0    0  0.00000000000E+00  0.00000000000E+00  0.45593999997E+02  0.45594000000E+02  0.51100000000E-03 0.  1.
         11   -1    0    0    0    0 -0.00000000000E+00 -0.00000000000E+00 -0.45593999997E+02  0.45594000000E+02  0.51100000000E-03 0. -1.
    9900012    2    1    2    0    0  0.85513157720E+00  0.38228238952E+02  0.23811425163E+02  0.46142317946E+02  0.10000001686E+02 0.  0.
         12    1    1    2    0    0 -0.85513157720E+00 -0.38228238952E+02 -0.23811425163E+02  0.45045682054E+02  0.00000000000E+00 0. -1.
         11    1    3    3    0    0  0.34853431445E+01  0.26064637656E+02  0.17733415416E+02  0.31717297734E+02  0.51100000000E-03 0. -1.
        -11    1    3    3    0    0 -0.14197386426E+01  0.25420355315E+01  0.31627150580E+01  0.42988800002E+01  0.51100000000E-03 0.  1.
        -12    1    3    3    0    0 -0.12104729247E+01  0.96215657644E+01  0.29152946895E+01  0.10126140212E+02  0.00000000000E+00 0.  1.
</event>
<event>
 7    1  0.2323330E-008  0.4614232E+02  0.7816164E-02  0.1320468E+00
        -11   -1    0    0    0    0  0.00000000000E+00  0.00000000000E+00  0.45593999997E+02  0.45594000000E+02  0.51100000000E-03 0.  1.
         11   -1    0    0    0    0 -0.00000000000E+00 -0.00000000000E+00 -0.45593999997E+02  0.45594000000E+02  0.51100000000E-03 0. -1.
    9900012    2    1    2    0    0 -0.44113926719E+01  0.43926616478E+02 -0.89501575467E+01  0.46142319401E+02  0.10000014951E+02 0.  0.
         12    1    1    2    0    0  0.44113926719E+01 -0.43926616478E+02  0.89501575467E+01  0.45045680599E+02  0.00000000000E+00 0. -1.
         11    1    3    3    0    0 -0.35998785103E+01  0.33417726343E+02 -0.58507070065E+01  0.34116481823E+02  0.51100000000E-03 0. -1.
        -11    1    3    3    0    0 -0.65205765933E+00  0.71349646674E+01  0.38234028908E+00  0.71748926371E+01  0.51100000000E-03 0.  1.
         12    1    3    3    0    0 -0.15945650225E+00  0.33739254678E+01 -0.34817908293E+01  0.48509449406E+01  0.00000000000E+00 0. -1.
</event>
<event>
 7    1  0.2323330E-008  0.4614232E+02  0.7816164E-02  0.1320468E+00
        -11   -1    0    0    0    0  0.00000000000E+00  0.00000000000E+00  0.45593999997E+02  0.45594000000E+02  0.51100000000E-03 0.  1.
         11   -1    0    0    0    0 -0.00000000000E+00 -0.00000000000E+00 -0.45593999997E+02  0.45594000000E+02  0.51100000000E-03 0. -1.
    9900012    2    1    2    0    0  0.13040312771E+02  0.39838965774E+02  0.16490009002E+02  0.46142319319E+02  0.10000014205E+02 0.  0.
         12    1    1    2    0    0 -0.13040312771E+02 -0.39838965774E+02 -0.16490009002E+02  0.45045680681E+02  0.00000000000E+00 0. -1.
         11    1    3    3    0    0  0.54650461146E+01  0.14756670682E+02  0.86174865306E+01  0.17941213254E+02  0.51100000000E-03 0. -1.
        -11    1    3    3    0    0  0.13168411347E+01  0.60322577942E+01  0.49994292129E+01  0.79445891892E+01  0.51100000000E-03 0.  1.
        -12    1    3    3    0    0  0.62584255216E+01  0.19050037298E+02  0.28730932589E+01  0.20256516875E+02  0.00000000000E+00 0.  1.
</event>
<event>
 7    1  0.2323330E-008  0.4614232E+02  0.7816164E-02  0.1320468E+00
        -11   -1    0    0    0    0  0.00000000000E+00  0.00000000000E+00  0.45593999997E+02  0.45594000000E+02  0.51100000000E-03 0. -1.
         11   -1    0    0    0    0 -0.00000000000E+00 -0.00000000000E+00 -0.45593999997E+02  0.45594000000E+02  0.51100000000E-03 0.  1.
    9900012    2    1    2    0    0 -0.32827390377E+01 -0.44527006979E+02 -0.59735204276E+01  0.46142315719E+02  0.99999813759E+01 0.  0.
         12    1    1    2    0    0  0.32827390377E+01  0.44527006979E+02  0.59735204276E+01  0.45045684281E+02  0.00000000000E+00 0. -1.
         11    1    3    3    0    0  0.17796409517E+01 -0.23771717677E+02 -0.87092318768E+00  0.23854144099E+02  0.51100000000E-03 0. -1.
        -11    1    3    3    0    0 -0.39724737577E+01 -0.16950858198E+02 -0.25932472415E+01  0.17602189436E+02  0.51100000000E-03 0.  1.
         12    1    3    3    0    0 -0.10899062317E+01 -0.38044311031E+01 -0.25093499985E+01  0.46859821838E+01  0.00000000000E+00 0. -1.
</event>
<event>
 7    1  0.2323330E-008  0.4614232E+02  0.7816164E-02  0.1320468E+00
        -11   -1    0    0    0    0  0.00000000000E+00  0.00000000000E+00  0.45593999997E+02  0.45594000000E+02  0.51100000000E-03 0.  1.
         11   -1    0    0    0    0 -0.00000000000E+00 -0.00000000000E+00 -0.45593999997E+02  0.45594000000E+02  0.51100000000E-03 0. -1.
    9900012    2    1    2    0    0 -0.34016800324E+02  0.25727584299E+02  0.14493523364E+02  0.46142317436E+02  0.99999970389E+01 0.  0.
         12    1    1    2    0    0  0.34016800324E+02 -0.25727584299E+02 -0.14493523364E+02  0.45045682564E+02  0.00000000000E+00 0. -1.
         11    1    3    3    0    0 -0.97782194487E+01  0.42079511395E+01  0.13685635662E+01  0.10732818589E+02  0.51100000000E-03 0. -1.
        -11    1    3    3    0    0 -0.85620787337E+01  0.87664545556E+01  0.22446408051E+01  0.12457862189E+02  0.51100000000E-03 0.  1.
        -12    1    3    3    0    0 -0.15676502141E+02  0.12753178604E+02  0.10880318993E+02  0.22951636658E+02  0.00000000000E+00 0.  1.
</event>
<event>
 7    1  0.2323330E-008  0.4614232E+02  0.7816164E-02  0.1320468E+00
        -11   -1    0    0    0    0  0.00000000000E+00  0.00000000000E+00  0.45593999997E+02  0.45594000000E+02  0.51100000000E-03 0. -1.
         11   -1    0    0    0    0 -0.00000000000E+00 -0.00000000000E+00 -0.45593999997E+02  0.45594000000E+02  0.51100000000E-03 0.  1.
    9900012    2    1    2    0    0  0.13800822284E+02 -0.41836408262E+02 -0.94003060244E+01  0.46142317573E+02  0.99999982858E+01 0.  0.
         12    1    1    2    0    0 -0.13800822284E+02  0.41836408262E+02  0.94003060244E+01  0.45045682427E+02  0.00000000000E+00 0. -1.
         11    1    3    3    0    0 -0.30438041447E+00 -0.59158831285E+00  0.56619075708E+00  0.87361112810E+00  0.51100000000E-03 0. -1.
        -11    1    3    3    0    0  0.95099122745E+01 -0.22897824411E+02 -0.24453301591E+01  0.24914422210E+02  0.51100000000E-03 0.  1.
         12    1    3    3    0    0  0.45952904238E+01 -0.18346995538E+02 -0.75211666224E+01  0.20354284235E+02  0.00000000000E+00 0. -1.
</event>
<event>
 7    1  0.2323330E-008  0.4614232E+02  0.7816164E-02  0.1320468E+00
        -11   -1    0    0    0    0  0.00000000000E+00  0.00000000000E+00  0.45593999997E+02  0.45594000000E+02  0.51100000000E-03 0.  1.
         11   -1    0    0    0    0 -0.00000000000E+00 -0.00000000000E+00 -0.45593999997E+02  0.45594000000E+02  0.51100000000E-03 0. -1.
    9900012    2    1    2    0    0  0.16053962022E+02  0.22721879419E+02  0.35427390954E+02  0.46142317291E+02  0.99999957115E+01 0.  0.
         12    1    1    2    0    0 -0.16053962022E+02 -0.22721879419E+02 -0.35427390954E+02  0.45045682709E+02  0.00000000000E+00 0. -1.
         11    1    3    3    0    0  0.11927612019E+02  0.12536519724E+02  0.26041878975E+02  0.31266782951E+02  0.51100000000E-03 0. -1.
        -11    1    3    3    0    0  0.34447306561E+01  0.92446691326E+01  0.95153255093E+01  0.13706622358E+02  0.51100000000E-03 0.  1.
         12    1    3    3    0    0  0.68161934636E+00  0.94069056277E+00 -0.12981353073E+00  0.11689119817E+01  0.00000000000E+00 0. -1.
</event>
<event>
 7    1  0.2323330E-008  0.4614232E+02  0.7816164E-02  0.1320468E+00
        -11   -1    0    0    0    0  0.00000000000E+00  0.00000000000E+00  0.45593999997E+02  0.45594000000E+02  0.51100000000E-03 0.  1.
         11   -1    0    0    0    0 -0.00000000000E+00 -0.00000000000E+00 -0.45593999997E+02  0.45594000000E+02  0.51100000000E-03 0. -1.
    9900012    2    1    2    0    0  0.23198073949E+02 -0.72035074585E+00  0.38606266861E+02  0.46142318952E+02  0.10000010857E+02 0.  0.
         12    1    1    2    0    0 -0.23198073949E+02  0.72035074585E+00 -0.38606266861E+02  0.45045681048E+02  0.00000000000E+00 0. -1.
         11    1    3    3    0    0  0.10647227588E+02  0.21547823154E+00  0.26223023004E+02  0.28302947230E+02  0.51100000000E-03 0. -1.
        -11    1    3    3    0    0  0.43274328993E+01 -0.11293967599E+01  0.56724668894E+01  0.72235097710E+01  0.51100000000E-03 0.  1.
         12    1    3    3    0    0  0.82234134611E+01  0.19356778248E+00  0.67107769678E+01  0.10615861950E+02  0.00000000000E+00 0. -1.
</event>
<event>
 7    1  0.2323330E-008  0.4614232E+02  0.7816164E-02  0.1320468E+00
        -11   -1    0    0    0    0  0.00000000000E+00  0.00000000000E+00  0.45593999997E+02  0.45594000000E+02  0.51100000000E-03 0.  1.
         11   -1    0    0    0    0 -0.00000000000E+00 -0.00000000000E+00 -0.45593999997E+02  0.45594000000E+02  0.51100000000E-03 0. -1.
    9900012    2    1    2    0    0 -0.72630755151E+01 -0.40731284389E+01  0.44269299279E+02  0.46142317634E+02  0.99999988391E+01 0.  0.
         12    1    1    2    0    0  0.72630755151E+01  0.40731284389E+01 -0.44269299279E+02  0.45045682366E+02  0.00000000000E+00 0. -1.
         11    1    3    3    0    0 -0.19667179087E+01 -0.46864698062E+01  0.95914063007E+01  0.10854771009E+02  0.51100000000E-03 0. -1.
        -11    1    3    3    0    0  0.53034153485E+00  0.17203172325E+00  0.15271498408E+01  0.16257441234E+01  0.51100000000E-03 0.  1.
        -12    1    3    3    0    0 -0.58266991413E+01  0.44130964410E+00  0.33150743137E+02  0.33661802501E+02  0.00000000000E+00 0.  1.
</event>
<event>
 7    1  0.2323330E-008  0.4614232E+02  0.7816164E-02  0.1320468E+00
        -11   -1    0    0    0    0  0.00000000000E+00  0.00000000000E+00  0.45593999997E+02  0.45594000000E+02  0.51100000000E-03 0.  1.
         11   -1    0    0    0    0 -0.00000000000E+00 -0.00000000000E+00 -0.45593999997E+02  0.45594000000E+02  0.51100000000E-03 0. -1.
    9900012    2    1    2    0    0  0.87349442422E+01  0.82856402854E+01  0.43406939397E+02  0.46142317924E+02  0.10000001486E+02 0.  0.
         12    1    1    2    0    0 -0.87349442422E+01 -0.82856402854E+01 -0.43406939397E+02  0.45045682076E+02  0.00000000000E+00 0. -1.
         11    1    3    3    0    0  0.11353167957E+01  0.22371692815E+00  0.17797354526E+01  0.21228405575E+01  0.51100000000E-03 0. -1.
        -11    1    3    3    0    0  0.44677282755E+00  0.20688330146E+00 -0.42232187906E+00  0.64866223145E+00  0.51100000000E-03 0.  1.
        -12    1    3    3    0    0  0.71528546190E+01  0.78550400558E+01  0.42049525824E+02  0.43370815135E+02  0.00000000000E+00 0.  1.
</event>
<event>
 7    1  0.2323330E-008  0.4614232E+02  0.7816164E-02  0.1320468E+00
        -11   -1    0    0    0    0  0.00000000000E+00  0.00000000000E+00  0.45593999997E+02  0.45594000000E+02  0.51100000000E-03 0.  1.
         11   -1    0    0    0    0 -0.00000000000E+00 -0.00000000000E+00 -0.45593999997E+02  0.45594000000E+02  0.51100000000E-03 0. -1.
    9900012    2    1    2    0    0  0.10440565794E+02  0.13207590591E+02  0.41781186236E+02  0.46142318891E+02  0.10000010299E+02 0.  0.
         12    1    1    2    0    0 -0.10440565794E+02 -0.13207590591E+02 -0.41781186236E+02  0.45045681109E+02  0.00000000000E+00 0. -1.
         11    1    3    3    0    0  0.44844101760E+01  0.20286867765E+01  0.91830074700E+01  0.10418883391E+02  0.51100000000E-03 0. -1.
        -11    1    3    3    0    0  0.73749995101E+01  0.70505070152E+01  0.24061316833E+02  0.26135172373E+02  0.51100000000E-03 0.  1.
         12    1    3    3    0    0 -0.14188438924E+01  0.41283967989E+01  0.85368619328E+01  0.95882631264E+01  0.00000000000E+00 0. -1.
</event>
<event>
 7    1  0.2323330E-008  0.4614232E+02  0.7816164E-02  0.1320468E+00
        -11   -1    0    0    0    0  0.00000000000E+00  0.00000000000E+00  0.45593999997E+02  0.45594000000E+02  0.51100000000E-03 0.  1.
         11   -1    0    0    0    0 -0.00000000000E+00 -0.00000000000E+00 -0.45593999997E+02  0.45594000000E+02  0.51100000000E-03 0. -1.
    9900012    2    1    2    0    0 -0.42678043152E+02  0.13763122128E+02  0.42748660253E+01  0.46142318992E+02  0.10000011224E+02 0.  0.
         12    1    1    2    0    0  0.42678043152E+02 -0.13763122128E+02 -0.42748660253E+01  0.45045681008E+02  0.00000000000E+00 0. -1.
         11    1    3    3    0    0 -0.25108782414E+01 -0.66798042503E+00  0.76836878425E-01  0.25993482949E+01  0.51100000000E-03 0. -1.
        -11    1    3    3    0    0 -0.90994725318E+01  0.22638933456E+01 -0.20484310497E+01  0.95980041396E+01  0.51100000000E-03 0.  1.
         12    1    3    3    0    0 -0.31067692378E+02  0.12167209207E+02  0.62464601966E+01  0.33944966557E+02  0.00000000000E+00 0. -1.
</event>
<event>
 7    1  0.2323330E-008  0.4614232E+02  0.7816164E-02  0.1320468E+00
        -11   -1    0    0    0    0  0.00000000000E+00  0.00000000000E+00  0.45593999997E+02  0.45594000000E+02  0.51100000000E-03 0.  1.
         11   -1    0    0    0    0 -0.00000000000E+00 -0.00000000000E+00 -0.45593999997E+02  0.45594000000E+02  0.51100000000E-03 0. -1.
    9900012    2    1    2    0    0 -0.28233936014E+01  0.36176503494E+02  0.26690873009E+02  0.46142315873E+02  0.99999827830E+01 0.  0.
         12    1    1    2    0    0  0.28233936014E+01 -0.36176503494E+02 -0.26690873009E+02  0.45045684127E+02  0.00000000000E+00 0. -1.
         11    1    3    3    0    0 -0.18142302704E+01  0.12526056247E+02  0.53117103977E+01  0.13726171505E+02  0.51100000000E-03 0. -1.
        -11    1    3    3    0    0  0.16165871509E+01  0.24866886110E+01  0.34938241322E+01  0.45829882819E+01  0.51100000000E-03 0.  1.
         12    1    3    3    0    0 -0.26257504819E+01  0.21163758636E+02  0.17885338479E+02  0.27833156086E+02  0.00000000000E+00 0. -1.
</event>
<event>
 7    1  0.2323330E-008  0.4614232E+02  0.7816164E-02  0.1320468E+00
        -11   -1    0    0    0    0  0.00000000000E+00  0.00000000000E+00  0.45593999997E+02  0.45594000000E+02  0.51100000000E-03 0.  1.
         11   -1    0    0    0    0 -0.00000000000E+00 -0.00000000000E+00 -0.45593999997E+02  0.45594000000E+02  0.51100000000E-03 0. -1.
    9900012    2    1    2    0    0  0.33804768818E+02 -0.22109500872E+01  0.29689439235E+02  0.46142317663E+02  0.99999991036E+01 0.  0.
         12    1    1    2    0    0 -0.33804768818E+02  0.22109500872E+01 -0.29689439235E+02  0.45045682337E+02  0.00000000000E+00 0. -1.
         11    1    3    3    0    0  0.59866552512E+01 -0.78458843766E+00  0.34961011408E+01  0.69769867107E+01  0.51100000000E-03 0. -1.
        -11    1    3    3    0    0  0.18799959443E+02 -0.21365615846E+01  0.12235464961E+02  0.22532420498E+02  0.51100000000E-03 0.  1.
         12    1    3    3    0    0  0.90181541245E+01  0.71019993507E+00  0.13957873133E+02  0.16632910454E+02  0.00000000000E+00 0. -1.
</event>
<event>
 7    1  0.2323330E-008  0.4614232E+02  0.7816164E-02  0.1320468E+00
        -11   -1    0    0    0    0  0.00000000000E+00  0.00000000000E+00  0.45593999997E+02  0.45594000000E+02  0.51100000000E-03 0.  1.
         11   -1    0    0    0    0 -0.00000000000E+00 -0.00000000000E+00 -0.45593999997E+02  0.45594000000E+02  0.51100000000E-03 0. -1.
    9900012    2    1    2    0    0 -0.43020660205E+02 -0.76070001961E+01  0.10975872373E+02  0.46142318400E+02  0.10000005830E+02 0.  0.
         12    1    1    2    0    0  0.43020660205E+02  0.76070001961E+01 -0.10975872373E+02  0.45045681600E+02  0.00000000000E+00 0. -1.
         11    1    3    3    0    0 -0.17510915885E+02 -0.50283211808E+01  0.66217434014E+01  0.19384624705E+02  0.51100000000E-03 0. -1.
        -11    1    3    3    0    0 -0.42008719764E+01  0.18552618015E+01  0.13460720141E+01  0.47855231524E+01  0.51100000000E-03 0.  1.
        -12    1    3    3    0    0 -0.21308872343E+02 -0.44339408168E+01  0.30080569575E+01  0.21972170543E+02  0.00000000000E+00 0.  1.
</event>
<event>
 7    1  0.2323330E-008  0.4614232E+02  0.7816164E-02  0.1320468E+00
        -11   -1    0    0    0    0  0.00000000000E+00  0.00000000000E+00  0.45593999997E+02  0.45594000000E+02  0.51100000000E-03 0.  1.
         11   -1    0    0    0    0 -0.00000000000E+00 -0.00000000000E+00 -0.45593999997E+02  0.45594000000E+02  0.51100000000E-03 0. -1.
    9900012    2    1    2    0    0 -0.37169393781E+02 -0.18441236453E+02  0.17534831919E+02  0.46142319115E+02  0.10000012347E+02 0.  0.
         12    1    1    2    0    0  0.37169393781E+02  0.18441236453E+02 -0.17534831919E+02  0.45045680885E+02  0.00000000000E+00 0. -1.
         11    1    3    3    0    0 -0.95735277624E+01 -0.49528046482E+01  0.43886620929E+01  0.11638000813E+02  0.51100000000E-03 0. -1.
        -11    1    3    3    0    0 -0.23324493308E+02 -0.99120841413E+01  0.71781048413E+01  0.26340208607E+02  0.51100000000E-03 0.  1.
         12    1    3    3    0    0 -0.42713727103E+01 -0.35763476637E+01  0.59680649852E+01  0.81641096949E+01  0.00000000000E+00 0. -1.
</event>
<event>
 7    1  0.2817477E-008  0.4614232E+02  0.7816164E-02  0.1320468E+00
        -11   -1    0    0    0    0  0.00000000000E+00  0.00000000000E+00  0.45593999997E+02  0.45594000000E+02  0.51100000000E-03 0. -1.
         11   -1    0    0    0    0 -0.00000000000E+00 -0.00000000000E+00 -0.45593999997E+02  0.45594000000E+02  0.51100000000E-03 0.  1.
    9900012    2    1    2    0    0  0.20822098580E+02 -0.39884364371E+02  0.21889013213E+01  0.46142316527E+02  0.99999887501E+01 0.  0.
         12    1    1    2    0    0 -0.20822098580E+02  0.39884364371E+02 -0.21889013213E+01  0.45045683473E+02  0.00000000000E+00 0. -1.
         11    1    3    3    0    0  0.60488263623E+01 -0.88250850674E+01  0.23374987651E+01  0.10951453216E+02  0.51100000000E-03 0.  1.
        -11    1    3    3    0    0  0.11818271549E+02 -0.20769226488E+02  0.28686959364E+01  0.24067856738E+02  0.51100000000E-03 0. -1.
         12    1    3    3    0    0  0.29550006689E+01 -0.10290052815E+02 -0.30172933802E+01  0.11123006574E+02  0.00000000000E+00 0. -1.
</event>
<event>
 7    1  0.2323330E-008  0.4614232E+02  0.7816164E-02  0.1320468E+00
        -11   -1    0    0    0    0  0.00000000000E+00  0.00000000000E+00  0.45593999997E+02  0.45594000000E+02  0.51100000000E-03 0.  1.
         11   -1    0    0    0    0 -0.00000000000E+00 -0.00000000000E+00 -0.45593999997E+02  0.45594000000E+02  0.51100000000E-03 0. -1.
    9900012    2    1    2    0    0  0.19669830937E+01  0.43681867372E+02  0.10823077224E+02  0.46142316964E+02  0.99999927316E+01 0.  0.
         12    1    1    2    0    0 -0.19669830937E+01 -0.43681867372E+02 -0.10823077224E+02  0.45045683036E+02  0.00000000000E+00 0. -1.
         11    1    3    3    0    0  0.11582148819E+01  0.17063345253E+02 -0.97474276082E-02  0.17102611151E+02  0.51100000000E-03 0. -1.
        -11    1    3    3    0    0 -0.65652018110E+00  0.50542288804E+01  0.36294929783E+01  0.62569535610E+01  0.51100000000E-03 0.  1.
         12    1    3    3    0    0  0.14652883929E+01  0.21564293239E+02  0.72033316732E+01  0.22782752252E+02  0.00000000000E+00 0. -1.
</event>
<event>
 7    1  0.2323330E-008  0.4614232E+02  0.7816164E-02  0.1320468E+00
        -11   -1    0    0    0    0  0.00000000000E+00  0.00000000000E+00  0.45593999997E+02  0.45594000000E+02  0.51100000000E-03 0.  1.
         11   -1    0    0    0    0 -0.00000000000E+00 -0.00000000000E+00 -0.45593999997E+02  0.45594000000E+02  0.51100000000E-03 0. -1.
    9900012    2    1    2    0    0 -0.23204487952E+02  0.27065531880E+02  0.27534020413E+02  0.46142316997E+02  0.99999930367E+01 0.  0.
         12    1    1    2    0    0  0.23204487952E+02 -0.27065531880E+02 -0.27534020413E+02  0.45045683003E+02  0.00000000000E+00 0. -1.
         11    1    3    3    0    0 -0.20339404710E+02  0.19502533390E+02  0.20082335844E+02  0.34602606921E+02  0.51100000000E-03 0. -1.
        -11    1    3    3    0    0 -0.34530738243E+01  0.68898120749E+01  0.57424496573E+01  0.96108770459E+01  0.51100000000E-03 0.  1.
         12    1    3    3    0    0  0.58799058190E+00  0.67318641558E+00  0.17092349120E+01  0.19288330303E+01  0.00000000000E+00 0. -1.
</event>
<event>
 7    1  0.2323330E-008  0.4614232E+02  0.7816164E-02  0.1320468E+00
        -11   -1    0    0    0    0  0.00000000000E+00  0.00000000000E+00  0.45593999997E+02  0.45594000000E+02  0.51100000000E-03 0.  1.
         11   -1    0    0    0    0 -0.00000000000E+00 -0.00000000000E+00 -0.45593999997E+02  0.45594000000E+02  0.51100000000E-03 0. -1.
    9900012    2    1    2    0    0  0.22287314161E+01 -0.36628380611E+02  0.26124852689E+02  0.46142318321E+02  0.10000005109E+02 0.  0.
         12    1    1    2    0    0 -0.22287314161E+01  0.36628380611E+02 -0.26124852689E+02  0.45045681679E+02  0.00000000000E+00 0. -1.
         11    1    3    3    0    0  0.23413039912E+00 -0.24548479657E+02  0.15622451114E+02  0.29098859937E+02  0.51100000000E-03 0. -1.
        -11    1    3    3    0    0  0.36966110289E+01 -0.10375477961E+02  0.86027351343E+01  0.13975783630E+02  0.51100000000E-03 0.  1.
         12    1    3    3    0    0 -0.17020100119E+01 -0.17044229922E+01  0.18996664405E+01  0.30676747549E+01  0.00000000000E+00 0. -1.
</event>
<event>
 7    1  0.2323330E-008  0.4614232E+02  0.7816164E-02  0.1320468E+00
        -11   -1    0    0    0    0  0.00000000000E+00  0.00000000000E+00  0.45593999997E+02  0.45594000000E+02  0.51100000000E-03 0.  1.
         11   -1    0    0    0    0 -0.00000000000E+00 -0.00000000000E+00 -0.45593999997E+02  0.45594000000E+02  0.51100000000E-03 0. -1.
    9900012    2    1    2    0    0 -0.18688292584E+02 -0.27596963036E+02  0.30302951711E+02  0.46142317289E+02  0.99999956953E+01 0.  0.
         12    1    1    2    0    0  0.18688292584E+02  0.27596963036E+02 -0.30302951711E+02  0.45045682711E+02  0.00000000000E+00 0. -1.
         11    1    3    3    0    0 -0.53394845788E+01 -0.16517895692E+02  0.14592840551E+02  0.22678226766E+02  0.51100000000E-03 0.  1.
        -11    1    3    3    0    0 -0.27493240366E+01 -0.18441523928E+01  0.22629014481E+01  0.40100378964E+01  0.51100000000E-03 0. -1.
        -12    1    3    3    0    0 -0.10599483968E+02 -0.92349149513E+01  0.13447209712E+02  0.19454052626E+02  0.00000000000E+00 0.  1.
</event>
<event>
 7    1  0.2323330E-008  0.4614232E+02  0.7816164E-02  0.1320468E+00
        -11   -1    0    0    0    0  0.00000000000E+00  0.00000000000E+00  0.45593999997E+02  0.45594000000E+02  0.51100000000E-03 0.  1.
         11   -1    0    0    0    0 -0.00000000000E+00 -0.00000000000E+00 -0.45593999997E+02  0.45594000000E+02  0.51100000000E-03 0. -1.
    9900012    2    1    2    0    0 -0.10127159498E+02 -0.21031167167E+02  0.38525889672E+02  0.46142317333E+02  0.99999960936E+01 0.  0.
         12    1    1    2    0    0  0.10127159498E+02  0.21031167167E+02 -0.38525889672E+02  0.45045682667E+02  0.00000000000E+00 0. -1.
         11    1    3    3    0    0 -0.51650297344E+00  0.70076522797E+00  0.20659802031E+01  0.22419013553E+01  0.51100000000E-03 0. -1.
        -11    1    3    3    0    0 -0.45045891472E+01 -0.14911685973E+02  0.26984940751E+02  0.31158252993E+02  0.51100000000E-03 0.  1.
         12    1    3    3    0    0 -0.51060673775E+01 -0.68202464221E+01  0.94749687177E+01  0.12742162984E+02  0.00000000000E+00 0. -1.
</event>
<event>
 7    1  0.2323330E-008  0.4614232E+02  0.7816164E-02  0.1320468E+00
        -11   -1    0    0    0    0  0.00000000000E+00  0.00000000000E+00  0.45593999997E+02  0.45594000000E+02  0.51100000000E-03 0.  1.
         11   -1    0    0    0    0 -0.00000000000E+00 -0.00000000000E+00 -0.45593999997E+02  0.45594000000E+02  0.51100000000E-03 0. -1.
    9900012    2    1    2    0    0  0.11452939665E+02 -0.25753488209E+02  0.35138319551E+02  0.46142317823E+02  0.10000000568E+02 0.  0.
         12    1    1    2    0    0 -0.11452939665E+02  0.25753488209E+02 -0.35138319551E+02  0.45045682177E+02  0.00000000000E+00 0. -1.
         11    1    3    3    0    0  0.28209437498E-01  0.42002038020E+00  0.11237664838E+01  0.12000267761E+01  0.51100000000E-03 0. -1.
        -11    1    3    3    0    0  0.86881855597E+01 -0.20344778857E+02  0.21399001128E+02  0.30778431484E+02  0.51100000000E-03 0.  1.
        -12    1    3    3    0    0  0.27365446680E+01 -0.58287297320E+01  0.12615551939E+02  0.14163859564E+02  0.00000000000E+00 0.  1.
</event>
<event>
 7    1  0.2323330E-008  0.4614232E+02  0.7816164E-02  0.1320468E+00
        -11   -1    0    0    0    0  0.00000000000E+00  0.00000000000E+00  0.45593999997E+02  0.45594000000E+02  0.51100000000E-03 0.  1.
         11   -1    0    0    0    0 -0.00000000000E+00 -0.00000000000E+00 -0.45593999997E+02  0.45594000000E+02  0.51100000000E-03 0. -1.
    9900012    2    1    2    0    0  0.26529013651E+02  0.23468851047E+02  0.27830521459E+02  0.46142318083E+02  0.10000002931E+02 0.  0.
         12    1    1    2    0    0 -0.26529013651E+02 -0.23468851047E+02 -0.27830521459E+02  0.45045681917E+02  0.00000000000E+00 0. -1.
         11    1    3    3    0    0  0.86831457734E+00  0.19897076623E+01 -0.39093376933E+00  0.22058413950E+01  0.51100000000E-03 0. -1.
        -11    1    3    3    0    0  0.10722001558E+02  0.82628741951E+01  0.91399826412E+01  0.16333269431E+02  0.51100000000E-03 0.  1.
        -12    1    3    3    0    0  0.14938697516E+02  0.13216269189E+02  0.19081472587E+02  0.27603207256E+02  0.00000000000E+00 0.  1.
</event>
<event>
 7    1  0.2323330E-008  0.4614232E+02  0.7816164E-02  0.1320468E+00
        -11   -1    0    0    0    0  0.00000000000E+00  0.00000000000E+00  0.45593999997E+02  0.45594000000E+02  0.51100000000E-03 0. -1.
         11   -1    0    0    0    0 -0.00000000000E+00 -0.00000000000E+00 -0.45593999997E+02  0.45594000000E+02  0.51100000000E-03 0.  1.
    9900012    2    1    2    0    0 -0.43308790727E+02  0.88593505038E+01  0.86587458426E+01  0.46142319573E+02  0.10000016524E+02 0.  0.
         12    1    1    2    0    0  0.43308790727E+02 -0.88593505038E+01 -0.86587458426E+01  0.45045680427E+02  0.00000000000E+00 0. -1.
         11    1    3    3    0    0 -0.14277883653E+02  0.20179843579E+01  0.52616697932E+00  0.14429382330E+02  0.51100000000E-03 0. -1.
        -11    1    3    3    0    0 -0.11830375055E+02  0.52239507027E+01  0.83761447514E+00  0.12959515159E+02  0.51100000000E-03 0.  1.
         12    1    3    3    0    0 -0.17200532019E+02  0.16174154432E+01  0.72949643882E+01  0.18753422084E+02  0.00000000000E+00 0. -1.
</event>
<event>
 7    1  0.2323330E-008  0.4614232E+02  0.7816164E-02  0.1320468E+00
        -11   -1    0    0    0    0  0.00000000000E+00  0.00000000000E+00  0.45593999997E+02  0.45594000000E+02  0.51100000000E-03 0.  1.
         11   -1    0    0    0    0 -0.00000000000E+00 -0.00000000000E+00 -0.45593999997E+02  0.45594000000E+02  0.51100000000E-03 0. -1.
    9900012    2    1    2    0    0  0.42403417435E+02  0.26187323688E+01  0.14973506713E+02  0.46142317936E+02  0.10000001593E+02 0.  0.
         12    1    1    2    0    0 -0.42403417435E+02 -0.26187323688E+01 -0.14973506713E+02  0.45045682064E+02  0.00000000000E+00 0. -1.
         11    1    3    3    0    0  0.13041522615E+02  0.40400373207E+01  0.83598426054E+01  0.16009065629E+02  0.51100000000E-03 0. -1.
        -11    1    3    3    0    0  0.16295392423E+02 -0.68360093900E+00  0.38192434549E+01  0.16750932670E+02  0.51100000000E-03 0.  1.
         12    1    3    3    0    0  0.13066502397E+02 -0.73770401285E+00  0.27944206522E+01  0.13382319637E+02  0.00000000000E+00 0. -1.
</event>
<event>
 7    1  0.2323330E-008  0.4614232E+02  0.7816164E-02  0.1320468E+00
        -11   -1    0    0    0    0  0.00000000000E+00  0.00000000000E+00  0.45593999997E+02  0.45594000000E+02  0.51100000000E-03 0. -1.
         11   -1    0    0    0    0 -0.00000000000E+00 -0.00000000000E+00 -0.45593999997E+02  0.45594000000E+02  0.51100000000E-03 0.  1.
    9900012    2    1    2    0    0 -0.31660323951E+02  0.18202196004E+02 -0.26370768284E+02  0.46142317943E+02  0.10000001659E+02 0.  0.
         12    1    1    2    0    0  0.31660323951E+02 -0.18202196004E+02  0.26370768284E+02  0.45045682057E+02  0.00000000000E+00 0. -1.
         11    1    3    3    0    0 -0.27258035589E-01  0.18538119406E+01 -0.45479263879E+00  0.19089783438E+01  0.51100000000E-03 0. -1.
        -11    1    3    3    0    0 -0.22048029163E+01  0.54721105857E-01 -0.17306973145E+01  0.28034735159E+01  0.51100000000E-03 0.  1.
        -12    1    3    3    0    0 -0.29428262999E+02  0.16293662958E+02 -0.24185278331E+02  0.41429866083E+02  0.00000000000E+00 0.  1.
</event>
<event>
 7    1  0.2323330E-008  0.4614232E+02  0.7816164E-02  0.1320468E+00
        -11   -1    0    0    0    0  0.00000000000E+00  0.00000000000E+00  0.45593999997E+02  0.45594000000E+02  0.51100000000E-03 0.  1.
         11   -1    0    0    0    0 -0.00000000000E+00 -0.00000000000E+00 -0.45593999997E+02  0.45594000000E+02  0.51100000000E-03 0. -1.
    9900012    2    1    2    0    0  0.43237985167E+02 -0.12038634696E+02  0.38289998233E+01  0.46142319560E+02  0.10000016405E+02 0.  0.
         12    1    1    2    0    0 -0.43237985167E+02  0.12038634696E+02 -0.38289998233E+01  0.45045680440E+02  0.00000000000E+00 0. -1.
         11    1    3    3    0    0  0.49892118604E+01 -0.41633681942E+01  0.48173216688E+00  0.65159754336E+01  0.51100000000E-03 0. -1.
        -11    1    3    3    0    0  0.10938161627E+02 -0.95814612544E+00 -0.13560929492E+01  0.11063471974E+02  0.51100000000E-03 0.  1.
        -12    1    3    3    0    0  0.27310611680E+02 -0.69171203766E+01  0.47033606056E+01  0.28562872153E+02  0.00000000000E+00 0.  1.
</event>
<event>
 7    1  0.2323330E-008  0.4614232E+02  0.7816164E-02  0.1320468E+00
        -11   -1    0    0    0    0  0.00000000000E+00  0.00000000000E+00  0.45593999997E+02  0.45594000000E+02  0.51100000000E-03 0.  1.
         11   -1    0    0    0    0 -0.00000000000E+00 -0.00000000000E+00 -0.45593999997E+02  0.45594000000E+02  0.51100000000E-03 0. -1.
    9900012    2    1    2    0    0 -0.41503156906E+01  0.49442243939E+01  0.44580745639E+02  0.46142319220E+02  0.10000013308E+02 0.  0.
         12    1    1    2    0    0  0.41503156906E+01 -0.49442243939E+01 -0.44580745639E+02  0.45045680780E+02  0.00000000000E+00 0. -1.
         11    1    3    3    0    0 -0.78765413000E+00 -0.11751617575E+01  0.29187171359E+01  0.32435033783E+01  0.51100000000E-03 0. -1.
        -11    1    3    3    0    0 -0.52549099451E+01  0.52450321968E+01  0.37676586659E+02  0.38401166959E+02  0.51100000000E-03 0.  1.
         12    1    3    3    0    0  0.18922483845E+01  0.87435395459E+00  0.39854418440E+01  0.44976488834E+01  0.00000000000E+00 0. -1.
</event>
<event>
 7    1  0.2323330E-008  0.4614232E+02  0.7816164E-02  0.1320468E+00
        -11   -1    0    0    0    0  0.00000000000E+00  0.00000000000E+00  0.45593999997E+02  0.45594000000E+02  0.51100000000E-03 0. -1.
         11   -1    0    0    0    0 -0.00000000000E+00 -0.00000000000E+00 -0.45593999997E+02  0.45594000000E+02  0.51100000000E-03 0.  1.
    9900012    2    1    2    0    0 -0.54187747063E+01  0.43828476265E+02 -0.88777679458E+01  0.46142320798E+02  0.10000027696E+02 0.  0.
         12    1    1    2    0    0  0.54187747063E+01 -0.43828476265E+02  0.88777679458E+01  0.45045679202E+02  0.00000000000E+00 0. -1.
         11    1    3    3    0    0 -0.14101596106E+01  0.80227245774E+01 -0.43266205654E+01  0.92234649427E+01  0.51100000000E-03 0. -1.
        -11    1    3    3    0    0 -0.32554958161E+00  0.27645970142E+02 -0.41478118589E+01  0.27957288694E+02  0.51100000000E-03 0.  1.
        -12    1    3    3    0    0 -0.36830655140E+01  0.81597815453E+01 -0.40333552159E+00  0.89615671615E+01  0.00000000000E+00 0.  1.
</event>
<event>
 7    1  0.2323330E-008  0.4614232E+02  0.7816164E-02  0.1320468E+00
        -11   -1    0    0    0    0  0.00000000000E+00  0.00000000000E+00  0.45593999997E+02  0.45594000000E+02  0.51100000000E-03 0.  1.
         11   -1    0    0    0    0 -0.00000000000E+00 -0.00000000000E+00 -0.45593999997E+02  0.45594000000E+02  0.51100000000E-03 0. -1.
    9900012    2    1    2    0    0  0.42428582675E+02  0.13293670874E+02 -0.72254546450E+01  0.46142317544E+02  0.99999980167E+01 0.  0.
         12    1    1    2    0    0 -0.42428582675E+02 -0.13293670874E+02  0.72254546450E+01  0.45045682456E+02  0.00000000000E+00 0. -1.
         11    1    3    3    0    0  0.76326796193E+01  0.35592293168E+01  0.14654489426E+01  0.85483011392E+01  0.51100000000E-03 0. -1.
        -11    1    3    3    0    0  0.20624261104E+02  0.39406746832E+01 -0.27722197516E+01  0.21179571895E+02  0.51100000000E-03 0.  1.
         12    1    3    3    0    0  0.14171641952E+02  0.57937668736E+01 -0.59186838361E+01  0.16414444510E+02  0.00000000000E+00 0. -1.
</event>
<event>
 7    1  0.2323330E-008  0.4614232E+02  0.7816164E-02  0.1320468E+00
        -11   -1    0    0    0    0  0.00000000000E+00  0.00000000000E+00  0.45593999997E+02  0.45594000000E+02  0.51100000000E-03 0.  1.
         11   -1    0    0    0    0 -0.00000000000E+00 -0.00000000000E+00 -0.45593999997E+02  0.45594000000E+02  0.51100000000E-03 0. -1.
    9900012    2    1    2    0    0  0.91744592118E+01 -0.12087546005E+02  0.42412662343E+02  0.46142318772E+02  0.10000009222E+02 0.  0.
         12    1    1    2    0    0 -0.91744592118E+01  0.12087546005E+02 -0.42412662343E+02  0.45045681228E+02  0.00000000000E+00 0. -1.
         11    1    3    3    0    0  0.80081913208E+01 -0.59321238413E+01  0.26138113172E+02  0.27973597945E+02  0.51100000000E-03 0. -1.
        -11    1    3    3    0    0  0.17528238906E+01 -0.60643097720E+01  0.97364851990E+01  0.11603766151E+02  0.51100000000E-03 0.  1.
         12    1    3    3    0    0 -0.58655599958E+00 -0.91112391946E-01  0.65380639715E+01  0.65649546765E+01  0.00000000000E+00 0. -1.
</event>
<event>
 7    1  0.2323330E-008  0.4614232E+02  0.7816164E-02  0.1320468E+00
        -11   -1    0    0    0    0  0.00000000000E+00  0.00000000000E+00  0.45593999997E+02  0.45594000000E+02  0.51100000000E-03 0.  1.
         11   -1    0    0    0    0 -0.00000000000E+00 -0.00000000000E+00 -0.45593999997E+02  0.45594000000E+02  0.51100000000E-03 0. -1.
    9900012    2    1    2    0    0 -0.16914385036E+02  0.35603996730E+02  0.21803038259E+02  0.46142317836E+02  0.10000000681E+02 0.  0.
         12    1    1    2    0    0  0.16914385036E+02 -0.35603996730E+02 -0.21803038259E+02  0.45045682164E+02  0.00000000000E+00 0. -1.
         11    1    3    3    0    0 -0.16143730836E+01  0.32013901039E+01  0.34455556072E+01  0.49726203106E+01  0.51100000000E-03 0. -1.
        -11    1    3    3    0    0 -0.12560282800E+02  0.17460826026E+02  0.89159712454E+01  0.23283807529E+02  0.51100000000E-03 0.  1.
        -12    1    3    3    0    0 -0.27397291532E+01  0.14941780600E+02  0.94415114066E+01  0.17885889996E+02  0.00000000000E+00 0.  1.
</event>
<event>
 7    1  0.2323330E-008  0.4614232E+02  0.7816164E-02  0.1320468E+00
        -11   -1    0    0    0    0  0.00000000000E+00  0.00000000000E+00  0.45593999997E+02  0.45594000000E+02  0.51100000000E-03 0. -1.
         11   -1    0    0    0    0 -0.00000000000E+00 -0.00000000000E+00 -0.45593999997E+02  0.45594000000E+02  0.51100000000E-03 0.  1.
    9900012    2    1    2    0    0  0.50591364397E+01 -0.95116353129E-01 -0.44760582712E+02  0.46142315708E+02  0.99999812747E+01 0.  0.
         12    1    1    2    0    0 -0.50591364397E+01  0.95116353129E-01  0.44760582712E+02  0.45045684292E+02  0.00000000000E+00 0. -1.
         11    1    3    3    0    0 -0.60770592256E-01 -0.26247930988E+00 -0.98907273818E-01  0.28700411658E+00  0.51100000000E-03 0. -1.
        -11    1    3    3    0    0  0.57974254182E+01  0.21501730297E+01 -0.16578405170E+02  0.17693979309E+02  0.51100000000E-03 0.  1.
        -12    1    3    3    0    0 -0.67751838626E+00 -0.19828100729E+01 -0.28083270268E+02  0.28161332282E+02  0.00000000000E+00 0.  1.
</event>
<event>
 7    1  0.2323330E-008  0.4614232E+02  0.7816164E-02  0.1320468E+00
        -11   -1    0    0    0    0  0.00000000000E+00  0.00000000000E+00  0.45593999997E+02  0.45594000000E+02  0.51100000000E-03 0.  1.
         11   -1    0    0    0    0 -0.00000000000E+00 -0.00000000000E+00 -0.45593999997E+02  0.45594000000E+02  0.51100000000E-03 0. -1.
    9900012    2    1    2    0    0  0.28819550793E+02 -0.92410344508E+01  0.33363906228E+02  0.46142318027E+02  0.10000002426E+02 0.  0.
         12    1    1    2    0    0 -0.28819550793E+02  0.92410344508E+01 -0.33363906228E+02  0.45045681973E+02  0.00000000000E+00 0. -1.
         11    1    3    3    0    0  0.12091412379E+02 -0.40798804143E+01  0.18516218741E+02  0.22487730749E+02  0.51100000000E-03 0. -1.
        -11    1    3    3    0    0  0.14533721993E+02 -0.50791695062E+01  0.14945021256E+02  0.21456483832E+02  0.51100000000E-03 0.  1.
         12    1    3    3    0    0  0.21944164219E+01 -0.81984530319E-01 -0.97333769956E-01  0.21981034458E+01  0.00000000000E+00 0. -1.
</event>
<event>
 7    1  0.2323330E-008  0.4614232E+02  0.7816164E-02  0.1320468E+00
        -11   -1    0    0    0    0  0.00000000000E+00  0.00000000000E+00  0.45593999997E+02  0.45594000000E+02  0.51100000000E-03 0. -1.
         11   -1    0    0    0    0 -0.00000000000E+00 -0.00000000000E+00 -0.45593999997E+02  0.45594000000E+02  0.51100000000E-03 0.  1.
    9900012    2    1    2    0    0 -0.41359986047E+02 -0.13836337759E+02 -0.11270350528E+02  0.46142317749E+02  0.99999998936E+01 0.  0.
         12    1    1    2    0    0  0.41359986047E+02  0.13836337759E+02  0.11270350528E+02  0.45045682251E+02  0.00000000000E+00 0. -1.
         11    1    3    3    0    0 -0.61885239047E+01 -0.30219746018E+01 -0.29409511490E+01  0.74886148609E+01  0.51100000000E-03 0. -1.
        -11    1    3    3    0    0 -0.16362009799E+02 -0.67309264206E+00 -0.37207245113E+01  0.16793219153E+02  0.51100000000E-03 0.  1.
         12    1    3    3    0    0 -0.18809452343E+02 -0.10141270515E+02 -0.46086748677E+01  0.21860483735E+02  0.00000000000E+00 0. -1.
</event>
<event>
 7    1  0.2323330E-008  0.4614232E+02  0.7816164E-02  0.1320468E+00
        -11   -1    0    0    0    0  0.00000000000E+00  0.00000000000E+00  0.45593999997E+02  0.45594000000E+02  0.51100000000E-03 0.  1.
         11   -1    0    0    0    0 -0.00000000000E+00 -0.00000000000E+00 -0.45593999997E+02  0.45594000000E+02  0.51100000000E-03 0. -1.
    9900012    2    1    2    0    0  0.12522205014E+02 -0.39686028480E+02  0.17243171757E+02  0.46142318218E+02  0.10000004167E+02 0.  0.
         12    1    1    2    0    0 -0.12522205014E+02  0.39686028480E+02 -0.17243171757E+02  0.45045681782E+02  0.00000000000E+00 0. -1.
         11    1    3    3    0    0  0.56565015864E+01 -0.29954315199E+02  0.10811368954E+02  0.32344129424E+02  0.51100000000E-03 0. -1.
        -11    1    3    3    0    0  0.20549152196E+01 -0.26587153959E+01  0.52042871418E+00  0.34003368103E+01  0.51100000000E-03 0.  1.
         12    1    3    3    0    0  0.48107882075E+01 -0.70729978851E+01  0.59113740892E+01  0.10397851984E+02  0.00000000000E+00 0. -1.
</event>
<event>
 7    1  0.2323330E-008  0.4614231E+02  0.7816164E-02  0.1320468E+00
        -11   -1    0    0    0    0  0.00000000000E+00  0.00000000000E+00  0.45593999997E+02  0.45594000000E+02  0.51100000000E-03 0. -1.
         11   -1    0    0    0    0 -0.00000000000E+00 -0.00000000000E+00 -0.45593999997E+02  0.45594000000E+02  0.51100000000E-03 0.  1.
    9900012    2    1    2    0    0 -0.26461187700E+02 -0.80555892969E+01 -0.35553154917E+02  0.46142314324E+02  0.99999686594E+01 0.  0.
         12    1    1    2    0    0  0.26461187700E+02  0.80555892969E+01  0.35553154917E+02  0.45045685676E+02  0.00000000000E+00 0. -1.
         11    1    3    3    0    0 -0.13359257686E+02 -0.28922314038E+01 -0.12299182094E+02  0.18387622165E+02  0.51100000000E-03 0. -1.
        -11    1    3    3    0    0 -0.11133018557E+02 -0.30328237101E+01 -0.14489744936E+02  0.18522819181E+02  0.51100000000E-03 0.  1.
        -12    1    3    3    0    0 -0.19689114568E+01 -0.21305341831E+01 -0.87642278872E+01  0.92318729784E+01  0.00000000000E+00 0.  1.
</event>
<event>
 7    1  0.2323330E-008  0.4614232E+02  0.7816164E-02  0.1320468E+00
        -11   -1    0    0    0    0  0.00000000000E+00  0.00000000000E+00  0.45593999997E+02  0.45594000000E+02  0.51100000000E-03 0. -1.
         11   -1    0    0    0    0 -0.00000000000E+00 -0.00000000000E+00 -0.45593999997E+02  0.45594000000E+02  0.51100000000E-03 0.  1.
    9900012    2    1    2    0    0  0.35689382489E+02  0.93959353320E+00 -0.27468139525E+02  0.46142317105E+02  0.99999940194E+01 0.  0.
         12    1    1    2    0    0 -0.35689382489E+02 -0.93959353320E+00  0.27468139525E+02  0.45045682895E+02  0.00000000000E+00 0. -1.
         11    1    3    3    0    0  0.56165420912E+01 -0.16239389754E+01 -0.43354842853E+01  0.72786775658E+01  0.51100000000E-03 0. -1.
        -11    1    3    3    0    0  0.13509134704E+02 -0.23290479557E+01 -0.12693132059E+02  0.18682526235E+02  0.51100000000E-03 0.  1.
         12    1    3    3    0    0  0.16563705694E+02  0.48925804643E+01 -0.10439523181E+02  0.20181113304E+02  0.00000000000E+00 0. -1.
</event>
<event>
 7    1  0.2323330E-008  0.4614232E+02  0.7816164E-02  0.1320468E+00
        -11   -1    0    0    0    0  0.00000000000E+00  0.00000000000E+00  0.45593999997E+02  0.45594000000E+02  0.51100000000E-03 0.  1.
         11   -1    0    0    0    0 -0.00000000000E+00 -0.00000000000E+00 -0.45593999997E+02  0.45594000000E+02  0.51100000000E-03 0. -1.
    9900012    2    1    2    0    0 -0.23275830591E+02  0.21504017157E+02  0.32014473807E+02  0.46142316780E+02  0.99999910561E+01 0.  0.
         12    1    1    2    0    0  0.23275830591E+02 -0.21504017157E+02 -0.32014473807E+02  0.45045683220E+02  0.00000000000E+00 0. -1.
         11    1    3    3    0    0 -0.63218373984E+01  0.67708620864E+01  0.91536492352E+01  0.13023037129E+02  0.51100000000E-03 0. -1.
        -11    1    3    3    0    0 -0.79873122697E+01  0.12242093137E+02  0.13023051577E+02  0.19577177383E+02  0.51100000000E-03 0.  1.
         12    1    3    3    0    0 -0.89666809231E+01  0.24910619338E+01  0.98377729949E+01  0.13542102268E+02  0.00000000000E+00 0. -1.
</event>
<event>
 7    1  0.2323330E-008  0.4614232E+02  0.7816164E-02  0.1320468E+00
        -11   -1    0    0    0    0  0.00000000000E+00  0.00000000000E+00  0.45593999997E+02  0.45594000000E+02  0.51100000000E-03 0.  1.
         11   -1    0    0    0    0 -0.00000000000E+00 -0.00000000000E+00 -0.45593999997E+02  0.45594000000E+02  0.51100000000E-03 0. -1.
    9900012    2    1    2    0    0  0.13094149173E+02 -0.36330144757E+02  0.23190026306E+02  0.46142317846E+02  0.10000000774E+02 0.  0.
         12    1    1    2    0    0 -0.13094149173E+02  0.36330144757E+02 -0.23190026306E+02  0.45045682154E+02  0.00000000000E+00 0. -1.
         11    1    3    3    0    0  0.33743973322E+01 -0.11838096344E+02  0.73637159765E+01  0.14344036937E+02  0.51100000000E-03 0. -1.
        -11    1    3    3    0    0  0.77716687998E+01 -0.10943470011E+02  0.10760228919E+02  0.17202932845E+02  0.51100000000E-03 0.  1.
         12    1    3    3    0    0  0.19480830412E+01 -0.13548578402E+02  0.50660814103E+01  0.14595348064E+02  0.00000000000E+00 0. -1.
</event>
<event>
 7    1  0.2323330E-008  0.4614232E+02  0.7816164E-02  0.1320468E+00
        -11   -1    0    0    0    0  0.00000000000E+00  0.00000000000E+00  0.45593999997E+02  0.45594000000E+02  0.51100000000E-03 0. -1.
         11   -1    0    0    0    0 -0.00000000000E+00 -0.00000000000E+00 -0.45593999997E+02  0.45594000000E+02  0.51100000000E-03 0.  1.
    9900012    2    1    2    0    0 -0.44017033500E+02 -0.94855427671E+01 -0.12801424600E+01  0.46142317361E+02  0.99999963478E+01 0.  0.
         12    1    1    2    0    0  0.44017033500E+02  0.94855427671E+01  0.12801424600E+01  0.45045682639E+02  0.00000000000E+00 0. -1.
         11    1    3    3    0    0 -0.29823185813E+02 -0.82765093405E+01  0.16460516676E+01  0.30994072098E+02  0.51100000000E-03 0. -1.
        -11    1    3    3    0    0 -0.95097874319E+01  0.53619260386E+00 -0.36551572922E+00  0.95319023032E+01  0.51100000000E-03 0.  1.
         12    1    3    3    0    0 -0.46840602557E+01 -0.17452260305E+01 -0.25606783984E+01  0.56163429593E+01  0.00000000000E+00 0. -1.
</event>
<event>
 7    1  0.2323330E-008  0.4614232E+02  0.7816164E-02  0.1320468E+00
        -11   -1    0    0    0    0  0.00000000000E+00  0.00000000000E+00  0.45593999997E+02  0.45594000000E+02  0.51100000000E-03 0. -1.
         11   -1    0    0    0    0 -0.00000000000E+00 -0.00000000000E+00 -0.45593999997E+02  0.45594000000E+02  0.51100000000E-03 0.  1.
    9900012    2    1    2    0    0 -0.39609953058E+02  0.21331396255E+02  0.22663909573E+01  0.46142319015E+02  0.10000011433E+02 0.  0.
         12    1    1    2    0    0  0.39609953058E+02 -0.21331396255E+02 -0.22663909573E+01  0.45045680985E+02  0.00000000000E+00 0. -1.
         11    1    3    3    0    0 -0.72163681026E+01  0.39639455786E+01  0.32722322835E+01  0.88598158852E+01  0.51100000000E-03 0. -1.
        -11    1    3    3    0    0 -0.17761429407E+01  0.43463825702E+00 -0.13829785916E+01  0.22926456783E+01  0.51100000000E-03 0.  1.
        -12    1    3    3    0    0 -0.30617442015E+02  0.16932812420E+02  0.37713726544E+00  0.34989857451E+02  0.00000000000E+00 0.  1.
</event>
<event>
 7    1  0.2323330E-008  0.4614232E+02  0.7816164E-02  0.1320468E+00
        -11   -1    0    0    0    0  0.00000000000E+00  0.00000000000E+00  0.45593999997E+02  0.45594000000E+02  0.51100000000E-03 0.  1.
         11   -1    0    0    0    0 -0.00000000000E+00 -0.00000000000E+00 -0.45593999997E+02  0.45594000000E+02  0.51100000000E-03 0. -1.
    9900012    2    1    2    0    0  0.32270522172E+02  0.61708237008E+01  0.30816356494E+02  0.46142317699E+02  0.99999994298E+01 0.  0.
         12    1    1    2    0    0 -0.32270522172E+02 -0.61708237008E+01 -0.30816356494E+02  0.45045682301E+02  0.00000000000E+00 0. -1.
         11    1    3    3    0    0  0.23384893654E+01  0.82342799094E+00  0.35239940661E+01  0.43087237794E+01  0.51100000000E-03 0. -1.
        -11    1    3    3    0    0  0.21745115075E+02  0.78786557824E+01  0.20296472281E+02  0.30771253368E+02  0.51100000000E-03 0.  1.
         12    1    3    3    0    0  0.81869177326E+01 -0.25312600726E+01  0.69958901473E+01  0.11062340551E+02  0.00000000000E+00 0. -1.
</event>
<event>
 7    1  0.2323330E-008  0.4614232E+02  0.7816164E-02  0.1320468E+00
        -11   -1    0    0    0    0  0.00000000000E+00  0.00000000000E+00  0.45593999997E+02  0.45594000000E+02  0.51100000000E-03 0. -1.
         11   -1    0    0    0    0 -0.00000000000E+00 -0.00000000000E+00 -0.45593999997E+02  0.45594000000E+02  0.51100000000E-03 0.  1.
    9900012    2    1    2    0    0 -0.22529223180E+02  0.32732560924E+02  0.21216197458E+02  0.46142317895E+02  0.10000001220E+02 0.  0.
         12    1    1    2    0    0  0.22529223180E+02 -0.32732560924E+02 -0.21216197458E+02  0.45045682105E+02  0.00000000000E+00 0. -1.
         11    1    3    3    0    0 -0.49626760089E+01  0.13731642471E+02  0.48364395671E+01  0.15381069731E+02  0.51100000000E-03 0. -1.
        -11    1    3    3    0    0 -0.17288335774E+02  0.18894160345E+02  0.15752690441E+02  0.30066976991E+02  0.51100000000E-03 0.  1.
         12    1    3    3    0    0 -0.27821139628E+00  0.10675810792E+00  0.62706744966E+00  0.69427117256E+00  0.00000000000E+00 0. -1.
</event>
<event>
 7    1  0.2323330E-008  0.4614232E+02  0.7816164E-02  0.1320468E+00
        -11   -1    0    0    0    0  0.00000000000E+00  0.00000000000E+00  0.45593999997E+02  0.45594000000E+02  0.51100000000E-03 0.  1.
         11   -1    0    0    0    0 -0.00000000000E+00 -0.00000000000E+00 -0.45593999997E+02  0.45594000000E+02  0.51100000000E-03 0. -1.
    9900012    2    1    2    0    0  0.14525753650E+02  0.86258765663E+01  0.41757755519E+02  0.46142318613E+02  0.10000007772E+02 0.  0.
         12    1    1    2    0    0 -0.14525753650E+02 -0.86258765663E+01 -0.41757755519E+02  0.45045681387E+02  0.00000000000E+00 0. -1.
         11    1    3    3    0    0  0.49801181116E+01  0.56373112202E+01  0.22795848364E+02  0.24004823621E+02  0.51100000000E-03 0. -1.
        -11    1    3    3    0    0  0.12222390742E+01  0.25371867731E+01  0.29058429566E+01  0.40466169359E+01  0.51100000000E-03 0.  1.
        -12    1    3    3    0    0  0.83233964639E+01  0.45137857292E+00  0.16056064198E+02  0.18090878056E+02  0.00000000000E+00 0.  1.
</event>
<event>
 7    1  0.2323330E-008  0.4614232E+02  0.7816164E-02  0.1320468E+00
        -11   -1    0    0    0    0  0.00000000000E+00  0.00000000000E+00  0.45593999997E+02  0.45594000000E+02  0.51100000000E-03 0.  1.
         11   -1    0    0    0    0 -0.00000000000E+00 -0.00000000000E+00 -0.45593999997E+02  0.45594000000E+02  0.51100000000E-03 0. -1.
    9900012    2    1    2    0    0 -0.27365561584E+02 -0.37154483322E+01  0.35587005346E+02  0.46142318003E+02  0.10000002205E+02 0.  0.
         12    1    1    2    0    0  0.27365561584E+02  0.37154483322E+01 -0.35587005346E+02  0.45045681997E+02  0.00000000000E+00 0. -1.
         11    1    3    3    0    0 -0.76339449921E+01 -0.53217785691E+00  0.41345164178E+01  0.86979627319E+01  0.51100000000E-03 0. -1.
        -11    1    3    3    0    0 -0.31641677982E+01 -0.77273352478E+00  0.29811978851E+01  0.44154972593E+01  0.51100000000E-03 0.  1.
        -12    1    3    3    0    0 -0.16567448793E+02 -0.24105369505E+01  0.28471291043E+02  0.33028858012E+02  0.00000000000E+00 0.  1.
</event>
<event>
 7    1  0.2323330E-008  0.4614232E+02  0.7816164E-02  0.1320468E+00
        -11   -1    0    0    0    0  0.00000000000E+00  0.00000000000E+00  0.45593999997E+02  0.45594000000E+02  0.51100000000E-03 0.  1.
         11   -1    0    0    0    0 -0.00000000000E+00 -0.00000000000E+00 -0.45593999997E+02  0.45594000000E+02  0.51100000000E-03 0. -1.
    9900012    2    1    2    0    0  0.10012083448E+02  0.13402306079E+02  0.41824034160E+02  0.46142318114E+02  0.10000003216E+02 0.  0.
         12    1    1    2    0    0 -0.10012083448E+02 -0.13402306079E+02 -0.41824034160E+02  0.45045681886E+02  0.00000000000E+00 0. -1.
         11    1    3    3    0    0  0.29400017109E+00  0.19522950479E+01  0.79034836362E+01  0.81463455552E+01  0.51100000000E-03 0. -1.
        -11    1    3    3    0    0  0.69550035839E+01  0.95795690284E+01  0.16791344400E+02  0.20544816004E+02  0.51100000000E-03 0.  1.
         12    1    3    3    0    0  0.27630796929E+01  0.18704420027E+01  0.17129206123E+02  0.17451156555E+02  0.00000000000E+00 0. -1.
</event>
<event>
 7    1  0.2323330E-008  0.4614232E+02  0.7816164E-02  0.1320468E+00
        -11   -1    0    0    0    0  0.00000000000E+00  0.00000000000E+00  0.45593999997E+02  0.45594000000E+02  0.51100000000E-03 0.  1.
         11   -1    0    0    0    0 -0.00000000000E+00 -0.00000000000E+00 -0.45593999997E+02  0.45594000000E+02  0.51100000000E-03 0. -1.
    9900012    2    1    2    0    0 -0.10146097394E+02 -0.26568326972E+02  0.34932711210E+02  0.46142316490E+02  0.99999884110E+01 0.  0.
         12    1    1    2    0    0  0.10146097394E+02  0.26568326972E+02 -0.34932711210E+02  0.45045683510E+02  0.00000000000E+00 0. -1.
         11    1    3    3    0    0  0.89315474497E+00 -0.82283548509E+01  0.10318610965E+02  0.13227897847E+02  0.51100000000E-03 0. -1.
        -11    1    3    3    0    0 -0.51015431163E+01 -0.76475280573E+01  0.13841287483E+02  0.16616006350E+02  0.51100000000E-03 0.  1.
         12    1    3    3    0    0 -0.59377090228E+01 -0.10692444063E+02  0.10772812761E+02  0.16298412293E+02  0.00000000000E+00 0. -1.
</event>
<event>
 7    1  0.2575784E-008  0.4614232E+02  0.7816164E-02  0.1320468E+00
        -11   -1    0    0    0    0  0.00000000000E+00  0.00000000000E+00  0.45593999997E+02  0.45594000000E+02  0.51100000000E-03 0.  1.
         11   -1    0    0    0    0 -0.00000000000E+00 -0.00000000000E+00 -0.45593999997E+02  0.45594000000E+02  0.51100000000E-03 0. -1.
    9900012    2    1    2    0    0 -0.10655163505E+02 -0.23516301584E+02  0.36912932209E+02  0.46142317479E+02  0.99999974246E+01 0.  0.
         12    1    1    2    0    0  0.10655163505E+02  0.23516301584E+02 -0.36912932209E+02  0.45045682521E+02  0.00000000000E+00 0. -1.
         11    1    3    3    0    0 -0.16629560617E+01 -0.20585279953E+01  0.57055573636E+00  0.27071192216E+01  0.51100000000E-03 0. -1.
        -11    1    3    3    0    0  0.30589612545E+00 -0.34591150733E+01  0.43194189376E+01  0.55422404991E+01  0.51100000000E-03 0.  1.
        -12    1    3    3    0    0 -0.92981035686E+01 -0.17998658516E+02  0.32022957535E+02  0.37892957758E+02  0.00000000000E+00 0.  1.
</event>
<event>
 7    1  0.2323330E-008  0.4614232E+02  0.7816164E-02  0.1320468E+00
        -11   -1    0    0    0    0  0.00000000000E+00  0.00000000000E+00  0.45593999997E+02  0.45594000000E+02  0.51100000000E-03 0. -1.
         11   -1    0    0    0    0 -0.00000000000E+00 -0.00000000000E+00 -0.45593999997E+02  0.45594000000E+02  0.51100000000E-03 0.  1.
    9900012    2    1    2    0    0  0.16148060008E+02 -0.39870360119E+02  0.13368174384E+02  0.46142317139E+02  0.99999943252E+01 0.  0.
         12    1    1    2    0    0 -0.16148060008E+02  0.39870360119E+02 -0.13368174384E+02  0.45045682861E+02  0.00000000000E+00 0. -1.
         11    1    3    3    0    0  0.14509660189E+01 -0.24305264336E+01 -0.43287658067E+00  0.28635892735E+01  0.51100000000E-03 0. -1.
        -11    1    3    3    0    0  0.15361792169E+02 -0.33930602443E+02  0.11314237686E+02  0.38926628617E+02  0.51100000000E-03 0.  1.
        -12    1    3    3    0    0 -0.66469817994E+00 -0.35092312428E+01  0.24868132786E+01  0.43520992484E+01  0.00000000000E+00 0.  1.
</event>
<event>
 7    1  0.2323330E-008  0.4614232E+02  0.7816164E-02  0.1320468E+00
        -11   -1    0    0    0    0  0.00000000000E+00  0.00000000000E+00  0.45593999997E+02  0.45594000000E+02  0.51100000000E-03 0.  1.
         11   -1    0    0    0    0 -0.00000000000E+00 -0.00000000000E+00 -0.45593999997E+02  0.45594000000E+02  0.51100000000E-03 0. -1.
    9900012    2    1    2    0    0 -0.89658449443E+01 -0.44076515883E+02  0.24470046485E+01  0.46142318080E+02  0.10000002906E+02 0.  0.
         12    1    1    2    0    0  0.89658449443E+01  0.44076515883E+02 -0.24470046485E+01  0.45045681920E+02  0.00000000000E+00 0. -1.
         11    1    3    3    0    0 -0.93212998181E+01 -0.25700503016E+02 -0.85755810669E-01  0.27338797339E+02  0.51100000000E-03 0. -1.
        -11    1    3    3    0    0 -0.63628737681E+00 -0.14821565369E+02  0.28248484240E+01  0.15101769118E+02  0.51100000000E-03 0.  1.
         12    1    3    3    0    0  0.99174225067E+00 -0.35544474972E+01 -0.29208796486E+00  0.37017516234E+01  0.00000000000E+00 0. -1.
</event>
<event>
 7    1  0.2323330E-008  0.4614232E+02  0.7816164E-02  0.1320468E+00
        -11   -1    0    0    0    0  0.00000000000E+00  0.00000000000E+00  0.45593999997E+02  0.45594000000E+02  0.51100000000E-03 0.  1.
         11   -1    0    0    0    0 -0.00000000000E+00 -0.00000000000E+00 -0.45593999997E+02  0.45594000000E+02  0.51100000000E-03 0. -1.
    9900012    2    1    2    0    0  0.18434637417E+01  0.79695179585E+01  0.44296749033E+02  0.46142317078E+02  0.99999937666E+01 0.  0.
         12    1    1    2    0    0 -0.18434637417E+01 -0.79695179585E+01 -0.44296749033E+02  0.45045682922E+02  0.00000000000E+00 0. -1.
         11    1    3    3    0    0  0.18753525245E+01  0.46137680311E+01  0.12751931805E+02  0.13689980553E+02  0.51100000000E-03 0. -1.
        -11    1    3    3    0    0 -0.22415155989E+00  0.47363462975E+01  0.29996690776E+02  0.30369140224E+02  0.51100000000E-03 0.  1.
        -12    1    3    3    0    0  0.19226277703E+00 -0.13805963701E+01  0.15481264518E+01  0.20831962998E+01  0.00000000000E+00 0.  1.
</event>
<event>
 7    1  0.2323330E-008  0.4614232E+02  0.7816164E-02  0.1320468E+00
        -11   -1    0    0    0    0  0.00000000000E+00  0.00000000000E+00  0.45593999997E+02  0.45594000000E+02  0.51100000000E-03 0.  1.
         11   -1    0    0    0    0 -0.00000000000E+00 -0.00000000000E+00 -0.45593999997E+02  0.45594000000E+02  0.51100000000E-03 0. -1.
    9900012    2    1    2    0    0 -0.19050350563E+02 -0.52078299186E+00  0.40815762003E+02  0.46142317638E+02  0.99999988806E+01 0.  0.
         12    1    1    2    0    0  0.19050350563E+02  0.52078299186E+00 -0.40815762003E+02  0.45045682362E+02  0.00000000000E+00 0. -1.
         11    1    3    3    0    0 -0.66431496688E-01 -0.13824554912E+01  0.82413061421E+01  0.83567172692E+01  0.51100000000E-03 0. -1.
        -11    1    3    3    0    0 -0.54078088066E+01  0.12927675824E+01  0.98623775580E+01  0.11321754964E+02  0.51100000000E-03 0.  1.
         12    1    3    3    0    0 -0.13576110260E+02 -0.43109508305E+00  0.22712078303E+02  0.26463845405E+02  0.00000000000E+00 0. -1.
</event>
<event>
 7    1  0.2323330E-008  0.4614232E+02  0.7816164E-02  0.1320468E+00
        -11   -1    0    0    0    0  0.00000000000E+00  0.00000000000E+00  0.45593999997E+02  0.45594000000E+02  0.51100000000E-03 0. -1.
         11   -1    0    0    0    0 -0.00000000000E+00 -0.00000000000E+00 -0.45593999997E+02  0.45594000000E+02  0.51100000000E-03 0.  1.
    9900012    2    1    2    0    0  0.24992079176E+02 -0.35024797180E+02 -0.13333155920E+02  0.46142317789E+02  0.10000000254E+02 0.  0.
         12    1    1    2    0    0 -0.24992079176E+02  0.35024797180E+02  0.13333155920E+02  0.45045682211E+02  0.00000000000E+00 0. -1.
         11    1    3    3    0    0  0.14987485133E+02 -0.14124843704E+02 -0.61298165882E+01  0.21487451499E+02  0.51100000000E-03 0. -1.
        -11    1    3    3    0    0  0.63925080507E+01 -0.13709634313E+02 -0.24925069352E+01  0.15330715027E+02  0.51100000000E-03 0.  1.
        -12    1    3    3    0    0  0.36120859926E+01 -0.71903191640E+01 -0.47108323962E+01  0.93241512623E+01  0.00000000000E+00 0.  1.
</event>
<event>
 7    1  0.2323330E-008  0.4614232E+02  0.7816164E-02  0.1320468E+00
        -11   -1    0    0    0    0  0.00000000000E+00  0.00000000000E+00  0.45593999997E+02  0.45594000000E+02  0.51100000000E-03 0. -1.
         11   -1    0    0    0    0 -0.00000000000E+00 -0.00000000000E+00 -0.45593999997E+02  0.45594000000E+02  0.51100000000E-03 0.  1.
    9900012    2    1    2    0    0 -0.15657181238E+02  0.13306118176E+02 -0.40086324453E+02  0.46142317483E+02  0.99999974650E+01 0.  0.
         12    1    1    2    0    0  0.15657181238E+02 -0.13306118176E+02  0.40086324453E+02  0.45045682517E+02  0.00000000000E+00 0. -1.
         11    1    3    3    0    0 -0.27959309728E+01 -0.44334877770E+00 -0.21727189253E+01  0.35685425502E+01  0.51100000000E-03 0. -1.
        -11    1    3    3    0    0 -0.22439133462E+01  0.47152699374E+01 -0.13266995303E+02  0.14257702561E+02  0.51100000000E-03 0.  1.
        -12    1    3    3    0    0 -0.10617336919E+02  0.90341970162E+01 -0.24646610225E+02  0.28316072372E+02  0.00000000000E+00 0.  1.
</event>
<event>
 7    1  0.2323330E-008  0.4614231E+02  0.7816164E-02  0.1320468E+00
        -11   -1    0    0    0    0  0.00000000000E+00  0.00000000000E+00  0.45593999997E+02  0.45594000000E+02  0.51100000000E-03 0.  1.
         11   -1    0    0    0    0 -0.00000000000E+00 -0.00000000000E+00 -0.45593999997E+02  0.45594000000E+02  0.51100000000E-03 0. -1.
    9900012    2    1    2    0    0 -0.17699833628E+02 -0.38308570249E+02  0.15757004727E+02  0.46142313603E+02  0.99999620864E+01 0.  0.
         12    1    1    2    0    0  0.17699833628E+02  0.38308570249E+02 -0.15757004727E+02  0.45045686397E+02  0.00000000000E+00 0. -1.
         11    1    3    3    0    0 -0.28447016128E+01 -0.14095401877E+02  0.57574050287E+01  0.15489363907E+02  0.51100000000E-03 0. -1.
        -11    1    3    3    0    0 -0.13758423930E+02 -0.24223368122E+02  0.98395080576E+01  0.29544571605E+02  0.51100000000E-03 0.  1.
         12    1    3    3    0    0 -0.10967080855E+01  0.10199750117E-01  0.16009164035E+00  0.11083780912E+01  0.00000000000E+00 0. -1.
</event>
<event>
 7    1  0.2323330E-008  0.4614232E+02  0.7816164E-02  0.1320468E+00
        -11   -1    0    0    0    0  0.00000000000E+00  0.00000000000E+00  0.45593999997E+02  0.45594000000E+02  0.51100000000E-03 0.  1.
         11   -1    0    0    0    0 -0.00000000000E+00 -0.00000000000E+00 -0.45593999997E+02  0.45594000000E+02  0.51100000000E-03 0. -1.
    9900012    2    1    2    0    0 -0.15546867689E+02 -0.55490672149E+01  0.41912007807E+02  0.46142316075E+02  0.99999846226E+01 0.  0.
         12    1    1    2    0    0  0.15546867689E+02  0.55490672149E+01 -0.41912007807E+02  0.45045683925E+02  0.00000000000E+00 0. -1.
         11    1    3    3    0    0 -0.89538794481E+01  0.14101785726E+01  0.19592586449E+02  0.21587728107E+02  0.51100000000E-03 0. -1.
        -11    1    3    3    0    0 -0.11520873614E+01 -0.29502856812E+01  0.45542463880E+01  0.55473102773E+01  0.51100000000E-03 0.  1.
        -12    1    3    3    0    0 -0.54409008797E+01 -0.40089601064E+01  0.17765174970E+02  0.19007277691E+02  0.00000000000E+00 0.  1.
</event>
<event>
 7    1  0.2323330E-008  0.4614232E+02  0.7816164E-02  0.1320468E+00
        -11   -1    0    0    0    0  0.00000000000E+00  0.00000000000E+00  0.45593999997E+02  0.45594000000E+02  0.51100000000E-03 0.  1.
         11   -1    0    0    0    0 -0.00000000000E+00 -0.00000000000E+00 -0.45593999997E+02  0.45594000000E+02  0.51100000000E-03 0. -1.
    9900012    2    1    2    0    0  0.37297887776E+02 -0.60150379584E+01  0.24531620647E+02  0.46142317346E+02  0.99999962173E+01 0.  0.
         12    1    1    2    0    0 -0.37297887776E+02  0.60150379584E+01 -0.24531620647E+02  0.45045682654E+02  0.00000000000E+00 0. -1.
         11    1    3    3    0    0  0.11012483779E+01  0.57168891508E+00 -0.14227752699E+00  0.12489272842E+01  0.51100000000E-03 0. -1.
        -11    1    3    3    0    0  0.24442643140E+02 -0.35819108707E+01  0.20375615170E+02  0.32022469969E+02  0.51100000000E-03 0.  1.
        -12    1    3    3    0    0  0.11753996258E+02 -0.30048160028E+01  0.42982830045E+01  0.12870920093E+02  0.00000000000E+00 0.  1.
</event>
<event>
 7    1  0.2323330E-008  0.4614232E+02  0.7816164E-02  0.1320468E+00
        -11   -1    0    0    0    0  0.00000000000E+00  0.00000000000E+00  0.45593999997E+02  0.45594000000E+02  0.51100000000E-03 0.  1.
         11   -1    0    0    0    0 -0.00000000000E+00 -0.00000000000E+00 -0.45593999997E+02  0.45594000000E+02  0.51100000000E-03 0. -1.
    9900012    2    1    2    0    0 -0.17462458686E+02  0.55703392312E+00  0.41519462244E+02  0.46142317685E+02  0.99999993094E+01 0.  0.
         12    1    1    2    0    0  0.17462458686E+02 -0.55703392312E+00 -0.41519462244E+02  0.45045682315E+02  0.00000000000E+00 0. -1.
         11    1    3    3    0    0 -0.11489063905E+01 -0.92396619012E-01  0.53795954062E+00  0.12719763197E+01  0.51100000000E-03 0. -1.
        -11    1    3    3    0    0  0.10402686806E+00 -0.63391415562E+00  0.78076207097E+01  0.78340034563E+01  0.51100000000E-03 0.  1.
        -12    1    3    3    0    0 -0.16417579163E+02  0.12833446977E+01  0.33173881994E+02  0.37036337909E+02  0.00000000000E+00 0.  1.
</event>
<event>
 7    1  0.2323330E-008  0.4614232E+02  0.7816164E-02  0.1320468E+00
        -11   -1    0    0    0    0  0.00000000000E+00  0.00000000000E+00  0.45593999997E+02  0.45594000000E+02  0.51100000000E-03 0. -1.
         11   -1    0    0    0    0 -0.00000000000E+00 -0.00000000000E+00 -0.45593999997E+02  0.45594000000E+02  0.51100000000E-03 0.  1.
    9900012    2    1    2    0    0 -0.41936216046E+02 -0.16039106020E+02 -0.36351564752E+01  0.46142317623E+02  0.99999987416E+01 0.  0.
         12    1    1    2    0    0  0.41936216046E+02  0.16039106020E+02  0.36351564752E+01  0.45045682377E+02  0.00000000000E+00 0. -1.
         11    1    3    3    0    0 -0.29257045464E+01 -0.19927471092E+01 -0.23202857027E+01  0.42325540915E+01  0.51100000000E-03 0. -1.
        -11    1    3    3    0    0 -0.11850764798E+02 -0.60777974604E+01 -0.26259518464E+01  0.13574824920E+02  0.51100000000E-03 0.  1.
        -12    1    3    3    0    0 -0.27159746702E+02 -0.79685614500E+01  0.13110810739E+01  0.28334938611E+02  0.00000000000E+00 0.  1.
</event>
<event>
 7    1  0.2323330E-008  0.4614232E+02  0.7816164E-02  0.1320468E+00
        -11   -1    0    0    0    0  0.00000000000E+00  0.00000000000E+00  0.45593999997E+02  0.45594000000E+02  0.51100000000E-03 0.  1.
         11   -1    0    0    0    0 -0.00000000000E+00 -0.00000000000E+00 -0.45593999997E+02  0.45594000000E+02  0.51100000000E-03 0. -1.
    9900012    2    1    2    0    0 -0.78404715763E+01  0.38880086244E+02  0.21353672981E+02  0.46142318180E+02  0.10000003816E+02 0.  0.
         12    1    1    2    0    0  0.78404715763E+01 -0.38880086244E+02 -0.21353672981E+02  0.45045681820E+02  0.00000000000E+00 0. -1.
         11    1    3    3    0    0 -0.12028336161E+01  0.14353135048E+02  0.40229718402E+01  0.14954718222E+02  0.51100000000E-03 0. -1.
        -11    1    3    3    0    0 -0.56612644491E+00  0.10828320098E+02  0.86513466777E+01  0.13871510909E+02  0.51100000000E-03 0.  1.
        -12    1    3    3    0    0 -0.60715115153E+01  0.13698631098E+02  0.86793544631E+01  0.17316089049E+02  0.00000000000E+00 0.  1.
</event>
<event>
 7    1  0.2323330E-008  0.4614231E+02  0.7816164E-02  0.1320468E+00
        -11   -1    0    0    0    0  0.00000000000E+00  0.00000000000E+00  0.45593999997E+02  0.45594000000E+02  0.51100000000E-03 0.  1.
         11   -1    0    0    0    0 -0.00000000000E+00 -0.00000000000E+00 -0.45593999997E+02  0.45594000000E+02  0.51100000000E-03 0. -1.
    9900012    2    1    2    0    0  0.28732637811E+02  0.28945697785E+02 -0.19123193298E+02  0.46142307445E+02  0.99999059304E+01 0.  0.
         12    1    1    2    0    0 -0.28732637811E+02 -0.28945697785E+02  0.19123193298E+02  0.45045692555E+02  0.00000000000E+00 0. -1.
         11    1    3    3    0    0  0.19162260449E+02  0.14754081733E+02 -0.14287744987E+02  0.28089407441E+02  0.51100000000E-03 0. -1.
        -11    1    3    3    0    0  0.60739218545E+01  0.82656707088E+01 -0.43918681467E+01  0.11158061886E+02  0.51100000000E-03 0.  1.
         12    1    3    3    0    0  0.34964555074E+01  0.59259453430E+01 -0.44358016474E+00  0.68948381189E+01  0.00000000000E+00 0. -1.
</event>
<event>
 7    1  0.2323330E-008  0.4614232E+02  0.7816164E-02  0.1320468E+00
        -11   -1    0    0    0    0  0.00000000000E+00  0.00000000000E+00  0.45593999997E+02  0.45594000000E+02  0.51100000000E-03 0. -1.
         11   -1    0    0    0    0 -0.00000000000E+00 -0.00000000000E+00 -0.45593999997E+02  0.45594000000E+02  0.51100000000E-03 0.  1.
    9900012    2    1    2    0    0 -0.26475592689E+02 -0.48828756715E+01 -0.36115287761E+02  0.46142317708E+02  0.99999995188E+01 0.  0.
         12    1    1    2    0    0  0.26475592689E+02  0.48828756715E+01  0.36115287761E+02  0.45045682292E+02  0.00000000000E+00 0. -1.
         11    1    3    3    0    0 -0.38792931845E+01 -0.28381059306E+00 -0.48744289225E+01  0.62361463778E+01  0.51100000000E-03 0. -1.
        -11    1    3    3    0    0 -0.21872086510E+02 -0.30296473593E+01 -0.31140812597E+02  0.38174823391E+02  0.51100000000E-03 0.  1.
         12    1    3    3    0    0 -0.72421299427E+00 -0.15694177191E+01 -0.10004624120E+00  0.17313479397E+01  0.00000000000E+00 0. -1.
</event>
<event>
 7    1  0.2323330E-008  0.4614232E+02  0.7816164E-02  0.1320468E+00
        -11   -1    0    0    0    0  0.00000000000E+00  0.00000000000E+00  0.45593999997E+02  0.45594000000E+02  0.51100000000E-03 0.  1.
         11   -1    0    0    0    0 -0.00000000000E+00 -0.00000000000E+00 -0.45593999997E+02  0.45594000000E+02  0.51100000000E-03 0. -1.
    9900012    2    1    2    0    0  0.54044592824E+01 -0.90663400694E+01  0.43791628404E+02  0.46142318513E+02  0.10000006856E+02 0.  0.
         12    1    1    2    0    0 -0.54044592824E+01  0.90663400694E+01 -0.43791628404E+02  0.45045681487E+02  0.00000000000E+00 0. -1.
         11    1    3    3    0    0  0.12955314975E+00  0.61813903966E+00  0.69331618078E-01  0.63536369534E+00  0.51100000000E-03 0. -1.
        -11    1    3    3    0    0 -0.82206992040E+00 -0.30775670966E+01  0.17467407617E+02  0.17755493440E+02  0.51100000000E-03 0.  1.
         12    1    3    3    0    0  0.60969760530E+01 -0.66069120125E+01  0.26254889169E+02  0.27751461378E+02  0.00000000000E+00 0. -1.
</event>
<event>
 7    1  0.2323330E-008  0.4614232E+02  0.7816164E-02  0.1320468E+00
        -11   -1    0    0    0    0  0.00000000000E+00  0.00000000000E+00  0.45593999997E+02  0.45594000000E+02  0.51100000000E-03 0.  1.
         11   -1    0    0    0    0 -0.00000000000E+00 -0.00000000000E+00 -0.45593999997E+02  0.45594000000E+02  0.51100000000E-03 0. -1.
    9900012    2    1    2    0    0  0.91816022108E+01  0.44002886891E+02  0.29253567731E+01  0.46142316676E+02  0.99999901061E+01 0.  0.
         12    1    1    2    0    0 -0.91816022108E+01 -0.44002886891E+02 -0.29253567731E+01  0.45045683324E+02  0.00000000000E+00 0. -1.
         11    1    3    3    0    0 -0.14053270933E+01  0.86613023790E+01  0.57006908413E-01  0.87747565885E+01  0.51100000000E-03 0. -1.
        -11    1    3    3    0    0  0.28013854201E+01  0.17553025547E+02  0.24683429909E+01  0.17945728838E+02  0.51100000000E-03 0.  1.
         12    1    3    3    0    0  0.77855438840E+01  0.17788558964E+02  0.40000687379E+00  0.19421831250E+02  0.00000000000E+00 0. -1.
</event>
<event>
 7    1  0.2323330E-008  0.4614232E+02  0.7816164E-02  0.1320468E+00
        -11   -1    0    0    0    0  0.00000000000E+00  0.00000000000E+00  0.45593999997E+02  0.45594000000E+02  0.51100000000E-03 0.  1.
         11   -1    0    0    0    0 -0.00000000000E+00 -0.00000000000E+00 -0.45593999997E+02  0.45594000000E+02  0.51100000000E-03 0. -1.
    9900012    2    1    2    0    0  0.24681656073E+01  0.20277036049E+02  0.40148019502E+02  0.46142317606E+02  0.99999985860E+01 0.  0.
         12    1    1    2    0    0 -0.24681656073E+01 -0.20277036049E+02 -0.40148019502E+02  0.45045682394E+02  0.00000000000E+00 0. -1.
         11    1    3    3    0    0  0.25365427952E+01  0.10534746313E+02  0.11898150427E+02  0.16092883927E+02  0.51100000000E-03 0. -1.
        -11    1    3    3    0    0 -0.23848044474E+00  0.61875633114E+01  0.13137072518E+02  0.14523273985E+02  0.51100000000E-03 0.  1.
        -12    1    3    3    0    0  0.17010325683E+00  0.35547264254E+01  0.15112796557E+02  0.15526159694E+02  0.00000000000E+00 0.  1.
</event>
<event>
 7    1  0.2323330E-008  0.4614232E+02  0.7816164E-02  0.1320468E+00
        -11   -1    0    0    0    0  0.00000000000E+00  0.00000000000E+00  0.45593999997E+02  0.45594000000E+02  0.51100000000E-03 0.  1.
         11   -1    0    0    0    0 -0.00000000000E+00 -0.00000000000E+00 -0.45593999997E+02  0.45594000000E+02  0.51100000000E-03 0. -1.
    9900012    2    1    2    0    0 -0.78942510095E+01  0.63089268768E+00  0.44344066626E+02  0.46142317971E+02  0.10000001911E+02 0.  0.
         12    1    1    2    0    0  0.78942510095E+01 -0.63089268768E+00 -0.44344066626E+02  0.45045682029E+02  0.00000000000E+00 0. -1.
         11    1    3    3    0    0 -0.17029694676E+00 -0.10029255670E+01  0.21546552469E+02  0.21570553639E+02  0.51100000000E-03 0. -1.
        -11    1    3    3    0    0  0.28078139867E+00  0.90553184453E+00  0.12150784924E+01  0.15411820525E+01  0.51100000000E-03 0.  1.
        -12    1    3    3    0    0 -0.80047354614E+01  0.72828641021E+00  0.21582435665E+02  0.23030582279E+02  0.00000000000E+00 0.  1.
</event>
<event>
 7    1  0.2747647E-008  0.4614232E+02  0.7816164E-02  0.1320468E+00
        -11   -1    0    0    0    0  0.00000000000E+00  0.00000000000E+00  0.45593999997E+02  0.45594000000E+02  0.51100000000E-03 0. -1.
         11   -1    0    0    0    0 -0.00000000000E+00 -0.00000000000E+00 -0.45593999997E+02  0.45594000000E+02  0.51100000000E-03 0.  1.
    9900012    2    1    2    0    0 -0.45043732136E+02 -0.32669783314E+00  0.26274548468E+00  0.46142316840E+02  0.99999915962E+01 0.  0.
         12    1    1    2    0    0  0.45043732136E+02  0.32669783314E+00 -0.26274548468E+00  0.45045683160E+02  0.00000000000E+00 0. -1.
         11    1    3    3    0    0 -0.44437581856E+01  0.19977542338E+01 -0.73586783655E+00  0.49274243297E+01  0.51100000000E-03 0. -1.
        -11    1    3    3    0    0 -0.53456839522E+01  0.13937283291E+01 -0.13513633599E+01  0.56872663701E+01  0.51100000000E-03 0.  1.
        -12    1    3    3    0    0 -0.35254289998E+02 -0.37181803960E+01  0.23499766812E+01  0.35527626140E+02  0.00000000000E+00 0.  1.
</event>
<event>
 7    1  0.2323330E-008  0.4614232E+02  0.7816164E-02  0.1320468E+00
        -11   -1    0    0    0    0  0.00000000000E+00  0.00000000000E+00  0.45593999997E+02  0.45594000000E+02  0.51100000000E-03 0.  1.
         11   -1    0    0    0    0 -0.00000000000E+00 -0.00000000000E+00 -0.45593999997E+02  0.45594000000E+02  0.51100000000E-03 0. -1.
    9900012    2    1    2    0    0 -0.11310738489E+01  0.40849819797E+02  0.18950630208E+02  0.46142317734E+02  0.99999997534E+01 0.  0.
         12    1    1    2    0    0  0.11310738489E+01 -0.40849819797E+02 -0.18950630208E+02  0.45045682266E+02  0.00000000000E+00 0. -1.
         11    1    3    3    0    0  0.24978281302E+01  0.79651540774E+01  0.38721546289E+01  0.92019784055E+01  0.51100000000E-03 0. -1.
        -11    1    3    3    0    0 -0.30965896121E+00  0.23593115613E+02  0.84896609655E+01  0.25075991238E+02  0.51100000000E-03 0.  1.
         12    1    3    3    0    0 -0.33192430179E+01  0.92915501070E+01  0.65888146133E+01  0.11864348090E+02  0.00000000000E+00 0. -1.
</event>
<event>
 7    1  0.2323330E-008  0.4614232E+02  0.7816164E-02  0.1320468E+00
        -11   -1    0    0    0    0  0.00000000000E+00  0.00000000000E+00  0.45593999997E+02  0.45594000000E+02  0.51100000000E-03 0.  1.
         11   -1    0    0    0    0 -0.00000000000E+00 -0.00000000000E+00 -0.45593999997E+02  0.45594000000E+02  0.51100000000E-03 0. -1.
    9900012    2    1    2    0    0  0.40286988945E+02  0.68699305823E+01  0.18944024769E+02  0.46142317645E+02  0.99999989375E+01 0.  0.
         12    1    1    2    0    0 -0.40286988945E+02 -0.68699305823E+01 -0.18944024769E+02  0.45045682355E+02  0.00000000000E+00 0. -1.
         11    1    3    3    0    0  0.44585205097E+01 -0.95637962313E+00  0.24369855249E+01  0.51702964933E+01  0.51100000000E-03 0. -1.
        -11    1    3    3    0    0  0.30556883797E+02  0.72338436557E+01  0.10865536584E+02  0.33228173692E+02  0.51100000000E-03 0.  1.
        -12    1    3    3    0    0  0.52715846382E+01  0.59246654969E+00  0.56415026596E+01  0.77438474590E+01  0.00000000000E+00 0.  1.
</event>
<event>
 7    1  0.2323330E-008  0.4614232E+02  0.7816164E-02  0.1320468E+00
        -11   -1    0    0    0    0  0.00000000000E+00  0.00000000000E+00  0.45593999997E+02  0.45594000000E+02  0.51100000000E-03 0.  1.
         11   -1    0    0    0    0 -0.00000000000E+00 -0.00000000000E+00 -0.45593999997E+02  0.45594000000E+02  0.51100000000E-03 0. -1.
    9900012    2    1    2    0    0 -0.41927755036E+01 -0.94736381501E+01  0.43838162724E+02  0.46142315443E+02  0.99999788623E+01 0.  0.
         12    1    1    2    0    0  0.41927755036E+01  0.94736381501E+01 -0.43838162724E+02  0.45045684557E+02  0.00000000000E+00 0. -1.
         11    1    3    3    0    0 -0.33719217242E+01  0.91252291784E-01  0.87918672972E+01  0.94167464619E+01  0.51100000000E-03 0.  1.
        -11    1    3    3    0    0 -0.30993800894E+01 -0.52496915583E+01  0.19830408627E+02  0.20746337628E+02  0.51100000000E-03 0. -1.
        -12    1    3    3    0    0  0.22785263100E+01 -0.43151988835E+01  0.15215886799E+02  0.15979231353E+02  0.00000000000E+00 0.  1.
</event>
<event>
 7    1  0.2323330E-008  0.4614232E+02  0.7816164E-02  0.1320468E+00
        -11   -1    0    0    0    0  0.00000000000E+00  0.00000000000E+00  0.45593999997E+02  0.45594000000E+02  0.51100000000E-03 0.  1.
         11   -1    0    0    0    0 -0.00000000000E+00 -0.00000000000E+00 -0.45593999997E+02  0.45594000000E+02  0.51100000000E-03 0. -1.
    9900012    2    1    2    0    0 -0.12068900509E+02 -0.43393554626E+02  0.67428183255E+00  0.46142316538E+02  0.99999888462E+01 0.  0.
         12    1    1    2    0    0  0.12068900509E+02  0.43393554626E+02 -0.67428183255E+00  0.45045683462E+02  0.00000000000E+00 0. -1.
         11    1    3    3    0    0 -0.16333966090E+01 -0.71956541677E+01 -0.13106628728E+01  0.74942151564E+01  0.51100000000E-03 0. -1.
        -11    1    3    3    0    0 -0.43798590685E+01 -0.15200811444E+02 -0.33124494159E+01  0.16162306624E+02  0.51100000000E-03 0.  1.
         12    1    3    3    0    0 -0.60556448320E+01 -0.20997089014E+02  0.52973941212E+01  0.22485794757E+02  0.00000000000E+00 0. -1.
</event>
<event>
 7    1  0.2323330E-008  0.4614232E+02  0.7816164E-02  0.1320468E+00
        -11   -1    0    0    0    0  0.00000000000E+00  0.00000000000E+00  0.45593999997E+02  0.45594000000E+02  0.51100000000E-03 0.  1.
         11   -1    0    0    0    0 -0.00000000000E+00 -0.00000000000E+00 -0.45593999997E+02  0.45594000000E+02  0.51100000000E-03 0. -1.
    9900012    2    1    2    0    0  0.34320721902E+02  0.28905448514E+02 -0.39593653394E+01  0.46142317858E+02  0.10000000887E+02 0.  0.
         12    1    1    2    0    0 -0.34320721902E+02 -0.28905448514E+02  0.39593653394E+01  0.45045682142E+02  0.00000000000E+00 0. -1.
         11    1    3    3    0    0  0.13243608434E+01  0.39762917688E+00  0.11118567636E+01  0.17743354614E+01  0.51100000000E-03 0. -1.
        -11    1    3    3    0    0  0.60591764729E+01  0.84557419823E+01 -0.24330575012E+01  0.10683302910E+02  0.51100000000E-03 0.  1.
        -12    1    3    3    0    0  0.26937184586E+02  0.20052077355E+02 -0.26381646018E+01  0.33684679487E+02  0.00000000000E+00 0.  1.
</event>
<event>
 7    1  0.2323330E-008  0.4614232E+02  0.7816164E-02  0.1320468E+00
        -11   -1    0    0    0    0  0.00000000000E+00  0.00000000000E+00  0.45593999997E+02  0.45594000000E+02  0.51100000000E-03 0. -1.
         11   -1    0    0    0    0 -0.00000000000E+00 -0.00000000000E+00 -0.45593999997E+02  0.45594000000E+02  0.51100000000E-03 0.  1.
    9900012    2    1    2    0    0  0.23493395451E+02 -0.37434100682E+02 -0.87098836375E+01  0.46142316559E+02  0.99999890420E+01 0.  0.
         12    1    1    2    0    0 -0.23493395451E+02  0.37434100682E+02  0.87098836375E+01  0.45045683441E+02  0.00000000000E+00 0. -1.
         11    1    3    3    0    0  0.87428587974E+01 -0.14989282728E+02 -0.38178227583E+01  0.17767722069E+02  0.51100000000E-03 0. -1.
        -11    1    3    3    0    0  0.58655910056E+01 -0.15384922609E+02 -0.42670401977E+01  0.17009075043E+02  0.51100000000E-03 0.  1.
         12    1    3    3    0    0  0.88849456479E+01 -0.70598953451E+01 -0.62502068150E+00  0.11365519447E+02  0.00000000000E+00 0. -1.
</event>
<event>
 7    1  0.2323330E-008  0.4614232E+02  0.7816164E-02  0.1320468E+00
        -11   -1    0    0    0    0  0.00000000000E+00  0.00000000000E+00  0.45593999997E+02  0.45594000000E+02  0.51100000000E-03 0.  1.
         11   -1    0    0    0    0 -0.00000000000E+00 -0.00000000000E+00 -0.45593999997E+02  0.45594000000E+02  0.51100000000E-03 0. -1.
    9900012    2    1    2    0    0  0.12709118623E+02  0.23469162429E+02  0.36287600776E+02  0.46142320392E+02  0.10000023989E+02 0.  0.
         12    1    1    2    0    0 -0.12709118623E+02 -0.23469162429E+02 -0.36287600776E+02  0.45045679608E+02  0.00000000000E+00 0. -1.
         11    1    3    3    0    0  0.25729258863E+01  0.78070721943E+01  0.53940871749E+01  0.98319123559E+01  0.51100000000E-03 0. -1.
        -11    1    3    3    0    0  0.72901206837E+01  0.12999947716E+02  0.21705406229E+02  0.26330004938E+02  0.51100000000E-03 0.  1.
         12    1    3    3    0    0  0.28460720530E+01  0.26621425185E+01  0.91881073716E+01  0.99804030976E+01  0.00000000000E+00 0. -1.
</event>
<event>
 7    1  0.2323330E-008  0.4614232E+02  0.7816164E-02  0.1320468E+00
        -11   -1    0    0    0    0  0.00000000000E+00  0.00000000000E+00  0.45593999997E+02  0.45594000000E+02  0.51100000000E-03 0. -1.
         11   -1    0    0    0    0 -0.00000000000E+00 -0.00000000000E+00 -0.45593999997E+02  0.45594000000E+02  0.51100000000E-03 0.  1.
    9900012    2    1    2    0    0  0.19128563046E+01 -0.43780233213E+02  0.10428116100E+02  0.46142318244E+02  0.10000004403E+02 0.  0.
         12    1    1    2    0    0 -0.19128563046E+01  0.43780233213E+02 -0.10428116100E+02  0.45045681756E+02  0.00000000000E+00 0. -1.
         11    1    3    3    0    0  0.12661622732E+01 -0.33555491650E+01  0.15105829035E+01  0.38916240915E+01  0.51100000000E-03 0. -1.
        -11    1    3    3    0    0  0.18102320876E+01 -0.39776116899E+02  0.92502864500E+01  0.40877673802E+02  0.51100000000E-03 0.  1.
        -12    1    3    3    0    0 -0.11635380563E+01 -0.64856714911E+00 -0.33275325302E+00  0.13730203504E+01  0.00000000000E+00 0.  1.
</event>
<event>
 7    1  0.2323330E-008  0.4614232E+02  0.7816164E-02  0.1320468E+00
        -11   -1    0    0    0    0  0.00000000000E+00  0.00000000000E+00  0.45593999997E+02  0.45594000000E+02  0.51100000000E-03 0.  1.
         11   -1    0    0    0    0 -0.00000000000E+00 -0.00000000000E+00 -0.45593999997E+02  0.45594000000E+02  0.51100000000E-03 0. -1.
    9900012    2    1    2    0    0 -0.38979145934E+02 -0.15328328853E+02  0.16576551173E+02  0.46142317277E+02  0.99999955836E+01 0.  0.
         12    1    1    2    0    0  0.38979145934E+02  0.15328328853E+02 -0.16576551173E+02  0.45045682723E+02  0.00000000000E+00 0. -1.
         11    1    3    3    0    0 -0.51557181574E+01 -0.84397996013E+00  0.11452022706E+01  0.53483848397E+01  0.51100000000E-03 0. -1.
        -11    1    3    3    0    0 -0.16548610610E+01 -0.27185130869E+01  0.29454837902E+01  0.43364448059E+01  0.51100000000E-03 0.  1.
        -12    1    3    3    0    0 -0.32168566716E+02 -0.11765835806E+02  0.12485865112E+02  0.36457487631E+02  0.00000000000E+00 0.  1.
</event>
<event>
 7    1  0.2323330E-008  0.4614232E+02  0.7816164E-02  0.1320468E+00
        -11   -1    0    0    0    0  0.00000000000E+00  0.00000000000E+00  0.45593999997E+02  0.45594000000E+02  0.51100000000E-03 0.  1.
         11   -1    0    0    0    0 -0.00000000000E+00 -0.00000000000E+00 -0.45593999997E+02  0.45594000000E+02  0.51100000000E-03 0. -1.
    9900012    2    1    2    0    0 -0.37886092279E+02  0.17994833000E+02  0.16429959160E+02  0.46142316957E+02  0.99999926642E+01 0.  0.
         12    1    1    2    0    0  0.37886092279E+02 -0.17994833000E+02 -0.16429959160E+02  0.45045683043E+02  0.00000000000E+00 0. -1.
         11    1    3    3    0    0 -0.11333082846E+02  0.71099937478E+01  0.91637162443E+01  0.16216179376E+02  0.51100000000E-03 0. -1.
        -11    1    3    3    0    0 -0.16053901592E+01 -0.35677641972E+00  0.69077404232E+00  0.17837421382E+01  0.51100000000E-03 0.  1.
        -12    1    3    3    0    0 -0.24947619274E+02  0.11241615672E+02  0.65754688730E+01  0.28142395443E+02  0.00000000000E+00 0.  1.
</event>
<event>
 7    1  0.2323330E-008  0.4614232E+02  0.7816164E-02  0.1320468E+00
        -11   -1    0    0    0    0  0.00000000000E+00  0.00000000000E+00  0.45593999997E+02  0.45594000000E+02  0.51100000000E-03 0.  1.
         11   -1    0    0    0    0 -0.00000000000E+00 -0.00000000000E+00 -0.45593999997E+02  0.45594000000E+02  0.51100000000E-03 0. -1.
    9900012    2    1    2    0    0 -0.18943391341E+02 -0.14140954453E+02  0.38344421872E+02  0.46142319219E+02  0.10000013290E+02 0.  0.
         12    1    1    2    0    0  0.18943391341E+02  0.14140954453E+02 -0.38344421872E+02  0.45045680781E+02  0.00000000000E+00 0. -1.
         11    1    3    3    0    0 -0.47288930950E+00  0.95900385394E+00  0.22225718823E+01  0.24664019794E+01  0.51100000000E-03 0. -1.
        -11    1    3    3    0    0 -0.10067652801E+01  0.50952205264E+00  0.17226210320E+01  0.20592747589E+01  0.51100000000E-03 0.  1.
        -12    1    3    3    0    0 -0.17463736752E+02 -0.15609480360E+02  0.34399228958E+02  0.41616642480E+02  0.00000000000E+00 0.  1.
</event>
<event>
 7    1  0.2323330E-008  0.4614232E+02  0.7816164E-02  0.1320468E+00
        -11   -1    0    0    0    0  0.00000000000E+00  0.00000000000E+00  0.45593999997E+02  0.45594000000E+02  0.51100000000E-03 0.  1.
         11   -1    0    0    0    0 -0.00000000000E+00 -0.00000000000E+00 -0.45593999997E+02  0.45594000000E+02  0.51100000000E-03 0. -1.
    9900012    2    1    2    0    0 -0.21957989717E+02 -0.32945172691E+02  0.21484315405E+02  0.46142317360E+02  0.99999963439E+01 0.  0.
         12    1    1    2    0    0  0.21957989717E+02  0.32945172691E+02 -0.21484315405E+02  0.45045682640E+02  0.00000000000E+00 0. -1.
         11    1    3    3    0    0 -0.41219660636E+01 -0.10250926027E+02  0.75355344598E+01  0.13373719322E+02  0.51100000000E-03 0. -1.
        -11    1    3    3    0    0 -0.11229219142E+02 -0.18390000368E+02  0.84001265795E+01  0.23126815667E+02  0.51100000000E-03 0.  1.
         12    1    3    3    0    0 -0.66068045107E+01 -0.43042462957E+01  0.55486543657E+01  0.96417823709E+01  0.00000000000E+00 0. -1.
</event>
<event>
 7    1  0.2323330E-008  0.4614232E+02  0.7816164E-02  0.1320468E+00
        -11   -1    0    0    0    0  0.00000000000E+00  0.00000000000E+00  0.45593999997E+02  0.45594000000E+02  0.51100000000E-03 0.  1.
         11   -1    0    0    0    0 -0.00000000000E+00 -0.00000000000E+00 -0.45593999997E+02  0.45594000000E+02  0.51100000000E-03 0. -1.
    9900012    2    1    2    0    0  0.93334893484E+01  0.43874560507E+00  0.44065938495E+02  0.46142318114E+02  0.10000003219E+02 0.  0.
         12    1    1    2    0    0 -0.93334893484E+01 -0.43874560507E+00 -0.44065938495E+02  0.45045681886E+02  0.00000000000E+00 0. -1.
         11    1    3    3    0    0  0.87010564566E+01  0.60313645746E+00  0.33843989923E+02  0.34949789859E+02  0.51100000000E-03 0. -1.
        -11    1    3    3    0    0  0.24719099311E+01 -0.63904863726E+00  0.46386383431E+01  0.52948737291E+01  0.51100000000E-03 0.  1.
         12    1    3    3    0    0 -0.18394770392E+01  0.47465778487E+00  0.55833102293E+01  0.58976545260E+01  0.00000000000E+00 0. -1.
</event>
<event>
 7    1  0.2323330E-008  0.4614232E+02  0.7816164E-02  0.1320468E+00
        -11   -1    0    0    0    0  0.00000000000E+00  0.00000000000E+00  0.45593999997E+02  0.45594000000E+02  0.51100000000E-03 0. -1.
         11   -1    0    0    0    0 -0.00000000000E+00 -0.00000000000E+00 -0.45593999997E+02  0.45594000000E+02  0.51100000000E-03 0.  1.
    9900012    2    1    2    0    0  0.50870592226E+00 -0.43325170532E+02 -0.12320080820E+02  0.46142316802E+02  0.99999912525E+01 0.  0.
         12    1    1    2    0    0 -0.50870592226E+00  0.43325170532E+02  0.12320080820E+02  0.45045683198E+02  0.00000000000E+00 0. -1.
         11    1    3    3    0    0  0.57329509856E+00 -0.62928382935E+00 -0.11710673934E+01  0.14477791644E+01  0.51100000000E-03 0. -1.
        -11    1    3    3    0    0 -0.88933538628E+00 -0.41156266066E+02 -0.11810931168E+02  0.42826711866E+02  0.51100000000E-03 0.  1.
         12    1    3    3    0    0  0.82474620998E+00 -0.15396206368E+01  0.66191774111E+00  0.18678257714E+01  0.00000000000E+00 0. -1.
</event>
<event>
 7    1  0.2323330E-008  0.4614232E+02  0.7816164E-02  0.1320468E+00
        -11   -1    0    0    0    0  0.00000000000E+00  0.00000000000E+00  0.45593999997E+02  0.45594000000E+02  0.51100000000E-03 0.  1.
         11   -1    0    0    0    0 -0.00000000000E+00 -0.00000000000E+00 -0.45593999997E+02  0.45594000000E+02  0.51100000000E-03 0. -1.
    9900012    2    1    2    0    0  0.43160489170E+02 -0.12667116261E+02  0.24144936564E+01  0.46142318304E+02  0.10000004954E+02 0.  0.
         12    1    1    2    0    0 -0.43160489170E+02  0.12667116261E+02 -0.24144936564E+01  0.45045681696E+02  0.00000000000E+00 0. -1.
         11    1    3    3    0    0  0.14672890158E+02 -0.39380030256E+01 -0.71030966712E+00  0.15208751215E+02  0.51100000000E-03 0. -1.
        -11    1    3    3    0    0  0.79245925775E+01 -0.31711518844E+01 -0.25156458521E+01  0.88985305589E+01  0.51100000000E-03 0.  1.
         12    1    3    3    0    0  0.20563006435E+02 -0.55579613514E+01  0.56404491756E+01  0.22035036531E+02  0.00000000000E+00 0. -1.
</event>
<event>
 7    1  0.2323330E-008  0.4614232E+02  0.7816164E-02  0.1320468E+00
        -11   -1    0    0    0    0  0.00000000000E+00  0.00000000000E+00  0.45593999997E+02  0.45594000000E+02  0.51100000000E-03 0.  1.
         11   -1    0    0    0    0 -0.00000000000E+00 -0.00000000000E+00 -0.45593999997E+02  0.45594000000E+02  0.51100000000E-03 0. -1.
    9900012    2    1    2    0    0  0.65199644777E+01  0.37635395852E+02  0.23878457258E+02  0.46142315648E+02  0.99999807300E+01 0.  0.
         12    1    1    2    0    0 -0.65199644777E+01 -0.37635395852E+02 -0.23878457258E+02  0.45045684352E+02  0.00000000000E+00 0. -1.
         11    1    3    3    0    0  0.15701106941E+01  0.46796635822E+01  0.38413577263E+00  0.49509655005E+01  0.51100000000E-03 0. -1.
        -11    1    3    3    0    0  0.55633523038E+00  0.16334210628E+01 -0.10457966546E+00  0.17287308710E+01  0.51100000000E-03 0.  1.
        -12    1    3    3    0    0  0.43935185532E+01  0.31322311207E+02  0.23598901151E+02  0.39462619276E+02  0.00000000000E+00 0.  1.
</event>
<event>
 7    1  0.2323330E-008  0.4614232E+02  0.7816164E-02  0.1320468E+00
        -11   -1    0    0    0    0  0.00000000000E+00  0.00000000000E+00  0.45593999997E+02  0.45594000000E+02  0.51100000000E-03 0.  1.
         11   -1    0    0    0    0 -0.00000000000E+00 -0.00000000000E+00 -0.45593999997E+02  0.45594000000E+02  0.51100000000E-03 0. -1.
    9900012    2    1    2    0    0 -0.40827896098E+02 -0.14364106233E+02  0.12484742994E+02  0.46142318128E+02  0.10000003350E+02 0.  0.
         12    1    1    2    0    0  0.40827896098E+02  0.14364106233E+02 -0.12484742994E+02  0.45045681872E+02  0.00000000000E+00 0. -1.
         11    1    3    3    0    0 -0.33791060554E+02 -0.96749973395E+01  0.92227867528E+01  0.36338700343E+02  0.51100000000E-03 0. -1.
        -11    1    3    3    0    0 -0.50626654891E+01 -0.15493851308E+01  0.80619881363E+00  0.53554769093E+01  0.51100000000E-03 0.  1.
        -12    1    3    3    0    0 -0.19741700549E+01 -0.31397237625E+01  0.24557574278E+01  0.44481408762E+01  0.00000000000E+00 0.  1.
</event>
<event>
 7    1  0.2323330E-008  0.4614232E+02  0.7816164E-02  0.1320468E+00
        -11   -1    0    0    0    0  0.00000000000E+00  0.00000000000E+00  0.45593999997E+02  0.45594000000E+02  0.51100000000E-03 0.  1.
         11   -1    0    0    0    0 -0.00000000000E+00 -0.00000000000E+00 -0.45593999997E+02  0.45594000000E+02  0.51100000000E-03 0. -1.
    9900012    2    1    2    0    0  0.11139853586E+02 -0.19093125937E+02  0.39248818275E+02  0.46142317278E+02  0.99999955930E+01 0.  0.
         12    1    1    2    0    0 -0.11139853586E+02  0.19093125937E+02 -0.39248818275E+02  0.45045682722E+02  0.00000000000E+00 0. -1.
         11    1    3    3    0    0 -0.94300253104E+00 -0.26475071090E+01  0.34718782914E+01  0.44668206587E+01  0.51100000000E-03 0.  1.
        -11    1    3    3    0    0  0.70437136784E+01 -0.49886604882E+01  0.17647919187E+02  0.19645602249E+02  0.51100000000E-03 0. -1.
        -12    1    3    3    0    0  0.50391424386E+01 -0.11456958339E+02  0.18129020796E+02  0.22029894370E+02  0.00000000000E+00 0.  1.
</event>
<event>
 7    1  0.2323330E-008  0.4614232E+02  0.7816164E-02  0.1320468E+00
        -11   -1    0    0    0    0  0.00000000000E+00  0.00000000000E+00  0.45593999997E+02  0.45594000000E+02  0.51100000000E-03 0. -1.
         11   -1    0    0    0    0 -0.00000000000E+00 -0.00000000000E+00 -0.45593999997E+02  0.45594000000E+02  0.51100000000E-03 0.  1.
    9900012    2    1    2    0    0  0.37249599340E+02 -0.20324280327E+02 -0.15116364562E+02  0.46142317639E+02  0.99999988892E+01 0.  0.
         12    1    1    2    0    0 -0.37249599340E+02  0.20324280327E+02  0.15116364562E+02  0.45045682361E+02  0.00000000000E+00 0. -1.
         11    1    3    3    0    0  0.50298959734E+01 -0.33089431942E+01 -0.60004211049E+01  0.85002360122E+01  0.51100000000E-03 0. -1.
        -11    1    3    3    0    0  0.20632930996E+02 -0.11195319013E+02 -0.70643162450E+01  0.24514436024E+02  0.51100000000E-03 0.  1.
         12    1    3    3    0    0  0.11586772370E+02 -0.58200181198E+01 -0.20516272124E+01  0.13127645603E+02  0.00000000000E+00 0. -1.
</event>
<event>
 7    1  0.2323330E-008  0.4614232E+02  0.7816164E-02  0.1320468E+00
        -11   -1    0    0    0    0  0.00000000000E+00  0.00000000000E+00  0.45593999997E+02  0.45594000000E+02  0.51100000000E-03 0.  1.
         11   -1    0    0    0    0 -0.00000000000E+00 -0.00000000000E+00 -0.45593999997E+02  0.45594000000E+02  0.51100000000E-03 0. -1.
    9900012    2    1    2    0    0  0.60904630349E+01 -0.31773756677E+02  0.31344029171E+02  0.46142317432E+02  0.99999969960E+01 0.  0.
         12    1    1    2    0    0 -0.60904630349E+01  0.31773756677E+02 -0.31344029171E+02  0.45045682568E+02  0.00000000000E+00 0. -1.
         11    1    3    3    0    0  0.30280924658E+01 -0.96839110772E+01  0.59766821919E+01  0.11775746601E+02  0.51100000000E-03 0. -1.
        -11    1    3    3    0    0  0.14507594634E+01 -0.73235154941E+01  0.13201372040E+02  0.15166239027E+02  0.51100000000E-03 0.  1.
        -12    1    3    3    0    0  0.16116111057E+01 -0.14766330106E+02  0.12165974939E+02  0.19200331804E+02  0.00000000000E+00 0.  1.
</event>
<event>
 7    1  0.2323330E-008  0.4614232E+02  0.7816164E-02  0.1320468E+00
        -11   -1    0    0    0    0  0.00000000000E+00  0.00000000000E+00  0.45593999997E+02  0.45594000000E+02  0.51100000000E-03 0. -1.
         11   -1    0    0    0    0 -0.00000000000E+00 -0.00000000000E+00 -0.45593999997E+02  0.45594000000E+02  0.51100000000E-03 0.  1.
    9900012    2    1    2    0    0 -0.29511541035E+02 -0.19014021207E+02 -0.28224979225E+02  0.46142317533E+02  0.99999979157E+01 0.  0.
         12    1    1    2    0    0  0.29511541035E+02  0.19014021207E+02  0.28224979225E+02  0.45045682467E+02  0.00000000000E+00 0. -1.
         11    1    3    3    0    0 -0.16902215279E+02 -0.12203481507E+02 -0.20531599042E+02  0.29260150405E+02  0.51100000000E-03 0.  1.
        -11    1    3    3    0    0 -0.12788295028E+02 -0.61745675650E+01 -0.78167086632E+01  0.16210080473E+02  0.51100000000E-03 0. -1.
         12    1    3    3    0    0  0.17896927253E+00 -0.63597213473E+00  0.12332848112E+00  0.67208665432E+00  0.00000000000E+00 0. -1.
</event>
<event>
 7    1  0.2323330E-008  0.4614232E+02  0.7816164E-02  0.1320468E+00
        -11   -1    0    0    0    0  0.00000000000E+00  0.00000000000E+00  0.45593999997E+02  0.45594000000E+02  0.51100000000E-03 0.  1.
         11   -1    0    0    0    0 -0.00000000000E+00 -0.00000000000E+00 -0.45593999997E+02  0.45594000000E+02  0.51100000000E-03 0. -1.
    9900012    2    1    2    0    0 -0.17555940697E+01  0.32789325035E+02  0.30836529383E+02  0.46142317730E+02  0.99999997121E+01 0.  0.
         12    1    1    2    0    0  0.17555940697E+01 -0.32789325035E+02 -0.30836529383E+02  0.45045682270E+02  0.00000000000E+00 0. -1.
         11    1    3    3    0    0 -0.20278085626E+01  0.23565996905E+02  0.19715177665E+02  0.30792149134E+02  0.51100000000E-03 0.  1.
        -11    1    3    3    0    0 -0.95949249751E+00  0.17870260869E+01  0.14311969014E+00  0.20333645996E+01  0.51100000000E-03 0. -1.
        -12    1    3    3    0    0  0.12317069904E+01  0.74363020436E+01  0.10978232029E+02  0.13316803996E+02  0.00000000000E+00 0.  1.
</event>
<event>
 7    1  0.2323330E-008  0.4614232E+02  0.7816164E-02  0.1320468E+00
        -11   -1    0    0    0    0  0.00000000000E+00  0.00000000000E+00  0.45593999997E+02  0.45594000000E+02  0.51100000000E-03 0.  1.
         11   -1    0    0    0    0 -0.00000000000E+00 -0.00000000000E+00 -0.45593999997E+02  0.45594000000E+02  0.51100000000E-03 0. -1.
    9900012    2    1    2    0    0 -0.12341357723E+02 -0.29333446217E+02  0.31880296707E+02  0.46142317682E+02  0.99999992772E+01 0.  0.
         12    1    1    2    0    0  0.12341357723E+02  0.29333446217E+02 -0.31880296707E+02  0.45045682318E+02  0.00000000000E+00 0. -1.
         11    1    3    3    0    0 -0.26275065441E+01 -0.19307817983E+01  0.11907091825E+01  0.34712386277E+01  0.51100000000E-03 0. -1.
        -11    1    3    3    0    0 -0.79655851671E+00  0.30273112718E-01  0.71015622371E+00  0.10675879613E+01  0.51100000000E-03 0.  1.
        -12    1    3    3    0    0 -0.89172926627E+01 -0.27432937531E+02  0.29979431300E+02  0.41603491093E+02  0.00000000000E+00 0.  1.
</event>
<event>
 7    1  0.2323330E-008  0.4614232E+02  0.7816164E-02  0.1320468E+00
        -11   -1    0    0    0    0  0.00000000000E+00  0.00000000000E+00  0.45593999997E+02  0.45594000000E+02  0.51100000000E-03 0.  1.
         11   -1    0    0    0    0 -0.00000000000E+00 -0.00000000000E+00 -0.45593999997E+02  0.45594000000E+02  0.51100000000E-03 0. -1.
    9900012    2    1    2    0    0  0.60257095275E+01 -0.32360078377E+02  0.30751091894E+02  0.46142317626E+02  0.99999987725E+01 0.  0.
         12    1    1    2    0    0 -0.60257095275E+01  0.32360078377E+02 -0.30751091894E+02  0.45045682374E+02  0.00000000000E+00 0. -1.
         11    1    3    3    0    0  0.77348742063E+01 -0.22560433591E+02  0.18325672172E+02  0.30077095997E+02  0.51100000000E-03 0.  1.
        -11    1    3    3    0    0 -0.94390408565E-01 -0.48084001650E+01  0.72183699762E+01  0.86737815900E+01  0.51100000000E-03 0. -1.
         12    1    3    3    0    0 -0.16147742702E+01 -0.49912446204E+01  0.52070497454E+01  0.73914400394E+01  0.00000000000E+00 0. -1.
</event>
<event>
 7    1  0.2323330E-008  0.4614232E+02  0.7816164E-02  0.1320468E+00
        -11   -1    0    0    0    0  0.00000000000E+00  0.00000000000E+00  0.45593999997E+02  0.45594000000E+02  0.51100000000E-03 0.  1.
         11   -1    0    0    0    0 -0.00000000000E+00 -0.00000000000E+00 -0.45593999997E+02  0.45594000000E+02  0.51100000000E-03 0. -1.
    9900012    2    1    2    0    0  0.44423774173E+02  0.27518616963E+00  0.74542609772E+01  0.46142318232E+02  0.10000004294E+02 0.  0.
         12    1    1    2    0    0 -0.44423774173E+02 -0.27518616963E+00 -0.74542609772E+01  0.45045681768E+02  0.00000000000E+00 0. -1.
         11    1    3    3    0    0  0.28238704369E+02 -0.32622523990E+01  0.55787063670E+01  0.28968753514E+02  0.51100000000E-03 0. -1.
        -11    1    3    3    0    0  0.60303819113E+01  0.30343112444E+00 -0.10349160880E+01  0.61260613786E+01  0.51100000000E-03 0.  1.
        -12    1    3    3    0    0  0.10154687893E+02  0.32340074442E+01  0.29104706982E+01  0.11047503340E+02  0.00000000000E+00 0.  1.
</event>
<event>
 7    1  0.2323330E-008  0.4614232E+02  0.7816164E-02  0.1320468E+00
        -11   -1    0    0    0    0  0.00000000000E+00  0.00000000000E+00  0.45593999997E+02  0.45594000000E+02  0.51100000000E-03 0. -1.
         11   -1    0    0    0    0 -0.00000000000E+00 -0.00000000000E+00 -0.45593999997E+02  0.45594000000E+02  0.51100000000E-03 0.  1.
    9900012    2    1    2    0    0  0.36331050997E+02 -0.25958139494E+02  0.59450168318E+01  0.46142317658E+02  0.99999990590E+01 0.  0.
         12    1    1    2    0    0 -0.36331050997E+02  0.25958139494E+02 -0.59450168318E+01  0.45045682342E+02  0.00000000000E+00 0. -1.
         11    1    3    3    0    0  0.43918276228E+01 -0.56710985792E+01 -0.12124030811E+01  0.72745742456E+01  0.51100000000E-03 0. -1.
        -11    1    3    3    0    0  0.26037428738E+01 -0.36314554245E+01  0.91097994357E+00  0.45603541717E+01  0.51100000000E-03 0.  1.
         12    1    3    3    0    0  0.29335480500E+02 -0.16655585491E+02  0.62464399693E+01  0.34307389241E+02  0.00000000000E+00 0. -1.
</event>
<event>
 7    1  0.2323330E-008  0.4614232E+02  0.7816164E-02  0.1320468E+00
        -11   -1    0    0    0    0  0.00000000000E+00  0.00000000000E+00  0.45593999997E+02  0.45594000000E+02  0.51100000000E-03 0.  1.
         11   -1    0    0    0    0 -0.00000000000E+00 -0.00000000000E+00 -0.45593999997E+02  0.45594000000E+02  0.51100000000E-03 0. -1.
    9900012    2    1    2    0    0 -0.30981151337E+02 -0.27539803865E+02  0.17630682783E+02  0.46142317516E+02  0.99999977670E+01 0.  0.
         12    1    1    2    0    0  0.30981151337E+02  0.27539803865E+02 -0.17630682783E+02  0.45045682484E+02  0.00000000000E+00 0. -1.
         11    1    3    3    0    0 -0.16963153793E+02 -0.16142033859E+02  0.13096896116E+02  0.26829881323E+02  0.51100000000E-03 0. -1.
        -11    1    3    3    0    0 -0.13980769588E+02 -0.11810573362E+02  0.46476732117E+01  0.18882595901E+02  0.51100000000E-03 0.  1.
         12    1    3    3    0    0 -0.37227955723E-01  0.41280335607E+00 -0.11388654493E+00  0.42984029195E+00  0.00000000000E+00 0. -1.
</event>
<event>
 7    1  0.2323330E-008  0.4614232E+02  0.7816164E-02  0.1320468E+00
        -11   -1    0    0    0    0  0.00000000000E+00  0.00000000000E+00  0.45593999997E+02  0.45594000000E+02  0.51100000000E-03 0. -1.
         11   -1    0    0    0    0 -0.00000000000E+00 -0.00000000000E+00 -0.45593999997E+02  0.45594000000E+02  0.51100000000E-03 0.  1.
    9900012    2    1    2    0    0 -0.31847452904E+01 -0.40945004569E+01 -0.44746015726E+02  0.46142318077E+02  0.10000002884E+02 0.  0.
         12    1    1    2    0    0  0.31847452904E+01  0.40945004569E+01  0.44746015726E+02  0.45045681923E+02  0.00000000000E+00 0. -1.
         11    1    3    3    0    0  0.36838549300E+00  0.15959273788E+01 -0.27189834560E+01  0.31742027920E+01  0.51100000000E-03 0. -1.
        -11    1    3    3    0    0 -0.71253813673E+00 -0.53704338584E+01 -0.18773449776E+02  0.19539490454E+02  0.51100000000E-03 0.  1.
         12    1    3    3    0    0 -0.28405926467E+01 -0.31999397737E+00 -0.23253582493E+02  0.23428624832E+02  0.00000000000E+00 0. -1.
</event>
<event>
 7    1  0.2323330E-008  0.4614232E+02  0.7816164E-02  0.1320468E+00
        -11   -1    0    0    0    0  0.00000000000E+00  0.00000000000E+00  0.45593999997E+02  0.45594000000E+02  0.51100000000E-03 0.  1.
         11   -1    0    0    0    0 -0.00000000000E+00 -0.00000000000E+00 -0.45593999997E+02  0.45594000000E+02  0.51100000000E-03 0. -1.
    9900012    2    1    2    0    0 -0.57292552163E+01  0.40995637209E+02 -0.17766452837E+02  0.46142317833E+02  0.10000000655E+02 0.  0.
         12    1    1    2    0    0  0.57292552163E+01 -0.40995637209E+02  0.17766452837E+02  0.45045682167E+02  0.00000000000E+00 0. -1.
         11    1    3    3    0    0 -0.19762223519E+01  0.14521897228E+02 -0.77105590793E+01  0.16560304208E+02  0.51100000000E-03 0. -1.
        -11    1    3    3    0    0  0.81695511408E+00  0.17999957001E+02 -0.49585530388E+01  0.18688314964E+02  0.51100000000E-03 0.  1.
        -12    1    3    3    0    0 -0.45699879785E+01  0.84737829800E+01 -0.50973407190E+01  0.10893698661E+02  0.00000000000E+00 0.  1.
</event>
<event>
 7    1  0.2323330E-008  0.4614232E+02  0.7816164E-02  0.1320468E+00
        -11   -1    0    0    0    0  0.00000000000E+00  0.00000000000E+00  0.45593999997E+02  0.45594000000E+02  0.51100000000E-03 0.  1.
         11   -1    0    0    0    0 -0.00000000000E+00 -0.00000000000E+00 -0.45593999997E+02  0.45594000000E+02  0.51100000000E-03 0. -1.
    9900012    2    1    2    0    0 -0.34796599139E+02  0.52258025933E+01 -0.28124742481E+02  0.46142318032E+02  0.10000002470E+02 0.  0.
         12    1    1    2    0    0  0.34796599139E+02 -0.52258025933E+01  0.28124742481E+02  0.45045681968E+02  0.00000000000E+00 0. -1.
         11    1    3    3    0    0 -0.88961788175E+01  0.31561157579E+01 -0.50460118101E+01  0.10703518098E+02  0.51100000000E-03 0. -1.
        -11    1    3    3    0    0 -0.71957973232E+01  0.29008960801E+01 -0.40847360629E+01  0.87681107514E+01  0.51100000000E-03 0.  1.
        -12    1    3    3    0    0 -0.18704622998E+02 -0.83120924472E+00 -0.18993994608E+02  0.26670689182E+02  0.00000000000E+00 0.  1.
</event>
<event>
 7    1  0.2323330E-008  0.4614232E+02  0.7816164E-02  0.1320468E+00
        -11   -1    0    0    0    0  0.00000000000E+00  0.00000000000E+00  0.45593999997E+02  0.45594000000E+02  0.51100000000E-03 0.  1.
         11   -1    0    0    0    0 -0.00000000000E+00 -0.00000000000E+00 -0.45593999997E+02  0.45594000000E+02  0.51100000000E-03 0. -1.
    9900012    2    1    2    0    0  0.37170288620E+02  0.18659512914E+01  0.25377180384E+02  0.46142318580E+02  0.10000007469E+02 0.  0.
         12    1    1    2    0    0 -0.37170288620E+02 -0.18659512914E+01 -0.25377180384E+02  0.45045681420E+02  0.00000000000E+00 0. -1.
         11    1    3    3    0    0  0.11052914663E+02 -0.11496969407E+01  0.56444103442E+01  0.12463871550E+02  0.51100000000E-03 0. -1.
        -11    1    3    3    0    0  0.20227222611E+02  0.49558964993E+01  0.13125097307E+02  0.24616450277E+02  0.51100000000E-03 0.  1.
        -12    1    3    3    0    0  0.58901513455E+01 -0.19402482673E+01  0.66076727328E+01  0.90619967532E+01  0.00000000000E+00 0.  1.
</event>
<event>
 7    1  0.2323330E-008  0.4614233E+02  0.7816164E-02  0.1320468E+00
        -11   -1    0    0    0    0  0.00000000000E+00  0.00000000000E+00  0.45593999997E+02  0.45594000000E+02  0.51100000000E-03 0. -1.
         11   -1    0    0    0    0 -0.00000000000E+00 -0.00000000000E+00 -0.45593999997E+02  0.45594000000E+02  0.51100000000E-03 0.  1.
    9900012    2    1    2    0    0  0.38505467430E+02  0.23362803677E+02  0.78788135279E+00  0.46142330123E+02  0.10000112728E+02 0.  0.
         12    1    1    2    0    0 -0.38505467430E+02 -0.23362803677E+02 -0.78788135279E+00  0.45045669877E+02  0.00000000000E+00 0. -1.
         11    1    3    3    0    0  0.18060962889E+01  0.12762197173E+01 -0.15820530186E+01  0.27191198183E+01  0.51100000000E-03 0. -1.
        -11    1    3    3    0    0  0.22376687119E+02  0.17149357168E+02  0.21077652796E+01  0.28271173524E+02  0.51100000000E-03 0.  1.
         12    1    3    3    0    0  0.14322684022E+02  0.49372267915E+01  0.26216909173E+00  0.15152036781E+02  0.00000000000E+00 0. -1.
</event>
<event>
 7    1  0.2323330E-008  0.4614232E+02  0.7816164E-02  0.1320468E+00
        -11   -1    0    0    0    0  0.00000000000E+00  0.00000000000E+00  0.45593999997E+02  0.45594000000E+02  0.51100000000E-03 0.  1.
         11   -1    0    0    0    0 -0.00000000000E+00 -0.00000000000E+00 -0.45593999997E+02  0.45594000000E+02  0.51100000000E-03 0. -1.
    9900012    2    1    2    0    0  0.55172581615E+00  0.41002240878E+02  0.18644718274E+02  0.46142315657E+02  0.99999808145E+01 0.  0.
         12    1    1    2    0    0 -0.55172581615E+00 -0.41002240878E+02 -0.18644718274E+02  0.45045684343E+02  0.00000000000E+00 0. -1.
         11    1    3    3    0    0 -0.46634126904E+00  0.17120501564E+00  0.28336919171E+00  0.57191231541E+00  0.51100000000E-03 0. -1.
        -11    1    3    3    0    0 -0.23537523340E+01  0.23238366356E+02  0.71033044330E+01  0.24413495347E+02  0.51100000000E-03 0.  1.
         12    1    3    3    0    0  0.33718194192E+01  0.17592669507E+02  0.11258044650E+02  0.21156907995E+02  0.00000000000E+00 0. -1.
</event>
<event>
 7    1  0.2323330E-008  0.4614232E+02  0.7816164E-02  0.1320468E+00
        -11   -1    0    0    0    0  0.00000000000E+00  0.00000000000E+00  0.45593999997E+02  0.45594000000E+02  0.51100000000E-03 0.  1.
         11   -1    0    0    0    0 -0.00000000000E+00 -0.00000000000E+00 -0.45593999997E+02  0.45594000000E+02  0.51100000000E-03 0. -1.
    9900012    2    1    2    0    0  0.35668738167E+02  0.38862300629E+01  0.27235121068E+02  0.46142317787E+02  0.10000000232E+02 0.  0.
         12    1    1    2    0    0 -0.35668738167E+02 -0.38862300629E+01 -0.27235121068E+02  0.45045682213E+02  0.00000000000E+00 0. -1.
         11    1    3    3    0    0  0.66776296142E+01  0.23561175221E+01  0.38889936592E+01  0.80787560295E+01  0.51100000000E-03 0. -1.
        -11    1    3    3    0    0  0.84293183598E+01  0.16846910704E+01  0.11417579792E+02  0.14291701108E+02  0.51100000000E-03 0.  1.
         12    1    3    3    0    0  0.20561790193E+02 -0.15457852954E+00  0.11928547617E+02  0.23771860649E+02  0.00000000000E+00 0. -1.
</event>
<event>
 7    1  0.2323330E-008  0.4614232E+02  0.7816164E-02  0.1320468E+00
        -11   -1    0    0    0    0  0.00000000000E+00  0.00000000000E+00  0.45593999997E+02  0.45594000000E+02  0.51100000000E-03 0. -1.
         11   -1    0    0    0    0 -0.00000000000E+00 -0.00000000000E+00 -0.45593999997E+02  0.45594000000E+02  0.51100000000E-03 0.  1.
    9900012    2    1    2    0    0  0.32499013053E+02  0.25704885683E+02 -0.17668799516E+02  0.46142317923E+02  0.10000001478E+02 0.  0.
         12    1    1    2    0    0 -0.32499013053E+02 -0.25704885683E+02  0.17668799516E+02  0.45045682077E+02  0.00000000000E+00 0. -1.
         11    1    3    3    0    0  0.13358843597E+02  0.79897737215E+01 -0.84075384910E+01  0.17691294190E+02  0.51100000000E-03 0. -1.
        -11    1    3    3    0    0  0.14334517034E+02  0.90366148575E+01 -0.65494023306E+01  0.18166822998E+02  0.51100000000E-03 0.  1.
        -12    1    3    3    0    0  0.48056524222E+01  0.86784971044E+01 -0.27118586941E+01  0.10284200736E+02  0.00000000000E+00 0.  1.
</event>
<event>
 7    1  0.2323330E-008  0.4614232E+02  0.7816164E-02  0.1320468E+00
        -11   -1    0    0    0    0  0.00000000000E+00  0.00000000000E+00  0.45593999997E+02  0.45594000000E+02  0.51100000000E-03 0.  1.
         11   -1    0    0    0    0 -0.00000000000E+00 -0.00000000000E+00 -0.45593999997E+02  0.45594000000E+02  0.51100000000E-03 0. -1.
    9900012    2    1    2    0    0  0.15783304270E+02  0.10957697795E+02  0.40742234466E+02  0.46142317588E+02  0.99999984258E+01 0.  0.
         12    1    1    2    0    0 -0.15783304270E+02 -0.10957697795E+02 -0.40742234466E+02  0.45045682412E+02  0.00000000000E+00 0. -1.
         11    1    3    3    0    0  0.15647488149E+01  0.67553914235E+00  0.27408685211E+00  0.17262432767E+01  0.51100000000E-03 0. -1.
        -11    1    3    3    0    0  0.85599299520E+00  0.25058506651E+01  0.85493982471E+01  0.89500962124E+01  0.51100000000E-03 0.  1.
        -12    1    3    3    0    0  0.13362562460E+02  0.77763079877E+01  0.31918749367E+02  0.35465978099E+02  0.00000000000E+00 0.  1.
</event>
<event>
 7    1  0.2323330E-008  0.4614232E+02  0.7816164E-02  0.1320468E+00
        -11   -1    0    0    0    0  0.00000000000E+00  0.00000000000E+00  0.45593999997E+02  0.45594000000E+02  0.51100000000E-03 0. -1.
         11   -1    0    0    0    0 -0.00000000000E+00 -0.00000000000E+00 -0.45593999997E+02  0.45594000000E+02  0.51100000000E-03 0.  1.
    9900012    2    1    2    0    0  0.74269552261E+01  0.40837551736E+02 -0.17499949302E+02  0.46142317396E+02  0.99999966691E+01 0.  0.
         12    1    1    2    0    0 -0.74269552261E+01 -0.40837551736E+02  0.17499949302E+02  0.45045682604E+02  0.00000000000E+00 0. -1.
         11    1    3    3    0    0  0.11918148061E+00 -0.14912663901E+00 -0.82799469807E-02  0.19108060714E+00  0.51100000000E-03 0. -1.
        -11    1    3    3    0    0  0.83931759709E+01  0.35139861262E+02 -0.17156712310E+02  0.39995100074E+02  0.51100000000E-03 0.  1.
         12    1    3    3    0    0 -0.10854022254E+01  0.58468171132E+01 -0.33495704533E+00  0.59561367150E+01  0.00000000000E+00 0. -1.
</event>
<event>
 7    1  0.2323330E-008  0.4614232E+02  0.7816164E-02  0.1320468E+00
        -11   -1    0    0    0    0  0.00000000000E+00  0.00000000000E+00  0.45593999997E+02  0.45594000000E+02  0.51100000000E-03 0.  1.
         11   -1    0    0    0    0 -0.00000000000E+00 -0.00000000000E+00 -0.45593999997E+02  0.45594000000E+02  0.51100000000E-03 0. -1.
    9900012    2    1    2    0    0  0.76878974769E+01  0.14161958922E+02  0.42064815058E+02  0.46142317477E+02  0.99999974097E+01 0.  0.
         12    1    1    2    0    0 -0.76878974769E+01 -0.14161958922E+02 -0.42064815058E+02  0.45045682523E+02  0.00000000000E+00 0. -1.
         11    1    3    3    0    0  0.28500976075E+01  0.72977786989E+00  0.11524290536E+02  0.11893901998E+02  0.51100000000E-03 0. -1.
        -11    1    3    3    0    0  0.57572487867E+01  0.85574595363E+01  0.23195037048E+02  0.25384754701E+02  0.51100000000E-03 0.  1.
        -12    1    3    3    0    0 -0.91944891726E+00  0.48747215157E+01  0.73454874730E+01  0.88636607777E+01  0.00000000000E+00 0.  1.
</event>
<event>
 7    1  0.2323330E-008  0.4614232E+02  0.7816164E-02  0.1320468E+00
        -11   -1    0    0    0    0  0.00000000000E+00  0.00000000000E+00  0.45593999997E+02  0.45594000000E+02  0.51100000000E-03 0.  1.
         11   -1    0    0    0    0 -0.00000000000E+00 -0.00000000000E+00 -0.45593999997E+02  0.45594000000E+02  0.51100000000E-03 0. -1.
    9900012    2    1    2    0    0  0.31896180491E+02 -0.26533787538E+02 -0.17541529333E+02  0.46142318050E+02  0.10000002631E+02 0.  0.
         12    1    1    2    0    0 -0.31896180491E+02  0.26533787538E+02  0.17541529333E+02  0.45045681950E+02  0.00000000000E+00 0. -1.
         11    1    3    3    0    0  0.10099885457E+02 -0.75586233848E+01 -0.22351580013E+01  0.12811573099E+02  0.51100000000E-03 0.  1.
        -11    1    3    3    0    0  0.51112198824E+01 -0.13552931712E+01 -0.35303778993E+01  0.63580623337E+01  0.51100000000E-03 0. -1.
         12    1    3    3    0    0  0.16685075152E+02 -0.17619870982E+02 -0.11775993433E+02  0.26972682617E+02  0.00000000000E+00 0. -1.
</event>
<event>
 7    1  0.2323330E-008  0.4614232E+02  0.7816164E-02  0.1320468E+00
        -11   -1    0    0    0    0  0.00000000000E+00  0.00000000000E+00  0.45593999997E+02  0.45594000000E+02  0.51100000000E-03 0.  1.
         11   -1    0    0    0    0 -0.00000000000E+00 -0.00000000000E+00 -0.45593999997E+02  0.45594000000E+02  0.51100000000E-03 0. -1.
    9900012    2    1    2    0    0 -0.15108629394E+02  0.42407036707E+02  0.15767235846E+01  0.46142317613E+02  0.99999986477E+01 0.  0.
         12    1    1    2    0    0  0.15108629394E+02 -0.42407036707E+02 -0.15767235846E+01  0.45045682387E+02  0.00000000000E+00 0. -1.
         11    1    3    3    0    0  0.48766868431E+00  0.15136749115E+01 -0.89109163065E+00  0.18229308925E+01  0.51100000000E-03 0. -1.
        -11    1    3    3    0    0 -0.40578744668E+01  0.18497248082E+02 -0.55343183595E+00  0.18945205696E+02  0.51100000000E-03 0.  1.
        -12    1    3    3    0    0 -0.11538423612E+02  0.22396113714E+02  0.30212470512E+01  0.25374181024E+02  0.00000000000E+00 0.  1.
</event>
<event>
 7    1  0.2323330E-008  0.4614232E+02  0.7816164E-02  0.1320468E+00
        -11   -1    0    0    0    0  0.00000000000E+00  0.00000000000E+00  0.45593999997E+02  0.45594000000E+02  0.51100000000E-03 0.  1.
         11   -1    0    0    0    0 -0.00000000000E+00 -0.00000000000E+00 -0.45593999997E+02  0.45594000000E+02  0.51100000000E-03 0. -1.
    9900012    2    1    2    0    0 -0.12242851359E+02 -0.35849025928E+02  0.24373621184E+02  0.46142317865E+02  0.10000000946E+02 0.  0.
         12    1    1    2    0    0  0.12242851359E+02  0.35849025928E+02 -0.24373621184E+02  0.45045682135E+02  0.00000000000E+00 0. -1.
         11    1    3    3    0    0 -0.97169271251E+01 -0.31302708549E+02  0.23744164876E+02  0.40472998421E+02  0.51100000000E-03 0. -1.
        -11    1    3    3    0    0 -0.19412429784E+00 -0.37486476641E+00 -0.60106240846E+00  0.73449582442E+00  0.51100000000E-03 0.  1.
         12    1    3    3    0    0 -0.23317999365E+01 -0.41714526129E+01  0.12305187160E+01  0.49348236195E+01  0.00000000000E+00 0. -1.
</event>
<event>
 7    1  0.2323330E-008  0.4614232E+02  0.7816164E-02  0.1320468E+00
        -11   -1    0    0    0    0  0.00000000000E+00  0.00000000000E+00  0.45593999997E+02  0.45594000000E+02  0.51100000000E-03 0.  1.
         11   -1    0    0    0    0 -0.00000000000E+00 -0.00000000000E+00 -0.45593999997E+02  0.45594000000E+02  0.51100000000E-03 0. -1.
    9900012    2    1    2    0    0 -0.47676284141E+00  0.38000531475E+02  0.24183585815E+02  0.46142317432E+02  0.99999969991E+01 0.  0.
         12    1    1    2    0    0  0.47676284141E+00 -0.38000531475E+02 -0.24183585815E+02  0.45045682568E+02  0.00000000000E+00 0. -1.
         11    1    3    3    0    0  0.23150014541E+01  0.89108593991E+01  0.74790028795E+01  0.11861624311E+02  0.51100000000E-03 0. -1.
        -11    1    3    3    0    0  0.14331700203E+01  0.17924114365E+02  0.10583340982E+02  0.20864682089E+02  0.51100000000E-03 0.  1.
        -12    1    3    3    0    0 -0.42249343158E+01  0.11165557711E+02  0.61212419530E+01  0.13416011032E+02  0.00000000000E+00 0.  1.
</event>
<event>
 7    1  0.2323330E-008  0.4614232E+02  0.7816164E-02  0.1320468E+00
        -11   -1    0    0    0    0  0.00000000000E+00  0.00000000000E+00  0.45593999997E+02  0.45594000000E+02  0.51100000000E-03 0. -1.
         11   -1    0    0    0    0 -0.00000000000E+00 -0.00000000000E+00 -0.45593999997E+02  0.45594000000E+02  0.51100000000E-03 0.  1.
    9900012    2    1    2    0    0  0.22192794915E+02  0.22821850496E+02 -0.31870935261E+02  0.46142317403E+02  0.99999967348E+01 0.  0.
         12    1    1    2    0    0 -0.22192794915E+02 -0.22821850496E+02  0.31870935261E+02  0.45045682597E+02  0.00000000000E+00 0. -1.
         11    1    3    3    0    0  0.18012946542E+01  0.45837961156E+00 -0.16157080954E+00  0.18657115766E+01  0.51100000000E-03 0.  1.
        -11    1    3    3    0    0  0.65085665772E+01  0.76786518663E+01 -0.14949998248E+02  0.18022918223E+02  0.51100000000E-03 0. -1.
         12    1    3    3    0    0  0.13882933684E+02  0.14684819018E+02 -0.16759366203E+02  0.26253687604E+02  0.00000000000E+00 0. -1.
</event>
<event>
 7    1  0.2323330E-008  0.4614232E+02  0.7816164E-02  0.1320468E+00
        -11   -1    0    0    0    0  0.00000000000E+00  0.00000000000E+00  0.45593999997E+02  0.45594000000E+02  0.51100000000E-03 0. -1.
         11   -1    0    0    0    0 -0.00000000000E+00 -0.00000000000E+00 -0.45593999997E+02  0.45594000000E+02  0.51100000000E-03 0.  1.
    9900012    2    1    2    0    0  0.25709763720E+02 -0.10336291644E+02 -0.35514540462E+02  0.46142318079E+02  0.10000002902E+02 0.  0.
         12    1    1    2    0    0 -0.25709763720E+02  0.10336291644E+02  0.35514540462E+02  0.45045681921E+02  0.00000000000E+00 0. -1.
         11    1    3    3    0    0  0.20087251408E+01  0.64609310550E+00 -0.54835361050E+01  0.58755069116E+01  0.51100000000E-03 0. -1.
        -11    1    3    3    0    0  0.77174427835E+01 -0.10401018867E+01 -0.65747478965E+01  0.10191567358E+02  0.51100000000E-03 0.  1.
        -12    1    3    3    0    0  0.15983595796E+02 -0.99422828628E+01 -0.23456256460E+02  0.30075243810E+02  0.00000000000E+00 0.  1.
</event>
<event>
 7    1  0.2323330E-008  0.4614232E+02  0.7816164E-02  0.1320468E+00
        -11   -1    0    0    0    0  0.00000000000E+00  0.00000000000E+00  0.45593999997E+02  0.45594000000E+02  0.51100000000E-03 0.  1.
         11   -1    0    0    0    0 -0.00000000000E+00 -0.00000000000E+00 -0.45593999997E+02  0.45594000000E+02  0.51100000000E-03 0. -1.
    9900012    2    1    2    0    0 -0.33584308334E+01  0.15987689474E+01  0.44891851694E+02  0.46142317984E+02  0.10000002030E+02 0.  0.
         12    1    1    2    0    0  0.33584308334E+01 -0.15987689474E+01 -0.44891851694E+02  0.45045682016E+02  0.00000000000E+00 0. -1.
         11    1    3    3    0    0 -0.97470223436E+00 -0.60200530911E+00  0.26287988154E+02  0.26312939332E+02  0.51100000000E-03 0. -1.
        -11    1    3    3    0    0 -0.98492805615E+00  0.25625408603E+00  0.16799900218E+02  0.16830698056E+02  0.51100000000E-03 0.  1.
         12    1    3    3    0    0 -0.13988005429E+01  0.19445201705E+01  0.18039633216E+01  0.29986805962E+01  0.00000000000E+00 0. -1.
</event>
<event>
 7    1  0.2323330E-008  0.4614232E+02  0.7816164E-02  0.1320468E+00
        -11   -1    0    0    0    0  0.00000000000E+00  0.00000000000E+00  0.45593999997E+02  0.45594000000E+02  0.51100000000E-03 0.  1.
         11   -1    0    0    0    0 -0.00000000000E+00 -0.00000000000E+00 -0.45593999997E+02  0.45594000000E+02  0.51100000000E-03 0. -1.
    9900012    2    1    2    0    0 -0.26333610075E+02  0.86139008695E+01  0.35516969602E+02  0.46142318326E+02  0.10000005151E+02 0.  0.
         12    1    1    2    0    0  0.26333610075E+02 -0.86139008695E+01 -0.35516969602E+02  0.45045681674E+02  0.00000000000E+00 0. -1.
         11    1    3    3    0    0 -0.46701078864E+01 -0.15081317771E+01  0.37661070632E+01  0.61861079687E+01  0.51100000000E-03 0. -1.
        -11    1    3    3    0    0 -0.96388282927E+01  0.32600557154E+01  0.16248244824E+02  0.19171344091E+02  0.51100000000E-03 0.  1.
         12    1    3    3    0    0 -0.12024673896E+02  0.68619769312E+01  0.15502617715E+02  0.20784866266E+02  0.00000000000E+00 0. -1.
</event>
<event>
 7    1  0.2323330E-008  0.4614232E+02  0.7816164E-02  0.1320468E+00
        -11   -1    0    0    0    0  0.00000000000E+00  0.00000000000E+00  0.45593999997E+02  0.45594000000E+02  0.51100000000E-03 0.  1.
         11   -1    0    0    0    0 -0.00000000000E+00 -0.00000000000E+00 -0.45593999997E+02  0.45594000000E+02  0.51100000000E-03 0. -1.
    9900012    2    1    2    0    0  0.29531636480E+02  0.21280965826E+02  0.26535191623E+02  0.46142318141E+02  0.10000003463E+02 0.  0.
         12    1    1    2    0    0 -0.29531636480E+02 -0.21280965826E+02 -0.26535191623E+02  0.45045681859E+02  0.00000000000E+00 0. -1.
         11    1    3    3    0    0  0.35210038528E+01  0.55253749839E+01  0.71863145635E+01  0.97247289994E+01  0.51100000000E-03 0. -1.
        -11    1    3    3    0    0  0.18467485135E+02  0.90853936713E+01  0.14903081430E+02  0.25410514000E+02  0.51100000000E-03 0.  1.
        -12    1    3    3    0    0  0.75431474929E+01  0.66701971707E+01  0.44457956292E+01  0.11007075142E+02  0.00000000000E+00 0.  1.
</event>
<event>
 7    1  0.2323330E-008  0.4614232E+02  0.7816164E-02  0.1320468E+00
        -11   -1    0    0    0    0  0.00000000000E+00  0.00000000000E+00  0.45593999997E+02  0.45594000000E+02  0.51100000000E-03 0.  1.
         11   -1    0    0    0    0 -0.00000000000E+00 -0.00000000000E+00 -0.45593999997E+02  0.45594000000E+02  0.51100000000E-03 0. -1.
    9900012    2    1    2    0    0  0.32196568319E+02  0.10023957324E+02  0.29866613832E+02  0.46142319256E+02  0.10000013630E+02 0.  0.
         12    1    1    2    0    0 -0.32196568319E+02 -0.10023957324E+02 -0.29866613832E+02  0.45045680744E+02  0.00000000000E+00 0. -1.
         11    1    3    3    0    0  0.93468559911E+01  0.11629369011E+01  0.11789592989E+02  0.15090084237E+02  0.51100000000E-03 0. -1.
        -11    1    3    3    0    0  0.49093029419E+01  0.46644542701E+01  0.57542304237E+01  0.88864817022E+01  0.51100000000E-03 0.  1.
        -12    1    3    3    0    0  0.17940409386E+02  0.41965661531E+01  0.12322790419E+02  0.22165753317E+02  0.00000000000E+00 0.  1.
</event>
<event>
 7    1  0.2323330E-008  0.4614232E+02  0.7816164E-02  0.1320468E+00
        -11   -1    0    0    0    0  0.00000000000E+00  0.00000000000E+00  0.45593999997E+02  0.45594000000E+02  0.51100000000E-03 0.  1.
         11   -1    0    0    0    0 -0.00000000000E+00 -0.00000000000E+00 -0.45593999997E+02  0.45594000000E+02  0.51100000000E-03 0. -1.
    9900012    2    1    2    0    0  0.81255461304E+01  0.57088586782E+01  0.43937432146E+02  0.46142317511E+02  0.99999977162E+01 0.  0.
         12    1    1    2    0    0 -0.81255461304E+01 -0.57088586782E+01 -0.43937432146E+02  0.45045682489E+02  0.00000000000E+00 0. -1.
         11    1    3    3    0    0  0.29756980902E+01  0.32289445892E+01  0.75622265448E+01  0.87446059293E+01  0.51100000000E-03 0. -1.
        -11    1    3    3    0    0  0.59562108783E+01  0.14397217251E+01  0.18803304062E+02  0.19776589458E+02  0.51100000000E-03 0.  1.
         12    1    3    3    0    0 -0.80636283807E+00  0.10401923639E+01  0.17571901539E+02  0.17621122123E+02  0.00000000000E+00 0. -1.
</event>
<event>
 7    1  0.2323330E-008  0.4614232E+02  0.7816164E-02  0.1320468E+00
        -11   -1    0    0    0    0  0.00000000000E+00  0.00000000000E+00  0.45593999997E+02  0.45594000000E+02  0.51100000000E-03 0.  1.
         11   -1    0    0    0    0 -0.00000000000E+00 -0.00000000000E+00 -0.45593999997E+02  0.45594000000E+02  0.51100000000E-03 0. -1.
    9900012    2    1    2    0    0  0.39225430744E+02  0.10951829398E+02  0.19249325333E+02  0.46142317521E+02  0.99999978090E+01 0.  0.
         12    1    1    2    0    0 -0.39225430744E+02 -0.10951829398E+02 -0.19249325333E+02  0.45045682479E+02  0.00000000000E+00 0. -1.
         11    1    3    3    0    0  0.20196814038E+02  0.55904078436E+01  0.84980727682E+01  0.22613739146E+02  0.51100000000E-03 0. -1.
        -11    1    3    3    0    0  0.33229089103E+01  0.28644637964E+01  0.49158256983E+01  0.65887949599E+01  0.51100000000E-03 0.  1.
         12    1    3    3    0    0  0.15705707796E+02  0.24969577581E+01  0.58354268664E+01  0.16939783415E+02  0.00000000000E+00 0. -1.
</event>
<event>
 7    1  0.2323330E-008  0.4614232E+02  0.7816164E-02  0.1320468E+00
        -11   -1    0    0    0    0  0.00000000000E+00  0.00000000000E+00  0.45593999997E+02  0.45594000000E+02  0.51100000000E-03 0.  1.
         11   -1    0    0    0    0 -0.00000000000E+00 -0.00000000000E+00 -0.45593999997E+02  0.45594000000E+02  0.51100000000E-03 0. -1.
    9900012    2    1    2    0    0 -0.32621369795E+02  0.26953473995E+02  0.15442473792E+02  0.46142317360E+02  0.99999963419E+01 0.  0.
         12    1    1    2    0    0  0.32621369795E+02 -0.26953473995E+02 -0.15442473792E+02  0.45045682640E+02  0.00000000000E+00 0. -1.
         11    1    3    3    0    0 -0.69995897156E+01  0.68062885103E+01  0.40388213382E-01  0.97632705043E+01  0.51100000000E-03 0. -1.
        -11    1    3    3    0    0 -0.23774889112E+02  0.19832842706E+02  0.15211168995E+02  0.34495893444E+02  0.51100000000E-03 0.  1.
         12    1    3    3    0    0 -0.18468909677E+01  0.31434277903E+00  0.19091658364E+00  0.18831534115E+01  0.00000000000E+00 0. -1.
</event>
<event>
 7    1  0.2323330E-008  0.4614232E+02  0.7816164E-02  0.1320468E+00
        -11   -1    0    0    0    0  0.00000000000E+00  0.00000000000E+00  0.45593999997E+02  0.45594000000E+02  0.51100000000E-03 0. -1.
         11   -1    0    0    0    0 -0.00000000000E+00 -0.00000000000E+00 -0.45593999997E+02  0.45594000000E+02  0.51100000000E-03 0.  1.
    9900012    2    1    2    0    0  0.42010607818E+02 -0.16249772706E+02  0.40884679129E+00  0.46142318321E+02  0.10000005101E+02 0.  0.
         12    1    1    2    0    0 -0.42010607818E+02  0.16249772706E+02 -0.40884679129E+00  0.45045681679E+02  0.00000000000E+00 0. -1.
         11    1    3    3    0    0  0.19909269132E+02 -0.81398517962E+01  0.64438947743E+00  0.21518629666E+02  0.51100000000E-03 0. -1.
        -11    1    3    3    0    0  0.17179359827E+02 -0.92297729978E+01 -0.95377214413E+00  0.19525081184E+02  0.51100000000E-03 0.  1.
         12    1    3    3    0    0  0.49219788589E+01  0.11198520881E+01  0.71822945799E+00  0.50986074708E+01  0.00000000000E+00 0. -1.
</event>
<event>
 7    1  0.2323330E-008  0.4614232E+02  0.7816164E-02  0.1320468E+00
        -11   -1    0    0    0    0  0.00000000000E+00  0.00000000000E+00  0.45593999997E+02  0.45594000000E+02  0.51100000000E-03 0. -1.
         11   -1    0    0    0    0 -0.00000000000E+00 -0.00000000000E+00 -0.45593999997E+02  0.45594000000E+02  0.51100000000E-03 0.  1.
    9900012    2    1    2    0    0  0.24680937384E+02 -0.15802903849E+02 -0.34208665401E+02  0.46142320643E+02  0.10000026277E+02 0.  0.
         12    1    1    2    0    0 -0.24680937384E+02  0.15802903849E+02  0.34208665401E+02  0.45045679357E+02  0.00000000000E+00 0. -1.
         11    1    3    3    0    0  0.10457993644E+02 -0.41304727125E+01 -0.13032679012E+02  0.17212819594E+02  0.51100000000E-03 0.  1.
        -11    1    3    3    0    0  0.84873231285E+01 -0.10517221188E+02 -0.17114519684E+02  0.21807186423E+02  0.51100000000E-03 0. -1.
         12    1    3    3    0    0  0.57356206124E+01 -0.11552099477E+01 -0.40614667051E+01  0.71223146259E+01  0.00000000000E+00 0. -1.
</event>
<event>
 7    1  0.2323330E-008  0.4614232E+02  0.7816164E-02  0.1320468E+00
        -11   -1    0    0    0    0  0.00000000000E+00  0.00000000000E+00  0.45593999997E+02  0.45594000000E+02  0.51100000000E-03 0.  1.
         11   -1    0    0    0    0 -0.00000000000E+00 -0.00000000000E+00 -0.45593999997E+02  0.45594000000E+02  0.51100000000E-03 0. -1.
    9900012    2    1    2    0    0  0.44878488910E+01  0.18143322452E+02  0.40985272218E+02  0.46142317898E+02  0.10000001244E+02 0.  0.
         12    1    1    2    0    0 -0.44878488910E+01 -0.18143322452E+02 -0.40985272218E+02  0.45045682102E+02  0.00000000000E+00 0. -1.
         11    1    3    3    0    0  0.24558903802E+00 -0.32457865415E+00  0.48452979542E+01  0.48623633970E+01  0.51100000000E-03 0. -1.
        -11    1    3    3    0    0 -0.74308955632E+00  0.77281208574E+01  0.18177537648E+02  0.19766105061E+02  0.51100000000E-03 0.  1.
        -12    1    3    3    0    0  0.49853494093E+01  0.10739780249E+02  0.17962436616E+02  0.21513849439E+02  0.00000000000E+00 0.  1.
</event>
<event>
 7    1  0.2323330E-008  0.4614232E+02  0.7816164E-02  0.1320468E+00
        -11   -1    0    0    0    0  0.00000000000E+00  0.00000000000E+00  0.45593999997E+02  0.45594000000E+02  0.51100000000E-03 0.  1.
         11   -1    0    0    0    0 -0.00000000000E+00 -0.00000000000E+00 -0.45593999997E+02  0.45594000000E+02  0.51100000000E-03 0. -1.
    9900012    2    1    2    0    0  0.26165828212E+02  0.31154416167E+02  0.19335597458E+02  0.46142317168E+02  0.99999945959E+01 0.  0.
         12    1    1    2    0    0 -0.26165828212E+02 -0.31154416167E+02 -0.19335597458E+02  0.45045682832E+02  0.00000000000E+00 0. -1.
         11    1    3    3    0    0  0.20730837310E+02  0.21196174327E+02  0.15350461289E+02  0.33386854953E+02  0.51100000000E-03 0. -1.
        -11    1    3    3    0    0  0.54946878258E+01  0.93417939347E+01  0.24660127086E+01  0.11114941618E+02  0.51100000000E-03 0.  1.
         12    1    3    3    0    0 -0.59696923794E-01  0.61644790575E+00  0.15191234602E+01  0.16405205974E+01  0.00000000000E+00 0. -1.
</event>
<event>
 7    1  0.2323330E-008  0.4614232E+02  0.7816164E-02  0.1320468E+00
        -11   -1    0    0    0    0  0.00000000000E+00  0.00000000000E+00  0.45593999997E+02  0.45594000000E+02  0.51100000000E-03 0. -1.
         11   -1    0    0    0    0 -0.00000000000E+00 -0.00000000000E+00 -0.45593999997E+02  0.45594000000E+02  0.51100000000E-03 0.  1.
    9900012    2    1    2    0    0  0.19822071042E+02 -0.34668759186E+02 -0.20839291656E+02  0.46142318291E+02  0.10000004832E+02 0.  0.
         12    1    1    2    0    0 -0.19822071042E+02  0.34668759186E+02  0.20839291656E+02  0.45045681709E+02  0.00000000000E+00 0. -1.
         11    1    3    3    0    0  0.71166245114E+01 -0.12458373113E+02 -0.40340356060E+01  0.14904054770E+02  0.51100000000E-03 0. -1.
        -11    1    3    3    0    0  0.16827040857E+01 -0.17111624601E+01 -0.40229883936E+01  0.46844429638E+01  0.51100000000E-03 0.  1.
        -12    1    3    3    0    0  0.11022742445E+02 -0.20499223614E+02 -0.12782267656E+02  0.26553820557E+02  0.00000000000E+00 0.  1.
</event>
<event>
 7    1  0.2323330E-008  0.4614232E+02  0.7816164E-02  0.1320468E+00
        -11   -1    0    0    0    0  0.00000000000E+00  0.00000000000E+00  0.45593999997E+02  0.45594000000E+02  0.51100000000E-03 0. -1.
         11   -1    0    0    0    0 -0.00000000000E+00 -0.00000000000E+00 -0.45593999997E+02  0.45594000000E+02  0.51100000000E-03 0.  1.
    9900012    2    1    2    0    0 -0.17021732469E+02 -0.28166142313E+02 -0.30757804375E+02  0.46142317865E+02  0.10000000946E+02 0.  0.
         12    1    1    2    0    0  0.17021732469E+02  0.28166142313E+02  0.30757804375E+02  0.45045682135E+02  0.00000000000E+00 0. -1.
         11    1    3    3    0    0 -0.15674967484E+01  0.19482307118E+00 -0.63031941940E+00  0.17006777816E+01  0.51100000000E-03 0. -1.
        -11    1    3    3    0    0 -0.39406024403E+01 -0.12020446106E+02 -0.12636746012E+02  0.17880347374E+02  0.51100000000E-03 0.  1.
        -12    1    3    3    0    0 -0.11513633281E+02 -0.16340519278E+02 -0.17490738943E+02  0.26561292709E+02  0.00000000000E+00 0.  1.
</event>
<event>
 7    1  0.2323330E-008  0.4614232E+02  0.7816164E-02  0.1320468E+00
        -11   -1    0    0    0    0  0.00000000000E+00  0.00000000000E+00  0.45593999997E+02  0.45594000000E+02  0.51100000000E-03 0.  1.
         11   -1    0    0    0    0 -0.00000000000E+00 -0.00000000000E+00 -0.45593999997E+02  0.45594000000E+02  0.51100000000E-03 0. -1.
    9900012    2    1    2    0    0 -0.22702484701E+02 -0.17214268297E+02  0.34890962846E+02  0.46142321707E+02  0.10000035982E+02 0.  0.
         12    1    1    2    0    0  0.22702484701E+02  0.17214268297E+02 -0.34890962846E+02  0.45045678293E+02  0.00000000000E+00 0. -1.
         11    1    3    3    0    0 -0.10214210458E+02 -0.37536369202E+01  0.16130326123E+02  0.19457834065E+02  0.51100000000E-03 0. -1.
        -11    1    3    3    0    0 -0.86465122240E+01 -0.80441421724E+01  0.14866225547E+02  0.18986180743E+02  0.51100000000E-03 0.  1.
         12    1    3    3    0    0 -0.38417620193E+01 -0.54164892039E+01  0.38944111757E+01  0.76983068992E+01  0.00000000000E+00 0. -1.
</event>
<event>
 7    1  0.2323330E-008  0.4614232E+02  0.7816164E-02  0.1320468E+00
        -11   -1    0    0    0    0  0.00000000000E+00  0.00000000000E+00  0.45593999997E+02  0.45594000000E+02  0.51100000000E-03 0.  1.
         11   -1    0    0    0    0 -0.00000000000E+00 -0.00000000000E+00 -0.45593999997E+02  0.45594000000E+02  0.51100000000E-03 0. -1.
    9900012    2    1    2    0    0 -0.20986309921E+02  0.21168743009E+02  0.33772363652E+02  0.46142318394E+02  0.10000005771E+02 0.  0.
         12    1    1    2    0    0  0.20986309921E+02 -0.21168743009E+02 -0.33772363652E+02  0.45045681606E+02  0.00000000000E+00 0. -1.
         11    1    3    3    0    0 -0.64386510599E+01  0.88253217058E+01  0.17686712177E+02  0.20788514102E+02  0.51100000000E-03 0. -1.
        -11    1    3    3    0    0 -0.96499932942E+01  0.10237719527E+02  0.13199956472E+02  0.19291763082E+02  0.51100000000E-03 0.  1.
         12    1    3    3    0    0 -0.48976655674E+01  0.21057017763E+01  0.28856950036E+01  0.60620412102E+01  0.00000000000E+00 0. -1.
</event>
<event>
 7    1  0.2323330E-008  0.4614232E+02  0.7816164E-02  0.1320468E+00
        -11   -1    0    0    0    0  0.00000000000E+00  0.00000000000E+00  0.45593999997E+02  0.45594000000E+02  0.51100000000E-03 0.  1.
         11   -1    0    0    0    0 -0.00000000000E+00 -0.00000000000E+00 -0.45593999997E+02  0.45594000000E+02  0.51100000000E-03 0. -1.
    9900012    2    1    2    0    0  0.17800635615E+02 -0.35054461388E+02  0.21987168890E+02  0.46142317773E+02  0.10000000109E+02 0.  0.
         12    1    1    2    0    0 -0.17800635615E+02  0.35054461388E+02 -0.21987168890E+02  0.45045682227E+02  0.00000000000E+00 0. -1.
         11    1    3    3    0    0  0.61386587112E+01 -0.86759733555E+01  0.78436187003E+01  0.13209012038E+02  0.51100000000E-03 0. -1.
        -11    1    3    3    0    0  0.15145721944E+01 -0.10461488189E+02  0.73362954291E+01  0.12866930284E+02  0.51100000000E-03 0.  1.
        -12    1    3    3    0    0  0.10147404710E+02 -0.15916999843E+02  0.68072547604E+01  0.20066375451E+02  0.00000000000E+00 0.  1.
</event>
<event>
 7    1  0.2323330E-008  0.4614232E+02  0.7816164E-02  0.1320468E+00
        -11   -1    0    0    0    0  0.00000000000E+00  0.00000000000E+00  0.45593999997E+02  0.45594000000E+02  0.51100000000E-03 0.  1.
         11   -1    0    0    0    0 -0.00000000000E+00 -0.00000000000E+00 -0.45593999997E+02  0.45594000000E+02  0.51100000000E-03 0. -1.
    9900012    2    1    2    0    0  0.71222258944E+01  0.30042510200E+02  0.32799923473E+02  0.46142317625E+02  0.99999987557E+01 0.  0.
         12    1    1    2    0    0 -0.71222258944E+01 -0.30042510200E+02 -0.32799923473E+02  0.45045682375E+02  0.00000000000E+00 0. -1.
         11    1    3    3    0    0  0.34616712069E-01  0.30170878705E+00 -0.28120667118E+00  0.41388882804E+00  0.51100000000E-03 0. -1.
        -11    1    3    3    0    0  0.60011525370E+01  0.17483916690E+02  0.14742332505E+02  0.23643974762E+02  0.51100000000E-03 0.  1.
         12    1    3    3    0    0  0.10864566453E+01  0.12256884723E+02  0.18338797639E+02  0.22084454034E+02  0.00000000000E+00 0. -1.
</event>
<event>
 7    1  0.2323330E-008  0.4614232E+02  0.7816164E-02  0.1320468E+00
        -11   -1    0    0    0    0  0.00000000000E+00  0.00000000000E+00  0.45593999997E+02  0.45594000000E+02  0.51100000000E-03 0.  1.
         11   -1    0    0    0    0 -0.00000000000E+00 -0.00000000000E+00 -0.45593999997E+02  0.45594000000E+02  0.51100000000E-03 0. -1.
    9900012    2    1    2    0    0  0.18406983649E+02 -0.40059433925E+02 -0.92486875800E+01  0.46142317461E+02  0.99999972631E+01 0.  0.
         12    1    1    2    0    0 -0.18406983649E+02  0.40059433925E+02  0.92486875800E+01  0.45045682539E+02  0.00000000000E+00 0. -1.
         11    1    3    3    0    0  0.86144238238E+01 -0.11608871452E+02 -0.62299493247E+01  0.15741234483E+02  0.51100000000E-03 0. -1.
        -11    1    3    3    0    0  0.21428882864E+01 -0.10767543643E+02 -0.81951589847E+00  0.11009249424E+02  0.51100000000E-03 0.  1.
        -12    1    3    3    0    0  0.76496715392E+01 -0.17683018830E+02 -0.21992223568E+01  0.19391833554E+02  0.00000000000E+00 0.  1.
</event>
<event>
 7    1  0.2323330E-008  0.4614232E+02  0.7816164E-02  0.1320468E+00
        -11   -1    0    0    0    0  0.00000000000E+00  0.00000000000E+00  0.45593999997E+02  0.45594000000E+02  0.51100000000E-03 0.  1.
         11   -1    0    0    0    0 -0.00000000000E+00 -0.00000000000E+00 -0.45593999997E+02  0.45594000000E+02  0.51100000000E-03 0. -1.
    9900012    2    1    2    0    0 -0.27027776719E+02  0.45313187214E+01  0.35750244718E+02  0.46142316954E+02  0.99999926358E+01 0.  0.
         12    1    1    2    0    0  0.27027776719E+02 -0.45313187214E+01 -0.35750244718E+02  0.45045683046E+02  0.00000000000E+00 0. -1.
         11    1    3    3    0    0 -0.16268382850E+01 -0.17014030047E+00  0.12826755554E+01  0.20786551828E+01  0.51100000000E-03 0. -1.
        -11    1    3    3    0    0 -0.18530971608E+02  0.25647802099E+01  0.30677980224E+02  0.35932067532E+02  0.51100000000E-03 0.  1.
        -12    1    3    3    0    0 -0.68699668260E+01  0.21366788120E+01  0.37895889389E+01  0.81315942387E+01  0.00000000000E+00 0.  1.
</event>
<event>
 7    1  0.2323330E-008  0.4614232E+02  0.7816164E-02  0.1320468E+00
        -11   -1    0    0    0    0  0.00000000000E+00  0.00000000000E+00  0.45593999997E+02  0.45594000000E+02  0.51100000000E-03 0. -1.
         11   -1    0    0    0    0 -0.00000000000E+00 -0.00000000000E+00 -0.45593999997E+02  0.45594000000E+02  0.51100000000E-03 0.  1.
    9900012    2    1    2    0    0  0.40578830705E+02 -0.16386607937E+02  0.10674787415E+02  0.46142317549E+02  0.99999980661E+01 0.  0.
         12    1    1    2    0    0 -0.40578830705E+02  0.16386607937E+02 -0.10674787415E+02  0.45045682451E+02  0.00000000000E+00 0. -1.
         11    1    3    3    0    0  0.10313033306E+02 -0.56469310708E+01  0.50939848888E+01  0.12813866270E+02  0.51100000000E-03 0. -1.
        -11    1    3    3    0    0  0.27107580805E+02 -0.80481089234E+01  0.66392098565E+01  0.29046034190E+02  0.51100000000E-03 0.  1.
        -12    1    3    3    0    0  0.31582165943E+01 -0.26915679432E+01 -0.10584073300E+01  0.42824170892E+01  0.00000000000E+00 0.  1.
</event>
<event>
 7    1  0.2323330E-008  0.4614232E+02  0.7816164E-02  0.1320468E+00
        -11   -1    0    0    0    0  0.00000000000E+00  0.00000000000E+00  0.45593999997E+02  0.45594000000E+02  0.51100000000E-03 0.  1.
         11   -1    0    0    0    0 -0.00000000000E+00 -0.00000000000E+00 -0.45593999997E+02  0.45594000000E+02  0.51100000000E-03 0. -1.
    9900012    2    1    2    0    0 -0.38319485612E+02 -0.67693834392E+01  0.22691541296E+02  0.46142316787E+02  0.99999911181E+01 0.  0.
         12    1    1    2    0    0  0.38319485612E+02  0.67693834392E+01 -0.22691541296E+02  0.45045683213E+02  0.00000000000E+00 0. -1.
         11    1    3    3    0    0 -0.27852743351E+02 -0.53972236118E+01  0.12603820094E+02  0.31044510241E+02  0.51100000000E-03 0. -1.
        -11    1    3    3    0    0 -0.51899407543E+01  0.12528778005E+01  0.48548351252E+01  0.72162741197E+01  0.51100000000E-03 0.  1.
         12    1    3    3    0    0 -0.52768015070E+01 -0.26250376280E+01  0.52328860775E+01  0.78815324267E+01  0.00000000000E+00 0. -1.
</event>
<event>
 7    1  0.2323330E-008  0.4614232E+02  0.7816164E-02  0.1320468E+00
        -11   -1    0    0    0    0  0.00000000000E+00  0.00000000000E+00  0.45593999997E+02  0.45594000000E+02  0.51100000000E-03 0.  1.
         11   -1    0    0    0    0 -0.00000000000E+00 -0.00000000000E+00 -0.45593999997E+02  0.45594000000E+02  0.51100000000E-03 0. -1.
    9900012    2    1    2    0    0  0.14531813060E+02 -0.50249870662E+01  0.42340163828E+02  0.46142316979E+02  0.99999928705E+01 0.  0.
         12    1    1    2    0    0 -0.14531813060E+02  0.50249870662E+01 -0.42340163828E+02  0.45045683021E+02  0.00000000000E+00 0. -1.
         11    1    3    3    0    0  0.31300375709E+01  0.12759669319E+01  0.62985921406E+01  0.71482508365E+01  0.51100000000E-03 0. -1.
        -11    1    3    3    0    0  0.65392527776E+01 -0.31593136431E+01  0.28911701933E+02  0.29809890951E+02  0.51100000000E-03 0.  1.
         12    1    3    3    0    0  0.48625227112E+01 -0.31416403550E+01  0.71298697542E+01  0.91841751915E+01  0.00000000000E+00 0. -1.
</event>
<event>
 7    1  0.2323330E-008  0.4614232E+02  0.7816164E-02  0.1320468E+00
        -11   -1    0    0    0    0  0.00000000000E+00  0.00000000000E+00  0.45593999997E+02  0.45594000000E+02  0.51100000000E-03 0.  1.
         11   -1    0    0    0    0 -0.00000000000E+00 -0.00000000000E+00 -0.45593999997E+02  0.45594000000E+02  0.51100000000E-03 0. -1.
    9900012    2    1    2    0    0  0.15966039855E+02  0.47551007573E-01  0.42121215623E+02  0.46142317684E+02  0.99999992965E+01 0.  0.
         12    1    1    2    0    0 -0.15966039855E+02 -0.47551007573E-01 -0.42121215623E+02  0.45045682316E+02  0.00000000000E+00 0. -1.
         11    1    3    3    0    0  0.58947910798E+01 -0.26364320234E+01  0.10123767016E+02  0.12007913830E+02  0.51100000000E-03 0. -1.
        -11    1    3    3    0    0  0.64880732433E+01 -0.67200975601E+00  0.22723711470E+02  0.23641356872E+02  0.51100000000E-03 0.  1.
         12    1    3    3    0    0  0.35831755320E+01  0.33559927870E+01  0.92737371369E+01  0.10493046982E+02  0.00000000000E+00 0. -1.
</event>
<event>
 7    1  0.2323330E-008  0.4614232E+02  0.7816164E-02  0.1320468E+00
        -11   -1    0    0    0    0  0.00000000000E+00  0.00000000000E+00  0.45593999997E+02  0.45594000000E+02  0.51100000000E-03 0. -1.
         11   -1    0    0    0    0 -0.00000000000E+00 -0.00000000000E+00 -0.45593999997E+02  0.45594000000E+02  0.51100000000E-03 0.  1.
    9900012    2    1    2    0    0  0.39930339479E+02  0.10492613036E+00 -0.20848751612E+02  0.46142318029E+02  0.10000002446E+02 0.  0.
         12    1    1    2    0    0 -0.39930339479E+02 -0.10492613036E+00  0.20848751612E+02  0.45045681971E+02  0.00000000000E+00 0. -1.
         11    1    3    3    0    0  0.38991950846E+01  0.14063951292E+01 -0.65194651435E+00  0.41960343285E+01  0.51100000000E-03 0. -1.
        -11    1    3    3    0    0  0.21762231798E+02 -0.23085774253E+01 -0.15763658333E+02  0.26970672718E+02  0.51100000000E-03 0.  1.
         12    1    3    3    0    0  0.14268912596E+02  0.10071084264E+01 -0.44331467651E+01  0.14975610983E+02  0.00000000000E+00 0. -1.
</event>
<event>
 7    1  0.2323330E-008  0.4614232E+02  0.7816164E-02  0.1320468E+00
        -11   -1    0    0    0    0  0.00000000000E+00  0.00000000000E+00  0.45593999997E+02  0.45594000000E+02  0.51100000000E-03 0.  1.
         11   -1    0    0    0    0 -0.00000000000E+00 -0.00000000000E+00 -0.45593999997E+02  0.45594000000E+02  0.51100000000E-03 0. -1.
    9900012    2    1    2    0    0 -0.45625407212E+00  0.42788487682E+02  0.14073047042E+02  0.46142317643E+02  0.99999989264E+01 0.  0.
         12    1    1    2    0    0  0.45625407212E+00 -0.42788487682E+02 -0.14073047042E+02  0.45045682357E+02  0.00000000000E+00 0. -1.
         11    1    3    3    0    0 -0.17388941816E+01  0.30570936577E+01  0.13712261231E+00  0.35197126983E+01  0.51100000000E-03 0. -1.
        -11    1    3    3    0    0 -0.80009567436E+00  0.20233464063E+01  0.21546069382E+01  0.30620932525E+01  0.51100000000E-03 0.  1.
         12    1    3    3    0    0  0.20827357839E+01  0.37708047618E+02  0.11781317492E+02  0.39560511693E+02  0.00000000000E+00 0. -1.
</event>
<event>
 7    1  0.2323330E-008  0.4614232E+02  0.7816164E-02  0.1320468E+00
        -11   -1    0    0    0    0  0.00000000000E+00  0.00000000000E+00  0.45593999997E+02  0.45594000000E+02  0.51100000000E-03 0.  1.
         11   -1    0    0    0    0 -0.00000000000E+00 -0.00000000000E+00 -0.45593999997E+02  0.45594000000E+02  0.51100000000E-03 0. -1.
    9900012    2    1    2    0    0 -0.29078800309E+02  0.26751033812E+02  0.21631436484E+02  0.46142317834E+02  0.10000000666E+02 0.  0.
         12    1    1    2    0    0  0.29078800309E+02 -0.26751033812E+02 -0.21631436484E+02  0.45045682166E+02  0.00000000000E+00 0. -1.
         11    1    3    3    0    0 -0.62389320496E+01  0.27886695804E+01  0.28581188322E+01  0.74074148439E+01  0.51100000000E-03 0. -1.
        -11    1    3    3    0    0 -0.77297791212E+01  0.11102065114E+02  0.10958074361E+02  0.17409328793E+02  0.51100000000E-03 0.  1.
        -12    1    3    3    0    0 -0.15110089138E+02  0.12860299117E+02  0.78152432916E+01  0.21325574197E+02  0.00000000000E+00 0.  1.
</event>
<event>
 7    1  0.2323330E-008  0.4614232E+02  0.7816164E-02  0.1320468E+00
        -11   -1    0    0    0    0  0.00000000000E+00  0.00000000000E+00  0.45593999997E+02  0.45594000000E+02  0.51100000000E-03 0.  1.
         11   -1    0    0    0    0 -0.00000000000E+00 -0.00000000000E+00 -0.45593999997E+02  0.45594000000E+02  0.51100000000E-03 0. -1.
    9900012    2    1    2    0    0  0.38108343134E+01 -0.43073763994E+02 -0.12619114434E+02  0.46142315946E+02  0.99999834513E+01 0.  0.
         12    1    1    2    0    0 -0.38108343134E+01  0.43073763994E+02  0.12619114434E+02  0.45045684054E+02  0.00000000000E+00 0. -1.
         11    1    3    3    0    0 -0.12277212122E+01 -0.25921453462E+01 -0.72626538962E+00  0.29587123125E+01  0.51100000000E-03 0. -1.
        -11    1    3    3    0    0  0.62185725456E+00 -0.27137303426E+02 -0.52956329224E+01  0.27656168787E+02  0.51100000000E-03 0.  1.
        -12    1    3    3    0    0  0.44166982711E+01 -0.13344315222E+02 -0.65972161223E+01  0.15527434847E+02  0.00000000000E+00 0.  1.
</event>
<event>
 7    1  0.2323330E-008  0.4614232E+02  0.7816164E-02  0.1320468E+00
        -11   -1    0    0    0    0  0.00000000000E+00  0.00000000000E+00  0.45593999997E+02  0.45594000000E+02  0.51100000000E-03 0.  1.
         11   -1    0    0    0    0 -0.00000000000E+00 -0.00000000000E+00 -0.45593999997E+02  0.45594000000E+02  0.51100000000E-03 0. -1.
    9900012    2    1    2    0    0 -0.66284200993E+01  0.56866003875E+01  0.44190949978E+02  0.46142318332E+02  0.10000005206E+02 0.  0.
         12    1    1    2    0    0  0.66284200993E+01 -0.56866003875E+01 -0.44190949978E+02  0.45045681668E+02  0.00000000000E+00 0. -1.
         11    1    3    3    0    0 -0.51097500296E+01  0.31773344437E+01  0.16978073520E+02  0.18012772697E+02  0.51100000000E-03 0. -1.
        -11    1    3    3    0    0  0.13219630453E+01  0.11023045427E+01  0.16956525513E+01  0.24161745454E+01  0.51100000000E-03 0.  1.
        -12    1    3    3    0    0 -0.28406331150E+01  0.14069614011E+01  0.25517223907E+02  0.25713371090E+02  0.00000000000E+00 0.  1.
</event>
<event>
 7    1  0.2323330E-008  0.4614232E+02  0.7816164E-02  0.1320468E+00
        -11   -1    0    0    0    0  0.00000000000E+00  0.00000000000E+00  0.45593999997E+02  0.45594000000E+02  0.51100000000E-03 0.  1.
         11   -1    0    0    0    0 -0.00000000000E+00 -0.00000000000E+00 -0.45593999997E+02  0.45594000000E+02  0.51100000000E-03 0. -1.
    9900012    2    1    2    0    0  0.25769541215E+02  0.10457666795E+02  0.35435595542E+02  0.46142317846E+02  0.10000000778E+02 0.  0.
         12    1    1    2    0    0 -0.25769541215E+02 -0.10457666795E+02 -0.35435595542E+02  0.45045682154E+02  0.00000000000E+00 0. -1.
         11    1    3    3    0    0  0.14187983558E+01  0.59943767282E+00  0.71936826745E+00  0.16999427236E+01  0.51100000000E-03 0. -1.
        -11    1    3    3    0    0  0.24605203449E+02  0.10727037636E+02  0.33567523488E+02  0.42979809290E+02  0.51100000000E-03 0.  1.
        -12    1    3    3    0    0 -0.25446059003E+00 -0.86880851378E+00  0.11487037865E+01  0.14625658326E+01  0.00000000000E+00 0.  1.
</event>
<event>
 7    1  0.2323330E-008  0.4614232E+02  0.7816164E-02  0.1320468E+00
        -11   -1    0    0    0    0  0.00000000000E+00  0.00000000000E+00  0.45593999997E+02  0.45594000000E+02  0.51100000000E-03 0.  1.
         11   -1    0    0    0    0 -0.00000000000E+00 -0.00000000000E+00 -0.45593999997E+02  0.45594000000E+02  0.51100000000E-03 0. -1.
    9900012    2    1    2    0    0 -0.32215925923E+02  0.20191313237E+01  0.31419273580E+02  0.46142317337E+02  0.99999961285E+01 0.  0.
         12    1    1    2    0    0  0.32215925923E+02 -0.20191313237E+01 -0.31419273580E+02  0.45045682663E+02  0.00000000000E+00 0. -1.
         11    1    3    3    0    0 -0.10005008864E+01  0.57899119089E+00  0.36992025805E+01  0.38756074124E+01  0.51100000000E-03 0. -1.
        -11    1    3    3    0    0 -0.20330917190E+02  0.19713294621E+01  0.14083904065E+02  0.24811059785E+02  0.51100000000E-03 0.  1.
        -12    1    3    3    0    0 -0.10884507846E+02 -0.53118932925E+00  0.13636166934E+02  0.17455650140E+02  0.00000000000E+00 0.  1.
</event>
<event>
 7    1  0.2323330E-008  0.4614232E+02  0.7816164E-02  0.1320468E+00
        -11   -1    0    0    0    0  0.00000000000E+00  0.00000000000E+00  0.45593999997E+02  0.45594000000E+02  0.51100000000E-03 0.  1.
         11   -1    0    0    0    0 -0.00000000000E+00 -0.00000000000E+00 -0.45593999997E+02  0.45594000000E+02  0.51100000000E-03 0. -1.
    9900012    2    1    2    0    0 -0.57797751784E+01 -0.32869487972E+02  0.30254001824E+02  0.46142315778E+02  0.99999819153E+01 0.  0.
         12    1    1    2    0    0  0.57797751784E+01  0.32869487972E+02 -0.30254001824E+02  0.45045684222E+02  0.00000000000E+00 0. -1.
         11    1    3    3    0    0  0.10225227185E+01 -0.14310251137E+01  0.98024160881E-01  0.17615318854E+01  0.51100000000E-03 0. -1.
        -11    1    3    3    0    0  0.29451093216E+00 -0.32322164561E+01  0.48025549099E+01  0.57964207777E+01  0.51100000000E-03 0.  1.
         12    1    3    3    0    0 -0.70968088291E+01 -0.28206246402E+02  0.25353422754E+02  0.38584363115E+02  0.00000000000E+00 0. -1.
</event>
<event>
 7    1  0.2323330E-008  0.4614232E+02  0.7816164E-02  0.1320468E+00
        -11   -1    0    0    0    0  0.00000000000E+00  0.00000000000E+00  0.45593999997E+02  0.45594000000E+02  0.51100000000E-03 0. -1.
         11   -1    0    0    0    0 -0.00000000000E+00 -0.00000000000E+00 -0.45593999997E+02  0.45594000000E+02  0.51100000000E-03 0.  1.
    9900012    2    1    2    0    0 -0.21849210422E+02  0.29058263515E+02 -0.26595918516E+02  0.46142317007E+02  0.99999931267E+01 0.  0.
         12    1    1    2    0    0  0.21849210422E+02 -0.29058263515E+02  0.26595918516E+02  0.45045682993E+02  0.00000000000E+00 0. -1.
         11    1    3    3    0    0 -0.48913424829E+01  0.39769419141E+01 -0.53105768976E+01  0.82427862716E+01  0.51100000000E-03 0. -1.
        -11    1    3    3    0    0 -0.11615568724E+02  0.16099704393E+02 -0.18375957499E+02  0.27051760249E+02  0.51100000000E-03 0.  1.
         12    1    3    3    0    0 -0.53422992158E+01  0.89816172076E+01 -0.29093841193E+01  0.10847770487E+02  0.00000000000E+00 0. -1.
</event>
<event>
 7    1  0.2323330E-008  0.4614232E+02  0.7816164E-02  0.1320468E+00
        -11   -1    0    0    0    0  0.00000000000E+00  0.00000000000E+00  0.45593999997E+02  0.45594000000E+02  0.51100000000E-03 0.  1.
         11   -1    0    0    0    0 -0.00000000000E+00 -0.00000000000E+00 -0.45593999997E+02  0.45594000000E+02  0.51100000000E-03 0. -1.
    9900012    2    1    2    0    0  0.24488948510E+02  0.14223864676E+02  0.35029798518E+02  0.46142315305E+02  0.99999776051E+01 0.  0.
         12    1    1    2    0    0 -0.24488948510E+02 -0.14223864676E+02 -0.35029798518E+02  0.45045684695E+02  0.00000000000E+00 0. -1.
         11    1    3    3    0    0 -0.12781729594E+00  0.66544306885E+00  0.27961804053E+01  0.28771125906E+01  0.51100000000E-03 0. -1.
        -11    1    3    3    0    0  0.16449343992E+01 -0.72760069620E+00  0.17551767952E+01  0.25131370425E+01  0.51100000000E-03 0.  1.
        -12    1    3    3    0    0  0.22971831406E+02  0.14286022303E+02  0.30478441317E+02  0.40752065672E+02  0.00000000000E+00 0.  1.
</event>
<event>
 7    1  0.2323330E-008  0.4614232E+02  0.7816164E-02  0.1320468E+00
        -11   -1    0    0    0    0  0.00000000000E+00  0.00000000000E+00  0.45593999997E+02  0.45594000000E+02  0.51100000000E-03 0.  1.
         11   -1    0    0    0    0 -0.00000000000E+00 -0.00000000000E+00 -0.45593999997E+02  0.45594000000E+02  0.51100000000E-03 0. -1.
    9900012    2    1    2    0    0  0.74889549355E+01 -0.15798507688E+01  0.44390687524E+02  0.46142317484E+02  0.99999974742E+01 0.  0.
         12    1    1    2    0    0 -0.74889549355E+01  0.15798507688E+01 -0.44390687524E+02  0.45045682516E+02  0.00000000000E+00 0. -1.
         11    1    3    3    0    0  0.12281493183E+01 -0.35733595860E+00  0.18554904961E+01  0.22536381647E+01  0.51100000000E-03 0. -1.
        -11    1    3    3    0    0  0.57567808766E+01 -0.21866184884E+01  0.13556977742E+02  0.14890046079E+02  0.51100000000E-03 0.  1.
         12    1    3    3    0    0  0.50402474064E+00  0.96410367819E+00  0.28978219285E+02  0.28998633240E+02  0.00000000000E+00 0. -1.
</event>
<event>
 7    1  0.2323330E-008  0.4614232E+02  0.7816164E-02  0.1320468E+00
        -11   -1    0    0    0    0  0.00000000000E+00  0.00000000000E+00  0.45593999997E+02  0.45594000000E+02  0.51100000000E-03 0.  1.
         11   -1    0    0    0    0 -0.00000000000E+00 -0.00000000000E+00 -0.45593999997E+02  0.45594000000E+02  0.51100000000E-03 0. -1.
    9900012    2    1    2    0    0 -0.19791883042E+02 -0.40016012661E+02  0.60094637453E+01  0.46142316986E+02  0.99999929331E+01 0.  0.
         12    1    1    2    0    0  0.19791883042E+02  0.40016012661E+02 -0.60094637453E+01  0.45045683014E+02  0.00000000000E+00 0. -1.
         11    1    3    3    0    0 -0.95545471708E+01 -0.12143633336E+02  0.11518140354E+01  0.15494640301E+02  0.51100000000E-03 0. -1.
        -11    1    3    3    0    0 -0.10839132962E+02 -0.25292761420E+02  0.37313761618E+01  0.27769295128E+02  0.51100000000E-03 0.  1.
         12    1    3    3    0    0  0.60179709084E+00 -0.25796179059E+01  0.11262735481E+01  0.28783815564E+01  0.00000000000E+00 0. -1.
</event>
<event>
 7    1  0.2323330E-008  0.4614231E+02  0.7816164E-02  0.1320468E+00
        -11   -1    0    0    0    0  0.00000000000E+00  0.00000000000E+00  0.45593999997E+02  0.45594000000E+02  0.51100000000E-03 0. -1.
         11   -1    0    0    0    0 -0.00000000000E+00 -0.00000000000E+00 -0.45593999997E+02  0.45594000000E+02  0.51100000000E-03 0.  1.
    9900012    2    1    2    0    0 -0.15402031737E+02  0.41162219256E+02 -0.98773987811E+01  0.46142313387E+02  0.99999601128E+01 0.  0.
         12    1    1    2    0    0  0.15402031737E+02 -0.41162219256E+02  0.98773987811E+01  0.45045686613E+02  0.00000000000E+00 0. -1.
         11    1    3    3    0    0 -0.25612727816E+01  0.10817451480E+02 -0.31114152644E+01  0.11543755021E+02  0.51100000000E-03 0.  1.
        -11    1    3    3    0    0 -0.12164003354E+02  0.21007945580E+02 -0.68974646889E+01  0.25236318560E+02  0.51100000000E-03 0. -1.
         12    1    3    3    0    0 -0.67675560231E+00  0.93368221969E+01  0.13148117221E+00  0.93622398058E+01  0.00000000000E+00 0. -1.
</event>
<event>
 7    1  0.2323330E-008  0.4614232E+02  0.7816164E-02  0.1320468E+00
        -11   -1    0    0    0    0  0.00000000000E+00  0.00000000000E+00  0.45593999997E+02  0.45594000000E+02  0.51100000000E-03 0. -1.
         11   -1    0    0    0    0 -0.00000000000E+00 -0.00000000000E+00 -0.45593999997E+02  0.45594000000E+02  0.51100000000E-03 0.  1.
    9900012    2    1    2    0    0 -0.22870884537E+01 -0.36318179015E+02 -0.26549436585E+02  0.46142317815E+02  0.10000000489E+02 0.  0.
         12    1    1    2    0    0  0.22870884537E+01  0.36318179015E+02  0.26549436585E+02  0.45045682185E+02  0.00000000000E+00 0. -1.
         11    1    3    3    0    0  0.10262424601E+00  0.12405688116E+00  0.33397687224E+00  0.37075956891E+00  0.51100000000E-03 0. -1.
        -11    1    3    3    0    0 -0.40682045372E+01 -0.24684963217E+02 -0.20116754304E+02  0.32102671247E+02  0.51100000000E-03 0.  1.
        -12    1    3    3    0    0  0.16784918375E+01 -0.11757272679E+02 -0.67666591528E+01  0.13668886999E+02  0.00000000000E+00 0.  1.
</event>
<event>
 7    1  0.2323330E-008  0.4614232E+02  0.7816164E-02  0.1320468E+00
        -11   -1    0    0    0    0  0.00000000000E+00  0.00000000000E+00  0.45593999997E+02  0.45594000000E+02  0.51100000000E-03 0.  1.
         11   -1    0    0    0    0 -0.00000000000E+00 -0.00000000000E+00 -0.45593999997E+02  0.45594000000E+02  0.51100000000E-03 0. -1.
    9900012    2    1    2    0    0  0.29947631925E+02 -0.15881843837E+02  0.29665125681E+02  0.46142319816E+02  0.10000018735E+02 0.  0.
         12    1    1    2    0    0 -0.29947631925E+02  0.15881843837E+02 -0.29665125681E+02  0.45045680184E+02  0.00000000000E+00 0. -1.
         11    1    3    3    0    0  0.13115413968E+02 -0.52642458272E+01  0.11049035711E+02  0.17938995459E+02  0.51100000000E-03 0. -1.
        -11    1    3    3    0    0  0.15638299153E+02 -0.83582652069E+01  0.12856208907E+02  0.21902034275E+02  0.51100000000E-03 0.  1.
        -12    1    3    3    0    0  0.11939188041E+01 -0.22593328027E+01  0.57598810635E+01  0.63012900814E+01  0.00000000000E+00 0.  1.
</event>
<event>
 7    1  0.2323330E-008  0.4614232E+02  0.7816164E-02  0.1320468E+00
        -11   -1    0    0    0    0  0.00000000000E+00  0.00000000000E+00  0.45593999997E+02  0.45594000000E+02  0.51100000000E-03 0.  1.
         11   -1    0    0    0    0 -0.00000000000E+00 -0.00000000000E+00 -0.45593999997E+02  0.45594000000E+02  0.51100000000E-03 0. -1.
    9900012    2    1    2    0    0 -0.15467581980E+02  0.29217778650E+00  0.42305815379E+02  0.46142317909E+02  0.10000001349E+02 0.  0.
         12    1    1    2    0    0  0.15467581980E+02 -0.29217778650E+00 -0.42305815379E+02  0.45045682091E+02  0.00000000000E+00 0. -1.
         11    1    3    3    0    0  0.12110822335E-01  0.11614645247E+01  0.78833049121E+01  0.79684153451E+01  0.51100000000E-03 0. -1.
        -11    1    3    3    0    0 -0.80380278138E+01 -0.60692139952E-01  0.11281127725E+02  0.13851982446E+02  0.51100000000E-03 0.  1.
        -12    1    3    3    0    0 -0.74416649883E+01 -0.80859459820E+00  0.23141382742E+02  0.24321920118E+02  0.00000000000E+00 0.  1.
</event>
<event>
 7    1  0.2323330E-008  0.4614232E+02  0.7816164E-02  0.1320468E+00
        -11   -1    0    0    0    0  0.00000000000E+00  0.00000000000E+00  0.45593999997E+02  0.45594000000E+02  0.51100000000E-03 0. -1.
         11   -1    0    0    0    0 -0.00000000000E+00 -0.00000000000E+00 -0.45593999997E+02  0.45594000000E+02  0.51100000000E-03 0.  1.
    9900012    2    1    2    0    0 -0.36288902670E+02 -0.24051527429E+02 -0.11565168196E+02  0.46142317143E+02  0.99999943625E+01 0.  0.
         12    1    1    2    0    0  0.36288902670E+02  0.24051527429E+02  0.11565168196E+02  0.45045682857E+02  0.00000000000E+00 0. -1.
         11    1    3    3    0    0 -0.11459061616E+01 -0.75770416298E+00  0.74856949613E+00  0.15644721415E+01  0.51100000000E-03 0. -1.
        -11    1    3    3    0    0 -0.22778335496E+02 -0.11355473457E+02 -0.94706699085E+01  0.27156821135E+02  0.51100000000E-03 0.  1.
         12    1    3    3    0    0 -0.12364661012E+02 -0.11938349810E+02 -0.28430677839E+01  0.17421023866E+02  0.00000000000E+00 0. -1.
</event>
<event>
 7    1  0.2323330E-008  0.4614232E+02  0.7816164E-02  0.1320468E+00
        -11   -1    0    0    0    0  0.00000000000E+00  0.00000000000E+00  0.45593999997E+02  0.45594000000E+02  0.51100000000E-03 0.  1.
         11   -1    0    0    0    0 -0.00000000000E+00 -0.00000000000E+00 -0.45593999997E+02  0.45594000000E+02  0.51100000000E-03 0. -1.
    9900012    2    1    2    0    0  0.20475613648E+02  0.20407874962E+01  0.40071160123E+02  0.46142318282E+02  0.10000004750E+02 0.  0.
         12    1    1    2    0    0 -0.20475613648E+02 -0.20407874962E+01 -0.40071160123E+02  0.45045681718E+02  0.00000000000E+00 0. -1.
         11    1    3    3    0    0  0.50911255216E+01  0.29055278061E+01  0.10779778307E+02  0.12270504126E+02  0.51100000000E-03 0. -1.
        -11    1    3    3    0    0  0.11422292545E+02  0.22738102532E+01  0.17260118120E+02  0.20821879306E+02  0.51100000000E-03 0.  1.
         12    1    3    3    0    0  0.39621955809E+01 -0.31385505631E+01  0.12031263696E+02  0.13049934849E+02  0.00000000000E+00 0. -1.
</event>
<event>
 7    1  0.2323330E-008  0.4614232E+02  0.7816164E-02  0.1320468E+00
        -11   -1    0    0    0    0  0.00000000000E+00  0.00000000000E+00  0.45593999997E+02  0.45594000000E+02  0.51100000000E-03 0. -1.
         11   -1    0    0    0    0 -0.00000000000E+00 -0.00000000000E+00 -0.45593999997E+02  0.45594000000E+02  0.51100000000E-03 0.  1.
    9900012    2    1    2    0    0 -0.25887054314E+02 -0.33180680683E+02 -0.16062888357E+02  0.46142317254E+02  0.99999953745E+01 0.  0.
         12    1    1    2    0    0  0.25887054314E+02  0.33180680683E+02  0.16062888357E+02  0.45045682746E+02  0.00000000000E+00 0. -1.
         11    1    3    3    0    0 -0.42687365885E+01 -0.53259421338E+01 -0.27204498523E+01  0.73476948313E+01  0.51100000000E-03 0. -1.
        -11    1    3    3    0    0 -0.15768581713E+02 -0.25235266922E+02 -0.91343096544E+01  0.31127198380E+02  0.51100000000E-03 0.  1.
         12    1    3    3    0    0 -0.58497360127E+01 -0.26194716280E+01 -0.42081288506E+01  0.76674240428E+01  0.00000000000E+00 0. -1.
</event>
<event>
 7    1  0.2323330E-008  0.4614232E+02  0.7816164E-02  0.1320468E+00
        -11   -1    0    0    0    0  0.00000000000E+00  0.00000000000E+00  0.45593999997E+02  0.45594000000E+02  0.51100000000E-03 0.  1.
         11   -1    0    0    0    0 -0.00000000000E+00 -0.00000000000E+00 -0.45593999997E+02  0.45594000000E+02  0.51100000000E-03 0. -1.
    9900012    2    1    2    0    0  0.35236135583E+02  0.99144821371E+01  0.26253214289E+02  0.46142317994E+02  0.10000002127E+02 0.  0.
         12    1    1    2    0    0 -0.35236135583E+02 -0.99144821371E+01 -0.26253214289E+02  0.45045682006E+02  0.00000000000E+00 0. -1.
         11    1    3    3    0    0  0.10700903569E+02  0.48426438870E+01  0.60610488992E+01  0.13217293635E+02  0.51100000000E-03 0. -1.
        -11    1    3    3    0    0  0.93069571858E+01  0.53957644381E+01  0.77787209196E+01  0.13275625233E+02  0.51100000000E-03 0.  1.
         12    1    3    3    0    0  0.15228274828E+02 -0.32392618801E+00  0.12413444470E+02  0.19649399126E+02  0.00000000000E+00 0. -1.
</event>
<event>
 7    1  0.2323330E-008  0.4614232E+02  0.7816164E-02  0.1320468E+00
        -11   -1    0    0    0    0  0.00000000000E+00  0.00000000000E+00  0.45593999997E+02  0.45594000000E+02  0.51100000000E-03 0. -1.
         11   -1    0    0    0    0 -0.00000000000E+00 -0.00000000000E+00 -0.45593999997E+02  0.45594000000E+02  0.51100000000E-03 0.  1.
    9900012    2    1    2    0    0 -0.54407185962E+01 -0.86046764492E+01 -0.43880195950E+02  0.46142317940E+02  0.10000001635E+02 0.  0.
         12    1    1    2    0    0  0.54407185962E+01  0.86046764492E+01  0.43880195950E+02  0.45045682060E+02  0.00000000000E+00 0. -1.
         11    1    3    3    0    0  0.14285910733E+01 -0.36469946513E+00 -0.28947185648E+01  0.32485803030E+01  0.51100000000E-03 0. -1.
        -11    1    3    3    0    0 -0.83699232650E+00 -0.26201556408E+01 -0.32018619293E+01  0.42211007821E+01  0.51100000000E-03 0.  1.
        -12    1    3    3    0    0 -0.60323173430E+01 -0.56198213433E+01 -0.37783615455E+02  0.38672636855E+02  0.00000000000E+00 0.  1.
</event>
<event>
 7    1  0.2323330E-008  0.4614232E+02  0.7816164E-02  0.1320468E+00
        -11   -1    0    0    0    0  0.00000000000E+00  0.00000000000E+00  0.45593999997E+02  0.45594000000E+02  0.51100000000E-03 0.  1.
         11   -1    0    0    0    0 -0.00000000000E+00 -0.00000000000E+00 -0.45593999997E+02  0.45594000000E+02  0.51100000000E-03 0. -1.
    9900012    2    1    2    0    0  0.39960732303E+02  0.74868762214E+01  0.19395876476E+02  0.46142318009E+02  0.10000002263E+02 0.  0.
         12    1    1    2    0    0 -0.39960732303E+02 -0.74868762214E+01 -0.19395876476E+02  0.45045681991E+02  0.00000000000E+00 0. -1.
         11    1    3    3    0    0  0.95024001787E+01 -0.12483653031E+01  0.47020097173E+01  0.10675341715E+02  0.51100000000E-03 0. -1.
        -11    1    3    3    0    0  0.14477874507E+02  0.25013709684E+01  0.96850468811E+01  0.17597324806E+02  0.51100000000E-03 0.  1.
        -12    1    3    3    0    0  0.15980457617E+02  0.62338705561E+01  0.50088198774E+01  0.17869651489E+02  0.00000000000E+00 0.  1.
</event>
<event>
 7    1  0.2323330E-008  0.4614232E+02  0.7816164E-02  0.1320468E+00
        -11   -1    0    0    0    0  0.00000000000E+00  0.00000000000E+00  0.45593999997E+02  0.45594000000E+02  0.51100000000E-03 0. -1.
         11   -1    0    0    0    0 -0.00000000000E+00 -0.00000000000E+00 -0.45593999997E+02  0.45594000000E+02  0.51100000000E-03 0.  1.
    9900012    2    1    2    0    0 -0.14456606752E+02 -0.34843684461E+02 -0.24617830474E+02  0.46142318711E+02  0.10000008659E+02 0.  0.
         12    1    1    2    0    0  0.14456606752E+02  0.34843684461E+02  0.24617830474E+02  0.45045681289E+02  0.00000000000E+00 0. -1.
         11    1    3    3    0    0 -0.12432002884E+01 -0.75882884308E+01 -0.26706013782E+01  0.81400110718E+01  0.51100000000E-03 0. -1.
        -11    1    3    3    0    0 -0.18918624186E+01 -0.74297639566E+01 -0.26594635642E+01  0.81150035473E+01  0.51100000000E-03 0.  1.
         12    1    3    3    0    0 -0.11321544045E+02 -0.19825632073E+02 -0.19287765532E+02  0.29887304092E+02  0.00000000000E+00 0. -1.
</event>
<event>
 7    1  0.2323330E-008  0.4614232E+02  0.7816164E-02  0.1320468E+00
        -11   -1    0    0    0    0  0.00000000000E+00  0.00000000000E+00  0.45593999997E+02  0.45594000000E+02  0.51100000000E-03 0. -1.
         11   -1    0    0    0    0 -0.00000000000E+00 -0.00000000000E+00 -0.45593999997E+02  0.45594000000E+02  0.51100000000E-03 0.  1.
    9900012    2    1    2    0    0  0.35667811272E+01 -0.30191946147E+02 -0.33239103785E+02  0.46142316964E+02  0.99999927325E+01 0.  0.
         12    1    1    2    0    0 -0.35667811272E+01  0.30191946147E+02  0.33239103785E+02  0.45045683036E+02  0.00000000000E+00 0. -1.
         11    1    3    3    0    0  0.19668379195E+01 -0.91508665555E+01 -0.88220343892E+01  0.12862157717E+02  0.51100000000E-03 0. -1.
        -11    1    3    3    0    0  0.16795520737E+01 -0.16057627422E+02 -0.22995406975E+02  0.28097278085E+02  0.51100000000E-03 0.  1.
        -12    1    3    3    0    0 -0.79608865992E-01 -0.49834521693E+01 -0.14216624203E+01  0.51828811614E+01  0.00000000000E+00 0.  1.
</event>
<event>
 7    1  0.2323330E-008  0.4614232E+02  0.7816164E-02  0.1320468E+00
        -11   -1    0    0    0    0  0.00000000000E+00  0.00000000000E+00  0.45593999997E+02  0.45594000000E+02  0.51100000000E-03 0. -1.
         11   -1    0    0    0    0 -0.00000000000E+00 -0.00000000000E+00 -0.45593999997E+02  0.45594000000E+02  0.51100000000E-03 0.  1.
    9900012    2    1    2    0    0 -0.37005938789E+02  0.97077912011E+01 -0.23778831365E+02  0.46142317225E+02  0.99999951070E+01 0.  0.
         12    1    1    2    0    0  0.37005938789E+02 -0.97077912011E+01  0.23778831365E+02  0.45045682775E+02  0.00000000000E+00 0. -1.
         11    1    3    3    0    0 -0.20866182437E+02  0.98699098677E+00 -0.14516896456E+02  0.25438396248E+02  0.51100000000E-03 0. -1.
        -11    1    3    3    0    0 -0.10376862158E+02  0.43508311820E+01 -0.50383316006E+01  0.12328575985E+02  0.51100000000E-03 0.  1.
        -12    1    3    3    0    0 -0.57628941929E+01  0.43699690323E+01 -0.42236033082E+01  0.83753449915E+01  0.00000000000E+00 0.  1.
</event>
<event>
 7    1  0.2323330E-008  0.4614231E+02  0.7816164E-02  0.1320468E+00
        -11   -1    0    0    0    0  0.00000000000E+00  0.00000000000E+00  0.45593999997E+02  0.45594000000E+02  0.51100000000E-03 0. -1.
         11   -1    0    0    0    0 -0.00000000000E+00 -0.00000000000E+00 -0.45593999997E+02  0.45594000000E+02  0.51100000000E-03 0.  1.
    9900012    2    1    2    0    0 -0.26622172220E+02 -0.16928888887E+02 -0.32152553120E+02  0.46142312029E+02  0.99999477279E+01 0.  0.
         12    1    1    2    0    0  0.26622172220E+02  0.16928888887E+02  0.32152553120E+02  0.45045687971E+02  0.00000000000E+00 0. -1.
         11    1    3    3    0    0 -0.10619138704E+02 -0.82864916700E+01 -0.11854348029E+02  0.17943177491E+02  0.51100000000E-03 0. -1.
        -11    1    3    3    0    0 -0.10218197012E+02 -0.83897750535E+01 -0.10784239116E+02  0.17061643801E+02  0.51100000000E-03 0.  1.
         12    1    3    3    0    0 -0.57848365041E+01 -0.25262216298E+00 -0.95139659750E+01  0.11137490737E+02  0.00000000000E+00 0. -1.
</event>
<event>
 7    1  0.2323330E-008  0.4614232E+02  0.7816164E-02  0.1320468E+00
        -11   -1    0    0    0    0  0.00000000000E+00  0.00000000000E+00  0.45593999997E+02  0.45594000000E+02  0.51100000000E-03 0. -1.
         11   -1    0    0    0    0 -0.00000000000E+00 -0.00000000000E+00 -0.45593999997E+02  0.45594000000E+02  0.51100000000E-03 0.  1.
    9900012    2    1    2    0    0  0.11139092393E+02  0.37541583581E+02  0.22263500239E+02  0.46142319630E+02  0.10000017042E+02 0.  0.
         12    1    1    2    0    0 -0.11139092393E+02 -0.37541583581E+02 -0.22263500239E+02  0.45045680370E+02  0.00000000000E+00 0. -1.
         11    1    3    3    0    0  0.29278931048E+01  0.84771097401E+01  0.23088764068E+01  0.92609318160E+01  0.51100000000E-03 0. -1.
        -11    1    3    3    0    0  0.60451652354E+01  0.19491474538E+02  0.93994631274E+01  0.22468010810E+02  0.51100000000E-03 0.  1.
         12    1    3    3    0    0  0.21660340526E+01  0.95729993029E+01  0.10555160704E+02  0.14413377004E+02  0.00000000000E+00 0. -1.
</event>
<event>
 7    1  0.2323330E-008  0.4614232E+02  0.7816164E-02  0.1320468E+00
        -11   -1    0    0    0    0  0.00000000000E+00  0.00000000000E+00  0.45593999997E+02  0.45594000000E+02  0.51100000000E-03 0.  1.
         11   -1    0    0    0    0 -0.00000000000E+00 -0.00000000000E+00 -0.45593999997E+02  0.45594000000E+02  0.51100000000E-03 0. -1.
    9900012    2    1    2    0    0  0.36424097360E+02  0.26421783134E+02 -0.20707398636E+01  0.46142318119E+02  0.10000003267E+02 0.  0.
         12    1    1    2    0    0 -0.36424097360E+02 -0.26421783134E+02  0.20707398636E+01  0.45045681881E+02  0.00000000000E+00 0. -1.
         11    1    3    3    0    0  0.95964159314E+01  0.47346097365E+01 -0.25451748375E+01  0.10999347403E+02  0.51100000000E-03 0. -1.
        -11    1    3    3    0    0  0.23575042767E+02  0.15748937103E+02 -0.54774692454E-01  0.28351625384E+02  0.51100000000E-03 0.  1.
        -12    1    3    3    0    0  0.32526386614E+01  0.59382362947E+01  0.52920966638E+00  0.67913453325E+01  0.00000000000E+00 0.  1.
</event>
<event>
 7    1  0.2323330E-008  0.4614232E+02  0.7816164E-02  0.1320468E+00
        -11   -1    0    0    0    0  0.00000000000E+00  0.00000000000E+00  0.45593999997E+02  0.45594000000E+02  0.51100000000E-03 0.  1.
         11   -1    0    0    0    0 -0.00000000000E+00 -0.00000000000E+00 -0.45593999997E+02  0.45594000000E+02  0.51100000000E-03 0. -1.
    9900012    2    1    2    0    0 -0.35804824941E+02 -0.17159311817E+02  0.21276418553E+02  0.46142318103E+02  0.10000003119E+02 0.  0.
         12    1    1    2    0    0  0.35804824941E+02  0.17159311817E+02 -0.21276418553E+02  0.45045681897E+02  0.00000000000E+00 0. -1.
         11    1    3    3    0    0 -0.32283315951E+00 -0.12473324007E-01  0.14013947464E+01  0.14381530965E+01  0.51100000000E-03 0.  1.
        -11    1    3    3    0    0 -0.10762748957E+02 -0.17082436025E+01  0.55673157641E+01  0.12237232791E+02  0.51100000000E-03 0. -1.
        -12    1    3    3    0    0 -0.24719242825E+02 -0.15438594891E+02  0.14307708043E+02  0.32466932215E+02  0.00000000000E+00 0.  1.
</event>
<event>
 7    1  0.2323330E-008  0.4614232E+02  0.7816164E-02  0.1320468E+00
        -11   -1    0    0    0    0  0.00000000000E+00  0.00000000000E+00  0.45593999997E+02  0.45594000000E+02  0.51100000000E-03 0.  1.
         11   -1    0    0    0    0 -0.00000000000E+00 -0.00000000000E+00 -0.45593999997E+02  0.45594000000E+02  0.51100000000E-03 0. -1.
    9900012    2    1    2    0    0 -0.12798857713E+02  0.43021587525E+02  0.38007492585E+01  0.46142318222E+02  0.10000004200E+02 0.  0.
         12    1    1    2    0    0  0.12798857713E+02 -0.43021587525E+02 -0.38007492585E+01  0.45045681778E+02  0.00000000000E+00 0. -1.
         11    1    3    3    0    0  0.96759186272E+00  0.17604085867E+01  0.27646429519E+00  0.20277339994E+01  0.51100000000E-03 0. -1.
        -11    1    3    3    0    0  0.35884253237E+00  0.18916804556E+00 -0.31290940632E+00  0.51231344915E+00  0.51100000000E-03 0.  1.
        -12    1    3    3    0    0 -0.14125292108E+02  0.41072010893E+02  0.38371943696E+01  0.43602270773E+02  0.00000000000E+00 0.  1.
</event>
<event>
 7    1  0.2323330E-008  0.4614232E+02  0.7816164E-02  0.1320468E+00
        -11   -1    0    0    0    0  0.00000000000E+00  0.00000000000E+00  0.45593999997E+02  0.45594000000E+02  0.51100000000E-03 0. -1.
         11   -1    0    0    0    0 -0.00000000000E+00 -0.00000000000E+00 -0.45593999997E+02  0.45594000000E+02  0.51100000000E-03 0.  1.
    9900012    2    1    2    0    0 -0.34556530710E+02 -0.50539852858E+01 -0.28450253032E+02  0.46142317859E+02  0.10000000889E+02 0.  0.
         12    1    1    2    0    0  0.34556530710E+02  0.50539852858E+01  0.28450253032E+02  0.45045682141E+02  0.00000000000E+00 0. -1.
         11    1    3    3    0    0 -0.14323512964E+01 -0.16513391861E+00 -0.43204106695E+01  0.45546512557E+01  0.51100000000E-03 0. -1.
        -11    1    3    3    0    0 -0.18344063511E+02 -0.44612642274E+01 -0.15789738308E+02  0.24611448163E+02  0.51100000000E-03 0.  1.
        -12    1    3    3    0    0 -0.14780115903E+02 -0.42758713975E+00 -0.83401040549E+01  0.16976218440E+02  0.00000000000E+00 0.  1.
</event>
<event>
 7    1  0.2323330E-008  0.4614233E+02  0.7816164E-02  0.1320468E+00
        -11   -1    0    0    0    0  0.00000000000E+00  0.00000000000E+00  0.45593999997E+02  0.45594000000E+02  0.51100000000E-03 0.  1.
         11   -1    0    0    0    0 -0.00000000000E+00 -0.00000000000E+00 -0.45593999997E+02  0.45594000000E+02  0.51100000000E-03 0. -1.
    9900012    2    1    2    0    0 -0.33159448134E+02 -0.23844554775E+02 -0.19000024907E+02  0.46142326074E+02  0.10000075805E+02 0.  0.
         12    1    1    2    0    0  0.33159448134E+02  0.23844554775E+02  0.19000024907E+02  0.45045673926E+02  0.00000000000E+00 0. -1.
         11    1    3    3    0    0 -0.52612282132E+01 -0.68155883462E+01 -0.65236148908E+01  0.10802329301E+02  0.51100000000E-03 0. -1.
        -11    1    3    3    0    0 -0.20408009706E+02 -0.12595368854E+02 -0.11451987864E+02  0.26575895150E+02  0.51100000000E-03 0.  1.
         12    1    3    3    0    0 -0.74902102148E+01 -0.44335975750E+01 -0.10244221516E+01  0.87641016233E+01  0.00000000000E+00 0. -1.
</event>
<event>
 7    1  0.2323330E-008  0.4614232E+02  0.7816164E-02  0.1320468E+00
        -11   -1    0    0    0    0  0.00000000000E+00  0.00000000000E+00  0.45593999997E+02  0.45594000000E+02  0.51100000000E-03 0. -1.
         11   -1    0    0    0    0 -0.00000000000E+00 -0.00000000000E+00 -0.45593999997E+02  0.45594000000E+02  0.51100000000E-03 0.  1.
    9900012    2    1    2    0    0 -0.35316963986E+02 -0.40655516804E+01 -0.27663997800E+02  0.46142318410E+02  0.10000005919E+02 0.  0.
         12    1    1    2    0    0  0.35316963986E+02  0.40655516804E+01  0.27663997800E+02  0.45045681590E+02  0.00000000000E+00 0. -1.
         11    1    3    3    0    0 -0.87473736282E+01 -0.30482653947E+01 -0.63417342655E+01  0.11226132952E+02  0.51100000000E-03 0. -1.
        -11    1    3    3    0    0 -0.19598446476E+02 -0.26244505298E+01 -0.11872647524E+02  0.23063967663E+02  0.51100000000E-03 0.  1.
         12    1    3    3    0    0 -0.69711438810E+01  0.16071642441E+01 -0.94496160096E+01  0.11852217794E+02  0.00000000000E+00 0. -1.
</event>
<event>
 7    1  0.2323330E-008  0.4614232E+02  0.7816164E-02  0.1320468E+00
        -11   -1    0    0    0    0  0.00000000000E+00  0.00000000000E+00  0.45593999997E+02  0.45594000000E+02  0.51100000000E-03 0.  1.
         11   -1    0    0    0    0 -0.00000000000E+00 -0.00000000000E+00 -0.45593999997E+02  0.45594000000E+02  0.51100000000E-03 0. -1.
    9900012    2    1    2    0    0 -0.32982401956E+02  0.27359383744E+02  0.13883038164E+02  0.46142318006E+02  0.10000002234E+02 0.  0.
         12    1    1    2    0    0  0.32982401956E+02 -0.27359383744E+02 -0.13883038164E+02  0.45045681994E+02  0.00000000000E+00 0. -1.
         11    1    3    3    0    0 -0.13640277996E+02  0.74661977466E+01  0.18848331518E+01  0.15663776329E+02  0.51100000000E-03 0. -1.
        -11    1    3    3    0    0 -0.12847569996E+02  0.10791546234E+02  0.81545838160E+01  0.18655153775E+02  0.51100000000E-03 0.  1.
         12    1    3    3    0    0 -0.64945539640E+01  0.91016397640E+01  0.38436211963E+01  0.11823387902E+02  0.00000000000E+00 0. -1.
</event>
<event>
 7    1  0.2323330E-008  0.4614232E+02  0.7816164E-02  0.1320468E+00
        -11   -1    0    0    0    0  0.00000000000E+00  0.00000000000E+00  0.45593999997E+02  0.45594000000E+02  0.51100000000E-03 0. -1.
         11   -1    0    0    0    0 -0.00000000000E+00 -0.00000000000E+00 -0.45593999997E+02  0.45594000000E+02  0.51100000000E-03 0.  1.
    9900012    2    1    2    0    0  0.13056478423E+02 -0.39470862827E+02 -0.17340497745E+02  0.46142317597E+02  0.99999985009E+01 0.  0.
         12    1    1    2    0    0 -0.13056478423E+02  0.39470862827E+02  0.17340497745E+02  0.45045682403E+02  0.00000000000E+00 0. -1.
         11    1    3    3    0    0  0.67922118605E+01 -0.17682827391E+02 -0.45353524428E+01  0.19477832234E+02  0.51100000000E-03 0. -1.
        -11    1    3    3    0    0  0.66840250024E+01 -0.15454129951E+02 -0.76823423356E+01  0.18507423019E+02  0.51100000000E-03 0.  1.
         12    1    3    3    0    0 -0.41975844011E+00 -0.63339054852E+01 -0.51228029671E+01  0.81570623440E+01  0.00000000000E+00 0. -1.
</event>
<event>
 7    1  0.2323330E-008  0.4614232E+02  0.7816164E-02  0.1320468E+00
        -11   -1    0    0    0    0  0.00000000000E+00  0.00000000000E+00  0.45593999997E+02  0.45594000000E+02  0.51100000000E-03 0.  1.
         11   -1    0    0    0    0 -0.00000000000E+00 -0.00000000000E+00 -0.45593999997E+02  0.45594000000E+02  0.51100000000E-03 0. -1.
    9900012    2    1    2    0    0 -0.24104386819E+02  0.23527714890E+02  0.29908839630E+02  0.46142317411E+02  0.99999968108E+01 0.  0.
         12    1    1    2    0    0  0.24104386819E+02 -0.23527714890E+02 -0.29908839630E+02  0.45045682589E+02  0.00000000000E+00 0. -1.
         11    1    3    3    0    0 -0.80046878735E+01  0.25162773885E+01  0.88586776328E+01  0.12201756001E+02  0.51100000000E-03 0. -1.
        -11    1    3    3    0    0 -0.12167003060E+02  0.14201390662E+02  0.13762998487E+02  0.23219293440E+02  0.51100000000E-03 0.  1.
         12    1    3    3    0    0 -0.39326958851E+01  0.68100468395E+01  0.72871635096E+01  0.10721267971E+02  0.00000000000E+00 0. -1.
</event>
<event>
 7    1  0.2323330E-008  0.4614232E+02  0.7816164E-02  0.1320468E+00
        -11   -1    0    0    0    0  0.00000000000E+00  0.00000000000E+00  0.45593999997E+02  0.45594000000E+02  0.51100000000E-03 0.  1.
         11   -1    0    0    0    0 -0.00000000000E+00 -0.00000000000E+00 -0.45593999997E+02  0.45594000000E+02  0.51100000000E-03 0. -1.
    9900012    2    1    2    0    0 -0.20942777899E+02 -0.15869908257E+02  0.36587696416E+02  0.46142318040E+02  0.10000002545E+02 0.  0.
         12    1    1    2    0    0  0.20942777899E+02  0.15869908257E+02 -0.36587696416E+02  0.45045681960E+02  0.00000000000E+00 0. -1.
         11    1    3    3    0    0 -0.56573185160E-02  0.67646939673E+00  0.12806105400E+01  0.14483115915E+01  0.51100000000E-03 0. -1.
        -11    1    3    3    0    0 -0.11088278076E+02 -0.49869278047E+01  0.14245187677E+02  0.18728180153E+02  0.51100000000E-03 0.  1.
        -12    1    3    3    0    0 -0.98488425043E+01 -0.11559449849E+02  0.21061898199E+02  0.25965826296E+02  0.00000000000E+00 0.  1.
</event>
<event>
 7    1  0.2323330E-008  0.4614232E+02  0.7816164E-02  0.1320468E+00
        -11   -1    0    0    0    0  0.00000000000E+00  0.00000000000E+00  0.45593999997E+02  0.45594000000E+02  0.51100000000E-03 0. -1.
         11   -1    0    0    0    0 -0.00000000000E+00 -0.00000000000E+00 -0.45593999997E+02  0.45594000000E+02  0.51100000000E-03 0.  1.
    9900012    2    1    2    0    0 -0.32120071830E+02 -0.31490389362E+02  0.24020351156E+01  0.46142318640E+02  0.10000008011E+02 0.  0.
         12    1    1    2    0    0  0.32120071830E+02  0.31490389362E+02 -0.24020351156E+01  0.45045681360E+02  0.00000000000E+00 0. -1.
         11    1    3    3    0    0 -0.48548339856E+01 -0.30534319139E+01 -0.20700451249E+01  0.60973721028E+01  0.51100000000E-03 0.  1.
        -11    1    3    3    0    0 -0.68782286476E+01 -0.10209794758E+02  0.29302355671E+01  0.12654494026E+02  0.51100000000E-03 0. -1.
        -12    1    3    3    0    0 -0.20387009197E+02 -0.18227162690E+02  0.15418446734E+01  0.27390452511E+02  0.00000000000E+00 0.  1.
</event>
<event>
 7    1  0.2323330E-008  0.4614231E+02  0.7816164E-02  0.1320468E+00
        -11   -1    0    0    0    0  0.00000000000E+00  0.00000000000E+00  0.45593999997E+02  0.45594000000E+02  0.51100000000E-03 0. -1.
         11   -1    0    0    0    0 -0.00000000000E+00 -0.00000000000E+00 -0.45593999997E+02  0.45594000000E+02  0.51100000000E-03 0.  1.
    9900012    2    1    2    0    0 -0.28764431498E+02 -0.30864801709E+02 -0.15782438412E+02  0.46142313568E+02  0.99999617595E+01 0.  0.
         12    1    1    2    0    0  0.28764431498E+02  0.30864801709E+02  0.15782438412E+02  0.45045686432E+02  0.00000000000E+00 0. -1.
         11    1    3    3    0    0 -0.53921465655E+01 -0.55145880737E+01 -0.47989251123E+01  0.90838102523E+01  0.51100000000E-03 0.  1.
        -11    1    3    3    0    0 -0.17103332544E+01 -0.37619102455E+01  0.93267182306E+00  0.42364000669E+01  0.51100000000E-03 0. -1.
        -12    1    3    3    0    0 -0.21661951678E+02 -0.21588303390E+02 -0.11916185123E+02  0.32822103248E+02  0.00000000000E+00 0.  1.
</event>
<event>
 7    1  0.2323330E-008  0.4614232E+02  0.7816164E-02  0.1320468E+00
        -11   -1    0    0    0    0  0.00000000000E+00  0.00000000000E+00  0.45593999997E+02  0.45594000000E+02  0.51100000000E-03 0.  1.
         11   -1    0    0    0    0 -0.00000000000E+00 -0.00000000000E+00 -0.45593999997E+02  0.45594000000E+02  0.51100000000E-03 0. -1.
    9900012    2    1    2    0    0 -0.29711808818E+02 -0.30138720761E+02  0.15426578914E+02  0.46142318638E+02  0.10000007994E+02 0.  0.
         12    1    1    2    0    0  0.29711808818E+02  0.30138720761E+02 -0.15426578914E+02  0.45045681362E+02  0.00000000000E+00 0. -1.
         11    1    3    3    0    0 -0.15069479637E+02 -0.13182376182E+02  0.36958499918E+01  0.20359851811E+02  0.51100000000E-03 0.  1.
        -11    1    3    3    0    0 -0.27536640613E+01 -0.45159636206E+01  0.68201960562E+00  0.53330801783E+01  0.51100000000E-03 0. -1.
         12    1    3    3    0    0 -0.11888665120E+02 -0.12440380959E+02  0.11048709317E+02  0.20449386649E+02  0.00000000000E+00 0. -1.
</event>
<event>
 7    1  0.2323330E-008  0.4614232E+02  0.7816164E-02  0.1320468E+00
        -11   -1    0    0    0    0  0.00000000000E+00  0.00000000000E+00  0.45593999997E+02  0.45594000000E+02  0.51100000000E-03 0. -1.
         11   -1    0    0    0    0 -0.00000000000E+00 -0.00000000000E+00 -0.45593999997E+02  0.45594000000E+02  0.51100000000E-03 0.  1.
    9900012    2    1    2    0    0 -0.31383726396E+02 -0.14554744717E+02 -0.28850209811E+02  0.46142317827E+02  0.10000000605E+02 0.  0.
         12    1    1    2    0    0  0.31383726396E+02  0.14554744717E+02  0.28850209811E+02  0.45045682173E+02  0.00000000000E+00 0. -1.
         11    1    3    3    0    0 -0.15105080641E+02 -0.48494608269E+01 -0.11822608053E+02  0.19785216524E+02  0.51100000000E-03 0. -1.
        -11    1    3    3    0    0 -0.16896013419E+02 -0.96815180121E+01 -0.16241806763E+02  0.25357510675E+02  0.51100000000E-03 0.  1.
         12    1    3    3    0    0  0.61736766377E+00 -0.23765878200E-01 -0.78579499493E+00  0.99959062785E+00  0.00000000000E+00 0. -1.
</event>
<event>
 7    1  0.2323330E-008  0.4614231E+02  0.7816164E-02  0.1320468E+00
        -11   -1    0    0    0    0  0.00000000000E+00  0.00000000000E+00  0.45593999997E+02  0.45594000000E+02  0.51100000000E-03 0.  1.
         11   -1    0    0    0    0 -0.00000000000E+00 -0.00000000000E+00 -0.45593999997E+02  0.45594000000E+02  0.51100000000E-03 0. -1.
    9900012    2    1    2    0    0  0.12087515085E+02  0.40903088686E+01  0.43200408285E+02  0.46142312930E+02  0.99999559494E+01 0.  0.
         12    1    1    2    0    0 -0.12087515085E+02 -0.40903088686E+01 -0.43200408285E+02  0.45045687070E+02  0.00000000000E+00 0. -1.
         11    1    3    3    0    0  0.27708089653E+01  0.58830078457E+00  0.23757201823E+01  0.36969618312E+01  0.51100000000E-03 0. -1.
        -11    1    3    3    0    0 -0.46934991046E+00  0.70237441015E+00  0.88363110298E+01  0.88765991251E+01  0.51100000000E-03 0.  1.
        -12    1    3    3    0    0  0.97860560300E+01  0.27996336739E+01  0.31988377073E+02  0.33568751974E+02  0.00000000000E+00 0.  1.
</event>
<event>
 7    1  0.2323330E-008  0.4614232E+02  0.7816164E-02  0.1320468E+00
        -11   -1    0    0    0    0  0.00000000000E+00  0.00000000000E+00  0.45593999997E+02  0.45594000000E+02  0.51100000000E-03 0.  1.
         11   -1    0    0    0    0 -0.00000000000E+00 -0.00000000000E+00 -0.45593999997E+02  0.45594000000E+02  0.51100000000E-03 0. -1.
    9900012    2    1    2    0    0 -0.13624178767E+02 -0.31881481939E+02  0.28758761839E+02  0.46142317407E+02  0.99999967738E+01 0.  0.
         12    1    1    2    0    0  0.13624178767E+02  0.31881481939E+02 -0.28758761839E+02  0.45045682593E+02  0.00000000000E+00 0. -1.
         11    1    3    3    0    0 -0.42710427112E+00 -0.10926836284E+01  0.22479283460E+01  0.25356572482E+01  0.51100000000E-03 0. -1.
        -11    1    3    3    0    0 -0.14351717720E+02 -0.27535645453E+02  0.22694175340E+02  0.38460488383E+02  0.51100000000E-03 0.  1.
        -12    1    3    3    0    0  0.11546432240E+01 -0.32531528573E+01  0.38166581538E+01  0.51461717763E+01  0.00000000000E+00 0.  1.
</event>
<event>
 7    1  0.2323330E-008  0.4614232E+02  0.7816164E-02  0.1320468E+00
        -11   -1    0    0    0    0  0.00000000000E+00  0.00000000000E+00  0.45593999997E+02  0.45594000000E+02  0.51100000000E-03 0. -1.
         11   -1    0    0    0    0 -0.00000000000E+00 -0.00000000000E+00 -0.45593999997E+02  0.45594000000E+02  0.51100000000E-03 0.  1.
    9900012    2    1    2    0    0  0.10514057191E+02 -0.36986854569E+02 -0.23463603599E+02  0.46142317594E+02  0.99999984798E+01 0.  0.
         12    1    1    2    0    0 -0.10514057191E+02  0.36986854569E+02  0.23463603599E+02  0.45045682406E+02  0.00000000000E+00 0. -1.
         11    1    3    3    0    0  0.63713905143E+01 -0.26321707526E+02 -0.19331964759E+02  0.33273890153E+02  0.51100000000E-03 0. -1.
        -11    1    3    3    0    0  0.48993128812E+01 -0.87820581529E+01 -0.40385746846E+01  0.10836876757E+02  0.51100000000E-03 0.  1.
         12    1    3    3    0    0 -0.75664620453E+00 -0.18830888901E+01 -0.93064155342E-01  0.20315506846E+01  0.00000000000E+00 0. -1.
</event>
<event>
 7    1  0.2323330E-008  0.4614232E+02  0.7816164E-02  0.1320468E+00
        -11   -1    0    0    0    0  0.00000000000E+00  0.00000000000E+00  0.45593999997E+02  0.45594000000E+02  0.51100000000E-03 0. -1.
         11   -1    0    0    0    0 -0.00000000000E+00 -0.00000000000E+00 -0.45593999997E+02  0.45594000000E+02  0.51100000000E-03 0.  1.
    9900012    2    1    2    0    0 -0.22023696185E+02 -0.22804232365E+02 -0.32000583059E+02  0.46142317371E+02  0.99999964428E+01 0.  0.
         12    1    1    2    0    0  0.22023696185E+02  0.22804232365E+02  0.32000583059E+02  0.45045682629E+02  0.00000000000E+00 0. -1.
         11    1    3    3    0    0 -0.14436726398E+01 -0.31265892704E+01 -0.71961960802E+01  0.79777809849E+01  0.51100000000E-03 0. -1.
        -11    1    3    3    0    0 -0.11216658015E+02 -0.75041167715E+01 -0.13552934410E+02  0.19126087339E+02  0.51100000000E-03 0.  1.
         12    1    3    3    0    0 -0.93633655303E+01 -0.12173526323E+02 -0.11251452569E+02  0.19038449047E+02  0.00000000000E+00 0. -1.
</event>
<event>
 7    1  0.2323330E-008  0.4614232E+02  0.7816164E-02  0.1320468E+00
        -11   -1    0    0    0    0  0.00000000000E+00  0.00000000000E+00  0.45593999997E+02  0.45594000000E+02  0.51100000000E-03 0.  1.
         11   -1    0    0    0    0 -0.00000000000E+00 -0.00000000000E+00 -0.45593999997E+02  0.45594000000E+02  0.51100000000E-03 0. -1.
    9900012    2    1    2    0    0 -0.12426959452E+02  0.17657491215E+01  0.43261604304E+02  0.46142316542E+02  0.99999888849E+01 0.  0.
         12    1    1    2    0    0  0.12426959452E+02 -0.17657491215E+01 -0.43261604304E+02  0.45045683458E+02  0.00000000000E+00 0. -1.
         11    1    3    3    0    0 -0.26259704657E+01  0.70968702525E+00  0.84132465090E+01  0.88420638791E+01  0.51100000000E-03 0. -1.
        -11    1    3    3    0    0 -0.28275870477E+01 -0.15190226505E+01  0.23601346461E+02  0.23818611071E+02  0.51100000000E-03 0.  1.
         12    1    3    3    0    0 -0.69734019390E+01  0.25750847467E+01  0.11247011334E+02  0.13481641592E+02  0.00000000000E+00 0. -1.
</event>
<event>
 7    1  0.2323330E-008  0.4614232E+02  0.7816164E-02  0.1320468E+00
        -11   -1    0    0    0    0  0.00000000000E+00  0.00000000000E+00  0.45593999997E+02  0.45594000000E+02  0.51100000000E-03 0.  1.
         11   -1    0    0    0    0 -0.00000000000E+00 -0.00000000000E+00 -0.45593999997E+02  0.45594000000E+02  0.51100000000E-03 0. -1.
    9900012    2    1    2    0    0 -0.92825832408E+01  0.42571257805E+02 -0.11429581380E+02  0.46142315709E+02  0.99999812903E+01 0.  0.
         12    1    1    2    0    0  0.92825832408E+01 -0.42571257805E+02  0.11429581380E+02  0.45045684291E+02  0.00000000000E+00 0. -1.
         11    1    3    3    0    0  0.11071447705E+01  0.85233172448E+01 -0.13872974545E+01  0.87061645336E+01  0.51100000000E-03 0. -1.
        -11    1    3    3    0    0 -0.34109027716E+01  0.60605765251E+01 -0.19500723468E+00  0.69572173759E+01  0.51100000000E-03 0.  1.
        -12    1    3    3    0    0 -0.69788252397E+01  0.27987364035E+02 -0.98472766911E+01  0.30478933800E+02  0.00000000000E+00 0.  1.
</event>
<event>
 7    1  0.2323330E-008  0.4614232E+02  0.7816164E-02  0.1320468E+00
        -11   -1    0    0    0    0  0.00000000000E+00  0.00000000000E+00  0.45593999997E+02  0.45594000000E+02  0.51100000000E-03 0.  1.
         11   -1    0    0    0    0 -0.00000000000E+00 -0.00000000000E+00 -0.45593999997E+02  0.45594000000E+02  0.51100000000E-03 0. -1.
    9900012    2    1    2    0    0 -0.38370788954E+02 -0.22762933546E+02  0.62165007388E+01  0.46142317965E+02  0.10000001858E+02 0.  0.
         12    1    1    2    0    0  0.38370788954E+02  0.22762933546E+02 -0.62165007388E+01  0.45045682035E+02  0.00000000000E+00 0. -1.
         11    1    3    3    0    0 -0.17772718135E+02 -0.12607252691E+02  0.68842706164E+01  0.22851816394E+02  0.51100000000E-03 0. -1.
        -11    1    3    3    0    0 -0.18497979164E+02 -0.97750437448E+01  0.35245460362E+00  0.20924888001E+02  0.51100000000E-03 0.  1.
         12    1    3    3    0    0 -0.21000916546E+01 -0.38063711060E+00 -0.10202244813E+01  0.23656135694E+01  0.00000000000E+00 0. -1.
</event>
<event>
 7    1  0.2323330E-008  0.4614232E+02  0.7816164E-02  0.1320468E+00
        -11   -1    0    0    0    0  0.00000000000E+00  0.00000000000E+00  0.45593999997E+02  0.45594000000E+02  0.51100000000E-03 0.  1.
         11   -1    0    0    0    0 -0.00000000000E+00 -0.00000000000E+00 -0.45593999997E+02  0.45594000000E+02  0.51100000000E-03 0. -1.
    9900012    2    1    2    0    0  0.37853832728E+02  0.12347839740E+02  0.21064941957E+02  0.46142316765E+02  0.99999909162E+01 0.  0.
         12    1    1    2    0    0 -0.37853832728E+02 -0.12347839740E+02 -0.21064941957E+02  0.45045683235E+02  0.00000000000E+00 0. -1.
         11    1    3    3    0    0  0.10705387288E+02  0.25848871605E+00  0.59314195737E+01  0.12241481603E+02  0.51100000000E-03 0. -1.
        -11    1    3    3    0    0  0.88693863763E+01  0.50970909835E+01  0.82933425486E+01  0.13169126094E+02  0.51100000000E-03 0.  1.
        -12    1    3    3    0    0  0.18279059064E+02  0.69922600407E+01  0.68401798346E+01  0.20731709068E+02  0.00000000000E+00 0.  1.
</event>
<event>
 7    1  0.2323330E-008  0.4614232E+02  0.7816164E-02  0.1320468E+00
        -11   -1    0    0    0    0  0.00000000000E+00  0.00000000000E+00  0.45593999997E+02  0.45594000000E+02  0.51100000000E-03 0. -1.
         11   -1    0    0    0    0 -0.00000000000E+00 -0.00000000000E+00 -0.45593999997E+02  0.45594000000E+02  0.51100000000E-03 0.  1.
    9900012    2    1    2    0    0 -0.32210754233E+02 -0.18937667832E+02  0.25158409562E+02  0.46142317378E+02  0.99999965060E+01 0.  0.
         12    1    1    2    0    0  0.32210754233E+02  0.18937667832E+02 -0.25158409562E+02  0.45045682622E+02  0.00000000000E+00 0. -1.
         11    1    3    3    0    0 -0.87987353380E+01 -0.20827078847E+01  0.51104194522E+01  0.10386135129E+02  0.51100000000E-03 0. -1.
        -11    1    3    3    0    0 -0.17360239964E+02 -0.12909867056E+02  0.11289367452E+02  0.24402713307E+02  0.51100000000E-03 0.  1.
        -12    1    3    3    0    0 -0.60517789315E+01 -0.39450928910E+01  0.87586226577E+01  0.11353468942E+02  0.00000000000E+00 0.  1.
</event>
<event>
 7    1  0.2323330E-008  0.4614232E+02  0.7816164E-02  0.1320468E+00
        -11   -1    0    0    0    0  0.00000000000E+00  0.00000000000E+00  0.45593999997E+02  0.45594000000E+02  0.51100000000E-03 0.  1.
         11   -1    0    0    0    0 -0.00000000000E+00 -0.00000000000E+00 -0.45593999997E+02  0.45594000000E+02  0.51100000000E-03 0. -1.
    9900012    2    1    2    0    0  0.19035147804E+01 -0.95684163756E+01  0.43976535379E+02  0.46142316251E+02  0.99999862309E+01 0.  0.
         12    1    1    2    0    0 -0.19035147804E+01  0.95684163756E+01 -0.43976535379E+02  0.45045683749E+02  0.00000000000E+00 0. -1.
         11    1    3    3    0    0  0.14600092900E+00 -0.32398601721E+01  0.65760346825E+01  0.73322740410E+01  0.51100000000E-03 0. -1.
        -11    1    3    3    0    0 -0.10543438692E+01  0.15888403362E+01  0.86104445767E+01  0.88190595121E+01  0.51100000000E-03 0.  1.
        -12    1    3    3    0    0  0.28118577206E+01 -0.79173965398E+01  0.28790056120E+02  0.29990982698E+02  0.00000000000E+00 0.  1.
</event>
<event>
 7    1  0.2323330E-008  0.4614232E+02  0.7816164E-02  0.1320468E+00
        -11   -1    0    0    0    0  0.00000000000E+00  0.00000000000E+00  0.45593999997E+02  0.45594000000E+02  0.51100000000E-03 0.  1.
         11   -1    0    0    0    0 -0.00000000000E+00 -0.00000000000E+00 -0.45593999997E+02  0.45594000000E+02  0.51100000000E-03 0. -1.
    9900012    2    1    2    0    0  0.29705134161E+02 -0.32700001801E+01  0.33704979080E+02  0.46142317505E+02  0.99999976644E+01 0.  0.
         12    1    1    2    0    0 -0.29705134161E+02  0.32700001801E+01 -0.33704979080E+02  0.45045682495E+02  0.00000000000E+00 0. -1.
         11    1    3    3    0    0 -0.40345026337E+00 -0.16945664726E+00  0.21051201360E+01  0.21501206288E+01  0.51100000000E-03 0. -1.
        -11    1    3    3    0    0  0.13960056576E+02 -0.17481929415E+01  0.11484055097E+02  0.18161026400E+02  0.51100000000E-03 0.  1.
        -12    1    3    3    0    0  0.16148527848E+02 -0.13523505914E+01  0.20115803847E+02  0.25831170476E+02  0.00000000000E+00 0.  1.
</event>
<event>
 7    1  0.2323330E-008  0.4614232E+02  0.7816164E-02  0.1320468E+00
        -11   -1    0    0    0    0  0.00000000000E+00  0.00000000000E+00  0.45593999997E+02  0.45594000000E+02  0.51100000000E-03 0.  1.
         11   -1    0    0    0    0 -0.00000000000E+00 -0.00000000000E+00 -0.45593999997E+02  0.45594000000E+02  0.51100000000E-03 0. -1.
    9900012    2    1    2    0    0  0.62858133009E+01 -0.26758207610E+02  0.35687539337E+02  0.46142316663E+02  0.99999899866E+01 0.  0.
         12    1    1    2    0    0 -0.62858133009E+01  0.26758207610E+02 -0.35687539337E+02  0.45045683337E+02  0.00000000000E+00 0. -1.
         11    1    3    3    0    0  0.62783865954E+01 -0.10864461032E+02  0.12010090265E+02  0.17369424867E+02  0.51100000000E-03 0. -1.
        -11    1    3    3    0    0 -0.17883819881E+01 -0.67559365433E+01  0.90840018241E+01  0.11461242433E+02  0.51100000000E-03 0.  1.
        -12    1    3    3    0    0  0.17958086936E+01 -0.91378100346E+01  0.14593447248E+02  0.17311649363E+02  0.00000000000E+00 0.  1.
</event>
<event>
 7    1  0.2323330E-008  0.4614232E+02  0.7816164E-02  0.1320468E+00
        -11   -1    0    0    0    0  0.00000000000E+00  0.00000000000E+00  0.45593999997E+02  0.45594000000E+02  0.51100000000E-03 0.  1.
         11   -1    0    0    0    0 -0.00000000000E+00 -0.00000000000E+00 -0.45593999997E+02  0.45594000000E+02  0.51100000000E-03 0. -1.
    9900012    2    1    2    0    0 -0.68941833952E+01  0.36342981369E+02  0.25705476178E+02  0.46142316910E+02  0.99999922433E+01 0.  0.
         12    1    1    2    0    0  0.68941833952E+01 -0.36342981369E+02 -0.25705476178E+02  0.45045683090E+02  0.00000000000E+00 0. -1.
         11    1    3    3    0    0 -0.76417635417E+00  0.46013915983E+01  0.12438969432E+01  0.48274268516E+01  0.51100000000E-03 0. -1.
        -11    1    3    3    0    0  0.14142028335E+01  0.20786813787E+01  0.30951575974E+01  0.39875915967E+01  0.51100000000E-03 0.  1.
        -12    1    3    3    0    0 -0.75442098745E+01  0.29662908392E+02  0.21366421638E+02  0.37327298462E+02  0.00000000000E+00 0.  1.
</event>
<event>
 7    1  0.2323330E-008  0.4614232E+02  0.7816164E-02  0.1320468E+00
        -11   -1    0    0    0    0  0.00000000000E+00  0.00000000000E+00  0.45593999997E+02  0.45594000000E+02  0.51100000000E-03 0. -1.
         11   -1    0    0    0    0 -0.00000000000E+00 -0.00000000000E+00 -0.45593999997E+02  0.45594000000E+02  0.51100000000E-03 0.  1.
    9900012    2    1    2    0    0  0.42293317584E+00  0.11944054071E+02 -0.43431257285E+02  0.46142318637E+02  0.10000007988E+02 0.  0.
         12    1    1    2    0    0 -0.42293317584E+00 -0.11944054071E+02  0.43431257285E+02  0.45045681363E+02  0.00000000000E+00 0. -1.
         11    1    3    3    0    0  0.21713655747E+01  0.17406436515E+00 -0.41026463718E+01  0.46450871225E+01  0.51100000000E-03 0. -1.
        -11    1    3    3    0    0  0.15519550094E+01  0.19178419098E+01 -0.42714774674E+01  0.49327681841E+01  0.51100000000E-03 0.  1.
        -12    1    3    3    0    0 -0.33003874082E+01  0.98521477960E+01 -0.35057133445E+02  0.36564463331E+02  0.00000000000E+00 0.  1.
</event>
<event>
 7    1  0.2323330E-008  0.4614232E+02  0.7816164E-02  0.1320468E+00
        -11   -1    0    0    0    0  0.00000000000E+00  0.00000000000E+00  0.45593999997E+02  0.45594000000E+02  0.51100000000E-03 0.  1.
         11   -1    0    0    0    0 -0.00000000000E+00 -0.00000000000E+00 -0.45593999997E+02  0.45594000000E+02  0.51100000000E-03 0. -1.
    9900012    2    1    2    0    0 -0.13974303669E+02 -0.13827158566E+02  0.40529521191E+02  0.46142316910E+02  0.99999922409E+01 0.  0.
         12    1    1    2    0    0  0.13974303669E+02  0.13827158566E+02 -0.40529521191E+02  0.45045683090E+02  0.00000000000E+00 0. -1.
         11    1    3    3    0    0 -0.29749102074E+01 -0.77821519888E+01  0.22484217124E+02  0.23978156732E+02  0.51100000000E-03 0.  1.
        -11    1    3    3    0    0 -0.61768346432E+01 -0.49479613560E+01  0.11509980909E+02  0.13968366711E+02  0.51100000000E-03 0. -1.
        -12    1    3    3    0    0 -0.48225588188E+01 -0.10970452215E+01  0.65353231578E+01  0.81957934672E+01  0.00000000000E+00 0.  1.
</event>
<event>
 7    1  0.2323330E-008  0.4614232E+02  0.7816164E-02  0.1320468E+00
        -11   -1    0    0    0    0  0.00000000000E+00  0.00000000000E+00  0.45593999997E+02  0.45594000000E+02  0.51100000000E-03 0.  1.
         11   -1    0    0    0    0 -0.00000000000E+00 -0.00000000000E+00 -0.45593999997E+02  0.45594000000E+02  0.51100000000E-03 0. -1.
    9900012    2    1    2    0    0 -0.16845483367E+02  0.38879168674E+02  0.15288993919E+02  0.46142318723E+02  0.10000008775E+02 0.  0.
         12    1    1    2    0    0  0.16845483367E+02 -0.38879168674E+02 -0.15288993919E+02  0.45045681277E+02  0.00000000000E+00 0. -1.
         11    1    3    3    0    0 -0.89851347783E+01  0.29562737048E+02  0.81372221921E+01  0.31951564187E+02  0.51100000000E-03 0. -1.
        -11    1    3    3    0    0 -0.17210063509E+01  0.14501927222E+01  0.16974374467E+01  0.28189033219E+01  0.51100000000E-03 0.  1.
         12    1    3    3    0    0 -0.61393422376E+01  0.78662389035E+01  0.54543342803E+01  0.11371851214E+02  0.00000000000E+00 0. -1.
</event>
<event>
 7    1  0.2323330E-008  0.4614232E+02  0.7816164E-02  0.1320468E+00
        -11   -1    0    0    0    0  0.00000000000E+00  0.00000000000E+00  0.45593999997E+02  0.45594000000E+02  0.51100000000E-03 0. -1.
         11   -1    0    0    0    0 -0.00000000000E+00 -0.00000000000E+00 -0.45593999997E+02  0.45594000000E+02  0.51100000000E-03 0.  1.
    9900012    2    1    2    0    0 -0.15654997557E+02  0.27402860952E+02 -0.32142148787E+02  0.46142318015E+02  0.10000002313E+02 0.  0.
         12    1    1    2    0    0  0.15654997557E+02 -0.27402860952E+02  0.32142148787E+02  0.45045681985E+02  0.00000000000E+00 0. -1.
         11    1    3    3    0    0 -0.47938325511E+01  0.97668284039E+01 -0.13064838351E+02  0.17001816638E+02  0.51100000000E-03 0. -1.
        -11    1    3    3    0    0 -0.45885463943E+01  0.14028118581E+02 -0.13530832355E+02  0.20023143944E+02  0.51100000000E-03 0.  1.
        -12    1    3    3    0    0 -0.62726186119E+01  0.36079139667E+01 -0.55464780818E+01  0.91173574326E+01  0.00000000000E+00 0.  1.
</event>
<event>
 7    1  0.2323330E-008  0.4614232E+02  0.7816164E-02  0.1320468E+00
        -11   -1    0    0    0    0  0.00000000000E+00  0.00000000000E+00  0.45593999997E+02  0.45594000000E+02  0.51100000000E-03 0.  1.
         11   -1    0    0    0    0 -0.00000000000E+00 -0.00000000000E+00 -0.45593999997E+02  0.45594000000E+02  0.51100000000E-03 0. -1.
    9900012    2    1    2    0    0 -0.28549718305E+02  0.13756340109E+01  0.34815726382E+02  0.46142316658E+02  0.99999899436E+01 0.  0.
         12    1    1    2    0    0  0.28549718305E+02 -0.13756340109E+01 -0.34815726382E+02  0.45045683342E+02  0.00000000000E+00 0. -1.
         11    1    3    3    0    0 -0.11642953481E+02  0.29418610783E+01  0.15825016785E+02  0.19865650477E+02  0.51100000000E-03 0. -1.
        -11    1    3    3    0    0 -0.73210257887E+01  0.10567302120E+01  0.12105402315E+02  0.14186432349E+02  0.51100000000E-03 0.  1.
        -12    1    3    3    0    0 -0.95857390354E+01 -0.26229572794E+01  0.68853072819E+01  0.12090233832E+02  0.00000000000E+00 0.  1.
</event>
<event>
 7    1  0.2323330E-008  0.4614232E+02  0.7816164E-02  0.1320468E+00
        -11   -1    0    0    0    0  0.00000000000E+00  0.00000000000E+00  0.45593999997E+02  0.45594000000E+02  0.51100000000E-03 0.  1.
         11   -1    0    0    0    0 -0.00000000000E+00 -0.00000000000E+00 -0.45593999997E+02  0.45594000000E+02  0.51100000000E-03 0. -1.
    9900012    2    1    2    0    0 -0.42904740177E+02 -0.13629905129E+02  0.15882218734E+01  0.46142317719E+02  0.99999996140E+01 0.  0.
         12    1    1    2    0    0  0.42904740177E+02  0.13629905129E+02 -0.15882218734E+01  0.45045682281E+02  0.00000000000E+00 0. -1.
         11    1    3    3    0    0 -0.11097678531E+02 -0.60452446766E+01 -0.20742454034E+01  0.12806480634E+02  0.51100000000E-03 0. -1.
        -11    1    3    3    0    0 -0.15334240132E+02 -0.19402240065E+01 -0.37426404776E+00  0.15461030479E+02  0.51100000000E-03 0.  1.
         12    1    3    3    0    0 -0.16472821514E+02 -0.56444364458E+01  0.40367313246E+01  0.17874806606E+02  0.00000000000E+00 0. -1.
</event>
<event>
 7    1  0.2323330E-008  0.4614232E+02  0.7816164E-02  0.1320468E+00
        -11   -1    0    0    0    0  0.00000000000E+00  0.00000000000E+00  0.45593999997E+02  0.45594000000E+02  0.51100000000E-03 0.  1.
         11   -1    0    0    0    0 -0.00000000000E+00 -0.00000000000E+00 -0.45593999997E+02  0.45594000000E+02  0.51100000000E-03 0. -1.
    9900012    2    1    2    0    0 -0.19165876310E+02  0.27140272392E+02  0.30416907304E+02  0.46142318185E+02  0.10000003864E+02 0.  0.
         12    1    1    2    0    0  0.19165876310E+02 -0.27140272392E+02 -0.30416907304E+02  0.45045681815E+02  0.00000000000E+00 0. -1.
         11    1    3    3    0    0  0.49150439601E+00  0.11738261922E+01  0.62846680981E+00  0.14193009875E+01  0.51100000000E-03 0. -1.
        -11    1    3    3    0    0 -0.15800670498E+02  0.18086352910E+02  0.25242485044E+02  0.34841934522E+02  0.51100000000E-03 0.  1.
        -12    1    3    3    0    0 -0.38567102079E+01  0.78800932896E+01  0.45459554502E+01  0.98810826753E+01  0.00000000000E+00 0.  1.
</event>
<event>
 7    1  0.2323330E-008  0.4614232E+02  0.7816164E-02  0.1320468E+00
        -11   -1    0    0    0    0  0.00000000000E+00  0.00000000000E+00  0.45593999997E+02  0.45594000000E+02  0.51100000000E-03 0. -1.
         11   -1    0    0    0    0 -0.00000000000E+00 -0.00000000000E+00 -0.45593999997E+02  0.45594000000E+02  0.51100000000E-03 0.  1.
    9900012    2    1    2    0    0 -0.26395396991E+02  0.25945030505E+02 -0.25675902422E+02  0.46142317017E+02  0.99999932127E+01 0.  0.
         12    1    1    2    0    0  0.26395396991E+02 -0.25945030505E+02  0.25675902422E+02  0.45045682983E+02  0.00000000000E+00 0. -1.
         11    1    3    3    0    0 -0.11810726617E+02  0.86404017752E+01 -0.86280306984E+01  0.16988016954E+02  0.51100000000E-03 0.  1.
        -11    1    3    3    0    0 -0.84900994716E+01  0.10318607708E+02 -0.14100438096E+02  0.19426214475E+02  0.51100000000E-03 0. -1.
         12    1    3    3    0    0 -0.60945709031E+01  0.69860210214E+01 -0.29474336281E+01  0.97280855874E+01  0.00000000000E+00 0. -1.
</event>
<event>
 7    1  0.2323330E-008  0.4614232E+02  0.7816164E-02  0.1320468E+00
        -11   -1    0    0    0    0  0.00000000000E+00  0.00000000000E+00  0.45593999997E+02  0.45594000000E+02  0.51100000000E-03 0.  1.
         11   -1    0    0    0    0 -0.00000000000E+00 -0.00000000000E+00 -0.45593999997E+02  0.45594000000E+02  0.51100000000E-03 0. -1.
    9900012    2    1    2    0    0  0.32492961932E+02 -0.17777928707E+02 -0.25637203002E+02  0.46142317610E+02  0.99999986235E+01 0.  0.
         12    1    1    2    0    0 -0.32492961932E+02  0.17777928707E+02  0.25637203002E+02  0.45045682390E+02  0.00000000000E+00 0. -1.
         11    1    3    3    0    0  0.57109873975E+01 -0.50629161480E+01 -0.41265421658E+01  0.86762231116E+01  0.51100000000E-03 0. -1.
        -11    1    3    3    0    0  0.18858810570E+02 -0.69421405952E+01 -0.18218335062E+02  0.27124818614E+02  0.51100000000E-03 0.  1.
         12    1    3    3    0    0  0.79231639646E+01 -0.57728719636E+01 -0.32923257741E+01  0.10341275885E+02  0.00000000000E+00 0. -1.
</event>
<event>
 7    1  0.2323330E-008  0.4614232E+02  0.7816164E-02  0.1320468E+00
        -11   -1    0    0    0    0  0.00000000000E+00  0.00000000000E+00  0.45593999997E+02  0.45594000000E+02  0.51100000000E-03 0.  1.
         11   -1    0    0    0    0 -0.00000000000E+00 -0.00000000000E+00 -0.45593999997E+02  0.45594000000E+02  0.51100000000E-03 0. -1.
    9900012    2    1    2    0    0  0.43654919434E+02  0.10384241066E+02  0.39406942788E+01  0.46142317357E+02  0.99999963175E+01 0.  0.
         12    1    1    2    0    0 -0.43654919434E+02 -0.10384241066E+02 -0.39406942788E+01  0.45045682643E+02  0.00000000000E+00 0. -1.
         11    1    3    3    0    0  0.42833269108E+01 -0.67940775808E-01  0.28514330921E+01  0.51460835898E+01  0.51100000000E-03 0. -1.
        -11    1    3    3    0    0  0.50466222834E+01  0.28232576164E+01 -0.44897841231E+00  0.58000656820E+01  0.51100000000E-03 0.  1.
        -12    1    3    3    0    0  0.34324970240E+02  0.76289242259E+01  0.15382395990E+01  0.35196168085E+02  0.00000000000E+00 0.  1.
</event>
<event>
 7    1  0.2323330E-008  0.4614232E+02  0.7816164E-02  0.1320468E+00
        -11   -1    0    0    0    0  0.00000000000E+00  0.00000000000E+00  0.45593999997E+02  0.45594000000E+02  0.51100000000E-03 0. -1.
         11   -1    0    0    0    0 -0.00000000000E+00 -0.00000000000E+00 -0.45593999997E+02  0.45594000000E+02  0.51100000000E-03 0.  1.
    9900012    2    1    2    0    0  0.35297160946E+02 -0.69171030006E+01 -0.27117846846E+02  0.46142317607E+02  0.99999985908E+01 0.  0.
         12    1    1    2    0    0 -0.35297160946E+02  0.69171030006E+01  0.27117846846E+02  0.45045682393E+02  0.00000000000E+00 0. -1.
         11    1    3    3    0    0  0.13835879924E+02 -0.49296854251E+01 -0.10155582176E+02  0.17856909623E+02  0.51100000000E-03 0. -1.
        -11    1    3    3    0    0  0.64707800379E+01 -0.20774121227E+01 -0.19505722284E+01  0.70704573902E+01  0.51100000000E-03 0.  1.
        -12    1    3    3    0    0  0.14990500983E+02  0.89994547277E-01 -0.15011692441E+02  0.21214950594E+02  0.00000000000E+00 0.  1.
</event>
<event>
 7    1  0.2323330E-008  0.4614232E+02  0.7816164E-02  0.1320468E+00
        -11   -1    0    0    0    0  0.00000000000E+00  0.00000000000E+00  0.45593999997E+02  0.45594000000E+02  0.51100000000E-03 0.  1.
         11   -1    0    0    0    0 -0.00000000000E+00 -0.00000000000E+00 -0.45593999997E+02  0.45594000000E+02  0.51100000000E-03 0. -1.
    9900012    2    1    2    0    0 -0.67696945692E+01 -0.42905330354E+02  0.11933872130E+02  0.46142318283E+02  0.10000004758E+02 0.  0.
         12    1    1    2    0    0  0.67696945692E+01  0.42905330354E+02 -0.11933872130E+02  0.45045681717E+02  0.00000000000E+00 0. -1.
         11    1    3    3    0    0 -0.58477149103E+01 -0.31560253772E+02  0.55168504817E+01  0.32568098307E+02  0.51100000000E-03 0. -1.
        -11    1    3    3    0    0 -0.64612419413E+00 -0.77438270710E-01  0.11446395790E+00  0.66073854042E+00  0.51100000000E-03 0.  1.
        -12    1    3    3    0    0 -0.27585546477E+00 -0.11267638311E+02  0.63025576901E+01  0.12913481435E+02  0.00000000000E+00 0.  1.
</event>
<event>
 7    1  0.2323330E-008  0.4614232E+02  0.7816164E-02  0.1320468E+00
        -11   -1    0    0    0    0  0.00000000000E+00  0.00000000000E+00  0.45593999997E+02  0.45594000000E+02  0.51100000000E-03 0.  1.
         11   -1    0    0    0    0 -0.00000000000E+00 -0.00000000000E+00 -0.45593999997E+02  0.45594000000E+02  0.51100000000E-03 0. -1.
    9900012    2    1    2    0    0 -0.13151578265E+02 -0.35695302972E+01  0.42934927564E+02  0.46142316940E+02  0.99999925167E+01 0.  0.
         12    1    1    2    0    0  0.13151578265E+02  0.35695302972E+01 -0.42934927564E+02  0.45045683060E+02  0.00000000000E+00 0. -1.
         11    1    3    3    0    0 -0.84846439327E+01  0.54022820755E+00  0.27577553975E+02  0.28858317912E+02  0.51100000000E-03 0. -1.
        -11    1    3    3    0    0 -0.38714882576E+01 -0.15452226391E+00  0.68933168568E+01  0.79075986247E+01  0.51100000000E-03 0.  1.
        -12    1    3    3    0    0 -0.79544607431E+00 -0.39552362409E+01  0.84640567317E+01  0.93764004039E+01  0.00000000000E+00 0.  1.
</event>
<event>
 7    1  0.2323330E-008  0.4614232E+02  0.7816164E-02  0.1320468E+00
        -11   -1    0    0    0    0  0.00000000000E+00  0.00000000000E+00  0.45593999997E+02  0.45594000000E+02  0.51100000000E-03 0.  1.
         11   -1    0    0    0    0 -0.00000000000E+00 -0.00000000000E+00 -0.45593999997E+02  0.45594000000E+02  0.51100000000E-03 0. -1.
    9900012    2    1    2    0    0  0.32569582031E+01 -0.35300939592E+02  0.27791177693E+02  0.46142315741E+02  0.99999815758E+01 0.  0.
         12    1    1    2    0    0 -0.32569582031E+01  0.35300939592E+02 -0.27791177693E+02  0.45045684259E+02  0.00000000000E+00 0. -1.
         11    1    3    3    0    0  0.24986816253E+01 -0.26282839929E+01  0.13429042838E+01  0.38671279768E+01  0.51100000000E-03 0. -1.
        -11    1    3    3    0    0  0.22162173719E+01 -0.12317424261E+02  0.11275521681E+02  0.16845413302E+02  0.51100000000E-03 0.  1.
        -12    1    3    3    0    0 -0.14579407942E+01 -0.20355231338E+02  0.15172751728E+02  0.25429774462E+02  0.00000000000E+00 0.  1.
</event>
<event>
 7    1  0.2323330E-008  0.4614232E+02  0.7816164E-02  0.1320468E+00
        -11   -1    0    0    0    0  0.00000000000E+00  0.00000000000E+00  0.45593999997E+02  0.45594000000E+02  0.51100000000E-03 0.  1.
         11   -1    0    0    0    0 -0.00000000000E+00 -0.00000000000E+00 -0.45593999997E+02  0.45594000000E+02  0.51100000000E-03 0. -1.
    9900012    2    1    2    0    0  0.38900827640E+02 -0.22620367189E+02 -0.20391796085E+01  0.46142315897E+02  0.99999830002E+01 0.  0.
         12    1    1    2    0    0 -0.38900827640E+02  0.22620367189E+02  0.20391796085E+01  0.45045684103E+02  0.00000000000E+00 0. -1.
         11    1    3    3    0    0  0.42741405487E+01 -0.61603234922E+01 -0.51906876017E-01  0.74980369126E+01  0.51100000000E-03 0. -1.
        -11    1    3    3    0    0  0.13910436509E+02 -0.80239918411E+01  0.93581939239E+00  0.16086032672E+02  0.51100000000E-03 0.  1.
         12    1    3    3    0    0  0.20716250583E+02 -0.84360518562E+01 -0.29230921249E+01  0.22558246312E+02  0.00000000000E+00 0. -1.
</event>
<event>
 7    1  0.2323330E-008  0.4614232E+02  0.7816164E-02  0.1320468E+00
        -11   -1    0    0    0    0  0.00000000000E+00  0.00000000000E+00  0.45593999997E+02  0.45594000000E+02  0.51100000000E-03 0.  1.
         11   -1    0    0    0    0 -0.00000000000E+00 -0.00000000000E+00 -0.45593999997E+02  0.45594000000E+02  0.51100000000E-03 0. -1.
    9900012    2    1    2    0    0  0.86357259489E+01  0.88588890159E+01  0.43313482661E+02  0.46142318104E+02  0.10000003128E+02 0.  0.
         12    1    1    2    0    0 -0.86357259489E+01 -0.88588890159E+01 -0.43313482661E+02  0.45045681896E+02  0.00000000000E+00 0. -1.
         11    1    3    3    0    0  0.16795393403E+01 -0.53460260381E+00  0.34894438567E+01  0.39093312766E+01  0.51100000000E-03 0. -1.
        -11    1    3    3    0    0  0.65131858946E+01  0.24197374963E+01  0.22650180976E+02  0.23691927286E+02  0.51100000000E-03 0.  1.
        -12    1    3    3    0    0  0.44300071394E+00  0.69737541234E+01  0.17173857828E+02  0.18541059541E+02  0.00000000000E+00 0.  1.
</event>
<event>
 7    1  0.2323330E-008  0.4614232E+02  0.7816164E-02  0.1320468E+00
        -11   -1    0    0    0    0  0.00000000000E+00  0.00000000000E+00  0.45593999997E+02  0.45594000000E+02  0.51100000000E-03 0.  1.
         11   -1    0    0    0    0 -0.00000000000E+00 -0.00000000000E+00 -0.45593999997E+02  0.45594000000E+02  0.51100000000E-03 0. -1.
    9900012    2    1    2    0    0  0.38606908606E+02  0.19541919935E+02  0.12519325656E+02  0.46142317168E+02  0.99999945940E+01 0.  0.
         12    1    1    2    0    0 -0.38606908606E+02 -0.19541919935E+02 -0.12519325656E+02  0.45045682832E+02  0.00000000000E+00 0. -1.
         11    1    3    3    0    0  0.32438847871E+01  0.38686373112E+01  0.27613425763E+01  0.57544900941E+01  0.51100000000E-03 0. -1.
        -11    1    3    3    0    0  0.19970590057E+00  0.10862483370E+01  0.48245054838E+00  0.12052288949E+01  0.51100000000E-03 0.  1.
        -12    1    3    3    0    0  0.35163317919E+02  0.14587034287E+02  0.92755325313E+01  0.39182598179E+02  0.00000000000E+00 0.  1.
</event>
<event>
 7    1  0.2323330E-008  0.4614232E+02  0.7816164E-02  0.1320468E+00
        -11   -1    0    0    0    0  0.00000000000E+00  0.00000000000E+00  0.45593999997E+02  0.45594000000E+02  0.51100000000E-03 0.  1.
         11   -1    0    0    0    0 -0.00000000000E+00 -0.00000000000E+00 -0.45593999997E+02  0.45594000000E+02  0.51100000000E-03 0. -1.
    9900012    2    1    2    0    0 -0.39533621526E+02  0.14315323341E+02 -0.16164089321E+02  0.46142317666E+02  0.99999991370E+01 0.  0.
         12    1    1    2    0    0  0.39533621526E+02 -0.14315323341E+02  0.16164089321E+02  0.45045682334E+02  0.00000000000E+00 0. -1.
         11    1    3    3    0    0 -0.19805952037E+02  0.10249830227E+02 -0.87897612385E+01  0.23970704175E+02  0.51100000000E-03 0. -1.
        -11    1    3    3    0    0 -0.14015985049E+02  0.51457386032E+01 -0.40289447528E+01  0.15464761839E+02  0.51100000000E-03 0.  1.
        -12    1    3    3    0    0 -0.57116844407E+01 -0.10802454888E+01 -0.33453833292E+01  0.67068516522E+01  0.00000000000E+00 0.  1.
</event>
<event>
 7    1  0.2323330E-008  0.4614232E+02  0.7816164E-02  0.1320468E+00
        -11   -1    0    0    0    0  0.00000000000E+00  0.00000000000E+00  0.45593999997E+02  0.45594000000E+02  0.51100000000E-03 0. -1.
         11   -1    0    0    0    0 -0.00000000000E+00 -0.00000000000E+00 -0.45593999997E+02  0.45594000000E+02  0.51100000000E-03 0.  1.
    9900012    2    1    2    0    0  0.22357213899E+02 -0.94472268104E+01 -0.37947574146E+02  0.46142317728E+02  0.99999997009E+01 0.  0.
         12    1    1    2    0    0 -0.22357213899E+02  0.94472268104E+01  0.37947574146E+02  0.45045682272E+02  0.00000000000E+00 0. -1.
         11    1    3    3    0    0  0.44375862409E+01 -0.25911525483E+01 -0.49910714142E+01  0.71635910895E+01  0.51100000000E-03 0. -1.
        -11    1    3    3    0    0  0.14185410448E+02 -0.25785107435E+01 -0.18554234334E+02  0.23497536024E+02  0.51100000000E-03 0.  1.
        -12    1    3    3    0    0  0.37342172099E+01 -0.42775635187E+01 -0.14402268399E+02  0.15481190615E+02  0.00000000000E+00 0.  1.
</event>
<event>
 7    1  0.2323330E-008  0.4614232E+02  0.7816164E-02  0.1320468E+00
        -11   -1    0    0    0    0  0.00000000000E+00  0.00000000000E+00  0.45593999997E+02  0.45594000000E+02  0.51100000000E-03 0.  1.
         11   -1    0    0    0    0 -0.00000000000E+00 -0.00000000000E+00 -0.45593999997E+02  0.45594000000E+02  0.51100000000E-03 0. -1.
    9900012    2    1    2    0    0 -0.44278098372E+02 -0.36938000418E+01 -0.74107592001E+01  0.46142317564E+02  0.99999982014E+01 0.  0.
         12    1    1    2    0    0  0.44278098372E+02  0.36938000418E+01  0.74107592001E+01  0.45045682436E+02  0.00000000000E+00 0. -1.
         11    1    3    3    0    0 -0.30329705714E+01 -0.83755917994E+00 -0.17587770224E+01  0.36046792843E+01  0.51100000000E-03 0. -1.
        -11    1    3    3    0    0 -0.32491955578E+02 -0.51512368810E+01 -0.61800656027E+01  0.33473207641E+02  0.51100000000E-03 0.  1.
         12    1    3    3    0    0 -0.87531722228E+01  0.22949960191E+01  0.52808342502E+00  0.90644306381E+01  0.00000000000E+00 0. -1.
</event>
<event>
 7    1  0.2323330E-008  0.4614232E+02  0.7816164E-02  0.1320468E+00
        -11   -1    0    0    0    0  0.00000000000E+00  0.00000000000E+00  0.45593999997E+02  0.45594000000E+02  0.51100000000E-03 0.  1.
         11   -1    0    0    0    0 -0.00000000000E+00 -0.00000000000E+00 -0.45593999997E+02  0.45594000000E+02  0.51100000000E-03 0. -1.
    9900012    2    1    2    0    0  0.43290731842E+02  0.61079474164E+01 -0.10849838144E+02  0.46142317934E+02  0.10000001574E+02 0.  0.
         12    1    1    2    0    0 -0.43290731842E+02 -0.61079474164E+01  0.10849838144E+02  0.45045682066E+02  0.00000000000E+00 0. -1.
         11    1    3    3    0    0  0.28267979784E+02 -0.72003866839E+00 -0.62669248199E+01  0.28963278193E+02  0.51100000000E-03 0. -1.
        -11    1    3    3    0    0  0.76444954953E+01  0.32315326988E+01 -0.16445342911E+01  0.84608278707E+01  0.51100000000E-03 0.  1.
         12    1    3    3    0    0  0.73782565632E+01  0.35964533860E+01 -0.29383790329E+01  0.87182118700E+01  0.00000000000E+00 0. -1.
</event>
<event>
 7    1  0.2323330E-008  0.4614232E+02  0.7816164E-02  0.1320468E+00
        -11   -1    0    0    0    0  0.00000000000E+00  0.00000000000E+00  0.45593999997E+02  0.45594000000E+02  0.51100000000E-03 0.  1.
         11   -1    0    0    0    0 -0.00000000000E+00 -0.00000000000E+00 -0.45593999997E+02  0.45594000000E+02  0.51100000000E-03 0. -1.
    9900012    2    1    2    0    0 -0.42218712673E+02 -0.13090898698E+02  0.86788295815E+01  0.46142318616E+02  0.10000007795E+02 0.  0.
         12    1    1    2    0    0  0.42218712673E+02  0.13090898698E+02 -0.86788295815E+01  0.45045681384E+02  0.00000000000E+00 0. -1.
         11    1    3    3    0    0 -0.26293696456E+02 -0.10274721308E+02  0.52573209090E+01  0.28715288518E+02  0.51100000000E-03 0. -1.
        -11    1    3    3    0    0 -0.10412294164E+02 -0.41605741697E+01  0.35186951159E+01  0.11751913153E+02  0.51100000000E-03 0.  1.
         12    1    3    3    0    0 -0.55127220528E+01  0.13443967799E+01 -0.97186443503E-01  0.56751169448E+01  0.00000000000E+00 0. -1.
</event>
<event>
 7    1  0.2323330E-008  0.4614232E+02  0.7816164E-02  0.1320468E+00
        -11   -1    0    0    0    0  0.00000000000E+00  0.00000000000E+00  0.45593999997E+02  0.45594000000E+02  0.51100000000E-03 0.  1.
         11   -1    0    0    0    0 -0.00000000000E+00 -0.00000000000E+00 -0.45593999997E+02  0.45594000000E+02  0.51100000000E-03 0. -1.
    9900012    2    1    2    0    0 -0.14690769865E+01  0.44430944209E+02  0.72695580292E+01  0.46142318027E+02  0.10000002422E+02 0.  0.
         12    1    1    2    0    0  0.14690769865E+01 -0.44430944209E+02 -0.72695580292E+01  0.45045681973E+02  0.00000000000E+00 0. -1.
         11    1    3    3    0    0 -0.24932657036E+01  0.15011329434E+02  0.79131384812E+00  0.15237537961E+02  0.51100000000E-03 0. -1.
        -11    1    3    3    0    0 -0.21410826022E+01  0.22574407163E+02  0.49615515187E+01  0.23212175409E+02  0.51100000000E-03 0.  1.
        -12    1    3    3    0    0  0.31652713193E+01  0.68452076118E+01  0.15166926623E+01  0.76926046568E+01  0.00000000000E+00 0.  1.
</event>
<event>
 7    1  0.2323330E-008  0.4614232E+02  0.7816164E-02  0.1320468E+00
        -11   -1    0    0    0    0  0.00000000000E+00  0.00000000000E+00  0.45593999997E+02  0.45594000000E+02  0.51100000000E-03 0.  1.
         11   -1    0    0    0    0 -0.00000000000E+00 -0.00000000000E+00 -0.45593999997E+02  0.45594000000E+02  0.51100000000E-03 0. -1.
    9900012    2    1    2    0    0 -0.37447178684E+02  0.11829552713E+02  0.22065447097E+02  0.46142318028E+02  0.10000002431E+02 0.  0.
         12    1    1    2    0    0  0.37447178684E+02 -0.11829552713E+02 -0.22065447097E+02  0.45045681972E+02  0.00000000000E+00 0. -1.
         11    1    3    3    0    0 -0.17305826354E+02  0.15373773600E+01  0.74753110009E+01  0.18913895151E+02  0.51100000000E-03 0. -1.
        -11    1    3    3    0    0 -0.10723838349E+02  0.35308103303E+01  0.85048294452E+01  0.14135043498E+02  0.51100000000E-03 0.  1.
         12    1    3    3    0    0 -0.94175139807E+01  0.67613650222E+01  0.60853066509E+01  0.13093379380E+02  0.00000000000E+00 0. -1.
</event>
<event>
 7    1  0.2323330E-008  0.4614232E+02  0.7816164E-02  0.1320468E+00
        -11   -1    0    0    0    0  0.00000000000E+00  0.00000000000E+00  0.45593999997E+02  0.45594000000E+02  0.51100000000E-03 0. -1.
         11   -1    0    0    0    0 -0.00000000000E+00 -0.00000000000E+00 -0.45593999997E+02  0.45594000000E+02  0.51100000000E-03 0.  1.
    9900012    2    1    2    0    0  0.44353291199E+02  0.17821843064E+01 -0.76630788470E+01  0.46142318758E+02  0.10000009092E+02 0.  0.
         12    1    1    2    0    0 -0.44353291199E+02 -0.17821843064E+01  0.76630788470E+01  0.45045681242E+02  0.00000000000E+00 0. -1.
         11    1    3    3    0    0  0.38020841337E+02  0.21125476763E+01 -0.80156119020E+01  0.38913972659E+02  0.51100000000E-03 0.  1.
        -11    1    3    3    0    0  0.46985101842E+01  0.69220863937E+00  0.15056947982E+01  0.49821950823E+01  0.51100000000E-03 0. -1.
        -12    1    3    3    0    0  0.16339396781E+01 -0.10225720093E+01 -0.11531617432E+01  0.22461510171E+01  0.00000000000E+00 0.  1.
</event>
<event>
 7    1  0.2323330E-008  0.4614232E+02  0.7816164E-02  0.1320468E+00
        -11   -1    0    0    0    0  0.00000000000E+00  0.00000000000E+00  0.45593999997E+02  0.45594000000E+02  0.51100000000E-03 0. -1.
         11   -1    0    0    0    0 -0.00000000000E+00 -0.00000000000E+00 -0.45593999997E+02  0.45594000000E+02  0.51100000000E-03 0.  1.
    9900012    2    1    2    0    0 -0.54216593522E+01 -0.55711353734E+01 -0.44369826010E+02  0.46142318746E+02  0.10000008978E+02 0.  0.
         12    1    1    2    0    0  0.54216593522E+01  0.55711353734E+01  0.44369826010E+02  0.45045681254E+02  0.00000000000E+00 0. -1.
         11    1    3    3    0    0 -0.33093656231E+01 -0.42646051347E+01 -0.23239911210E+02  0.23858588204E+02  0.51100000000E-03 0.  1.
        -11    1    3    3    0    0 -0.39266295694E+01 -0.25012120191E+01 -0.16887461696E+02  0.17517443996E+02  0.51100000000E-03 0. -1.
        -12    1    3    3    0    0  0.18143358402E+01  0.11946817804E+01 -0.42424531044E+01  0.47662865462E+01  0.00000000000E+00 0.  1.
</event>
<event>
 7    1  0.2323330E-008  0.4614231E+02  0.7816164E-02  0.1320468E+00
        -11   -1    0    0    0    0  0.00000000000E+00  0.00000000000E+00  0.45593999997E+02  0.45594000000E+02  0.51100000000E-03 0.  1.
         11   -1    0    0    0    0 -0.00000000000E+00 -0.00000000000E+00 -0.45593999997E+02  0.45594000000E+02  0.51100000000E-03 0. -1.
    9900012    2    1    2    0    0  0.12657452899E+02 -0.17953051472E+02  0.39326721457E+02  0.46142309956E+02  0.99999288228E+01 0.  0.
         12    1    1    2    0    0 -0.12657452899E+02  0.17953051472E+02 -0.39326721457E+02  0.45045690044E+02  0.00000000000E+00 0. -1.
         11    1    3    3    0    0 -0.44236155553E+00 -0.47179218788E+00  0.43844888334E+01  0.44319312050E+01  0.51100000000E-03 0. -1.
        -11    1    3    3    0    0  0.72692916564E+01 -0.14468329149E+02  0.25685592013E+02  0.30363214370E+02  0.51100000000E-03 0.  1.
         12    1    3    3    0    0  0.58305227976E+01 -0.30129301349E+01  0.92566406102E+01  0.11347164380E+02  0.00000000000E+00 0. -1.
</event>
<event>
 7    1  0.2323330E-008  0.4614232E+02  0.7816164E-02  0.1320468E+00
        -11   -1    0    0    0    0  0.00000000000E+00  0.00000000000E+00  0.45593999997E+02  0.45594000000E+02  0.51100000000E-03 0.  1.
         11   -1    0    0    0    0 -0.00000000000E+00 -0.00000000000E+00 -0.45593999997E+02  0.45594000000E+02  0.51100000000E-03 0. -1.
    9900012    2    1    2    0    0 -0.17117279186E+02  0.18509488161E+02  0.37329761340E+02  0.46142317850E+02  0.10000000809E+02 0.  0.
         12    1    1    2    0    0  0.17117279186E+02 -0.18509488161E+02 -0.37329761340E+02  0.45045682150E+02  0.00000000000E+00 0. -1.
         11    1    3    3    0    0 -0.35519103722E+01  0.19518371538E+01  0.92588762630E+01  0.10107053254E+02  0.51100000000E-03 0. -1.
        -11    1    3    3    0    0  0.52013468414E+00  0.23941494261E+01  0.18369873640E+01  0.30621911111E+01  0.51100000000E-03 0.  1.
        -12    1    3    3    0    0 -0.14085503498E+02  0.14163501581E+02  0.26233897712E+02  0.32973073485E+02  0.00000000000E+00 0.  1.
</event>
<event>
 7    1  0.2323330E-008  0.4614233E+02  0.7816164E-02  0.1320468E+00
        -11   -1    0    0    0    0  0.00000000000E+00  0.00000000000E+00  0.45593999997E+02  0.45594000000E+02  0.51100000000E-03 0.  1.
         11   -1    0    0    0    0 -0.00000000000E+00 -0.00000000000E+00 -0.45593999997E+02  0.45594000000E+02  0.51100000000E-03 0. -1.
    9900012    2    1    2    0    0  0.13223095234E+01 -0.15562399536E+02  0.42251343545E+02  0.46142325256E+02  0.10000068346E+02 0.  0.
         12    1    1    2    0    0 -0.13223095234E+01  0.15562399536E+02 -0.42251343545E+02  0.45045674744E+02  0.00000000000E+00 0. -1.
         11    1    3    3    0    0 -0.13058223764E+01 -0.81171406949E+01  0.14600750588E+02  0.16756343967E+02  0.51100000000E-03 0. -1.
        -11    1    3    3    0    0 -0.67636308832E+00 -0.48145979193E+01  0.20609390425E+02  0.21175098444E+02  0.51100000000E-03 0.  1.
         12    1    3    3    0    0  0.33044949881E+01 -0.26306609219E+01  0.70412025314E+01  0.82108828454E+01  0.00000000000E+00 0. -1.
</event>
<event>
 7    1  0.2323330E-008  0.4614232E+02  0.7816164E-02  0.1320468E+00
        -11   -1    0    0    0    0  0.00000000000E+00  0.00000000000E+00  0.45593999997E+02  0.45594000000E+02  0.51100000000E-03 0.  1.
         11   -1    0    0    0    0 -0.00000000000E+00 -0.00000000000E+00 -0.45593999997E+02  0.45594000000E+02  0.51100000000E-03 0. -1.
    9900012    2    1    2    0    0 -0.40473849971E+02  0.19512104651E+01  0.19676732103E+02  0.46142317188E+02  0.99999947708E+01 0.  0.
         12    1    1    2    0    0  0.40473849971E+02 -0.19512104651E+01 -0.19676732103E+02  0.45045682812E+02  0.00000000000E+00 0. -1.
         11    1    3    3    0    0 -0.63421137944E+01  0.34136110759E+01  0.18735521740E+01  0.74421331599E+01  0.51100000000E-03 0. -1.
        -11    1    3    3    0    0 -0.17376959959E+02  0.92735891365E+00  0.81393844309E+01  0.19211150698E+02  0.51100000000E-03 0.  1.
        -12    1    3    3    0    0 -0.16754776218E+02 -0.23897595245E+01  0.96637954981E+01  0.19489033329E+02  0.00000000000E+00 0.  1.
</event>
<event>
 7    1  0.2323330E-008  0.4614232E+02  0.7816164E-02  0.1320468E+00
        -11   -1    0    0    0    0  0.00000000000E+00  0.00000000000E+00  0.45593999997E+02  0.45594000000E+02  0.51100000000E-03 0. -1.
         11   -1    0    0    0    0 -0.00000000000E+00 -0.00000000000E+00 -0.45593999997E+02  0.45594000000E+02  0.51100000000E-03 0.  1.
    9900012    2    1    2    0    0  0.26921286576E+02 -0.33908798659E+01 -0.35956360340E+02  0.46142316676E+02  0.99999901081E+01 0.  0.
         12    1    1    2    0    0 -0.26921286576E+02  0.33908798659E+01  0.35956360340E+02  0.45045683324E+02  0.00000000000E+00 0. -1.
         11    1    3    3    0    0  0.24965167007E+00  0.10373193528E+01 -0.23558018450E+01  0.25861477123E+01  0.51100000000E-03 0.  1.
        -11    1    3    3    0    0  0.23054188951E+02 -0.47284352302E+01 -0.25617686551E+02  0.34786773239E+02  0.51100000000E-03 0. -1.
         12    1    3    3    0    0  0.36174459554E+01  0.30023601150E+00 -0.79828719440E+01  0.87693957247E+01  0.00000000000E+00 0. -1.
</event>
<event>
 7    1  0.2323330E-008  0.4614232E+02  0.7816164E-02  0.1320468E+00
        -11   -1    0    0    0    0  0.00000000000E+00  0.00000000000E+00  0.45593999997E+02  0.45594000000E+02  0.51100000000E-03 0.  1.
         11   -1    0    0    0    0 -0.00000000000E+00 -0.00000000000E+00 -0.45593999997E+02  0.45594000000E+02  0.51100000000E-03 0. -1.
    9900012    2    1    2    0    0 -0.27907418447E+02 -0.28711014687E+02  0.20638973343E+02  0.46142316640E+02  0.99999897812E+01 0.  0.
         12    1    1    2    0    0  0.27907418447E+02  0.28711014687E+02 -0.20638973343E+02  0.45045683360E+02  0.00000000000E+00 0. -1.
         11    1    3    3    0    0 -0.35049410813E+01 -0.69215833429E+01  0.20472542950E+01  0.80239752222E+01  0.51100000000E-03 0. -1.
        -11    1    3    3    0    0 -0.28556616416E+01 -0.26145374494E+01  0.47428349365E+01  0.61225070830E+01  0.51100000000E-03 0.  1.
         12    1    3    3    0    0 -0.21546815724E+02 -0.19174893894E+02  0.13848884111E+02  0.31995834335E+02  0.00000000000E+00 0. -1.
</event>
<event>
 7    1  0.2323330E-008  0.4614232E+02  0.7816164E-02  0.1320468E+00
        -11   -1    0    0    0    0  0.00000000000E+00  0.00000000000E+00  0.45593999997E+02  0.45594000000E+02  0.51100000000E-03 0.  1.
         11   -1    0    0    0    0 -0.00000000000E+00 -0.00000000000E+00 -0.45593999997E+02  0.45594000000E+02  0.51100000000E-03 0. -1.
    9900012    2    1    2    0    0 -0.18463807007E+02  0.12308363745E+02  0.39200834947E+02  0.46142318211E+02  0.10000004101E+02 0.  0.
         12    1    1    2    0    0  0.18463807007E+02 -0.12308363745E+02 -0.39200834947E+02  0.45045681789E+02  0.00000000000E+00 0. -1.
         11    1    3    3    0    0 -0.44276776985E+01  0.30604480338E+01  0.57930920224E+01  0.79076284315E+01  0.51100000000E-03 0. -1.
        -11    1    3    3    0    0 -0.11885779676E+02  0.75374419142E+01  0.19444149082E+02  0.24003327330E+02  0.51100000000E-03 0.  1.
         12    1    3    3    0    0 -0.21503496321E+01  0.17104737970E+01  0.13963593843E+02  0.14231362450E+02  0.00000000000E+00 0. -1.
</event>
<event>
 7    1  0.2323330E-008  0.4614232E+02  0.7816164E-02  0.1320468E+00
        -11   -1    0    0    0    0  0.00000000000E+00  0.00000000000E+00  0.45593999997E+02  0.45594000000E+02  0.51100000000E-03 0. -1.
         11   -1    0    0    0    0 -0.00000000000E+00 -0.00000000000E+00 -0.45593999997E+02  0.45594000000E+02  0.51100000000E-03 0.  1.
    9900012    2    1    2    0    0 -0.48966300031E+01 -0.21320459110E+02 -0.39377337350E+02  0.46142315869E+02  0.99999827477E+01 0.  0.
         12    1    1    2    0    0  0.48966300031E+01  0.21320459110E+02  0.39377337350E+02  0.45045684131E+02  0.00000000000E+00 0. -1.
         11    1    3    3    0    0  0.93142526580E+00 -0.47945663755E+01 -0.98600809092E+01  0.11003481974E+02  0.51100000000E-03 0.  1.
        -11    1    3    3    0    0  0.44989839444E+00 -0.64255562780E+01 -0.15318447555E+02  0.16617611675E+02  0.51100000000E-03 0. -1.
         12    1    3    3    0    0 -0.62779536634E+01 -0.10100336457E+02 -0.14198808886E+02  0.18521222220E+02  0.00000000000E+00 0. -1.
</event>
<event>
 7    1  0.2323330E-008  0.4614232E+02  0.7816164E-02  0.1320468E+00
        -11   -1    0    0    0    0  0.00000000000E+00  0.00000000000E+00  0.45593999997E+02  0.45594000000E+02  0.51100000000E-03 0.  1.
         11   -1    0    0    0    0 -0.00000000000E+00 -0.00000000000E+00 -0.45593999997E+02  0.45594000000E+02  0.51100000000E-03 0. -1.
    9900012    2    1    2    0    0 -0.27787530880E+02 -0.14424237570E+02  0.32386849391E+02  0.46142317461E+02  0.99999972675E+01 0.  0.
         12    1    1    2    0    0  0.27787530880E+02  0.14424237570E+02 -0.32386849391E+02  0.45045682539E+02  0.00000000000E+00 0. -1.
         11    1    3    3    0    0 -0.64839568853E+01 -0.77063425010E+01  0.11652833443E+02  0.15401881026E+02  0.51100000000E-03 0. -1.
        -11    1    3    3    0    0 -0.46702060493E+01 -0.14423544361E+01  0.24561117010E+01  0.54702555527E+01  0.51100000000E-03 0.  1.
        -12    1    3    3    0    0 -0.16633367945E+02 -0.52755406328E+01  0.18277904248E+02  0.25270180883E+02  0.00000000000E+00 0.  1.
</event>
<event>
 7    1  0.2323330E-008  0.4614232E+02  0.7816164E-02  0.1320468E+00
        -11   -1    0    0    0    0  0.00000000000E+00  0.00000000000E+00  0.45593999997E+02  0.45594000000E+02  0.51100000000E-03 0. -1.
         11   -1    0    0    0    0 -0.00000000000E+00 -0.00000000000E+00 -0.45593999997E+02  0.45594000000E+02  0.51100000000E-03 0.  1.
    9900012    2    1    2    0    0 -0.20985312841E+01 -0.23548676781E+02 -0.38342789341E+02  0.46142317563E+02  0.99999981972E+01 0.  0.
         12    1    1    2    0    0  0.20985312841E+01  0.23548676781E+02  0.38342789341E+02  0.45045682437E+02  0.00000000000E+00 0. -1.
         11    1    3    3    0    0 -0.24269625741E+00  0.37341814257E+00  0.20163336482E-01  0.44581319386E+00  0.51100000000E-03 0. -1.
        -11    1    3    3    0    0 -0.29656164729E+01 -0.16495510432E+02 -0.21691527803E+02  0.27412025174E+02  0.51100000000E-03 0.  1.
         12    1    3    3    0    0  0.11097814462E+01 -0.74265844916E+01 -0.16671424875E+02  0.18284479195E+02  0.00000000000E+00 0. -1.
</event>
<event>
 7    1  0.2323330E-008  0.4614231E+02  0.7816164E-02  0.1320468E+00
        -11   -1    0    0    0    0  0.00000000000E+00  0.00000000000E+00  0.45593999997E+02  0.45594000000E+02  0.51100000000E-03 0.  1.
         11   -1    0    0    0    0 -0.00000000000E+00 -0.00000000000E+00 -0.45593999997E+02  0.45594000000E+02  0.51100000000E-03 0. -1.
    9900012    2    1    2    0    0  0.19671192522E+02  0.30430356324E+02  0.26761006599E+02  0.46142313465E+02  0.99999608218E+01 0.  0.
         12    1    1    2    0    0 -0.19671192522E+02 -0.30430356324E+02 -0.26761006599E+02  0.45045686535E+02  0.00000000000E+00 0. -1.
         11    1    3    3    0    0  0.93057625647E+01  0.12366672765E+02  0.11249015342E+02  0.19133012272E+02  0.51100000000E-03 0. -1.
        -11    1    3    3    0    0  0.96643759863E+01  0.18763945156E+02  0.14614088408E+02  0.25672112910E+02  0.51100000000E-03 0.  1.
         12    1    3    3    0    0  0.70105397052E+00 -0.70026159729E+00  0.89790284953E+00  0.13371882820E+01  0.00000000000E+00 0. -1.
</event>
<event>
 7    1  0.2323330E-008  0.4614232E+02  0.7816164E-02  0.1320468E+00
        -11   -1    0    0    0    0  0.00000000000E+00  0.00000000000E+00  0.45593999997E+02  0.45594000000E+02  0.51100000000E-03 0. -1.
         11   -1    0    0    0    0 -0.00000000000E+00 -0.00000000000E+00 -0.45593999997E+02  0.45594000000E+02  0.51100000000E-03 0.  1.
    9900012    2    1    2    0    0  0.40921869675E+02  0.18777346010E+02 -0.13875429835E+01  0.46142318560E+02  0.10000007286E+02 0.  0.
         12    1    1    2    0    0 -0.40921869675E+02 -0.18777346010E+02  0.13875429835E+01  0.45045681440E+02  0.00000000000E+00 0. -1.
         11    1    3    3    0    0  0.21762816854E+02  0.11374518787E+02 -0.25675893183E+01  0.24689924873E+02  0.51100000000E-03 0.  1.
        -11    1    3    3    0    0  0.96977387021E+00  0.12389898328E+01  0.15979832564E+01  0.22425672596E+01  0.51100000000E-03 0. -1.
         12    1    3    3    0    0  0.18189278950E+02  0.61638373897E+01 -0.41793692157E+00  0.19209826428E+02  0.00000000000E+00 0. -1.
</event>
<event>
 7    1  0.2323330E-008  0.4614232E+02  0.7816164E-02  0.1320468E+00
        -11   -1    0    0    0    0  0.00000000000E+00  0.00000000000E+00  0.45593999997E+02  0.45594000000E+02  0.51100000000E-03 0. -1.
         11   -1    0    0    0    0 -0.00000000000E+00 -0.00000000000E+00 -0.45593999997E+02  0.45594000000E+02  0.51100000000E-03 0.  1.
    9900012    2    1    2    0    0 -0.33325988575E+02  0.22536175515E+02 -0.20263581788E+02  0.46142317985E+02  0.10000002037E+02 0.  0.
         12    1    1    2    0    0  0.33325988575E+02 -0.22536175515E+02  0.20263581788E+02  0.45045682015E+02  0.00000000000E+00 0. -1.
         11    1    3    3    0    0 -0.26345727851E+01  0.44363546021E+01 -0.28084442411E+01  0.58744851036E+01  0.51100000000E-03 0. -1.
        -11    1    3    3    0    0 -0.15552302524E+02  0.11594378016E+02 -0.64074812668E+01  0.20429379135E+02  0.51100000000E-03 0.  1.
        -12    1    3    3    0    0 -0.15139113266E+02  0.65054428974E+01 -0.11047656280E+02  0.19838453746E+02  0.00000000000E+00 0.  1.
</event>
<event>
 7    1  0.2323330E-008  0.4614232E+02  0.7816164E-02  0.1320468E+00
        -11   -1    0    0    0    0  0.00000000000E+00  0.00000000000E+00  0.45593999997E+02  0.45594000000E+02  0.51100000000E-03 0. -1.
         11   -1    0    0    0    0 -0.00000000000E+00 -0.00000000000E+00 -0.45593999997E+02  0.45594000000E+02  0.51100000000E-03 0.  1.
    9900012    2    1    2    0    0  0.33429653956E+02  0.64024842825E+01  0.29505592003E+02  0.46142317321E+02  0.99999959828E+01 0.  0.
         12    1    1    2    0    0 -0.33429653956E+02 -0.64024842825E+01 -0.29505592003E+02  0.45045682679E+02  0.00000000000E+00 0. -1.
         11    1    3    3    0    0  0.91770856618E+01 -0.18292931748E+01  0.87969382111E+01  0.12843338231E+02  0.51100000000E-03 0. -1.
        -11    1    3    3    0    0  0.53790736503E+01  0.34398857104E+00  0.26211372540E+01  0.59935900959E+01  0.51100000000E-03 0.  1.
        -12    1    3    3    0    0  0.18873494644E+02  0.78877888862E+01  0.18087516538E+02  0.27305388994E+02  0.00000000000E+00 0.  1.
</event>
<event>
 7    1  0.2323330E-008  0.4614232E+02  0.7816164E-02  0.1320468E+00
        -11   -1    0    0    0    0  0.00000000000E+00  0.00000000000E+00  0.45593999997E+02  0.45594000000E+02  0.51100000000E-03 0.  1.
         11   -1    0    0    0    0 -0.00000000000E+00 -0.00000000000E+00 -0.45593999997E+02  0.45594000000E+02  0.51100000000E-03 0. -1.
    9900012    2    1    2    0    0 -0.10494566419E+02  0.30375105859E+00  0.43805082905E+02  0.46142317883E+02  0.10000001114E+02 0.  0.
         12    1    1    2    0    0  0.10494566419E+02 -0.30375105859E+00 -0.43805082905E+02  0.45045682117E+02  0.00000000000E+00 0. -1.
         11    1    3    3    0    0 -0.64374618281E+01 -0.23491900575E+01  0.12122584767E+02  0.13925396598E+02  0.51100000000E-03 0. -1.
        -11    1    3    3    0    0 -0.13517014627E+01  0.28065092115E+01  0.15644116750E+02  0.15951237568E+02  0.51100000000E-03 0.  1.
         12    1    3    3    0    0 -0.27054031286E+01 -0.15356809542E+00  0.16038381388E+02  0.16265683718E+02  0.00000000000E+00 0. -1.
</event>
<event>
 7    1  0.2323330E-008  0.4614232E+02  0.7816164E-02  0.1320468E+00
        -11   -1    0    0    0    0  0.00000000000E+00  0.00000000000E+00  0.45593999997E+02  0.45594000000E+02  0.51100000000E-03 0.  1.
         11   -1    0    0    0    0 -0.00000000000E+00 -0.00000000000E+00 -0.45593999997E+02  0.45594000000E+02  0.51100000000E-03 0. -1.
    9900012    2    1    2    0    0 -0.85294025855E+01  0.26740165210E+02  0.35232461722E+02  0.46142317599E+02  0.99999985253E+01 0.  0.
         12    1    1    2    0    0  0.85294025855E+01 -0.26740165210E+02 -0.35232461722E+02  0.45045682401E+02  0.00000000000E+00 0. -1.
         11    1    3    3    0    0  0.13920694241E+01  0.22375901538E+01  0.18260139554E+01  0.32060870550E+01  0.51100000000E-03 0. -1.
        -11    1    3    3    0    0 -0.82672194693E+01  0.20211202552E+02  0.23887065180E+02  0.32364046557E+02  0.51100000000E-03 0.  1.
        -12    1    3    3    0    0 -0.16542525403E+01  0.42913725046E+01  0.95193825865E+01  0.10572183988E+02  0.00000000000E+00 0.  1.
</event>
<event>
 7    1  0.2323330E-008  0.4614232E+02  0.7816164E-02  0.1320468E+00
        -11   -1    0    0    0    0  0.00000000000E+00  0.00000000000E+00  0.45593999997E+02  0.45594000000E+02  0.51100000000E-03 0.  1.
         11   -1    0    0    0    0 -0.00000000000E+00 -0.00000000000E+00 -0.45593999997E+02  0.45594000000E+02  0.51100000000E-03 0. -1.
    9900012    2    1    2    0    0  0.11283580076E+02 -0.86043228468E+01  0.42752309357E+02  0.46142317562E+02  0.99999981825E+01 0.  0.
         12    1    1    2    0    0 -0.11283580076E+02  0.86043228468E+01 -0.42752309357E+02  0.45045682438E+02  0.00000000000E+00 0. -1.
         11    1    3    3    0    0  0.55116209073E+01 -0.40356944179E+01  0.11822228361E+02  0.13653932699E+02  0.51100000000E-03 0.  1.
        -11    1    3    3    0    0 -0.24894555135E+00 -0.12630867776E+01  0.65597274334E+00  0.14448745954E+01  0.51100000000E-03 0. -1.
         12    1    3    3    0    0  0.60209047198E+01 -0.33055416512E+01  0.30274108252E+02  0.31043510267E+02  0.00000000000E+00 0. -1.
</event>
<event>
 7    1  0.2323330E-008  0.4614232E+02  0.7816164E-02  0.1320468E+00
        -11   -1    0    0    0    0  0.00000000000E+00  0.00000000000E+00  0.45593999997E+02  0.45594000000E+02  0.51100000000E-03 0.  1.
         11   -1    0    0    0    0 -0.00000000000E+00 -0.00000000000E+00 -0.45593999997E+02  0.45594000000E+02  0.51100000000E-03 0. -1.
    9900012    2    1    2    0    0  0.17907156906E+02 -0.13820773933E+02  0.38954247267E+02  0.46142318290E+02  0.10000004825E+02 0.  0.
         12    1    1    2    0    0 -0.17907156906E+02  0.13820773933E+02 -0.38954247267E+02  0.45045681710E+02  0.00000000000E+00 0. -1.
         11    1    3    3    0    0  0.98788018907E+00 -0.80137680810E+00 -0.33683605703E+00  0.13158916547E+01  0.51100000000E-03 0. -1.
        -11    1    3    3    0    0  0.35028476353E+01 -0.40655450964E+01  0.11574584624E+02  0.12758119296E+02  0.51100000000E-03 0.  1.
         12    1    3    3    0    0  0.13416429082E+02 -0.89538520284E+01  0.27716498699E+02  0.32068307339E+02  0.00000000000E+00 0. -1.
</event>
<event>
 7    1  0.2323330E-008  0.4614232E+02  0.7816164E-02  0.1320468E+00
        -11   -1    0    0    0    0  0.00000000000E+00  0.00000000000E+00  0.45593999997E+02  0.45594000000E+02  0.51100000000E-03 0.  1.
         11   -1    0    0    0    0 -0.00000000000E+00 -0.00000000000E+00 -0.45593999997E+02  0.45594000000E+02  0.51100000000E-03 0. -1.
    9900012    2    1    2    0    0  0.20905154288E+02  0.36498837231E+02  0.16122123667E+02  0.46142318003E+02  0.10000002208E+02 0.  0.
         12    1    1    2    0    0 -0.20905154288E+02 -0.36498837231E+02 -0.16122123667E+02  0.45045681997E+02  0.00000000000E+00 0. -1.
         11    1    3    3    0    0  0.59472384919E+01  0.44918852714E+01  0.25554330380E+01  0.78788906100E+01  0.51100000000E-03 0. -1.
        -11    1    3    3    0    0  0.82755260930E+01  0.11984293073E+02  0.69884648893E+01  0.16153830949E+02  0.51100000000E-03 0.  1.
         12    1    3    3    0    0  0.66823897036E+01  0.20022658886E+02  0.65782257399E+01  0.22109596444E+02  0.00000000000E+00 0. -1.
</event>
<event>
 7    1  0.2323330E-008  0.4614232E+02  0.7816164E-02  0.1320468E+00
        -11   -1    0    0    0    0  0.00000000000E+00  0.00000000000E+00  0.45593999997E+02  0.45594000000E+02  0.51100000000E-03 0.  1.
         11   -1    0    0    0    0 -0.00000000000E+00 -0.00000000000E+00 -0.45593999997E+02  0.45594000000E+02  0.51100000000E-03 0. -1.
    9900012    2    1    2    0    0  0.19032408795E+02  0.29907848730E+02  0.27792112250E+02  0.46142317593E+02  0.99999984692E+01 0.  0.
         12    1    1    2    0    0 -0.19032408795E+02 -0.29907848730E+02 -0.27792112250E+02  0.45045682407E+02  0.00000000000E+00 0. -1.
         11    1    3    3    0    0  0.38797281305E+01  0.83260998449E+01  0.92974375777E+01  0.13069758023E+02  0.51100000000E-03 0. -1.
        -11    1    3    3    0    0  0.92450666720E+00 -0.57137267328E+00  0.81923733104E+00  0.13610030768E+01  0.51100000000E-03 0.  1.
        -12    1    3    3    0    0  0.14228173997E+02  0.22153121558E+02  0.17675437341E+02  0.31711556494E+02  0.00000000000E+00 0.  1.
</event>
<event>
 7    1  0.2323330E-008  0.4614232E+02  0.7816164E-02  0.1320468E+00
        -11   -1    0    0    0    0  0.00000000000E+00  0.00000000000E+00  0.45593999997E+02  0.45594000000E+02  0.51100000000E-03 0.  1.
         11   -1    0    0    0    0 -0.00000000000E+00 -0.00000000000E+00 -0.45593999997E+02  0.45594000000E+02  0.51100000000E-03 0. -1.
    9900012    2    1    2    0    0 -0.27337079220E+01 -0.38582495385E+02  0.23087472763E+02  0.46142317546E+02  0.99999980394E+01 0.  0.
         12    1    1    2    0    0  0.27337079220E+01  0.38582495385E+02 -0.23087472763E+02  0.45045682454E+02  0.00000000000E+00 0. -1.
         11    1    3    3    0    0 -0.41880643042E+01 -0.13703331236E+02  0.56295888203E+01  0.15395240827E+02  0.51100000000E-03 0. -1.
        -11    1    3    3    0    0  0.30267634998E+01 -0.18056498916E+02  0.12687629899E+02  0.22274972572E+02  0.51100000000E-03 0.  1.
        -12    1    3    3    0    0 -0.15724071176E+01 -0.68226652337E+01  0.47702540444E+01  0.84721041473E+01  0.00000000000E+00 0.  1.
</event>
<event>
 7    1  0.2323330E-008  0.4614232E+02  0.7816164E-02  0.1320468E+00
        -11   -1    0    0    0    0  0.00000000000E+00  0.00000000000E+00  0.45593999997E+02  0.45594000000E+02  0.51100000000E-03 0.  1.
         11   -1    0    0    0    0 -0.00000000000E+00 -0.00000000000E+00 -0.45593999997E+02  0.45594000000E+02  0.51100000000E-03 0. -1.
    9900012    2    1    2    0    0 -0.10139265783E+02  0.40869314034E+02  0.16000246873E+02  0.46142318295E+02  0.10000004870E+02 0.  0.
         12    1    1    2    0    0  0.10139265783E+02 -0.40869314034E+02 -0.16000246873E+02  0.45045681705E+02  0.00000000000E+00 0. -1.
         11    1    3    3    0    0 -0.24201343312E+01  0.42172620866E+01  0.34750636339E+01  0.59764887023E+01  0.51100000000E-03 0. -1.
        -11    1    3    3    0    0  0.14079269170E+01  0.35241310172E+01  0.10375989623E+01  0.39342559014E+01  0.51100000000E-03 0.  1.
        -12    1    3    3    0    0 -0.91270583684E+01  0.33127920930E+02  0.11487584277E+02  0.36231573691E+02  0.00000000000E+00 0.  1.
</event>
<event>
 7    1  0.2323330E-008  0.4614232E+02  0.7816164E-02  0.1320468E+00
        -11   -1    0    0    0    0  0.00000000000E+00  0.00000000000E+00  0.45593999997E+02  0.45594000000E+02  0.51100000000E-03 0.  1.
         11   -1    0    0    0    0 -0.00000000000E+00 -0.00000000000E+00 -0.45593999997E+02  0.45594000000E+02  0.51100000000E-03 0. -1.
    9900012    2    1    2    0    0 -0.12448545901E+02  0.16598081568E+02  0.39983134347E+02  0.46142316090E+02  0.99999847582E+01 0.  0.
         12    1    1    2    0    0  0.12448545901E+02 -0.16598081568E+02 -0.39983134347E+02  0.45045683910E+02  0.00000000000E+00 0. -1.
         11    1    3    3    0    0 -0.27572239653E+01 -0.42624073812E+00  0.66387606705E+01  0.72011880036E+01  0.51100000000E-03 0. -1.
        -11    1    3    3    0    0 -0.18567819509E+01  0.29489653897E+01  0.30540749495E+01  0.46337252985E+01  0.51100000000E-03 0.  1.
        -12    1    3    3    0    0 -0.78345399847E+01  0.14075356916E+02  0.30290298727E+02  0.34307402788E+02  0.00000000000E+00 0.  1.
</event>
<event>
 7    1  0.2323330E-008  0.4614232E+02  0.7816164E-02  0.1320468E+00
        -11   -1    0    0    0    0  0.00000000000E+00  0.00000000000E+00  0.45593999997E+02  0.45594000000E+02  0.51100000000E-03 0. -1.
         11   -1    0    0    0    0 -0.00000000000E+00 -0.00000000000E+00 -0.45593999997E+02  0.45594000000E+02  0.51100000000E-03 0.  1.
    9900012    2    1    2    0    0  0.93849900934E+01  0.39212470390E+01 -0.43882334610E+02  0.46142317541E+02  0.99999979920E+01 0.  0.
         12    1    1    2    0    0 -0.93849900934E+01 -0.39212470390E+01  0.43882334610E+02  0.45045682459E+02  0.00000000000E+00 0. -1.
         11    1    3    3    0    0  0.50543469495E+01  0.48501197349E+01 -0.30328329843E+02  0.31126799962E+02  0.51100000000E-03 0. -1.
        -11    1    3    3    0    0  0.22209424034E+01  0.16461118186E+01 -0.87082247000E+01  0.91364898602E+01  0.51100000000E-03 0.  1.
         12    1    3    3    0    0  0.21097007404E+01 -0.25749845145E+01 -0.48457800665E+01  0.58790277187E+01  0.00000000000E+00 0. -1.
</event>
<event>
 7    1  0.2323330E-008  0.4614232E+02  0.7816164E-02  0.1320468E+00
        -11   -1    0    0    0    0  0.00000000000E+00  0.00000000000E+00  0.45593999997E+02  0.45594000000E+02  0.51100000000E-03 0. -1.
         11   -1    0    0    0    0 -0.00000000000E+00 -0.00000000000E+00 -0.45593999997E+02  0.45594000000E+02  0.51100000000E-03 0.  1.
    9900012    2    1    2    0    0 -0.30514524772E+02  0.29927662325E+02 -0.14223652474E+02  0.46142317809E+02  0.10000000437E+02 0.  0.
         12    1    1    2    0    0  0.30514524772E+02 -0.29927662325E+02  0.14223652474E+02  0.45045682191E+02  0.00000000000E+00 0. -1.
         11    1    3    3    0    0 -0.19396826257E+01  0.29375109765E+00 -0.47330960838E-01  0.19623707286E+01  0.51100000000E-03 0. -1.
        -11    1    3    3    0    0 -0.27067412810E+02  0.25258954961E+02 -0.13894984345E+02  0.39544029033E+02  0.51100000000E-03 0.  1.
         12    1    3    3    0    0 -0.15074293366E+01  0.43749562667E+01 -0.28133716830E+00  0.46359180475E+01  0.00000000000E+00 0. -1.
</event>
<event>
 7    1  0.2323330E-008  0.4614232E+02  0.7816164E-02  0.1320468E+00
        -11   -1    0    0    0    0  0.00000000000E+00  0.00000000000E+00  0.45593999997E+02  0.45594000000E+02  0.51100000000E-03 0.  1.
         11   -1    0    0    0    0 -0.00000000000E+00 -0.00000000000E+00 -0.45593999997E+02  0.45594000000E+02  0.51100000000E-03 0. -1.
    9900012    2    1    2    0    0  0.57369526854E+00 -0.19464368348E+02  0.40619240572E+02  0.46142318008E+02  0.10000002252E+02 0.  0.
         12    1    1    2    0    0 -0.57369526854E+00  0.19464368348E+02 -0.40619240572E+02  0.45045681992E+02  0.00000000000E+00 0. -1.
         11    1    3    3    0    0 -0.33487733890E+01 -0.11943701043E+02  0.18273725523E+02  0.22086088893E+02  0.51100000000E-03 0. -1.
        -11    1    3    3    0    0  0.12175243532E+01 -0.28970138658E+01  0.50288589083E+01  0.59299643397E+01  0.51100000000E-03 0.  1.
        -12    1    3    3    0    0  0.27049443044E+01 -0.46236534386E+01  0.17316656141E+02  0.18126264776E+02  0.00000000000E+00 0.  1.
</event>
<event>
 7    1  0.2323330E-008  0.4614232E+02  0.7816164E-02  0.1320468E+00
        -11   -1    0    0    0    0  0.00000000000E+00  0.00000000000E+00  0.45593999997E+02  0.45594000000E+02  0.51100000000E-03 0. -1.
         11   -1    0    0    0    0 -0.00000000000E+00 -0.00000000000E+00 -0.45593999997E+02  0.45594000000E+02  0.51100000000E-03 0.  1.
    9900012    2    1    2    0    0  0.22556804519E+02 -0.26948878407E+02 -0.28179108043E+02  0.46142316437E+02  0.99999879286E+01 0.  0.
         12    1    1    2    0    0 -0.22556804519E+02  0.26948878407E+02  0.28179108043E+02  0.45045683563E+02  0.00000000000E+00 0. -1.
         11    1    3    3    0    0  0.15358691722E+02 -0.18371412954E+02 -0.17608282749E+02  0.29722884231E+02  0.51100000000E-03 0. -1.
        -11    1    3    3    0    0  0.80525790939E+01 -0.74912123480E+01 -0.83713412015E+01  0.13821781588E+02  0.51100000000E-03 0.  1.
         12    1    3    3    0    0 -0.85446629705E+00 -0.10862531051E+01 -0.21994840926E+01  0.25976506183E+01  0.00000000000E+00 0. -1.
</event>
<event>
 7    1  0.2323330E-008  0.4614232E+02  0.7816164E-02  0.1320468E+00
        -11   -1    0    0    0    0  0.00000000000E+00  0.00000000000E+00  0.45593999997E+02  0.45594000000E+02  0.51100000000E-03 0. -1.
         11   -1    0    0    0    0 -0.00000000000E+00 -0.00000000000E+00 -0.45593999997E+02  0.45594000000E+02  0.51100000000E-03 0.  1.
    9900012    2    1    2    0    0 -0.24840132315E+02  0.36234812103E+02  0.99558907148E+01  0.46142317171E+02  0.99999946227E+01 0.  0.
         12    1    1    2    0    0  0.24840132315E+02 -0.36234812103E+02 -0.99558907148E+01  0.45045682829E+02  0.00000000000E+00 0. -1.
         11    1    3    3    0    0 -0.12314356749E+02  0.18145100063E+02  0.43860360776E+01  0.22363482537E+02  0.51100000000E-03 0. -1.
        -11    1    3    3    0    0 -0.32137445548E+01  0.10722121551E+02  0.19237155389E+01  0.11357496482E+02  0.51100000000E-03 0.  1.
         12    1    3    3    0    0 -0.93120310106E+01  0.73675904895E+01  0.36461390983E+01  0.12421338152E+02  0.00000000000E+00 0. -1.
</event>
<event>
 7    1  0.2323330E-008  0.4614232E+02  0.7816164E-02  0.1320468E+00
        -11   -1    0    0    0    0  0.00000000000E+00  0.00000000000E+00  0.45593999997E+02  0.45594000000E+02  0.51100000000E-03 0.  1.
         11   -1    0    0    0    0 -0.00000000000E+00 -0.00000000000E+00 -0.45593999997E+02  0.45594000000E+02  0.51100000000E-03 0. -1.
    9900012    2    1    2    0    0  0.82882110020E+01  0.99892680449E+01  0.43135062059E+02  0.46142317671E+02  0.99999991772E+01 0.  0.
         12    1    1    2    0    0 -0.82882110020E+01 -0.99892680449E+01 -0.43135062059E+02  0.45045682329E+02  0.00000000000E+00 0. -1.
         11    1    3    3    0    0  0.41353718035E+01 -0.45254758727E+00  0.78819045182E+01  0.89123800619E+01  0.51100000000E-03 0. -1.
        -11    1    3    3    0    0  0.37626220884E+01  0.94326149417E+01  0.25986985261E+02  0.27900805595E+02  0.51100000000E-03 0.  1.
        -12    1    3    3    0    0  0.39021711014E+00  0.10092006905E+01  0.92661722795E+01  0.93291320143E+01  0.00000000000E+00 0.  1.
</event>
<event>
 7    1  0.2323330E-008  0.4614232E+02  0.7816164E-02  0.1320468E+00
        -11   -1    0    0    0    0  0.00000000000E+00  0.00000000000E+00  0.45593999997E+02  0.45594000000E+02  0.51100000000E-03 0. -1.
         11   -1    0    0    0    0 -0.00000000000E+00 -0.00000000000E+00 -0.45593999997E+02  0.45594000000E+02  0.51100000000E-03 0.  1.
    9900012    2    1    2    0    0  0.16012799854E+02 -0.30525205916E+02 -0.28998543340E+02  0.46142317951E+02  0.10000001734E+02 0.  0.
         12    1    1    2    0    0 -0.16012799854E+02  0.30525205916E+02  0.28998543340E+02  0.45045682049E+02  0.00000000000E+00 0. -1.
         11    1    3    3    0    0  0.11270711313E+02 -0.12178679366E+02 -0.10651412067E+02  0.19718056291E+02  0.51100000000E-03 0. -1.
        -11    1    3    3    0    0  0.24884566235E+01 -0.10724575541E+02 -0.96212696117E+01  0.14621141067E+02  0.51100000000E-03 0.  1.
         12    1    3    3    0    0  0.22536319173E+01 -0.76219510093E+01 -0.87258616616E+01  0.11803120593E+02  0.00000000000E+00 0. -1.
</event>
<event>
 7    1  0.2323330E-008  0.4614232E+02  0.7816164E-02  0.1320468E+00
        -11   -1    0    0    0    0  0.00000000000E+00  0.00000000000E+00  0.45593999997E+02  0.45594000000E+02  0.51100000000E-03 0. -1.
         11   -1    0    0    0    0 -0.00000000000E+00 -0.00000000000E+00 -0.45593999997E+02  0.45594000000E+02  0.51100000000E-03 0.  1.
    9900012    2    1    2    0    0  0.21984826407E+02 -0.35732066564E+02 -0.16401231151E+02  0.46142317007E+02  0.99999931242E+01 0.  0.
         12    1    1    2    0    0 -0.21984826407E+02  0.35732066564E+02  0.16401231151E+02  0.45045682993E+02  0.00000000000E+00 0. -1.
         11    1    3    3    0    0  0.92905823285E+00  0.38256781837E+00  0.14454314553E+00  0.10150863597E+01  0.51100000000E-03 0. -1.
        -11    1    3    3    0    0  0.77867406577E+01 -0.16739988132E+02 -0.63152793252E+01  0.19512644258E+02  0.51100000000E-03 0.  1.
         12    1    3    3    0    0  0.13269027516E+02 -0.19374646250E+02 -0.10230494971E+02  0.25614586389E+02  0.00000000000E+00 0. -1.
</event>
<event>
 7    1  0.2323330E-008  0.4614232E+02  0.7816164E-02  0.1320468E+00
        -11   -1    0    0    0    0  0.00000000000E+00  0.00000000000E+00  0.45593999997E+02  0.45594000000E+02  0.51100000000E-03 0. -1.
         11   -1    0    0    0    0 -0.00000000000E+00 -0.00000000000E+00 -0.45593999997E+02  0.45594000000E+02  0.51100000000E-03 0.  1.
    9900012    2    1    2    0    0 -0.26751776613E+02  0.35041911849E+02 -0.92477106997E+01  0.46142319949E+02  0.10000019954E+02 0.  0.
         12    1    1    2    0    0  0.26751776613E+02 -0.35041911849E+02  0.92477106997E+01  0.45045680051E+02  0.00000000000E+00 0. -1.
         11    1    3    3    0    0 -0.92651465389E+01  0.11107843541E+02 -0.30972803058E+01  0.14792574964E+02  0.51100000000E-03 0.  1.
        -11    1    3    3    0    0 -0.40963689822E+01  0.15759572545E+01 -0.24517663889E+01  0.50274286463E+01  0.51100000000E-03 0. -1.
        -12    1    3    3    0    0 -0.13390261092E+02  0.22358111054E+02 -0.36986640049E+01  0.26322316339E+02  0.00000000000E+00 0.  1.
</event>
<event>
 7    1  0.2323330E-008  0.4614232E+02  0.7816164E-02  0.1320468E+00
        -11   -1    0    0    0    0  0.00000000000E+00  0.00000000000E+00  0.45593999997E+02  0.45594000000E+02  0.51100000000E-03 0.  1.
         11   -1    0    0    0    0 -0.00000000000E+00 -0.00000000000E+00 -0.45593999997E+02  0.45594000000E+02  0.51100000000E-03 0. -1.
    9900012    2    1    2    0    0  0.81956267982E+01  0.44072636421E+02  0.44213058972E+01  0.46142317348E+02  0.99999962373E+01 0.  0.
         12    1    1    2    0    0 -0.81956267982E+01 -0.44072636421E+02 -0.44213058972E+01  0.45045682652E+02  0.00000000000E+00 0. -1.
         11    1    3    3    0    0  0.17648593446E+01  0.22137146310E+02 -0.16528863184E+01  0.22268812467E+02  0.51100000000E-03 0. -1.
        -11    1    3    3    0    0  0.65187455755E+00  0.55566189803E+01  0.25622914562E+01  0.61535593520E+01  0.51100000000E-03 0.  1.
         12    1    3    3    0    0  0.57788928961E+01  0.16378871131E+02  0.35119007595E+01  0.17719945530E+02  0.00000000000E+00 0. -1.
</event>
<event>
 7    1  0.2323330E-008  0.4614232E+02  0.7816164E-02  0.1320468E+00
        -11   -1    0    0    0    0  0.00000000000E+00  0.00000000000E+00  0.45593999997E+02  0.45594000000E+02  0.51100000000E-03 0. -1.
         11   -1    0    0    0    0 -0.00000000000E+00 -0.00000000000E+00 -0.45593999997E+02  0.45594000000E+02  0.51100000000E-03 0.  1.
    9900012    2    1    2    0    0  0.36108019941E+02  0.14772654077E+02  0.22518726054E+02  0.46142318346E+02  0.10000005334E+02 0.  0.
         12    1    1    2    0    0 -0.36108019941E+02 -0.14772654077E+02 -0.22518726054E+02  0.45045681654E+02  0.00000000000E+00 0. -1.
         11    1    3    3    0    0  0.20320361548E+01 -0.12392101595E+01  0.15407983048E+01  0.28352905373E+01  0.51100000000E-03 0. -1.
        -11    1    3    3    0    0  0.20111136934E+02  0.79370574297E+01  0.13810235091E+02  0.25654966438E+02  0.51100000000E-03 0.  1.
        -12    1    3    3    0    0  0.13964846853E+02  0.80748068071E+01  0.71676926589E+01  0.17652061371E+02  0.00000000000E+00 0.  1.
</event>
<event>
 7    1  0.2323330E-008  0.4614232E+02  0.7816164E-02  0.1320468E+00
        -11   -1    0    0    0    0  0.00000000000E+00  0.00000000000E+00  0.45593999997E+02  0.45594000000E+02  0.51100000000E-03 0.  1.
         11   -1    0    0    0    0 -0.00000000000E+00 -0.00000000000E+00 -0.45593999997E+02  0.45594000000E+02  0.51100000000E-03 0. -1.
    9900012    2    1    2    0    0  0.31824816003E+02 -0.27111495855E+02 -0.16770844435E+02  0.46142319362E+02  0.10000014594E+02 0.  0.
         12    1    1    2    0    0 -0.31824816003E+02  0.27111495855E+02  0.16770844435E+02  0.45045680638E+02  0.00000000000E+00 0. -1.
         11    1    3    3    0    0  0.10166940214E+02 -0.65198187738E+01 -0.82574407045E+01  0.14630790731E+02  0.51100000000E-03 0. -1.
        -11    1    3    3    0    0  0.16140555937E+02 -0.16699106677E+02 -0.85806430029E+01  0.24758940696E+02  0.51100000000E-03 0.  1.
         12    1    3    3    0    0  0.55173198522E+01 -0.38925704040E+01  0.67239272739E-01  0.67525879351E+01  0.00000000000E+00 0. -1.
</event>
<event>
 7    1  0.2323330E-008  0.4614231E+02  0.7816164E-02  0.1320468E+00
        -11   -1    0    0    0    0  0.00000000000E+00  0.00000000000E+00  0.45593999997E+02  0.45594000000E+02  0.51100000000E-03 0.  1.
         11   -1    0    0    0    0 -0.00000000000E+00 -0.00000000000E+00 -0.45593999997E+02  0.45594000000E+02  0.51100000000E-03 0. -1.
    9900012    2    1    2    0    0  0.37313345427E+02 -0.59649715684E+01  0.24520343702E+02  0.46142313325E+02  0.99999595452E+01 0.  0.
         12    1    1    2    0    0 -0.37313345427E+02  0.59649715684E+01 -0.24520343702E+02  0.45045686675E+02  0.00000000000E+00 0. -1.
         11    1    3    3    0    0  0.76631086207E+01 -0.43604842776E+01  0.43045710140E+01  0.98115436474E+01  0.51100000000E-03 0. -1.
        -11    1    3    3    0    0  0.29589189953E+02 -0.10738422924E+01  0.20092976649E+02  0.35782691490E+02  0.51100000000E-03 0.  1.
        -12    1    3    3    0    0  0.61046852894E-01 -0.53064499838E+00  0.12279603952E+00  0.54807818774E+00  0.00000000000E+00 0.  1.
</event>
<event>
 7    1  0.2323330E-008  0.4614231E+02  0.7816164E-02  0.1320468E+00
        -11   -1    0    0    0    0  0.00000000000E+00  0.00000000000E+00  0.45593999997E+02  0.45594000000E+02  0.51100000000E-03 0.  1.
         11   -1    0    0    0    0 -0.00000000000E+00 -0.00000000000E+00 -0.45593999997E+02  0.45594000000E+02  0.51100000000E-03 0. -1.
    9900012    2    1    2    0    0  0.15487412939E+02 -0.26227701387E+02  0.33186771789E+02  0.46142310957E+02  0.99999379512E+01 0.  0.
         12    1    1    2    0    0 -0.15487412939E+02  0.26227701387E+02 -0.33186771789E+02  0.45045689043E+02  0.00000000000E+00 0. -1.
         11    1    3    3    0    0  0.15789826916E+01  0.72968818176E-01  0.93850188247E+00  0.18382863850E+01  0.51100000000E-03 0. -1.
        -11    1    3    3    0    0  0.13640477419E+01 -0.45901018836E+01  0.85684689626E+01  0.98157181178E+01  0.51100000000E-03 0.  1.
        -12    1    3    3    0    0  0.12544382505E+02 -0.21710568322E+02  0.23679800944E+02  0.34488306454E+02  0.00000000000E+00 0.  1.
</event>
<event>
 7    1  0.2323330E-008  0.4614232E+02  0.7816164E-02  0.1320468E+00
        -11   -1    0    0    0    0  0.00000000000E+00  0.00000000000E+00  0.45593999997E+02  0.45594000000E+02  0.51100000000E-03 0.  1.
         11   -1    0    0    0    0 -0.00000000000E+00 -0.00000000000E+00 -0.45593999997E+02  0.45594000000E+02  0.51100000000E-03 0. -1.
    9900012    2    1    2    0    0 -0.91976288333E+01 -0.10903050214E+02  0.42727514645E+02  0.46142318876E+02  0.10000010170E+02 0.  0.
         12    1    1    2    0    0  0.91976288333E+01  0.10903050214E+02 -0.42727514645E+02  0.45045681124E+02  0.00000000000E+00 0. -1.
         11    1    3    3    0    0 -0.72161126780E+01 -0.85405413216E+01  0.22402087797E+02  0.25037305490E+02  0.51100000000E-03 0. -1.
        -11    1    3    3    0    0 -0.96085283547E+00 -0.15618579955E+01  0.19239198903E+01  0.26578387037E+01  0.51100000000E-03 0.  1.
        -12    1    3    3    0    0 -0.10206633199E+01 -0.80065089697E+00  0.18401506958E+02  0.18447174683E+02  0.00000000000E+00 0.  1.
</event>
<event>
 7    1  0.2323330E-008  0.4614232E+02  0.7816164E-02  0.1320468E+00
        -11   -1    0    0    0    0  0.00000000000E+00  0.00000000000E+00  0.45593999997E+02  0.45594000000E+02  0.51100000000E-03 0. -1.
         11   -1    0    0    0    0 -0.00000000000E+00 -0.00000000000E+00 -0.45593999997E+02  0.45594000000E+02  0.51100000000E-03 0.  1.
    9900012    2    1    2    0    0  0.28378105060E+02 -0.32650846369E+02 -0.12558605106E+02  0.46142321211E+02  0.10000031456E+02 0.  0.
         12    1    1    2    0    0 -0.28378105060E+02  0.32650846369E+02  0.12558605106E+02  0.45045678789E+02  0.00000000000E+00 0. -1.
         11    1    3    3    0    0  0.99966162437E+01 -0.13174154162E+02 -0.82126702209E+01  0.18464523460E+02  0.51100000000E-03 0. -1.
        -11    1    3    3    0    0  0.63604229021E+00 -0.10099767807E+01 -0.14885051729E+01  0.19079441301E+01  0.51100000000E-03 0.  1.
        -12    1    3    3    0    0  0.17745446526E+02 -0.18466715427E+02 -0.28574297118E+01  0.25769853620E+02  0.00000000000E+00 0.  1.
</event>
<event>
 7    1  0.2323330E-008  0.4614232E+02  0.7816164E-02  0.1320468E+00
        -11   -1    0    0    0    0  0.00000000000E+00  0.00000000000E+00  0.45593999997E+02  0.45594000000E+02  0.51100000000E-03 0.  1.
         11   -1    0    0    0    0 -0.00000000000E+00 -0.00000000000E+00 -0.45593999997E+02  0.45594000000E+02  0.51100000000E-03 0. -1.
    9900012    2    1    2    0    0 -0.37612048449E+02 -0.10828031115E+02  0.22298004947E+02  0.46142317954E+02  0.10000001762E+02 0.  0.
         12    1    1    2    0    0  0.37612048449E+02  0.10828031115E+02 -0.22298004947E+02  0.45045682046E+02  0.00000000000E+00 0. -1.
         11    1    3    3    0    0 -0.13720370139E+01 -0.87365320211E+00  0.21827061384E+01  0.27221245072E+01  0.51100000000E-03 0. -1.
        -11    1    3    3    0    0 -0.13984838736E+02 -0.37267335731E+00  0.49717928507E+01  0.14846997148E+02  0.51100000000E-03 0.  1.
        -12    1    3    3    0    0 -0.22255172699E+02 -0.95817045551E+01  0.15143505958E+02  0.28573196299E+02  0.00000000000E+00 0.  1.
</event>
<event>
 7    1  0.2323330E-008  0.4614232E+02  0.7816164E-02  0.1320468E+00
        -11   -1    0    0    0    0  0.00000000000E+00  0.00000000000E+00  0.45593999997E+02  0.45594000000E+02  0.51100000000E-03 0. -1.
         11   -1    0    0    0    0 -0.00000000000E+00 -0.00000000000E+00 -0.45593999997E+02  0.45594000000E+02  0.51100000000E-03 0.  1.
    9900012    2    1    2    0    0 -0.14580014610E+02  0.38055708203E+02 -0.19191137918E+02  0.46142317327E+02  0.99999960455E+01 0.  0.
         12    1    1    2    0    0  0.14580014610E+02 -0.38055708203E+02  0.19191137918E+02  0.45045682673E+02  0.00000000000E+00 0. -1.
         11    1    3    3    0    0 -0.17652596527E+01  0.11342045770E+02 -0.60390339111E+01  0.12970276587E+02  0.51100000000E-03 0. -1.
        -11    1    3    3    0    0 -0.88181406964E+01  0.23096599617E+02 -0.87936123588E+01  0.26240048357E+02  0.51100000000E-03 0.  1.
         12    1    3    3    0    0 -0.39966142604E+01  0.36170628162E+01 -0.43584916484E+01  0.69319923840E+01  0.00000000000E+00 0. -1.
</event>
<event>
 7    1  0.2323330E-008  0.4614232E+02  0.7816164E-02  0.1320468E+00
        -11   -1    0    0    0    0  0.00000000000E+00  0.00000000000E+00  0.45593999997E+02  0.45594000000E+02  0.51100000000E-03 0. -1.
         11   -1    0    0    0    0 -0.00000000000E+00 -0.00000000000E+00 -0.45593999997E+02  0.45594000000E+02  0.51100000000E-03 0.  1.
    9900012    2    1    2    0    0 -0.13376739776E+02  0.29943421458E+02 -0.30879895656E+02  0.46142316395E+02  0.99999875460E+01 0.  0.
         12    1    1    2    0    0  0.13376739776E+02 -0.29943421458E+02  0.30879895656E+02  0.45045683605E+02  0.00000000000E+00 0. -1.
         11    1    3    3    0    0 -0.69645036066E+01  0.13844853558E+02 -0.83346012988E+01  0.17596870734E+02  0.51100000000E-03 0. -1.
        -11    1    3    3    0    0 -0.27499978795E+01  0.98347924933E+01 -0.14131131148E+02  0.17434864482E+02  0.51100000000E-03 0.  1.
         12    1    3    3    0    0 -0.36622382902E+01  0.62637754065E+01 -0.84141632091E+01  0.11110581180E+02  0.00000000000E+00 0. -1.
</event>
<event>
 7    1  0.2323330E-008  0.4614232E+02  0.7816164E-02  0.1320468E+00
        -11   -1    0    0    0    0  0.00000000000E+00  0.00000000000E+00  0.45593999997E+02  0.45594000000E+02  0.51100000000E-03 0.  1.
         11   -1    0    0    0    0 -0.00000000000E+00 -0.00000000000E+00 -0.45593999997E+02  0.45594000000E+02  0.51100000000E-03 0. -1.
    9900012    2    1    2    0    0  0.23685624865E+02  0.37995328178E+02 -0.49456756181E+01  0.46142317678E+02  0.99999992380E+01 0.  0.
         12    1    1    2    0    0 -0.23685624865E+02 -0.37995328178E+02  0.49456756181E+01  0.45045682322E+02  0.00000000000E+00 0. -1.
         11    1    3    3    0    0  0.18410914520E+02  0.31475055357E+02 -0.72354355817E+01  0.37175158527E+02  0.51100000000E-03 0.  1.
        -11    1    3    3    0    0  0.44992272540E+01  0.63708762003E+01  0.17027146793E+01  0.79831288968E+01  0.51100000000E-03 0. -1.
        -12    1    3    3    0    0  0.77548309091E+00  0.14939662042E+00  0.58704528427E+00  0.98403025373E+00  0.00000000000E+00 0.  1.
</event>
<event>
 7    1  0.2323330E-008  0.4614232E+02  0.7816164E-02  0.1320468E+00
        -11   -1    0    0    0    0  0.00000000000E+00  0.00000000000E+00  0.45593999997E+02  0.45594000000E+02  0.51100000000E-03 0.  1.
         11   -1    0    0    0    0 -0.00000000000E+00 -0.00000000000E+00 -0.45593999997E+02  0.45594000000E+02  0.51100000000E-03 0. -1.
    9900012    2    1    2    0    0  0.68624005819E-01 -0.23949305019E+01  0.44981919237E+02  0.46142318080E+02  0.10000002910E+02 0.  0.
         12    1    1    2    0    0 -0.68624005819E-01  0.23949305019E+01 -0.44981919237E+02  0.45045681920E+02  0.00000000000E+00 0. -1.
         11    1    3    3    0    0 -0.79640707716E+00 -0.10889266193E+01  0.30014398258E+01  0.32906939548E+01  0.51100000000E-03 0. -1.
        -11    1    3    3    0    0 -0.28708589150E+01  0.29089283702E-01  0.59829884402E+01  0.66361757084E+01  0.51100000000E-03 0.  1.
        -12    1    3    3    0    0  0.37358899979E+01 -0.13350931663E+01  0.35997490971E+02  0.36215448417E+02  0.00000000000E+00 0.  1.
</event>
<event>
 7    1  0.2323330E-008  0.4614232E+02  0.7816164E-02  0.1320468E+00
        -11   -1    0    0    0    0  0.00000000000E+00  0.00000000000E+00  0.45593999997E+02  0.45594000000E+02  0.51100000000E-03 0. -1.
         11   -1    0    0    0    0 -0.00000000000E+00 -0.00000000000E+00 -0.45593999997E+02  0.45594000000E+02  0.51100000000E-03 0.  1.
    9900012    2    1    2    0    0 -0.12511837650E+01  0.39285289559E+02 -0.22004865962E+02  0.46142316937E+02  0.99999924892E+01 0.  0.
         12    1    1    2    0    0  0.12511837650E+01 -0.39285289559E+02  0.22004865962E+02  0.45045683063E+02  0.00000000000E+00 0. -1.
         11    1    3    3    0    0 -0.65657922710E+00  0.36936914625E+01 -0.44808207574E+01  0.58439890334E+01  0.51100000000E-03 0.  1.
        -11    1    3    3    0    0 -0.22667688017E+01  0.55756358779E+01 -0.46005824096E+01  0.75757055784E+01  0.51100000000E-03 0. -1.
        -12    1    3    3    0    0  0.16721642638E+01  0.30015962219E+02 -0.12923462795E+02  0.32722622326E+02  0.00000000000E+00 0.  1.
</event>
<event>
 7    1  0.2323330E-008  0.4614232E+02  0.7816164E-02  0.1320468E+00
        -11   -1    0    0    0    0  0.00000000000E+00  0.00000000000E+00  0.45593999997E+02  0.45594000000E+02  0.51100000000E-03 0.  1.
         11   -1    0    0    0    0 -0.00000000000E+00 -0.00000000000E+00 -0.45593999997E+02  0.45594000000E+02  0.51100000000E-03 0. -1.
    9900012    2    1    2    0    0  0.27757335985E+02 -0.35431724031E+02 -0.17990877551E+01  0.46142317793E+02  0.10000000291E+02 0.  0.
         12    1    1    2    0    0 -0.27757335985E+02  0.35431724031E+02  0.17990877551E+01  0.45045682207E+02  0.00000000000E+00 0. -1.
         11    1    3    3    0    0  0.34121099483E+01 -0.70787564603E+01  0.71528932729E+00  0.78906860542E+01  0.51100000000E-03 0. -1.
        -11    1    3    3    0    0  0.12793963524E+02 -0.15780443662E+02  0.24718701812E+01  0.20465044522E+02  0.51100000000E-03 0.  1.
         12    1    3    3    0    0  0.11551262512E+02 -0.12572523908E+02 -0.49862472636E+01  0.17786587217E+02  0.00000000000E+00 0. -1.
</event>
<event>
 7    1  0.2323330E-008  0.4614232E+02  0.7816164E-02  0.1320468E+00
        -11   -1    0    0    0    0  0.00000000000E+00  0.00000000000E+00  0.45593999997E+02  0.45594000000E+02  0.51100000000E-03 0.  1.
         11   -1    0    0    0    0 -0.00000000000E+00 -0.00000000000E+00 -0.45593999997E+02  0.45594000000E+02  0.51100000000E-03 0. -1.
    9900012    2    1    2    0    0 -0.39091127658E+01  0.40711033018E+02  0.18879728874E+02  0.46142317251E+02  0.99999953460E+01 0.  0.
         12    1    1    2    0    0  0.39091127658E+01 -0.40711033018E+02 -0.18879728874E+02  0.45045682749E+02  0.00000000000E+00 0. -1.
         11    1    3    3    0    0  0.11585656458E+01  0.12181144221E+01 -0.75353074643E-01  0.16827820560E+01  0.51100000000E-03 0. -1.
        -11    1    3    3    0    0 -0.19088121472E+01  0.30045124158E+02  0.12553770035E+02  0.32618249368E+02  0.51100000000E-03 0.  1.
         12    1    3    3    0    0 -0.31588662644E+01  0.94477944375E+01  0.64013119135E+01  0.11841285826E+02  0.00000000000E+00 0. -1.
</event>
<event>
 7    1  0.2323330E-008  0.4614232E+02  0.7816164E-02  0.1320468E+00
        -11   -1    0    0    0    0  0.00000000000E+00  0.00000000000E+00  0.45593999997E+02  0.45594000000E+02  0.51100000000E-03 0. -1.
         11   -1    0    0    0    0 -0.00000000000E+00 -0.00000000000E+00 -0.45593999997E+02  0.45594000000E+02  0.51100000000E-03 0.  1.
    9900012    2    1    2    0    0  0.34115826358E+02  0.15973106188E+02  0.24699873751E+02  0.46142317714E+02  0.99999995670E+01 0.  0.
         12    1    1    2    0    0 -0.34115826358E+02 -0.15973106188E+02 -0.24699873751E+02  0.45045682286E+02  0.00000000000E+00 0. -1.
         11    1    3    3    0    0  0.13174062042E+02  0.33301007392E+01  0.12195266185E+02  0.18258422692E+02  0.51100000000E-03 0. -1.
        -11    1    3    3    0    0  0.17083304298E+02  0.10581459860E+02  0.12178066108E+02  0.23497060942E+02  0.51100000000E-03 0.  1.
        -12    1    3    3    0    0  0.38584600174E+01  0.20615455889E+01  0.32654145785E+00  0.43868340799E+01  0.00000000000E+00 0.  1.
</event>
<event>
 7    1  0.2323330E-008  0.4614232E+02  0.7816164E-02  0.1320468E+00
        -11   -1    0    0    0    0  0.00000000000E+00  0.00000000000E+00  0.45593999997E+02  0.45594000000E+02  0.51100000000E-03 0.  1.
         11   -1    0    0    0    0 -0.00000000000E+00 -0.00000000000E+00 -0.45593999997E+02  0.45594000000E+02  0.51100000000E-03 0. -1.
    9900012    2    1    2    0    0 -0.18902544262E+02 -0.27831966751E+02  0.29953112047E+02  0.46142317919E+02  0.10000001442E+02 0.  0.
         12    1    1    2    0    0  0.18902544262E+02  0.27831966751E+02 -0.29953112047E+02  0.45045682081E+02  0.00000000000E+00 0. -1.
         11    1    3    3    0    0  0.31236225311E+00 -0.61606606378E+00  0.11889893597E+01  0.13750649187E+01  0.51100000000E-03 0. -1.
        -11    1    3    3    0    0 -0.11433829926E+02 -0.10895872136E+02  0.99128933722E+01  0.18647196885E+02  0.51100000000E-03 0.  1.
        -12    1    3    3    0    0 -0.77810765884E+01 -0.16320028552E+02  0.18851229315E+02  0.26120056116E+02  0.00000000000E+00 0.  1.
</event>
<event>
 7    1  0.2323330E-008  0.4614232E+02  0.7816164E-02  0.1320468E+00
        -11   -1    0    0    0    0  0.00000000000E+00  0.00000000000E+00  0.45593999997E+02  0.45594000000E+02  0.51100000000E-03 0.  1.
         11   -1    0    0    0    0 -0.00000000000E+00 -0.00000000000E+00 -0.45593999997E+02  0.45594000000E+02  0.51100000000E-03 0. -1.
    9900012    2    1    2    0    0  0.25812031294E+02 -0.35506815645E+02  0.10105376563E+02  0.46142317052E+02  0.99999935345E+01 0.  0.
         12    1    1    2    0    0 -0.25812031294E+02  0.35506815645E+02 -0.10105376563E+02  0.45045682948E+02  0.00000000000E+00 0. -1.
         11    1    3    3    0    0  0.55311078016E+01 -0.75755038621E+01 -0.56019124024E+00  0.93965539834E+01  0.51100000000E-03 0. -1.
        -11    1    3    3    0    0  0.11363958967E+02 -0.15156203452E+02  0.23570889668E+01  0.19089419456E+02  0.51100000000E-03 0.  1.
         12    1    3    3    0    0  0.89169645250E+01 -0.12775108331E+02  0.83084788367E+01  0.17656343613E+02  0.00000000000E+00 0. -1.
</event>
<event>
 7    1  0.2323330E-008  0.4614232E+02  0.7816164E-02  0.1320468E+00
        -11   -1    0    0    0    0  0.00000000000E+00  0.00000000000E+00  0.45593999997E+02  0.45594000000E+02  0.51100000000E-03 0.  1.
         11   -1    0    0    0    0 -0.00000000000E+00 -0.00000000000E+00 -0.45593999997E+02  0.45594000000E+02  0.51100000000E-03 0. -1.
    9900012    2    1    2    0    0  0.39514033210E+02 -0.16326414243E+01  0.21565924614E+02  0.46142318265E+02  0.10000004595E+02 0.  0.
         12    1    1    2    0    0 -0.39514033210E+02  0.16326414243E+01 -0.21565924614E+02  0.45045681735E+02  0.00000000000E+00 0. -1.
         11    1    3    3    0    0  0.28778702218E+02 -0.51583366401E+00  0.14282656253E+02  0.32132134314E+02  0.51100000000E-03 0. -1.
        -11    1    3    3    0    0  0.95744937390E+01 -0.27519842025E+01  0.60025806397E+01  0.11630791977E+02  0.51100000000E-03 0.  1.
         12    1    3    3    0    0  0.11608372529E+01  0.16351764422E+01  0.12806877216E+01  0.23793919738E+01  0.00000000000E+00 0. -1.
</event>
<event>
 7    1  0.2323330E-008  0.4614232E+02  0.7816164E-02  0.1320468E+00
        -11   -1    0    0    0    0  0.00000000000E+00  0.00000000000E+00  0.45593999997E+02  0.45594000000E+02  0.51100000000E-03 0.  1.
         11   -1    0    0    0    0 -0.00000000000E+00 -0.00000000000E+00 -0.45593999997E+02  0.45594000000E+02  0.51100000000E-03 0. -1.
    9900012    2    1    2    0    0 -0.13768514857E+02 -0.24392682935E+02  0.35278016617E+02  0.46142318313E+02  0.10000005036E+02 0.  0.
         12    1    1    2    0    0  0.13768514857E+02  0.24392682935E+02 -0.35278016617E+02  0.45045681687E+02  0.00000000000E+00 0. -1.
         11    1    3    3    0    0 -0.16850065335E+01 -0.23922262278E+01  0.11382760332E+01  0.31396920122E+01  0.51100000000E-03 0. -1.
        -11    1    3    3    0    0 -0.53154954008E+01 -0.52589489434E+01  0.14555627828E+02  0.16363903479E+02  0.51100000000E-03 0.  1.
        -12    1    3    3    0    0 -0.67680129229E+01 -0.16741507764E+02  0.19584112756E+02  0.26638722822E+02  0.00000000000E+00 0.  1.
</event>
<event>
 7    1  0.2323330E-008  0.4614232E+02  0.7816164E-02  0.1320468E+00
        -11   -1    0    0    0    0  0.00000000000E+00  0.00000000000E+00  0.45593999997E+02  0.45594000000E+02  0.51100000000E-03 0. -1.
         11   -1    0    0    0    0 -0.00000000000E+00 -0.00000000000E+00 -0.45593999997E+02  0.45594000000E+02  0.51100000000E-03 0.  1.
    9900012    2    1    2    0    0  0.15227429881E+02 -0.74039921935E+01 -0.41742301728E+02  0.46142317912E+02  0.10000001378E+02 0.  0.
         12    1    1    2    0    0 -0.15227429881E+02  0.74039921935E+01  0.41742301728E+02  0.45045682088E+02  0.00000000000E+00 0. -1.
         11    1    3    3    0    0  0.76984605203E+01 -0.33559240159E+01 -0.14792808626E+02  0.17010458773E+02  0.51100000000E-03 0. -1.
        -11    1    3    3    0    0  0.27447860630E+01  0.19640580096E+01 -0.78455997907E+01  0.85407734272E+01  0.51100000000E-03 0.  1.
         12    1    3    3    0    0  0.47841832979E+01 -0.60121261872E+01 -0.19103893312E+02  0.20591085712E+02  0.00000000000E+00 0. -1.
</event>
<event>
 7    1  0.2323330E-008  0.4614232E+02  0.7816164E-02  0.1320468E+00
        -11   -1    0    0    0    0  0.00000000000E+00  0.00000000000E+00  0.45593999997E+02  0.45594000000E+02  0.51100000000E-03 0. -1.
         11   -1    0    0    0    0 -0.00000000000E+00 -0.00000000000E+00 -0.45593999997E+02  0.45594000000E+02  0.51100000000E-03 0.  1.
    9900012    2    1    2    0    0 -0.36872335025E+02 -0.17056980001E+02 -0.19457744074E+02  0.46142318060E+02  0.10000002726E+02 0.  0.
         12    1    1    2    0    0  0.36872335025E+02  0.17056980001E+02  0.19457744074E+02  0.45045681940E+02  0.00000000000E+00 0. -1.
         11    1    3    3    0    0 -0.11729050131E+02 -0.53117173108E+01 -0.66368191680E+01  0.14485590313E+02  0.51100000000E-03 0. -1.
        -11    1    3    3    0    0 -0.21956568917E+02 -0.76208039164E+01 -0.12606156094E+02  0.26440172894E+02  0.51100000000E-03 0.  1.
         12    1    3    3    0    0 -0.31867159773E+01 -0.41244587741E+01 -0.21476881187E+00  0.52165548536E+01  0.00000000000E+00 0. -1.
</event>
<event>
 7    1  0.2323330E-008  0.4614232E+02  0.7816164E-02  0.1320468E+00
        -11   -1    0    0    0    0  0.00000000000E+00  0.00000000000E+00  0.45593999997E+02  0.45594000000E+02  0.51100000000E-03 0.  1.
         11   -1    0    0    0    0 -0.00000000000E+00 -0.00000000000E+00 -0.45593999997E+02  0.45594000000E+02  0.51100000000E-03 0. -1.
    9900012    2    1    2    0    0  0.39213522637E+02 -0.11444888230E+02  0.18984930534E+02  0.46142318614E+02  0.10000007773E+02 0.  0.
         12    1    1    2    0    0 -0.39213522637E+02  0.11444888230E+02 -0.18984930534E+02  0.45045681386E+02  0.00000000000E+00 0. -1.
         11    1    3    3    0    0  0.72677977112E+01 -0.57176757178E+01  0.54318277594E+01  0.10724618979E+02  0.51100000000E-03 0. -1.
        -11    1    3    3    0    0  0.19395164810E+02 -0.49339314580E+01  0.98664551806E+01  0.22312844636E+02  0.51100000000E-03 0.  1.
         12    1    3    3    0    0  0.12550560116E+02 -0.79328105372E+00  0.36866475944E+01  0.13104854998E+02  0.00000000000E+00 0. -1.
</event>
<event>
 7    1  0.2323330E-008  0.4614232E+02  0.7816164E-02  0.1320468E+00
        -11   -1    0    0    0    0  0.00000000000E+00  0.00000000000E+00  0.45593999997E+02  0.45594000000E+02  0.51100000000E-03 0.  1.
         11   -1    0    0    0    0 -0.00000000000E+00 -0.00000000000E+00 -0.45593999997E+02  0.45594000000E+02  0.51100000000E-03 0. -1.
    9900012    2    1    2    0    0  0.14691144246E+02 -0.13290407173E+02  0.40455515975E+02  0.46142318577E+02  0.10000007439E+02 0.  0.
         12    1    1    2    0    0 -0.14691144246E+02  0.13290407173E+02 -0.40455515975E+02  0.45045681423E+02  0.00000000000E+00 0. -1.
         11    1    3    3    0    0  0.24923705575E+01 -0.17997088241E+01  0.10901487801E+02  0.11326663206E+02  0.51100000000E-03 0. -1.
        -11    1    3    3    0    0  0.96950864072E+01 -0.41391559512E+01  0.18746096180E+02  0.21506822979E+02  0.51100000000E-03 0.  1.
         12    1    3    3    0    0  0.25036872809E+01 -0.73515423978E+01  0.10807931995E+02  0.13308832392E+02  0.00000000000E+00 0. -1.
</event>
<event>
 7    1  0.2323330E-008  0.4614232E+02  0.7816164E-02  0.1320468E+00
        -11   -1    0    0    0    0  0.00000000000E+00  0.00000000000E+00  0.45593999997E+02  0.45594000000E+02  0.51100000000E-03 0.  1.
         11   -1    0    0    0    0 -0.00000000000E+00 -0.00000000000E+00 -0.45593999997E+02  0.45594000000E+02  0.51100000000E-03 0. -1.
    9900012    2    1    2    0    0  0.49156027053E+01  0.23123948430E+02  0.38343621274E+02  0.46142318372E+02  0.10000005567E+02 0.  0.
         12    1    1    2    0    0 -0.49156027053E+01 -0.23123948430E+02 -0.38343621274E+02  0.45045681628E+02  0.00000000000E+00 0. -1.
         11    1    3    3    0    0  0.19829021863E+01  0.13401758683E+01  0.48867726924E+01  0.54413711550E+01  0.51100000000E-03 0. -1.
        -11    1    3    3    0    0 -0.46447165691E+00  0.17354600014E+02  0.27632717892E+02  0.32633801096E+02  0.51100000000E-03 0.  1.
         12    1    3    3    0    0  0.33971721758E+01  0.44291725482E+01  0.58241306892E+01  0.80671461211E+01  0.00000000000E+00 0. -1.
</event>
<event>
 7    1  0.2323330E-008  0.4614232E+02  0.7816164E-02  0.1320468E+00
        -11   -1    0    0    0    0  0.00000000000E+00  0.00000000000E+00  0.45593999997E+02  0.45594000000E+02  0.51100000000E-03 0. -1.
         11   -1    0    0    0    0 -0.00000000000E+00 -0.00000000000E+00 -0.45593999997E+02  0.45594000000E+02  0.51100000000E-03 0.  1.
    9900012    2    1    2    0    0 -0.14455806039E+02  0.42283107302E+02 -0.56817223184E+01  0.46142318078E+02  0.10000002886E+02 0.  0.
         12    1    1    2    0    0  0.14455806039E+02 -0.42283107302E+02  0.56817223184E+01  0.45045681922E+02  0.00000000000E+00 0. -1.
         11    1    3    3    0    0 -0.20749425012E+01  0.67957870745E+01  0.21614472091E+01  0.74269753362E+01  0.51100000000E-03 0. -1.
        -11    1    3    3    0    0  0.10588203902E+00  0.36748555222E+01 -0.14232648169E+01  0.39422654801E+01  0.51100000000E-03 0.  1.
        -12    1    3    3    0    0 -0.12486745577E+02  0.31812464705E+02 -0.64199047105E+01  0.34773077261E+02  0.00000000000E+00 0.  1.
</event>
<event>
 7    1  0.2323330E-008  0.4614232E+02  0.7816164E-02  0.1320468E+00
        -11   -1    0    0    0    0  0.00000000000E+00  0.00000000000E+00  0.45593999997E+02  0.45594000000E+02  0.51100000000E-03 0.  1.
         11   -1    0    0    0    0 -0.00000000000E+00 -0.00000000000E+00 -0.45593999997E+02  0.45594000000E+02  0.51100000000E-03 0. -1.
    9900012    2    1    2    0    0 -0.46519502727E+01  0.33300651787E+02  0.29975645684E+02  0.46142318909E+02  0.10000010471E+02 0.  0.
         12    1    1    2    0    0  0.46519502727E+01 -0.33300651787E+02 -0.29975645684E+02  0.45045681091E+02  0.00000000000E+00 0. -1.
         11    1    3    3    0    0 -0.54738579640E+01  0.96292020759E+01  0.97305548409E+01  0.14743417223E+02  0.51100000000E-03 0. -1.
        -11    1    3    3    0    0  0.90828716059E+00  0.19911691223E+02  0.15005004263E+02  0.24948959620E+02  0.51100000000E-03 0.  1.
        -12    1    3    3    0    0 -0.86379469296E-01  0.37597584880E+01  0.52400865798E+01  0.64499420668E+01  0.00000000000E+00 0.  1.
</event>
<event>
 7    1  0.2323330E-008  0.4614232E+02  0.7816164E-02  0.1320468E+00
        -11   -1    0    0    0    0  0.00000000000E+00  0.00000000000E+00  0.45593999997E+02  0.45594000000E+02  0.51100000000E-03 0.  1.
         11   -1    0    0    0    0 -0.00000000000E+00 -0.00000000000E+00 -0.45593999997E+02  0.45594000000E+02  0.51100000000E-03 0. -1.
    9900012    2    1    2    0    0 -0.19723193599E+02  0.22610622941E+02  0.33598643048E+02  0.46142318185E+02  0.10000003861E+02 0.  0.
         12    1    1    2    0    0  0.19723193599E+02 -0.22610622941E+02 -0.33598643048E+02  0.45045681815E+02  0.00000000000E+00 0. -1.
         11    1    3    3    0    0  0.64239929273E+00  0.31181125007E+00  0.18090375192E+01  0.19448702049E+01  0.51100000000E-03 0.  1.
        -11    1    3    3    0    0 -0.80847776429E+01  0.53761030001E+01  0.85629579970E+01  0.12945669659E+02  0.51100000000E-03 0. -1.
        -12    1    3    3    0    0 -0.12280815249E+02  0.16922708691E+02  0.23226647532E+02  0.31251778321E+02  0.00000000000E+00 0.  1.
</event>
<event>
 7    1  0.2323330E-008  0.4614232E+02  0.7816164E-02  0.1320468E+00
        -11   -1    0    0    0    0  0.00000000000E+00  0.00000000000E+00  0.45593999997E+02  0.45594000000E+02  0.51100000000E-03 0.  1.
         11   -1    0    0    0    0 -0.00000000000E+00 -0.00000000000E+00 -0.45593999997E+02  0.45594000000E+02  0.51100000000E-03 0. -1.
    9900012    2    1    2    0    0 -0.31209150286E+02 -0.11981751225E+02  0.30191722344E+02  0.46142317386E+02  0.99999965827E+01 0.  0.
         12    1    1    2    0    0  0.31209150286E+02  0.11981751225E+02 -0.30191722344E+02  0.45045682614E+02  0.00000000000E+00 0. -1.
         11    1    3    3    0    0 -0.56385978533E+01 -0.13474788686E+01  0.12053196759E+01  0.59213411348E+01  0.51100000000E-03 0. -1.
        -11    1    3    3    0    0 -0.10642457706E+02 -0.27415913018E+01  0.10961909119E+02  0.15522296244E+02  0.51100000000E-03 0.  1.
         12    1    3    3    0    0 -0.14928094728E+02 -0.78926810547E+01  0.18024493549E+02  0.24698680008E+02  0.00000000000E+00 0. -1.
</event>
<event>
 7    1  0.2323330E-008  0.4614232E+02  0.7816164E-02  0.1320468E+00
        -11   -1    0    0    0    0  0.00000000000E+00  0.00000000000E+00  0.45593999997E+02  0.45594000000E+02  0.51100000000E-03 0.  1.
         11   -1    0    0    0    0 -0.00000000000E+00 -0.00000000000E+00 -0.45593999997E+02  0.45594000000E+02  0.51100000000E-03 0. -1.
    9900012    2    1    2    0    0  0.38309897802E+02  0.22636419187E+02  0.70041245324E+01  0.46142317591E+02  0.99999984500E+01 0.  0.
         12    1    1    2    0    0 -0.38309897802E+02 -0.22636419187E+02 -0.70041245324E+01  0.45045682409E+02  0.00000000000E+00 0. -1.
         11    1    3    3    0    0  0.12093864793E+02  0.80087550128E+01  0.26094261479E+01  0.14738074079E+02  0.51100000000E-03 0. -1.
        -11    1    3    3    0    0  0.12789745408E+02  0.10554630682E+02 -0.37058172271E+00  0.16586595416E+02  0.51100000000E-03 0.  1.
         12    1    3    3    0    0  0.13426287601E+02  0.40730334920E+01  0.47652801072E+01  0.14817648096E+02  0.00000000000E+00 0. -1.
</event>
<event>
 7    1  0.2323330E-008  0.4614232E+02  0.7816164E-02  0.1320468E+00
        -11   -1    0    0    0    0  0.00000000000E+00  0.00000000000E+00  0.45593999997E+02  0.45594000000E+02  0.51100000000E-03 0.  1.
         11   -1    0    0    0    0 -0.00000000000E+00 -0.00000000000E+00 -0.45593999997E+02  0.45594000000E+02  0.51100000000E-03 0. -1.
    9900012    2    1    2    0    0  0.32993162198E+02 -0.30032122077E+02 -0.62158337310E+01  0.46142315443E+02  0.99999788591E+01 0.  0.
         12    1    1    2    0    0 -0.32993162198E+02  0.30032122077E+02  0.62158337310E+01  0.45045684557E+02  0.00000000000E+00 0. -1.
         11    1    3    3    0    0  0.16597036300E+02 -0.13074357301E+02 -0.20584743457E+01  0.21228230018E+02  0.51100000000E-03 0. -1.
        -11    1    3    3    0    0  0.12790996260E+02 -0.14321164095E+02 -0.59484160752E+01  0.20101964591E+02  0.51100000000E-03 0.  1.
         12    1    3    3    0    0  0.36051296372E+01 -0.26366006813E+01  0.17910566899E+01  0.48121208339E+01  0.00000000000E+00 0. -1.
</event>
<event>
 7    1  0.2323330E-008  0.4614232E+02  0.7816164E-02  0.1320468E+00
        -11   -1    0    0    0    0  0.00000000000E+00  0.00000000000E+00  0.45593999997E+02  0.45594000000E+02  0.51100000000E-03 0.  1.
         11   -1    0    0    0    0 -0.00000000000E+00 -0.00000000000E+00 -0.45593999997E+02  0.45594000000E+02  0.51100000000E-03 0. -1.
    9900012    2    1    2    0    0  0.44788055487E+02 -0.31723314256E+01  0.36165703870E+01  0.46142321158E+02  0.10000030973E+02 0.  0.
         12    1    1    2    0    0 -0.44788055487E+02  0.31723314256E+01 -0.36165703870E+01  0.45045678842E+02  0.00000000000E+00 0. -1.
         11    1    3    3    0    0  0.47237845921E+01  0.81835116631E+00 -0.44333758008E+00  0.48146015386E+01  0.51100000000E-03 0.  1.
        -11    1    3    3    0    0  0.18726499794E+02 -0.59725677622E+01  0.10060573554E+01  0.19681603386E+02  0.51100000000E-03 0. -1.
         12    1    3    3    0    0  0.21337771101E+02  0.19818851703E+01  0.30538506117E+01  0.21646116233E+02  0.00000000000E+00 0. -1.
</event>
<event>
 7    1  0.2323330E-008  0.4614232E+02  0.7816164E-02  0.1320468E+00
        -11   -1    0    0    0    0  0.00000000000E+00  0.00000000000E+00  0.45593999997E+02  0.45594000000E+02  0.51100000000E-03 0.  1.
         11   -1    0    0    0    0 -0.00000000000E+00 -0.00000000000E+00 -0.45593999997E+02  0.45594000000E+02  0.51100000000E-03 0. -1.
    9900012    2    1    2    0    0  0.30047883797E+02  0.19849241865E+02  0.27060038438E+02  0.46142318702E+02  0.10000008583E+02 0.  0.
         12    1    1    2    0    0 -0.30047883797E+02 -0.19849241865E+02 -0.27060038438E+02  0.45045681298E+02  0.00000000000E+00 0. -1.
         11    1    3    3    0    0  0.26381727799E+01 -0.45970322673E+00  0.40005451957E+01  0.48141089308E+01  0.51100000000E-03 0.  1.
        -11    1    3    3    0    0  0.38168688327E+01  0.43842117690E+01  0.44450734395E+01  0.73176826021E+01  0.51100000000E-03 0. -1.
        -12    1    3    3    0    0  0.23592842184E+02  0.15924733323E+02  0.18614419803E+02  0.34010527169E+02  0.00000000000E+00 0.  1.
</event>
<event>
 7    1  0.2323330E-008  0.4614232E+02  0.7816164E-02  0.1320468E+00
        -11   -1    0    0    0    0  0.00000000000E+00  0.00000000000E+00  0.45593999997E+02  0.45594000000E+02  0.51100000000E-03 0.  1.
         11   -1    0    0    0    0 -0.00000000000E+00 -0.00000000000E+00 -0.45593999997E+02  0.45594000000E+02  0.51100000000E-03 0. -1.
    9900012    2    1    2    0    0 -0.51332403285E+01  0.54385323450E+01  0.44420555653E+02  0.46142317023E+02  0.99999932727E+01 0.  0.
         12    1    1    2    0    0  0.51332403285E+01 -0.54385323450E+01 -0.44420555653E+02  0.45045682977E+02  0.00000000000E+00 0. -1.
         11    1    3    3    0    0 -0.22455975486E+01  0.26352478254E+01  0.52122939871E+01  0.62574154666E+01  0.51100000000E-03 0.  1.
        -11    1    3    3    0    0  0.99634703257E+00  0.42948570482E+00  0.23638329434E+02  0.23663215844E+02  0.51100000000E-03 0. -1.
        -12    1    3    3    0    0 -0.38839898124E+01  0.23737988148E+01  0.15569932232E+02  0.16221685713E+02  0.00000000000E+00 0.  1.
</event>
<event>
 7    1  0.2323330E-008  0.4614232E+02  0.7816164E-02  0.1320468E+00
        -11   -1    0    0    0    0  0.00000000000E+00  0.00000000000E+00  0.45593999997E+02  0.45594000000E+02  0.51100000000E-03 0.  1.
         11   -1    0    0    0    0 -0.00000000000E+00 -0.00000000000E+00 -0.45593999997E+02  0.45594000000E+02  0.51100000000E-03 0. -1.
    9900012    2    1    2    0    0  0.10661962444E+02 -0.41357867611E+02  0.14316522980E+02  0.46142317780E+02  0.10000000169E+02 0.  0.
         12    1    1    2    0    0 -0.10661962444E+02  0.41357867611E+02 -0.14316522980E+02  0.45045682220E+02  0.00000000000E+00 0. -1.
         11    1    3    3    0    0  0.32296708054E+01 -0.42182271691E+01  0.45199703762E+01  0.69752667637E+01  0.51100000000E-03 0. -1.
        -11    1    3    3    0    0  0.19454687344E+01 -0.10311805889E+02  0.18634213049E+01  0.10657885743E+02  0.51100000000E-03 0.  1.
         12    1    3    3    0    0  0.54868229046E+01 -0.26827834552E+02  0.79331312989E+01  0.28509165273E+02  0.00000000000E+00 0. -1.
</event>
<event>
 7    1  0.2323330E-008  0.4614232E+02  0.7816164E-02  0.1320468E+00
        -11   -1    0    0    0    0  0.00000000000E+00  0.00000000000E+00  0.45593999997E+02  0.45594000000E+02  0.51100000000E-03 0. -1.
         11   -1    0    0    0    0 -0.00000000000E+00 -0.00000000000E+00 -0.45593999997E+02  0.45594000000E+02  0.51100000000E-03 0.  1.
    9900012    2    1    2    0    0  0.42562394608E+02  0.39829975786E+01 -0.14201821010E+02  0.46142318471E+02  0.10000006469E+02 0.  0.
         12    1    1    2    0    0 -0.42562394608E+02 -0.39829975786E+01  0.14201821010E+02  0.45045681529E+02  0.00000000000E+00 0. -1.
         11    1    3    3    0    0  0.21272279802E+02  0.61543605381E+01 -0.49660415763E+01  0.22694660403E+02  0.51100000000E-03 0. -1.
        -11    1    3    3    0    0  0.29680154462E+01 -0.96229477847E+00 -0.20303688896E+01  0.37225696795E+01  0.51100000000E-03 0.  1.
         12    1    3    3    0    0  0.18322099359E+02 -0.12090681810E+01 -0.72054105439E+01  0.19725088388E+02  0.00000000000E+00 0. -1.
</event>
<event>
 7    1  0.2323330E-008  0.4614232E+02  0.7816164E-02  0.1320468E+00
        -11   -1    0    0    0    0  0.00000000000E+00  0.00000000000E+00  0.45593999997E+02  0.45594000000E+02  0.51100000000E-03 0.  1.
         11   -1    0    0    0    0 -0.00000000000E+00 -0.00000000000E+00 -0.45593999997E+02  0.45594000000E+02  0.51100000000E-03 0. -1.
    9900012    2    1    2    0    0  0.19908421989E+02  0.40164718927E+02  0.44230951689E+01  0.46142315596E+02  0.99999802566E+01 0.  0.
         12    1    1    2    0    0 -0.19908421989E+02 -0.40164718927E+02 -0.44230951689E+01  0.45045684404E+02  0.00000000000E+00 0. -1.
         11    1    3    3    0    0  0.12068513777E+02  0.25437085581E+02  0.10874566690E+01  0.28175821370E+02  0.51100000000E-03 0.  1.
        -11    1    3    3    0    0  0.33412434760E+01  0.11848280992E+02  0.24656392960E+01  0.12554881434E+02  0.51100000000E-03 0. -1.
         12    1    3    3    0    0  0.44986647364E+01  0.28793523538E+01  0.86999920395E+00  0.54116127912E+01  0.00000000000E+00 0. -1.
</event>
<event>
 7    1  0.2323330E-008  0.4614232E+02  0.7816164E-02  0.1320468E+00
        -11   -1    0    0    0    0  0.00000000000E+00  0.00000000000E+00  0.45593999997E+02  0.45594000000E+02  0.51100000000E-03 0.  1.
         11   -1    0    0    0    0 -0.00000000000E+00 -0.00000000000E+00 -0.45593999997E+02  0.45594000000E+02  0.51100000000E-03 0. -1.
    9900012    2    1    2    0    0  0.34666171306E+02  0.28737440118E+02  0.12367682029E+01  0.46142317708E+02  0.99999995180E+01 0.  0.
         12    1    1    2    0    0 -0.34666171306E+02 -0.28737440118E+02 -0.12367682029E+01  0.45045682292E+02  0.00000000000E+00 0. -1.
         11    1    3    3    0    0  0.18902740157E+02  0.14572334800E+02  0.44269089060E+01  0.24274761579E+02  0.51100000000E-03 0. -1.
        -11    1    3    3    0    0  0.78612024004E+01  0.89016568861E+01 -0.79197583313E-01  0.11876206087E+02  0.51100000000E-03 0.  1.
        -12    1    3    3    0    0  0.79022287480E+01  0.52634484317E+01 -0.31109431197E+01  0.99913500426E+01  0.00000000000E+00 0.  1.
</event>
<event>
 7    1  0.2323330E-008  0.4614232E+02  0.7816164E-02  0.1320468E+00
        -11   -1    0    0    0    0  0.00000000000E+00  0.00000000000E+00  0.45593999997E+02  0.45594000000E+02  0.51100000000E-03 0.  1.
         11   -1    0    0    0    0 -0.00000000000E+00 -0.00000000000E+00 -0.45593999997E+02  0.45594000000E+02  0.51100000000E-03 0. -1.
    9900012    2    1    2    0    0  0.19936664153E+02 -0.20073971713E+02  0.35052511338E+02  0.46142317976E+02  0.10000001963E+02 0.  0.
         12    1    1    2    0    0 -0.19936664153E+02  0.20073971713E+02 -0.35052511338E+02  0.45045682024E+02  0.00000000000E+00 0. -1.
         11    1    3    3    0    0  0.29389420696E+01 -0.77101969231E+00  0.25405746573E+01  0.39606024421E+01  0.51100000000E-03 0. -1.
        -11    1    3    3    0    0  0.78954646345E+01 -0.12691013345E+02  0.23098939223E+02  0.27512927416E+02  0.51100000000E-03 0.  1.
        -12    1    3    3    0    0  0.91022574486E+01 -0.66119386756E+01  0.94129974579E+01  0.14668788118E+02  0.00000000000E+00 0.  1.
</event>
<event>
 7    1  0.2323330E-008  0.4614232E+02  0.7816164E-02  0.1320468E+00
        -11   -1    0    0    0    0  0.00000000000E+00  0.00000000000E+00  0.45593999997E+02  0.45594000000E+02  0.51100000000E-03 0.  1.
         11   -1    0    0    0    0 -0.00000000000E+00 -0.00000000000E+00 -0.45593999997E+02  0.45594000000E+02  0.51100000000E-03 0. -1.
    9900012    2    1    2    0    0 -0.43125625830E+02  0.45067717719E+01  0.12205853218E+02  0.46142318211E+02  0.10000004105E+02 0.  0.
         12    1    1    2    0    0  0.43125625830E+02 -0.45067717719E+01 -0.12205853218E+02  0.45045681789E+02  0.00000000000E+00 0. -1.
         11    1    3    3    0    0 -0.33813433095E+00 -0.20420872032E+00 -0.30678037060E+00  0.50015046150E+00  0.51100000000E-03 0. -1.
        -11    1    3    3    0    0 -0.31470430081E+02  0.63692795693E+01  0.11706131492E+02  0.34175857070E+02  0.51100000000E-03 0.  1.
        -12    1    3    3    0    0 -0.11317061418E+02 -0.16582990770E+01  0.80650209670E+00  0.11466310680E+02  0.00000000000E+00 0.  1.
</event>
<event>
 7    1  0.2323330E-008  0.4614232E+02  0.7816164E-02  0.1320468E+00
        -11   -1    0    0    0    0  0.00000000000E+00  0.00000000000E+00  0.45593999997E+02  0.45594000000E+02  0.51100000000E-03 0. -1.
         11   -1    0    0    0    0 -0.00000000000E+00 -0.00000000000E+00 -0.45593999997E+02  0.45594000000E+02  0.51100000000E-03 0.  1.
    9900012    2    1    2    0    0 -0.10640574920E+02  0.17686942519E+01 -0.43735149177E+02  0.46142318880E+02  0.10000010207E+02 0.  0.
         12    1    1    2    0    0  0.10640574920E+02 -0.17686942519E+01  0.43735149177E+02  0.45045681120E+02  0.00000000000E+00 0. -1.
         11    1    3    3    0    0 -0.52692520686E+00  0.16789958860E+00 -0.11005224285E+00  0.56387250576E+00  0.51100000000E-03 0. -1.
        -11    1    3    3    0    0 -0.92796060410E+00 -0.28082404039E+01 -0.81953212438E+01  0.87126698319E+01  0.51100000000E-03 0.  1.
         12    1    3    3    0    0 -0.91856891086E+01  0.44090350671E+01 -0.35429775691E+02  0.36865776543E+02  0.00000000000E+00 0. -1.
</event>
<event>
 7    1  0.2323330E-008  0.4614232E+02  0.7816164E-02  0.1320468E+00
        -11   -1    0    0    0    0  0.00000000000E+00  0.00000000000E+00  0.45593999997E+02  0.45594000000E+02  0.51100000000E-03 0.  1.
         11   -1    0    0    0    0 -0.00000000000E+00 -0.00000000000E+00 -0.45593999997E+02  0.45594000000E+02  0.51100000000E-03 0. -1.
    9900012    2    1    2    0    0  0.60206506940E+01 -0.23187874539E+02  0.38146922942E+02  0.46142317739E+02  0.99999997973E+01 0.  0.
         12    1    1    2    0    0 -0.60206506940E+01  0.23187874539E+02 -0.38146922942E+02  0.45045682261E+02  0.00000000000E+00 0. -1.
         11    1    3    3    0    0  0.19460692187E+01 -0.10348691625E+02  0.13099631848E+02  0.16807229354E+02  0.51100000000E-03 0. -1.
        -11    1    3    3    0    0  0.60009121794E+01 -0.87243449961E+01  0.15630802013E+02  0.18879807054E+02  0.51100000000E-03 0.  1.
         12    1    3    3    0    0 -0.19263307041E+01 -0.41148379184E+01  0.94164890811E+01  0.10455281330E+02  0.00000000000E+00 0. -1.
</event>
<event>
 7    1  0.2323330E-008  0.4614232E+02  0.7816164E-02  0.1320468E+00
        -11   -1    0    0    0    0  0.00000000000E+00  0.00000000000E+00  0.45593999997E+02  0.45594000000E+02  0.51100000000E-03 0.  1.
         11   -1    0    0    0    0 -0.00000000000E+00 -0.00000000000E+00 -0.45593999997E+02  0.45594000000E+02  0.51100000000E-03 0. -1.
    9900012    2    1    2    0    0 -0.11970717461E+02 -0.26895255310E+02  0.34094876571E+02  0.46142318263E+02  0.10000004578E+02 0.  0.
         12    1    1    2    0    0  0.11970717461E+02  0.26895255310E+02 -0.34094876571E+02  0.45045681737E+02  0.00000000000E+00 0. -1.
         11    1    3    3    0    0 -0.83205927381E+00 -0.99508462146E+00  0.33063681171E+00  0.13385951596E+01  0.51100000000E-03 0. -1.
        -11    1    3    3    0    0 -0.63460255831E+01 -0.18152847199E+02  0.28187791362E+02  0.34122565616E+02  0.51100000000E-03 0.  1.
        -12    1    3    3    0    0 -0.47926326039E+01 -0.77473234900E+01  0.55764483979E+01  0.10681157487E+02  0.00000000000E+00 0.  1.
</event>
<event>
 7    1  0.2323330E-008  0.4614232E+02  0.7816164E-02  0.1320468E+00
        -11   -1    0    0    0    0  0.00000000000E+00  0.00000000000E+00  0.45593999997E+02  0.45594000000E+02  0.51100000000E-03 0.  1.
         11   -1    0    0    0    0 -0.00000000000E+00 -0.00000000000E+00 -0.45593999997E+02  0.45594000000E+02  0.51100000000E-03 0. -1.
    9900012    2    1    2    0    0 -0.36326507946E+02 -0.18855973462E+02  0.18813575782E+02  0.46142317094E+02  0.99999939197E+01 0.  0.
         12    1    1    2    0    0  0.36326507946E+02  0.18855973462E+02 -0.18813575782E+02  0.45045682906E+02  0.00000000000E+00 0. -1.
         11    1    3    3    0    0 -0.19084060929E+01 -0.13837397247E+01 -0.11206857346E+00  0.23599383609E+01  0.51100000000E-03 0. -1.
        -11    1    3    3    0    0 -0.58968751609E+01 -0.59900908264E+01  0.64790809193E+01  0.10612860811E+02  0.51100000000E-03 0.  1.
        -12    1    3    3    0    0 -0.28521226692E+02 -0.11482142911E+02  0.12446563436E+02  0.33169517922E+02  0.00000000000E+00 0.  1.
</event>
<event>
 7    1  0.2323330E-008  0.4614232E+02  0.7816164E-02  0.1320468E+00
        -11   -1    0    0    0    0  0.00000000000E+00  0.00000000000E+00  0.45593999997E+02  0.45594000000E+02  0.51100000000E-03 0.  1.
         11   -1    0    0    0    0 -0.00000000000E+00 -0.00000000000E+00 -0.45593999997E+02  0.45594000000E+02  0.51100000000E-03 0. -1.
    9900012    2    1    2    0    0 -0.37947723994E+02  0.17801404476E+02  0.16498290929E+02  0.46142319173E+02  0.10000012872E+02 0.  0.
         12    1    1    2    0    0  0.37947723994E+02 -0.17801404476E+02 -0.16498290929E+02  0.45045680827E+02  0.00000000000E+00 0. -1.
         11    1    3    3    0    0 -0.57001362809E+01  0.45422578125E+01  0.42909468542E+01  0.84578889106E+01  0.51100000000E-03 0. -1.
        -11    1    3    3    0    0 -0.11651913617E+02  0.80081415854E+01  0.26710729069E+01  0.14388608457E+02  0.51100000000E-03 0.  1.
         12    1    3    3    0    0 -0.20595674096E+02  0.52510050778E+01  0.95362711680E+01  0.23295821806E+02  0.00000000000E+00 0. -1.
</event>
<event>
 7    1  0.2323330E-008  0.4614232E+02  0.7816164E-02  0.1320468E+00
        -11   -1    0    0    0    0  0.00000000000E+00  0.00000000000E+00  0.45593999997E+02  0.45594000000E+02  0.51100000000E-03 0.  1.
         11   -1    0    0    0    0 -0.00000000000E+00 -0.00000000000E+00 -0.45593999997E+02  0.45594000000E+02  0.51100000000E-03 0. -1.
    9900012    2    1    2    0    0  0.83656320287E+01  0.35009846932E+02  0.27082097862E+02  0.46142320895E+02  0.10000028573E+02 0.  0.
         12    1    1    2    0    0 -0.83656320287E+01 -0.35009846932E+02 -0.27082097862E+02  0.45045679105E+02  0.00000000000E+00 0. -1.
         11    1    3    3    0    0 -0.15519692508E+00  0.65436684408E+01  0.19356146919E+01  0.68257078201E+01  0.51100000000E-03 0. -1.
        -11    1    3    3    0    0 -0.52894892188E+00  0.42010881580E+01  0.25233065930E+01  0.49290977974E+01  0.51100000000E-03 0.  1.
        -12    1    3    3    0    0  0.90497778756E+01  0.24265090333E+02  0.22623176577E+02  0.34387515277E+02  0.00000000000E+00 0.  1.
</event>
<event>
 7    1  0.2323330E-008  0.4614232E+02  0.7816164E-02  0.1320468E+00
        -11   -1    0    0    0    0  0.00000000000E+00  0.00000000000E+00  0.45593999997E+02  0.45594000000E+02  0.51100000000E-03 0.  1.
         11   -1    0    0    0    0 -0.00000000000E+00 -0.00000000000E+00 -0.45593999997E+02  0.45594000000E+02  0.51100000000E-03 0. -1.
    9900012    2    1    2    0    0  0.31747376257E+02  0.31077714537E+02  0.74426601734E+01  0.46142318403E+02  0.10000005856E+02 0.  0.
         12    1    1    2    0    0 -0.31747376257E+02 -0.31077714537E+02 -0.74426601734E+01  0.45045681597E+02  0.00000000000E+00 0. -1.
         11    1    3    3    0    0  0.99967920770E+01  0.79633490781E+01  0.38033383423E+01  0.13334772708E+02  0.51100000000E-03 0. -1.
        -11    1    3    3    0    0  0.80638990018E+01  0.40057852183E+01 -0.11668396392E+00  0.90047985949E+01  0.51100000000E-03 0.  1.
         12    1    3    3    0    0  0.13686685178E+02  0.19108580241E+02  0.37560057950E+01  0.23802747100E+02  0.00000000000E+00 0. -1.
</event>
<event>
 7    1  0.2323330E-008  0.4614232E+02  0.7816164E-02  0.1320468E+00
        -11   -1    0    0    0    0  0.00000000000E+00  0.00000000000E+00  0.45593999997E+02  0.45594000000E+02  0.51100000000E-03 0.  1.
         11   -1    0    0    0    0 -0.00000000000E+00 -0.00000000000E+00 -0.45593999997E+02  0.45594000000E+02  0.51100000000E-03 0. -1.
    9900012    2    1    2    0    0  0.30372139152E+02 -0.47000480439E+01  0.32932601560E+02  0.46142317257E+02  0.99999954031E+01 0.  0.
         12    1    1    2    0    0 -0.30372139152E+02  0.47000480439E+01 -0.32932601560E+02  0.45045682743E+02  0.00000000000E+00 0. -1.
         11    1    3    3    0    0  0.23958226997E+01  0.32182463756E+00  0.29920388881E+01  0.38465353859E+01  0.51100000000E-03 0. -1.
        -11    1    3    3    0    0  0.93178772986E+01 -0.58253882304E+01  0.13563986328E+02  0.17456795546E+02  0.51100000000E-03 0.  1.
         12    1    3    3    0    0  0.18658439154E+02  0.80351554891E+00  0.16376576344E+02  0.24838986325E+02  0.00000000000E+00 0. -1.
</event>
<event>
 7    1  0.2323330E-008  0.4614233E+02  0.7816164E-02  0.1320468E+00
        -11   -1    0    0    0    0  0.00000000000E+00  0.00000000000E+00  0.45593999997E+02  0.45594000000E+02  0.51100000000E-03 0. -1.
         11   -1    0    0    0    0 -0.00000000000E+00 -0.00000000000E+00 -0.45593999997E+02  0.45594000000E+02  0.51100000000E-03 0.  1.
    9900012    2    1    2    0    0 -0.81503370055E+00  0.24025024196E+02 -0.38095230760E+02  0.46142326798E+02  0.10000082406E+02 0.  0.
         12    1    1    2    0    0  0.81503370055E+00 -0.24025024196E+02  0.38095230760E+02  0.45045673202E+02  0.00000000000E+00 0. -1.
         11    1    3    3    0    0  0.85439759913E+00  0.66415402465E+01 -0.14303539715E+02  0.15793394212E+02  0.51100000000E-03 0. -1.
        -11    1    3    3    0    0 -0.40360362755E+01  0.66452738413E+01 -0.11166396318E+02  0.13606530058E+02  0.51100000000E-03 0.  1.
         12    1    3    3    0    0  0.23666049758E+01  0.10738210108E+02 -0.12625294728E+02  0.16742402528E+02  0.00000000000E+00 0. -1.
</event>
<event>
 7    1  0.2323330E-008  0.4614232E+02  0.7816164E-02  0.1320468E+00
        -11   -1    0    0    0    0  0.00000000000E+00  0.00000000000E+00  0.45593999997E+02  0.45594000000E+02  0.51100000000E-03 0.  1.
         11   -1    0    0    0    0 -0.00000000000E+00 -0.00000000000E+00 -0.45593999997E+02  0.45594000000E+02  0.51100000000E-03 0. -1.
    9900012    2    1    2    0    0  0.34408173732E+02  0.25039473731E+02  0.14772131634E+02  0.46142317218E+02  0.99999950456E+01 0.  0.
         12    1    1    2    0    0 -0.34408173732E+02 -0.25039473731E+02 -0.14772131634E+02  0.45045682782E+02  0.00000000000E+00 0. -1.
         11    1    3    3    0    0  0.63874331853E+01  0.19647992787E+01 -0.66034106746E-01  0.66831205037E+01  0.51100000000E-03 0. -1.
        -11    1    3    3    0    0  0.16313979368E+02  0.10769264549E+02  0.71332008164E+01  0.20808785065E+02  0.51100000000E-03 0.  1.
         12    1    3    3    0    0  0.11706761179E+02  0.12305409903E+02  0.77049649247E+01  0.18650411649E+02  0.00000000000E+00 0. -1.
</event>
<event>
 7    1  0.2323330E-008  0.4614232E+02  0.7816164E-02  0.1320468E+00
        -11   -1    0    0    0    0  0.00000000000E+00  0.00000000000E+00  0.45593999997E+02  0.45594000000E+02  0.51100000000E-03 0.  1.
         11   -1    0    0    0    0 -0.00000000000E+00 -0.00000000000E+00 -0.45593999997E+02  0.45594000000E+02  0.51100000000E-03 0. -1.
    9900012    2    1    2    0    0  0.23462589364E+02 -0.34232979918E+02 -0.17513523059E+02  0.46142317591E+02  0.99999984525E+01 0.  0.
         12    1    1    2    0    0 -0.23462589364E+02  0.34232979918E+02  0.17513523059E+02  0.45045682409E+02  0.00000000000E+00 0. -1.
         11    1    3    3    0    0  0.53215401946E+01 -0.96625896552E+01 -0.39899363541E+01  0.11730474042E+02  0.51100000000E-03 0. -1.
        -11    1    3    3    0    0  0.12198627636E+02 -0.22025323654E+02 -0.10861279037E+02  0.27420590453E+02  0.51100000000E-03 0.  1.
         12    1    3    3    0    0  0.59424215336E+01 -0.25450666092E+01 -0.26623076683E+01  0.69912530957E+01  0.00000000000E+00 0. -1.
</event>
<event>
 7    1  0.2323330E-008  0.4614232E+02  0.7816164E-02  0.1320468E+00
        -11   -1    0    0    0    0  0.00000000000E+00  0.00000000000E+00  0.45593999997E+02  0.45594000000E+02  0.51100000000E-03 0. -1.
         11   -1    0    0    0    0 -0.00000000000E+00 -0.00000000000E+00 -0.45593999997E+02  0.45594000000E+02  0.51100000000E-03 0.  1.
    9900012    2    1    2    0    0 -0.12235049233E+02  0.39679685654E+02 -0.17462519303E+02  0.46142318034E+02  0.10000002489E+02 0.  0.
         12    1    1    2    0    0  0.12235049233E+02 -0.39679685654E+02  0.17462519303E+02  0.45045681966E+02  0.00000000000E+00 0. -1.
         11    1    3    3    0    0 -0.15485160276E+01  0.16907441353E+02 -0.61438947176E+01  0.18055661648E+02  0.51100000000E-03 0. -1.
        -11    1    3    3    0    0 -0.77490082286E+01  0.13830795446E+02 -0.95573829697E+01  0.18511661208E+02  0.51100000000E-03 0.  1.
        -12    1    3    3    0    0 -0.29375249772E+01  0.89414488557E+01 -0.17612416156E+01  0.95749951781E+01  0.00000000000E+00 0.  1.
</event>
<event>
 7    1  0.2323330E-008  0.4614232E+02  0.7816164E-02  0.1320468E+00
        -11   -1    0    0    0    0  0.00000000000E+00  0.00000000000E+00  0.45593999997E+02  0.45594000000E+02  0.51100000000E-03 0.  1.
         11   -1    0    0    0    0 -0.00000000000E+00 -0.00000000000E+00 -0.45593999997E+02  0.45594000000E+02  0.51100000000E-03 0. -1.
    9900012    2    1    2    0    0 -0.30606427055E+02 -0.54472279988E+01  0.32598886713E+02  0.46142322240E+02  0.10000040840E+02 0.  0.
         12    1    1    2    0    0  0.30606427055E+02  0.54472279988E+01 -0.32598886713E+02  0.45045677760E+02  0.00000000000E+00 0. -1.
         11    1    3    3    0    0 -0.67198206373E+01  0.10702896593E+01  0.53890591078E+01  0.86800615021E+01  0.51100000000E-03 0. -1.
        -11    1    3    3    0    0 -0.25568292394E-01 -0.44856144547E+00 -0.30274017290E+00  0.54176838349E+00  0.51100000000E-03 0.  1.
        -12    1    3    3    0    0 -0.23861038125E+02 -0.60689562127E+01  0.27512567778E+02  0.36920492354E+02  0.00000000000E+00 0.  1.
</event>
<event>
 7    1  0.2323330E-008  0.4614232E+02  0.7816164E-02  0.1320468E+00
        -11   -1    0    0    0    0  0.00000000000E+00  0.00000000000E+00  0.45593999997E+02  0.45594000000E+02  0.51100000000E-03 0.  1.
         11   -1    0    0    0    0 -0.00000000000E+00 -0.00000000000E+00 -0.45593999997E+02  0.45594000000E+02  0.51100000000E-03 0. -1.
    9900012    2    1    2    0    0  0.88202793233E+01  0.39733761271E+02  0.19301409336E+02  0.46142317472E+02  0.99999973646E+01 0.  0.
         12    1    1    2    0    0 -0.88202793233E+01 -0.39733761271E+02 -0.19301409336E+02  0.45045682528E+02  0.00000000000E+00 0. -1.
         11    1    3    3    0    0  0.83686506901E+00  0.19014665448E+02  0.64817874406E+01  0.20106501783E+02  0.51100000000E-03 0. -1.
        -11    1    3    3    0    0  0.47200615719E+01  0.16692075198E+02  0.86504732688E+01  0.19383886187E+02  0.51100000000E-03 0.  1.
         12    1    3    3    0    0  0.32633526825E+01  0.40270206241E+01  0.41691486267E+01  0.66519295027E+01  0.00000000000E+00 0. -1.
</event>
<event>
 7    1  0.2323330E-008  0.4614232E+02  0.7816164E-02  0.1320468E+00
        -11   -1    0    0    0    0  0.00000000000E+00  0.00000000000E+00  0.45593999997E+02  0.45594000000E+02  0.51100000000E-03 0.  1.
         11   -1    0    0    0    0 -0.00000000000E+00 -0.00000000000E+00 -0.45593999997E+02  0.45594000000E+02  0.51100000000E-03 0. -1.
    9900012    2    1    2    0    0  0.41501019033E+01  0.38791649868E+02  0.22518835726E+02  0.46142318656E+02  0.10000008162E+02 0.  0.
         12    1    1    2    0    0 -0.41501019033E+01 -0.38791649868E+02 -0.22518835726E+02  0.45045681344E+02  0.00000000000E+00 0. -1.
         11    1    3    3    0    0  0.43151779184E+01  0.77460137577E+01  0.37800506115E+01  0.96389974836E+01  0.51100000000E-03 0. -1.
        -11    1    3    3    0    0  0.15088353200E+01  0.24845583417E+02  0.14464514622E+02  0.28788917709E+02  0.51100000000E-03 0.  1.
         12    1    3    3    0    0 -0.16739113352E+01  0.62000526932E+01  0.42742704920E+01  0.77144034633E+01  0.00000000000E+00 0. -1.
</event>
<event>
 7    1  0.2323330E-008  0.4614232E+02  0.7816164E-02  0.1320468E+00
        -11   -1    0    0    0    0  0.00000000000E+00  0.00000000000E+00  0.45593999997E+02  0.45594000000E+02  0.51100000000E-03 0.  1.
         11   -1    0    0    0    0 -0.00000000000E+00 -0.00000000000E+00 -0.45593999997E+02  0.45594000000E+02  0.51100000000E-03 0. -1.
    9900012    2    1    2    0    0 -0.64228131449E+01 -0.36632105376E+02  0.25415540310E+02  0.46142319161E+02  0.10000012766E+02 0.  0.
         12    1    1    2    0    0  0.64228131449E+01  0.36632105376E+02 -0.25415540310E+02  0.45045680839E+02  0.00000000000E+00 0. -1.
         11    1    3    3    0    0  0.46152808507E-01 -0.24316039371E+01 -0.52175767772E+00  0.24873799718E+01  0.51100000000E-03 0. -1.
        -11    1    3    3    0    0 -0.40575296266E+01 -0.23932591281E+02  0.20585395177E+02  0.31827519020E+02  0.51100000000E-03 0.  1.
        -12    1    3    3    0    0 -0.24114363269E+01 -0.10267910158E+02  0.53519028109E+01  0.11827420170E+02  0.00000000000E+00 0.  1.
</event>
<event>
 7    1  0.2323330E-008  0.4614232E+02  0.7816164E-02  0.1320468E+00
        -11   -1    0    0    0    0  0.00000000000E+00  0.00000000000E+00  0.45593999997E+02  0.45594000000E+02  0.51100000000E-03 0.  1.
         11   -1    0    0    0    0 -0.00000000000E+00 -0.00000000000E+00 -0.45593999997E+02  0.45594000000E+02  0.51100000000E-03 0. -1.
    9900012    2    1    2    0    0  0.21618749423E+02 -0.23676094399E+02  0.31641519930E+02  0.46142317010E+02  0.99999931482E+01 0.  0.
         12    1    1    2    0    0 -0.21618749423E+02  0.23676094399E+02 -0.31641519930E+02  0.45045682990E+02  0.00000000000E+00 0. -1.
         11    1    3    3    0    0  0.56424511771E+01 -0.72155487683E+01  0.45992233412E+01  0.10249597793E+02  0.51100000000E-03 0. -1.
        -11    1    3    3    0    0  0.62141578710E+01 -0.81192330085E+01  0.15836265036E+02  0.18850066133E+02  0.51100000000E-03 0.  1.
        -12    1    3    3    0    0  0.97621403748E+01 -0.83413126222E+01  0.11206031553E+02  0.17042653083E+02  0.00000000000E+00 0.  1.
</event>
<event>
 7    1  0.2323330E-008  0.4614232E+02  0.7816164E-02  0.1320468E+00
        -11   -1    0    0    0    0  0.00000000000E+00  0.00000000000E+00  0.45593999997E+02  0.45594000000E+02  0.51100000000E-03 0. -1.
         11   -1    0    0    0    0 -0.00000000000E+00 -0.00000000000E+00 -0.45593999997E+02  0.45594000000E+02  0.51100000000E-03 0.  1.
    9900012    2    1    2    0    0 -0.29615813253E+01  0.42396486853E+02 -0.14929183160E+02  0.46142316841E+02  0.99999916100E+01 0.  0.
         12    1    1    2    0    0  0.29615813253E+01 -0.42396486853E+02  0.14929183160E+02  0.45045683159E+02  0.00000000000E+00 0. -1.
         11    1    3    3    0    0  0.84966647028E+00  0.44872569676E+01  0.81111747733E+00  0.46384609546E+01  0.51100000000E-03 0. -1.
        -11    1    3    3    0    0 -0.77427743283E+00  0.27608218803E+02 -0.10424725201E+02  0.29520978080E+02  0.51100000000E-03 0.  1.
        -12    1    3    3    0    0 -0.30369703627E+01  0.10301011082E+02 -0.53155754366E+01  0.11982877807E+02  0.00000000000E+00 0.  1.
</event>
<event>
 7    1  0.2323330E-008  0.4614232E+02  0.7816164E-02  0.1320468E+00
        -11   -1    0    0    0    0  0.00000000000E+00  0.00000000000E+00  0.45593999997E+02  0.45594000000E+02  0.51100000000E-03 0.  1.
         11   -1    0    0    0    0 -0.00000000000E+00 -0.00000000000E+00 -0.45593999997E+02  0.45594000000E+02  0.51100000000E-03 0. -1.
    9900012    2    1    2    0    0  0.30645131426E+02 -0.81563755259E+01  0.31991608054E+02  0.46142317324E+02  0.99999960171E+01 0.  0.
         12    1    1    2    0    0 -0.30645131426E+02  0.81563755259E+01 -0.31991608054E+02  0.45045682676E+02  0.00000000000E+00 0. -1.
         11    1    3    3    0    0  0.18011807008E+02 -0.46127065221E+01  0.14129588518E+02  0.23352677044E+02  0.51100000000E-03 0. -1.
        -11    1    3    3    0    0  0.71421539220E+01 -0.30218713492E+00  0.60443321008E+01  0.93613904158E+01  0.51100000000E-03 0.  1.
        -12    1    3    3    0    0  0.54911704958E+01 -0.32414818688E+01  0.11817687435E+02  0.13428249864E+02  0.00000000000E+00 0.  1.
</event>
<event>
 7    1  0.2323330E-008  0.4614232E+02  0.7816164E-02  0.1320468E+00
        -11   -1    0    0    0    0  0.00000000000E+00  0.00000000000E+00  0.45593999997E+02  0.45594000000E+02  0.51100000000E-03 0. -1.
         11   -1    0    0    0    0 -0.00000000000E+00 -0.00000000000E+00 -0.45593999997E+02  0.45594000000E+02  0.51100000000E-03 0.  1.
    9900012    2    1    2    0    0 -0.17698828197E+02 -0.39419255687E+02 -0.12727420976E+02  0.46142317819E+02  0.10000000526E+02 0.  0.
         12    1    1    2    0    0  0.17698828197E+02  0.39419255687E+02  0.12727420976E+02  0.45045682181E+02  0.00000000000E+00 0. -1.
         11    1    3    3    0    0  0.12423930902E+00  0.17857734117E+00  0.12183971345E+00  0.24934002803E+00  0.51100000000E-03 0. -1.
        -11    1    3    3    0    0 -0.12006078848E+02 -0.32074030138E+02 -0.12218572226E+02  0.36361832271E+02  0.51100000000E-03 0.  1.
        -12    1    3    3    0    0 -0.58169886582E+01 -0.75238028899E+01 -0.63068846330E+00  0.95311455194E+01  0.00000000000E+00 0.  1.
</event>
<event>
 7    1  0.2323330E-008  0.4614232E+02  0.7816164E-02  0.1320468E+00
        -11   -1    0    0    0    0  0.00000000000E+00  0.00000000000E+00  0.45593999997E+02  0.45594000000E+02  0.51100000000E-03 0. -1.
         11   -1    0    0    0    0 -0.00000000000E+00 -0.00000000000E+00 -0.45593999997E+02  0.45594000000E+02  0.51100000000E-03 0.  1.
    9900012    2    1    2    0    0  0.24350031649E+02 -0.26388265333E+02  0.27200163454E+02  0.46142317848E+02  0.10000000791E+02 0.  0.
         12    1    1    2    0    0 -0.24350031649E+02  0.26388265333E+02 -0.27200163454E+02  0.45045682152E+02  0.00000000000E+00 0. -1.
         11    1    3    3    0    0  0.10238195450E+02 -0.12862965510E+02  0.14629611070E+02  0.22006863659E+02  0.51100000000E-03 0. -1.
        -11    1    3    3    0    0  0.14518610859E+02 -0.11478810724E+02  0.11504702394E+02  0.21792460493E+02  0.51100000000E-03 0.  1.
        -12    1    3    3    0    0 -0.40677465977E+00 -0.20464890990E+01  0.10658499900E+01  0.23429936955E+01  0.00000000000E+00 0.  1.
</event>
<event>
 7    1  0.2323330E-008  0.4614233E+02  0.7816164E-02  0.1320468E+00
        -11   -1    0    0    0    0  0.00000000000E+00  0.00000000000E+00  0.45593999997E+02  0.45594000000E+02  0.51100000000E-03 0.  1.
         11   -1    0    0    0    0 -0.00000000000E+00 -0.00000000000E+00 -0.45593999997E+02  0.45594000000E+02  0.51100000000E-03 0. -1.
    9900012    2    1    2    0    0 -0.12338064847E+02 -0.18685402375E+02  0.39086319832E+02  0.46142328686E+02  0.10000099625E+02 0.  0.
         12    1    1    2    0    0  0.12338064847E+02  0.18685402375E+02 -0.39086319832E+02  0.45045671314E+02  0.00000000000E+00 0. -1.
         11    1    3    3    0    0 -0.69796210917E+01 -0.61041017455E+01  0.11812049366E+02  0.15016646736E+02  0.51100000000E-03 0. -1.
        -11    1    3    3    0    0 -0.57663857268E+01 -0.12731483326E+02  0.27321052572E+02  0.30688463401E+02  0.51100000000E-03 0.  1.
         12    1    3    3    0    0  0.40794197143E+00  0.15018269593E+00 -0.46782106548E-01  0.43721854913E+00  0.00000000000E+00 0. -1.
</event>
<event>
 7    1  0.2323330E-008  0.4614232E+02  0.7816164E-02  0.1320468E+00
        -11   -1    0    0    0    0  0.00000000000E+00  0.00000000000E+00  0.45593999997E+02  0.45594000000E+02  0.51100000000E-03 0.  1.
         11   -1    0    0    0    0 -0.00000000000E+00 -0.00000000000E+00 -0.45593999997E+02  0.45594000000E+02  0.51100000000E-03 0. -1.
    9900012    2    1    2    0    0  0.42055433760E+02 -0.91590371254E+01 -0.13287814480E+02  0.46142317816E+02  0.10000000501E+02 0.  0.
         12    1    1    2    0    0 -0.42055433760E+02  0.91590371254E+01  0.13287814480E+02  0.45045682184E+02  0.00000000000E+00 0. -1.
         11    1    3    3    0    0  0.29469293542E+02 -0.62877325739E+01 -0.97363232226E+01  0.31666557012E+02  0.51100000000E-03 0. -1.
        -11    1    3    3    0    0  0.26135505592E+01 -0.14303794037E+01 -0.32303150350E+01  0.43944928320E+01  0.51100000000E-03 0.  1.
         12    1    3    3    0    0  0.99725896579E+01 -0.14409251478E+01 -0.32117622209E+00  0.10081267972E+02  0.00000000000E+00 0. -1.
</event>
<event>
 7    1  0.2323330E-008  0.4614232E+02  0.7816164E-02  0.1320468E+00
        -11   -1    0    0    0    0  0.00000000000E+00  0.00000000000E+00  0.45593999997E+02  0.45594000000E+02  0.51100000000E-03 0.  1.
         11   -1    0    0    0    0 -0.00000000000E+00 -0.00000000000E+00 -0.45593999997E+02  0.45594000000E+02  0.51100000000E-03 0. -1.
    9900012    2    1    2    0    0 -0.44887078370E+01  0.24117905922E+02  0.37779513484E+02  0.46142317374E+02  0.99999964738E+01 0.  0.
         12    1    1    2    0    0  0.44887078370E+01 -0.24117905922E+02 -0.37779513484E+02  0.45045682626E+02  0.00000000000E+00 0. -1.
         11    1    3    3    0    0 -0.10495309617E+01  0.14710309446E+01  0.32038184500E+01  0.36783012657E+01  0.51100000000E-03 0. -1.
        -11    1    3    3    0    0 -0.60201223704E+01  0.18102374916E+02  0.23921284770E+02  0.30596825264E+02  0.51100000000E-03 0.  1.
         12    1    3    3    0    0  0.25809454951E+01  0.45445000611E+01  0.10654410264E+02  0.11867190844E+02  0.00000000000E+00 0. -1.
</event>
<event>
 7    1  0.2323330E-008  0.4614232E+02  0.7816164E-02  0.1320468E+00
        -11   -1    0    0    0    0  0.00000000000E+00  0.00000000000E+00  0.45593999997E+02  0.45594000000E+02  0.51100000000E-03 0.  1.
         11   -1    0    0    0    0 -0.00000000000E+00 -0.00000000000E+00 -0.45593999997E+02  0.45594000000E+02  0.51100000000E-03 0. -1.
    9900012    2    1    2    0    0 -0.10569166394E+01 -0.32467045826E+02  0.31207166726E+02  0.46142318825E+02  0.10000009700E+02 0.  0.
         12    1    1    2    0    0  0.10569166394E+01  0.32467045826E+02 -0.31207166726E+02  0.45045681175E+02  0.00000000000E+00 0. -1.
         11    1    3    3    0    0 -0.12814014446E+01 -0.99043394496E+01  0.77220627877E+01  0.12624111199E+02  0.51100000000E-03 0. -1.
        -11    1    3    3    0    0 -0.15094368513E+01 -0.22056882587E+02  0.21746109199E+02  0.31010929277E+02  0.51100000000E-03 0.  1.
         12    1    3    3    0    0  0.17339216565E+01 -0.50582378930E+00  0.17389947400E+01  0.25072783496E+01  0.00000000000E+00 0. -1.
</event>
<event>
 7    1  0.2323330E-008  0.4614232E+02  0.7816164E-02  0.1320468E+00
        -11   -1    0    0    0    0  0.00000000000E+00  0.00000000000E+00  0.45593999997E+02  0.45594000000E+02  0.51100000000E-03 0.  1.
         11   -1    0    0    0    0 -0.00000000000E+00 -0.00000000000E+00 -0.45593999997E+02  0.45594000000E+02  0.51100000000E-03 0. -1.
    9900012    2    1    2    0    0 -0.38582045287E+02 -0.82461682699E+01  0.21737985523E+02  0.46142317363E+02  0.99999963681E+01 0.  0.
         12    1    1    2    0    0  0.38582045287E+02  0.82461682699E+01 -0.21737985523E+02  0.45045682637E+02  0.00000000000E+00 0. -1.
         11    1    3    3    0    0 -0.15216514710E+02 -0.52356680161E+01  0.69905219399E+01  0.17544854993E+02  0.51100000000E-03 0. -1.
        -11    1    3    3    0    0 -0.60946050399E+01 -0.18628486690E+01  0.91080626996E+00  0.64377002166E+01  0.51100000000E-03 0.  1.
         12    1    3    3    0    0 -0.17270925537E+02 -0.11476515849E+01  0.13836657313E+02  0.22159762153E+02  0.00000000000E+00 0. -1.
</event>
<event>
 7    1  0.2323330E-008  0.4614232E+02  0.7816164E-02  0.1320468E+00
        -11   -1    0    0    0    0  0.00000000000E+00  0.00000000000E+00  0.45593999997E+02  0.45594000000E+02  0.51100000000E-03 0.  1.
         11   -1    0    0    0    0 -0.00000000000E+00 -0.00000000000E+00 -0.45593999997E+02  0.45594000000E+02  0.51100000000E-03 0. -1.
    9900012    2    1    2    0    0  0.23440765290E+02 -0.18107242048E+02  0.33937765702E+02  0.46142316158E+02  0.99999853776E+01 0.  0.
         12    1    1    2    0    0 -0.23440765290E+02  0.18107242048E+02 -0.33937765702E+02  0.45045683842E+02  0.00000000000E+00 0. -1.
         11    1    3    3    0    0  0.50498369833E+00 -0.33585408620E+01  0.54780999595E+01  0.64454933624E+01  0.51100000000E-03 0. -1.
        -11    1    3    3    0    0  0.13394247244E+02 -0.86435164143E+01  0.13227108371E+02  0.20714068440E+02  0.51100000000E-03 0.  1.
        -12    1    3    3    0    0  0.95415343477E+01 -0.61051847722E+01  0.15232557372E+02  0.18982754355E+02  0.00000000000E+00 0.  1.
</event>
<event>
 7    1  0.2323330E-008  0.4614232E+02  0.7816164E-02  0.1320468E+00
        -11   -1    0    0    0    0  0.00000000000E+00  0.00000000000E+00  0.45593999997E+02  0.45594000000E+02  0.51100000000E-03 0.  1.
         11   -1    0    0    0    0 -0.00000000000E+00 -0.00000000000E+00 -0.45593999997E+02  0.45594000000E+02  0.51100000000E-03 0. -1.
    9900012    2    1    2    0    0 -0.17700178865E+02  0.41109749028E+02  0.50799312166E+01  0.46142317652E+02  0.99999990095E+01 0.  0.
         12    1    1    2    0    0  0.17700178865E+02 -0.41109749028E+02 -0.50799312166E+01  0.45045682348E+02  0.00000000000E+00 0. -1.
         11    1    3    3    0    0 -0.73858741265E+01  0.19195049834E+02  0.25169564386E+01  0.20720428198E+02  0.51100000000E-03 0. -1.
        -11    1    3    3    0    0 -0.99707022807E+01  0.18106226433E+02 -0.25528982061E+00  0.20671611276E+02  0.51100000000E-03 0.  1.
         12    1    3    3    0    0 -0.34360245814E+00  0.38084727611E+01  0.28182645987E+01  0.47502781781E+01  0.00000000000E+00 0. -1.
</event>
<event>
 7    1  0.2323330E-008  0.4614232E+02  0.7816164E-02  0.1320468E+00
        -11   -1    0    0    0    0  0.00000000000E+00  0.00000000000E+00  0.45593999997E+02  0.45594000000E+02  0.51100000000E-03 0.  1.
         11   -1    0    0    0    0 -0.00000000000E+00 -0.00000000000E+00 -0.45593999997E+02  0.45594000000E+02  0.51100000000E-03 0. -1.
    9900012    2    1    2    0    0 -0.96828505456E+01 -0.34604764800E+02  0.27163691367E+02  0.46142317962E+02  0.10000001832E+02 0.  0.
         12    1    1    2    0    0  0.96828505456E+01  0.34604764800E+02 -0.27163691367E+02  0.45045682038E+02  0.00000000000E+00 0. -1.
         11    1    3    3    0    0 -0.47127584098E+01 -0.20037006373E+02  0.11975975124E+02  0.23814191077E+02  0.51100000000E-03 0. -1.
        -11    1    3    3    0    0 -0.10033905559E+01 -0.26594885414E+01  0.30429312460E+00  0.28587176279E+01  0.51100000000E-03 0.  1.
        -12    1    3    3    0    0 -0.39667015799E+01 -0.11908269886E+02  0.14883423118E+02  0.19469409257E+02  0.00000000000E+00 0.  1.
</event>
<event>
 7    1  0.2323330E-008  0.4614232E+02  0.7816164E-02  0.1320468E+00
        -11   -1    0    0    0    0  0.00000000000E+00  0.00000000000E+00  0.45593999997E+02  0.45594000000E+02  0.51100000000E-03 0. -1.
         11   -1    0    0    0    0 -0.00000000000E+00 -0.00000000000E+00 -0.45593999997E+02  0.45594000000E+02  0.51100000000E-03 0.  1.
    9900012    2    1    2    0    0  0.35195364331E+02  0.41118374646E+01 -0.27811734728E+02  0.46142318006E+02  0.10000002234E+02 0.  0.
         12    1    1    2    0    0 -0.35195364331E+02 -0.41118374646E+01  0.27811734728E+02  0.45045681994E+02  0.00000000000E+00 0. -1.
         11    1    3    3    0    0  0.42383374312E+01  0.30824286093E+01 -0.51482291427E+01  0.73463687547E+01  0.51100000000E-03 0. -1.
        -11    1    3    3    0    0  0.22276059874E+01  0.16093307924E+01 -0.21673267547E+01  0.34999256503E+01  0.51100000000E-03 0.  1.
        -12    1    3    3    0    0  0.28729420912E+02 -0.57992193710E+00 -0.20496178830E+02  0.35296023601E+02  0.00000000000E+00 0.  1.
</event>
<event>
 7    1  0.2323330E-008  0.4614232E+02  0.7816164E-02  0.1320468E+00
        -11   -1    0    0    0    0  0.00000000000E+00  0.00000000000E+00  0.45593999997E+02  0.45594000000E+02  0.51100000000E-03 0.  1.
         11   -1    0    0    0    0 -0.00000000000E+00 -0.00000000000E+00 -0.45593999997E+02  0.45594000000E+02  0.51100000000E-03 0. -1.
    9900012    2    1    2    0    0 -0.38658585877E+02  0.21405359312E+02  0.87428712618E+01  0.46142317996E+02  0.10000002143E+02 0.  0.
         12    1    1    2    0    0  0.38658585877E+02 -0.21405359312E+02 -0.87428712618E+01  0.45045682004E+02  0.00000000000E+00 0. -1.
         11    1    3    3    0    0 -0.12157247988E+02  0.10420824829E+02  0.20676967218E+01  0.16145204822E+02  0.51100000000E-03 0. -1.
        -11    1    3    3    0    0 -0.83345329415E+01  0.56668137207E+01  0.41531879135E+01  0.10900742507E+02  0.51100000000E-03 0.  1.
        -12    1    3    3    0    0 -0.18166804947E+02  0.53177207629E+01  0.25219866264E+01  0.19096370667E+02  0.00000000000E+00 0.  1.
</event>
<event>
 7    1  0.2323330E-008  0.4614232E+02  0.7816164E-02  0.1320468E+00
        -11   -1    0    0    0    0  0.00000000000E+00  0.00000000000E+00  0.45593999997E+02  0.45594000000E+02  0.51100000000E-03 0.  1.
         11   -1    0    0    0    0 -0.00000000000E+00 -0.00000000000E+00 -0.45593999997E+02  0.45594000000E+02  0.51100000000E-03 0. -1.
    9900012    2    1    2    0    0 -0.17643945298E+02 -0.39787734593E+02 -0.11607792672E+02  0.46142317849E+02  0.10000000804E+02 0.  0.
         12    1    1    2    0    0  0.17643945298E+02  0.39787734593E+02  0.11607792672E+02  0.45045682151E+02  0.00000000000E+00 0. -1.
         11    1    3    3    0    0 -0.16879751190E+02 -0.29198769468E+02 -0.67987268346E+01  0.34405186026E+02  0.51100000000E-03 0.  1.
        -11    1    3    3    0    0  0.15320858607E+00 -0.36787732328E+01 -0.11099372909E+01  0.38456217209E+01  0.51100000000E-03 0. -1.
        -12    1    3    3    0    0 -0.91740269460E+00 -0.69101918918E+01 -0.36991285469E+01  0.78915101021E+01  0.00000000000E+00 0.  1.
</event>
<event>
 7    1  0.2323330E-008  0.4614232E+02  0.7816164E-02  0.1320468E+00
        -11   -1    0    0    0    0  0.00000000000E+00  0.00000000000E+00  0.45593999997E+02  0.45594000000E+02  0.51100000000E-03 0.  1.
         11   -1    0    0    0    0 -0.00000000000E+00 -0.00000000000E+00 -0.45593999997E+02  0.45594000000E+02  0.51100000000E-03 0. -1.
    9900012    2    1    2    0    0  0.26114362834E+02  0.20603512415E+02  0.30375128582E+02  0.46142322001E+02  0.10000038660E+02 0.  0.
         12    1    1    2    0    0 -0.26114362834E+02 -0.20603512415E+02 -0.30375128582E+02  0.45045677999E+02  0.00000000000E+00 0. -1.
         11    1    3    3    0    0  0.20218934785E+01  0.46607153204E+00  0.27864084155E+01  0.34740967215E+01  0.51100000000E-03 0. -1.
        -11    1    3    3    0    0  0.20354858252E+02  0.13594431385E+02  0.24150157939E+02  0.34385446745E+02  0.51100000000E-03 0.  1.
        -12    1    3    3    0    0  0.37376111037E+01  0.65430094979E+01  0.34385622270E+01  0.82827785338E+01  0.00000000000E+00 0.  1.
</event>
<event>
 7    1  0.2323330E-008  0.4614231E+02  0.7816164E-02  0.1320468E+00
        -11   -1    0    0    0    0  0.00000000000E+00  0.00000000000E+00  0.45593999997E+02  0.45594000000E+02  0.51100000000E-03 0.  1.
         11   -1    0    0    0    0 -0.00000000000E+00 -0.00000000000E+00 -0.45593999997E+02  0.45594000000E+02  0.51100000000E-03 0. -1.
    9900012    2    1    2    0    0 -0.43222330015E+02  0.12042498442E+02 -0.39902844233E+01  0.46142312632E+02  0.99999532323E+01 0.  0.
         12    1    1    2    0    0  0.43222330015E+02 -0.12042498442E+02  0.39902844233E+01  0.45045687368E+02  0.00000000000E+00 0. -1.
         11    1    3    3    0    0 -0.11903775159E+02  0.36851824818E+01 -0.11007694578E+01  0.12509681316E+02  0.51100000000E-03 0. -1.
        -11    1    3    3    0    0 -0.29462443939E+02  0.87309503898E+01 -0.46119172585E+01  0.31073057117E+02  0.51100000000E-03 0.  1.
         12    1    3    3    0    0 -0.18561109171E+01 -0.37363442939E+00  0.17224022931E+01  0.25595741994E+01  0.00000000000E+00 0. -1.
</event>
<event>
 7    1  0.2323330E-008  0.4614232E+02  0.7816164E-02  0.1320468E+00
        -11   -1    0    0    0    0  0.00000000000E+00  0.00000000000E+00  0.45593999997E+02  0.45594000000E+02  0.51100000000E-03 0.  1.
         11   -1    0    0    0    0 -0.00000000000E+00 -0.00000000000E+00 -0.45593999997E+02  0.45594000000E+02  0.51100000000E-03 0. -1.
    9900012    2    1    2    0    0 -0.13258239622E+01  0.13907703093E+02  0.42824426229E+02  0.46142317672E+02  0.99999991895E+01 0.  0.
         12    1    1    2    0    0  0.13258239622E+01 -0.13907703093E+02 -0.42824426229E+02  0.45045682328E+02  0.00000000000E+00 0. -1.
         11    1    3    3    0    0 -0.20089391465E+01  0.55616108739E+01  0.25625146908E+02  0.26298583732E+02  0.51100000000E-03 0. -1.
        -11    1    3    3    0    0  0.13055276091E+01  0.27984374582E+00  0.52229164776E+01  0.53908785605E+01  0.51100000000E-03 0.  1.
         12    1    3    3    0    0 -0.62241242473E+00  0.80662484731E+01  0.11976362844E+02  0.14452855380E+02  0.00000000000E+00 0. -1.
</event>
<event>
 7    1  0.2323330E-008  0.4614232E+02  0.7816164E-02  0.1320468E+00
        -11   -1    0    0    0    0  0.00000000000E+00  0.00000000000E+00  0.45593999997E+02  0.45594000000E+02  0.51100000000E-03 0. -1.
         11   -1    0    0    0    0 -0.00000000000E+00 -0.00000000000E+00 -0.45593999997E+02  0.45594000000E+02  0.51100000000E-03 0.  1.
    9900012    2    1    2    0    0 -0.32671546738E+02 -0.66776735571E+01 -0.30283529516E+02  0.46142318183E+02  0.10000003850E+02 0.  0.
         12    1    1    2    0    0  0.32671546738E+02  0.66776735571E+01  0.30283529516E+02  0.45045681817E+02  0.00000000000E+00 0. -1.
         11    1    3    3    0    0 -0.88697455349E+01 -0.84522776902E+00 -0.12443275698E+02  0.15304310053E+02  0.51100000000E-03 0. -1.
        -11    1    3    3    0    0 -0.16435587249E+02 -0.13120864345E+01 -0.11070639655E+02  0.19859737201E+02  0.51100000000E-03 0.  1.
        -12    1    3    3    0    0 -0.73662139539E+01 -0.45203593535E+01 -0.67696141622E+01  0.10978270930E+02  0.00000000000E+00 0.  1.
</event>
<event>
 7    1  0.2323330E-008  0.4614232E+02  0.7816164E-02  0.1320468E+00
        -11   -1    0    0    0    0  0.00000000000E+00  0.00000000000E+00  0.45593999997E+02  0.45594000000E+02  0.51100000000E-03 0. -1.
         11   -1    0    0    0    0 -0.00000000000E+00 -0.00000000000E+00 -0.45593999997E+02  0.45594000000E+02  0.51100000000E-03 0.  1.
    9900012    2    1    2    0    0  0.44795983636E+02 -0.36217783704E+01  0.30522286170E+01  0.46142317322E+02  0.99999959913E+01 0.  0.
         12    1    1    2    0    0 -0.44795983636E+02  0.36217783704E+01 -0.30522286170E+01  0.45045682678E+02  0.00000000000E+00 0. -1.
         11    1    3    3    0    0  0.16327826020E+02 -0.40107956485E+01 -0.90622258124E+00  0.16837625245E+02  0.51100000000E-03 0. -1.
        -11    1    3    3    0    0  0.22960584878E+02 -0.10641679640E+01  0.13086630946E+01  0.23022456662E+02  0.51100000000E-03 0.  1.
         12    1    3    3    0    0  0.55075727383E+01  0.14531852421E+01  0.26497881036E+01  0.62822354150E+01  0.00000000000E+00 0. -1.
</event>
<event>
 7    1  0.2323330E-008  0.4614232E+02  0.7816164E-02  0.1320468E+00
        -11   -1    0    0    0    0  0.00000000000E+00  0.00000000000E+00  0.45593999997E+02  0.45594000000E+02  0.51100000000E-03 0.  1.
         11   -1    0    0    0    0 -0.00000000000E+00 -0.00000000000E+00 -0.45593999997E+02  0.45594000000E+02  0.51100000000E-03 0. -1.
    9900012    2    1    2    0    0 -0.29063481113E+02  0.33299497055E+02  0.86931605409E+01  0.46142317869E+02  0.10000000981E+02 0.  0.
         12    1    1    2    0    0  0.29063481113E+02 -0.33299497055E+02 -0.86931605409E+01  0.45045682131E+02  0.00000000000E+00 0. -1.
         11    1    3    3    0    0 -0.19540283904E+01  0.43016360393E+01  0.22722823726E+01  0.52426679284E+01  0.51100000000E-03 0. -1.
        -11    1    3    3    0    0 -0.21338262468E+02  0.25748830997E+02  0.72702313028E+01  0.34222507306E+02  0.51100000000E-03 0.  1.
         12    1    3    3    0    0 -0.57711902537E+01  0.32490300189E+01 -0.84935313458E+00  0.66771426340E+01  0.00000000000E+00 0. -1.
</event>
<event>
 7    1  0.2323330E-008  0.4614232E+02  0.7816164E-02  0.1320468E+00
        -11   -1    0    0    0    0  0.00000000000E+00  0.00000000000E+00  0.45593999997E+02  0.45594000000E+02  0.51100000000E-03 0. -1.
         11   -1    0    0    0    0 -0.00000000000E+00 -0.00000000000E+00 -0.45593999997E+02  0.45594000000E+02  0.51100000000E-03 0.  1.
    9900012    2    1    2    0    0  0.30143905925E+01  0.37625376911E+02 -0.24583692186E+02  0.46142318078E+02  0.10000002890E+02 0.  0.
         12    1    1    2    0    0 -0.30143905925E+01 -0.37625376911E+02  0.24583692186E+02  0.45045681922E+02  0.00000000000E+00 0. -1.
         11    1    3    3    0    0 -0.85190934743E-02  0.49137951108E+01 -0.10715682213E+01  0.50292856033E+01  0.51100000000E-03 0. -1.
        -11    1    3    3    0    0  0.67986834902E+00  0.28369192139E+02 -0.17516695898E+02  0.33348282100E+02  0.51100000000E-03 0.  1.
         12    1    3    3    0    0  0.23430413370E+01  0.43423896611E+01 -0.59954280668E+01  0.77647503746E+01  0.00000000000E+00 0. -1.
</event>
<event>
 7    1  0.2323330E-008  0.4614232E+02  0.7816164E-02  0.1320468E+00
        -11   -1    0    0    0    0  0.00000000000E+00  0.00000000000E+00  0.45593999997E+02  0.45594000000E+02  0.51100000000E-03 0.  1.
         11   -1    0    0    0    0 -0.00000000000E+00 -0.00000000000E+00 -0.45593999997E+02  0.45594000000E+02  0.51100000000E-03 0. -1.
    9900012    2    1    2    0    0  0.17999220623E+02 -0.28168889616E+02  0.30193629220E+02  0.46142317291E+02  0.99999957140E+01 0.  0.
         12    1    1    2    0    0 -0.17999220623E+02  0.28168889616E+02 -0.30193629220E+02  0.45045682709E+02  0.00000000000E+00 0. -1.
         11    1    3    3    0    0  0.10802107276E+02 -0.15874087281E+02  0.22748743251E+02  0.29768733402E+02  0.51100000000E-03 0. -1.
        -11    1    3    3    0    0  0.28175467625E+01 -0.33649611582E+01  0.37190387507E+01  0.57526326882E+01  0.51100000000E-03 0.  1.
         12    1    3    3    0    0  0.43795665854E+01 -0.89298411768E+01  0.37258472180E+01  0.10620951201E+02  0.00000000000E+00 0. -1.
</event>
<event>
 7    1  0.2323330E-008  0.4614232E+02  0.7816164E-02  0.1320468E+00
        -11   -1    0    0    0    0  0.00000000000E+00  0.00000000000E+00  0.45593999997E+02  0.45594000000E+02  0.51100000000E-03 0. -1.
         11   -1    0    0    0    0 -0.00000000000E+00 -0.00000000000E+00 -0.45593999997E+02  0.45594000000E+02  0.51100000000E-03 0.  1.
    9900012    2    1    2    0    0 -0.35581373777E+02 -0.23486588932E+02 -0.14541645496E+02  0.46142317929E+02  0.10000001530E+02 0.  0.
         12    1    1    2    0    0  0.35581373777E+02  0.23486588932E+02  0.14541645496E+02  0.45045682071E+02  0.00000000000E+00 0. -1.
         11    1    3    3    0    0 -0.14971702180E+02 -0.69086276121E+01 -0.95828282528E+01  0.19071224377E+02  0.51100000000E-03 0. -1.
        -11    1    3    3    0    0 -0.13554379810E+02 -0.91496868554E+01 -0.26105200146E+01  0.16560579597E+02  0.51100000000E-03 0.  1.
        -12    1    3    3    0    0 -0.70552917869E+01 -0.74282744648E+01 -0.23482972289E+01  0.10510513955E+02  0.00000000000E+00 0.  1.
</event>
<event>
 7    1  0.2323330E-008  0.4614232E+02  0.7816164E-02  0.1320468E+00
        -11   -1    0    0    0    0  0.00000000000E+00  0.00000000000E+00  0.45593999997E+02  0.45594000000E+02  0.51100000000E-03 0.  1.
         11   -1    0    0    0    0 -0.00000000000E+00 -0.00000000000E+00 -0.45593999997E+02  0.45594000000E+02  0.51100000000E-03 0. -1.
    9900012    2    1    2    0    0 -0.20477286339E+02  0.13482596160E+01  0.40099580560E+02  0.46142318510E+02  0.10000006830E+02 0.  0.
         12    1    1    2    0    0  0.20477286339E+02 -0.13482596160E+01 -0.40099580560E+02  0.45045681490E+02  0.00000000000E+00 0. -1.
         11    1    3    3    0    0 -0.18580133353E+02  0.37286238210E+01  0.31513915422E+02  0.36772963662E+02  0.51100000000E-03 0.  1.
        -11    1    3    3    0    0 -0.15396577001E+01 -0.46914555554E+00  0.54229126928E+01  0.56567327779E+01  0.51100000000E-03 0. -1.
        -12    1    3    3    0    0 -0.35749528611E+00 -0.19112186494E+01  0.31627524449E+01  0.37126220698E+01  0.00000000000E+00 0.  1.
</event>
<event>
 7    1  0.2323330E-008  0.4614232E+02  0.7816164E-02  0.1320468E+00
        -11   -1    0    0    0    0  0.00000000000E+00  0.00000000000E+00  0.45593999997E+02  0.45594000000E+02  0.51100000000E-03 0.  1.
         11   -1    0    0    0    0 -0.00000000000E+00 -0.00000000000E+00 -0.45593999997E+02  0.45594000000E+02  0.51100000000E-03 0. -1.
    9900012    2    1    2    0    0 -0.26493440255E+02  0.29054271563E+02 -0.21978635659E+02  0.46142317654E+02  0.99999990204E+01 0.  0.
         12    1    1    2    0    0  0.26493440255E+02 -0.29054271563E+02  0.21978635659E+02  0.45045682346E+02  0.00000000000E+00 0. -1.
         11    1    3    3    0    0 -0.14144858481E+02  0.12770228944E+02 -0.14542799957E+02  0.23971833463E+02  0.51100000000E-03 0. -1.
        -11    1    3    3    0    0 -0.69894540286E+01  0.60978293709E+01 -0.44036688212E+01  0.10267827911E+02  0.51100000000E-03 0.  1.
         12    1    3    3    0    0 -0.53591277454E+01  0.10186213248E+02 -0.30321668810E+01  0.11902656280E+02  0.00000000000E+00 0. -1.
</event>
<event>
 7    1  0.2323330E-008  0.4614232E+02  0.7816164E-02  0.1320468E+00
        -11   -1    0    0    0    0  0.00000000000E+00  0.00000000000E+00  0.45593999997E+02  0.45594000000E+02  0.51100000000E-03 0.  1.
         11   -1    0    0    0    0 -0.00000000000E+00 -0.00000000000E+00 -0.45593999997E+02  0.45594000000E+02  0.51100000000E-03 0. -1.
    9900012    2    1    2    0    0 -0.42399971334E+01  0.33687396932E+02  0.29602284829E+02  0.46142317023E+02  0.99999932706E+01 0.  0.
         12    1    1    2    0    0  0.42399971334E+01 -0.33687396932E+02 -0.29602284829E+02  0.45045682977E+02  0.00000000000E+00 0. -1.
         11    1    3    3    0    0  0.16523732868E+01  0.13525446923E+02  0.12063196264E+02  0.18198592152E+02  0.51100000000E-03 0.  1.
        -11    1    3    3    0    0 -0.33955988952E+00 -0.61760147004E-01 -0.26362311565E+00  0.43429557050E+00  0.51100000000E-03 0. -1.
        -12    1    3    3    0    0 -0.55528105306E+01  0.20223710156E+02  0.17802711681E+02  0.27509429301E+02  0.00000000000E+00 0.  1.
</event>
<event>
 7    1  0.2323330E-008  0.4614232E+02  0.7816164E-02  0.1320468E+00
        -11   -1    0    0    0    0  0.00000000000E+00  0.00000000000E+00  0.45593999997E+02  0.45594000000E+02  0.51100000000E-03 0.  1.
         11   -1    0    0    0    0 -0.00000000000E+00 -0.00000000000E+00 -0.45593999997E+02  0.45594000000E+02  0.51100000000E-03 0. -1.
    9900012    2    1    2    0    0 -0.13261640916E+02  0.14603082467E+02  0.40496815924E+02  0.46142320548E+02  0.10000025411E+02 0.  0.
         12    1    1    2    0    0  0.13261640916E+02 -0.14603082467E+02 -0.40496815924E+02  0.45045679452E+02  0.00000000000E+00 0. -1.
         11    1    3    3    0    0  0.23957679488E+00  0.20541674248E+01  0.83625547236E+01  0.86144833053E+01  0.51100000000E-03 0. -1.
        -11    1    3    3    0    0 -0.70577020777E+01  0.27837337298E+01  0.14510982098E+02  0.16374643013E+02  0.51100000000E-03 0.  1.
         12    1    3    3    0    0 -0.64435156329E+01  0.97651813128E+01  0.17623279102E+02  0.21153194229E+02  0.00000000000E+00 0. -1.
</event>
<event>
 7    1  0.2323330E-008  0.4614232E+02  0.7816164E-02  0.1320468E+00
        -11   -1    0    0    0    0  0.00000000000E+00  0.00000000000E+00  0.45593999997E+02  0.45594000000E+02  0.51100000000E-03 0. -1.
         11   -1    0    0    0    0 -0.00000000000E+00 -0.00000000000E+00 -0.45593999997E+02  0.45594000000E+02  0.51100000000E-03 0.  1.
    9900012    2    1    2    0    0  0.18162938111E+01 -0.39249946505E+01 -0.44837584480E+02  0.46142317762E+02  0.10000000013E+02 0.  0.
         12    1    1    2    0    0 -0.18162938111E+01  0.39249946505E+01  0.44837584480E+02  0.45045682238E+02  0.00000000000E+00 0. -1.
         11    1    3    3    0    0  0.24338990354E+01 -0.33724317005E+01 -0.32646782981E+02  0.32910630492E+02  0.51100000000E-03 0. -1.
        -11    1    3    3    0    0  0.12067378082E-01 -0.91168934432E+00 -0.12433778047E+02  0.12467163265E+02  0.51100000000E-03 0.  1.
         12    1    3    3    0    0 -0.62967260232E+00  0.35912639434E+00  0.24297654781E+00  0.76452400617E+00  0.00000000000E+00 0. -1.
</event>
<event>
 7    1  0.2323330E-008  0.4614232E+02  0.7816164E-02  0.1320468E+00
        -11   -1    0    0    0    0  0.00000000000E+00  0.00000000000E+00  0.45593999997E+02  0.45594000000E+02  0.51100000000E-03 0. -1.
         11   -1    0    0    0    0 -0.00000000000E+00 -0.00000000000E+00 -0.45593999997E+02  0.45594000000E+02  0.51100000000E-03 0.  1.
    9900012    2    1    2    0    0 -0.14637567366E+02 -0.25814714006E+02 -0.33888871681E+02  0.46142318060E+02  0.10000002730E+02 0.  0.
         12    1    1    2    0    0  0.14637567366E+02  0.25814714006E+02  0.33888871681E+02  0.45045681940E+02  0.00000000000E+00 0. -1.
         11    1    3    3    0    0 -0.94919605099E+01 -0.15079409492E+02 -0.14301084898E+02  0.22847471074E+02  0.51100000000E-03 0.  1.
        -11    1    3    3    0    0 -0.19477534255E+01 -0.26960673058E+01 -0.25673922733E+01  0.42016693909E+01  0.51100000000E-03 0. -1.
         12    1    3    3    0    0 -0.31978534305E+01 -0.80392372086E+01 -0.17020394509E+02  0.19093177596E+02  0.00000000000E+00 0. -1.
</event>
<event>
 7    1  0.2323330E-008  0.4614231E+02  0.7816164E-02  0.1320468E+00
        -11   -1    0    0    0    0  0.00000000000E+00  0.00000000000E+00  0.45593999997E+02  0.45594000000E+02  0.51100000000E-03 0.  1.
         11   -1    0    0    0    0 -0.00000000000E+00 -0.00000000000E+00 -0.45593999997E+02  0.45594000000E+02  0.51100000000E-03 0. -1.
    9900012    2    1    2    0    0  0.27014438901E+02  0.54150083168E+01  0.35637225130E+02  0.46142311648E+02  0.99999442521E+01 0.  0.
         12    1    1    2    0    0 -0.27014438901E+02 -0.54150083168E+01 -0.35637225130E+02  0.45045688352E+02  0.00000000000E+00 0. -1.
         11    1    3    3    0    0  0.57211938502E+00 -0.13841539091E-01 -0.53823568059E+00  0.78562719397E+00  0.51100000000E-03 0. -1.
        -11    1    3    3    0    0  0.48978808787E+01 -0.66343151706E+00  0.73563606352E+01  0.88625854318E+01  0.51100000000E-03 0.  1.
         12    1    3    3    0    0  0.21544438637E+02  0.60922813729E+01  0.28819100175E+02  0.36494099022E+02  0.00000000000E+00 0. -1.
</event>
<event>
 7    1  0.2323330E-008  0.4614232E+02  0.7816164E-02  0.1320468E+00
        -11   -1    0    0    0    0  0.00000000000E+00  0.00000000000E+00  0.45593999997E+02  0.45594000000E+02  0.51100000000E-03 0. -1.
         11   -1    0    0    0    0 -0.00000000000E+00 -0.00000000000E+00 -0.45593999997E+02  0.45594000000E+02  0.51100000000E-03 0.  1.
    9900012    2    1    2    0    0 -0.38614196206E+02  0.17668068882E+02 -0.15029861885E+02  0.46142317022E+02  0.99999932641E+01 0.  0.
         12    1    1    2    0    0  0.38614196206E+02 -0.17668068882E+02  0.15029861885E+02  0.45045682978E+02  0.00000000000E+00 0. -1.
         11    1    3    3    0    0 -0.16324412333E+01 -0.36998379218E+00  0.56578733295E+00  0.17668808545E+01  0.51100000000E-03 0. -1.
        -11    1    3    3    0    0 -0.25915536903E+02  0.13303450760E+02 -0.13696863992E+02  0.32190075156E+02  0.51100000000E-03 0.  1.
        -12    1    3    3    0    0 -0.11066218070E+02  0.47346019149E+01 -0.18987852255E+01  0.12185361012E+02  0.00000000000E+00 0.  1.
</event>
<event>
 7    1  0.2323330E-008  0.4614232E+02  0.7816164E-02  0.1320468E+00
        -11   -1    0    0    0    0  0.00000000000E+00  0.00000000000E+00  0.45593999997E+02  0.45594000000E+02  0.51100000000E-03 0.  1.
         11   -1    0    0    0    0 -0.00000000000E+00 -0.00000000000E+00 -0.45593999997E+02  0.45594000000E+02  0.51100000000E-03 0. -1.
    9900012    2    1    2    0    0 -0.39133373146E+02  0.22306413388E+02  0.34132397628E+00  0.46142317920E+02  0.10000001450E+02 0.  0.
         12    1    1    2    0    0  0.39133373146E+02 -0.22306413388E+02 -0.34132397628E+00  0.45045682080E+02  0.00000000000E+00 0. -1.
         11    1    3    3    0    0 -0.13356950253E+02  0.83852289783E+01 -0.37277425466E+01  0.16205438897E+02  0.51100000000E-03 0. -1.
        -11    1    3    3    0    0 -0.51088084437E+01  0.22444470701E+01 -0.98595862863E+00  0.56665316591E+01  0.51100000000E-03 0.  1.
        -12    1    3    3    0    0 -0.20667614449E+02  0.11676737340E+02  0.50550251515E+01  0.24270347364E+02  0.00000000000E+00 0.  1.
</event>
<event>
 7    1  0.2323330E-008  0.4614232E+02  0.7816164E-02  0.1320468E+00
        -11   -1    0    0    0    0  0.00000000000E+00  0.00000000000E+00  0.45593999997E+02  0.45594000000E+02  0.51100000000E-03 0.  1.
         11   -1    0    0    0    0 -0.00000000000E+00 -0.00000000000E+00 -0.45593999997E+02  0.45594000000E+02  0.51100000000E-03 0. -1.
    9900012    2    1    2    0    0  0.34175889943E+02 -0.80472485663E+01  0.28219918653E+02  0.46142317946E+02  0.10000001689E+02 0.  0.
         12    1    1    2    0    0 -0.34175889943E+02  0.80472485663E+01 -0.28219918653E+02  0.45045682054E+02  0.00000000000E+00 0. -1.
         11    1    3    3    0    0  0.14986631477E+02 -0.45911957136E+01  0.14326792875E+02  0.21235234763E+02  0.51100000000E-03 0. -1.
        -11    1    3    3    0    0  0.16608053673E+02 -0.32167966466E+00  0.11246464833E+02  0.20060256631E+02  0.51100000000E-03 0.  1.
        -12    1    3    3    0    0  0.25812047939E+01 -0.31343731880E+01  0.26466609447E+01  0.48468265521E+01  0.00000000000E+00 0.  1.
</event>
<event>
 7    1  0.2323330E-008  0.4614232E+02  0.7816164E-02  0.1320468E+00
        -11   -1    0    0    0    0  0.00000000000E+00  0.00000000000E+00  0.45593999997E+02  0.45594000000E+02  0.51100000000E-03 0.  1.
         11   -1    0    0    0    0 -0.00000000000E+00 -0.00000000000E+00 -0.45593999997E+02  0.45594000000E+02  0.51100000000E-03 0. -1.
    9900012    2    1    2    0    0 -0.10027149025E+02 -0.33919554519E+02  0.27893253812E+02  0.46142317582E+02  0.99999983634E+01 0.  0.
         12    1    1    2    0    0  0.10027149025E+02  0.33919554519E+02 -0.27893253812E+02  0.45045682418E+02  0.00000000000E+00 0. -1.
         11    1    3    3    0    0 -0.14639296453E+01 -0.59674078870E+01  0.39582291747E+01  0.73089414663E+01  0.51100000000E-03 0. -1.
        -11    1    3    3    0    0  0.84415545074E+00 -0.12013983888E+02  0.10268777009E+02  0.15827071391E+02  0.51100000000E-03 0.  1.
        -12    1    3    3    0    0 -0.94073748304E+01 -0.15938162744E+02  0.13666247628E+02  0.23006304724E+02  0.00000000000E+00 0.  1.
</event>
<event>
 7    1  0.2323330E-008  0.4614232E+02  0.7816164E-02  0.1320468E+00
        -11   -1    0    0    0    0  0.00000000000E+00  0.00000000000E+00  0.45593999997E+02  0.45594000000E+02  0.51100000000E-03 0. -1.
         11   -1    0    0    0    0 -0.00000000000E+00 -0.00000000000E+00 -0.45593999997E+02  0.45594000000E+02  0.51100000000E-03 0.  1.
    9900012    2    1    2    0    0  0.41039685167E+02 -0.74618706218E+01 -0.17005242001E+02  0.46142317329E+02  0.99999960555E+01 0.  0.
         12    1    1    2    0    0 -0.41039685167E+02  0.74618706218E+01  0.17005242001E+02  0.45045682671E+02  0.00000000000E+00 0. -1.
         11    1    3    3    0    0  0.23085627606E+02 -0.62610477806E+01 -0.10837418291E+02  0.26260170539E+02  0.51100000000E-03 0. -1.
        -11    1    3    3    0    0  0.10845045388E+02 -0.32933855138E+01 -0.49679209746E+01  0.12375040876E+02  0.51100000000E-03 0.  1.
         12    1    3    3    0    0  0.71090121733E+01  0.20925626727E+01 -0.11999027361E+01  0.75071059134E+01  0.00000000000E+00 0. -1.
</event>
<event>
 7    1  0.2323330E-008  0.4614232E+02  0.7816164E-02  0.1320468E+00
        -11   -1    0    0    0    0  0.00000000000E+00  0.00000000000E+00  0.45593999997E+02  0.45594000000E+02  0.51100000000E-03 0.  1.
         11   -1    0    0    0    0 -0.00000000000E+00 -0.00000000000E+00 -0.45593999997E+02  0.45594000000E+02  0.51100000000E-03 0. -1.
    9900012    2    1    2    0    0  0.17835200063E+02 -0.18384886828E+02  0.37054215664E+02  0.46142319592E+02  0.10000016695E+02 0.  0.
         12    1    1    2    0    0 -0.17835200063E+02  0.18384886828E+02 -0.37054215664E+02  0.45045680408E+02  0.00000000000E+00 0. -1.
         11    1    3    3    0    0  0.12544659445E+01 -0.70152527263E+00  0.67039362004E+00  0.15859540917E+01  0.51100000000E-03 0. -1.
        -11    1    3    3    0    0  0.17068228144E+02 -0.16258252548E+02  0.30871941540E+02  0.38842399033E+02  0.51100000000E-03 0.  1.
         12    1    3    3    0    0 -0.48749402542E+00 -0.14251090077E+01  0.55118805033E+01  0.57139664675E+01  0.00000000000E+00 0. -1.
</event>
<event>
 7    1  0.2323330E-008  0.4614232E+02  0.7816164E-02  0.1320468E+00
        -11   -1    0    0    0    0  0.00000000000E+00  0.00000000000E+00  0.45593999997E+02  0.45594000000E+02  0.51100000000E-03 0. -1.
         11   -1    0    0    0    0 -0.00000000000E+00 -0.00000000000E+00 -0.45593999997E+02  0.45594000000E+02  0.51100000000E-03 0.  1.
    9900012    2    1    2    0    0 -0.19130950581E+02  0.83434721611E+01 -0.39918751220E+02  0.46142317668E+02  0.99999991506E+01 0.  0.
         12    1    1    2    0    0  0.19130950581E+02 -0.83434721611E+01  0.39918751220E+02  0.45045682332E+02  0.00000000000E+00 0. -1.
         11    1    3    3    0    0 -0.22294642122E+01 -0.55862406532E+00 -0.51489139100E+01  0.56386067635E+01  0.51100000000E-03 0. -1.
        -11    1    3    3    0    0 -0.11298037629E+02  0.26705922049E+01 -0.14535834594E+02  0.18602908498E+02  0.51100000000E-03 0.  1.
         12    1    3    3    0    0 -0.56034487401E+01  0.62315040215E+01 -0.20234002715E+02  0.21900802406E+02  0.00000000000E+00 0. -1.
</event>
<event>
 7    1  0.2323330E-008  0.4614232E+02  0.7816164E-02  0.1320468E+00
        -11   -1    0    0    0    0  0.00000000000E+00  0.00000000000E+00  0.45593999997E+02  0.45594000000E+02  0.51100000000E-03 0. -1.
         11   -1    0    0    0    0 -0.00000000000E+00 -0.00000000000E+00 -0.45593999997E+02  0.45594000000E+02  0.51100000000E-03 0.  1.
    9900012    2    1    2    0    0  0.26243448448E+02 -0.23091611846E+02 -0.28410776964E+02  0.46142319055E+02  0.10000011797E+02 0.  0.
         12    1    1    2    0    0 -0.26243448448E+02  0.23091611846E+02  0.28410776964E+02  0.45045680945E+02  0.00000000000E+00 0. -1.
         11    1    3    3    0    0 -0.42867166867E-01 -0.41254106158E+00 -0.28172247571E+00  0.50139359382E+00  0.51100000000E-03 0. -1.
        -11    1    3    3    0    0  0.16053292881E+02 -0.13766670278E+02 -0.11155631754E+02  0.23909779233E+02  0.51100000000E-03 0.  1.
        -12    1    3    3    0    0  0.10233022734E+02 -0.89124005067E+01 -0.16973422734E+02  0.21731146228E+02  0.00000000000E+00 0.  1.
</event>
<event>
 7    1  0.2323330E-008  0.4614232E+02  0.7816164E-02  0.1320468E+00
        -11   -1    0    0    0    0  0.00000000000E+00  0.00000000000E+00  0.45593999997E+02  0.45594000000E+02  0.51100000000E-03 0.  1.
         11   -1    0    0    0    0 -0.00000000000E+00 -0.00000000000E+00 -0.45593999997E+02  0.45594000000E+02  0.51100000000E-03 0. -1.
    9900012    2    1    2    0    0  0.12817260120E+02 -0.41790962903E+02  0.10878728507E+02  0.46142317951E+02  0.10000001729E+02 0.  0.
         12    1    1    2    0    0 -0.12817260120E+02  0.41790962903E+02 -0.10878728507E+02  0.45045682049E+02  0.00000000000E+00 0. -1.
         11    1    3    3    0    0  0.10355588248E+02 -0.21735836303E+02  0.42355685018E+01  0.24446366367E+02  0.51100000000E-03 0.  1.
        -11    1    3    3    0    0  0.33717190944E+01 -0.16170858567E+02  0.63452057298E+01  0.17695389017E+02  0.51100000000E-03 0. -1.
        -12    1    3    3    0    0 -0.91004722231E+00 -0.38842680335E+01  0.29795427508E+00  0.40005625670E+01  0.00000000000E+00 0.  1.
</event>
<event>
 7    1  0.2323330E-008  0.4614232E+02  0.7816164E-02  0.1320468E+00
        -11   -1    0    0    0    0  0.00000000000E+00  0.00000000000E+00  0.45593999997E+02  0.45594000000E+02  0.51100000000E-03 0.  1.
         11   -1    0    0    0    0 -0.00000000000E+00 -0.00000000000E+00 -0.45593999997E+02  0.45594000000E+02  0.51100000000E-03 0. -1.
    9900012    2    1    2    0    0 -0.42635371951E+01 -0.16237006032E+02  0.41800661782E+02  0.46142318301E+02  0.10000004921E+02 0.  0.
         12    1    1    2    0    0  0.42635371951E+01  0.16237006032E+02 -0.41800661782E+02  0.45045681699E+02  0.00000000000E+00 0. -1.
         11    1    3    3    0    0 -0.29780585240E+01 -0.89782791700E+01  0.18640187821E+02  0.20902988583E+02  0.51100000000E-03 0. -1.
        -11    1    3    3    0    0 -0.68125586230E+00 -0.55147795780E+01  0.68299270882E+01  0.88048172971E+01  0.51100000000E-03 0.  1.
        -12    1    3    3    0    0 -0.60422280878E+00 -0.17439472841E+01  0.16330546873E+02  0.16434512421E+02  0.00000000000E+00 0.  1.
</event>
<event>
 7    1  0.2323330E-008  0.4614232E+02  0.7816164E-02  0.1320468E+00
        -11   -1    0    0    0    0  0.00000000000E+00  0.00000000000E+00  0.45593999997E+02  0.45594000000E+02  0.51100000000E-03 0. -1.
         11   -1    0    0    0    0 -0.00000000000E+00 -0.00000000000E+00 -0.45593999997E+02  0.45594000000E+02  0.51100000000E-03 0.  1.
    9900012    2    1    2    0    0  0.10630789065E+02 -0.43722722443E+02  0.21031271188E+01  0.46142320100E+02  0.10000021329E+02 0.  0.
         12    1    1    2    0    0 -0.10630789065E+02  0.43722722443E+02 -0.21031271188E+01  0.45045679900E+02  0.00000000000E+00 0. -1.
         11    1    3    3    0    0  0.77720400129E+01 -0.31969512516E+02  0.33514164166E+01  0.33070928755E+02  0.51100000000E-03 0.  1.
        -11    1    3    3    0    0  0.37974466286E+01 -0.58413462643E+01 -0.53590320298E-01  0.69674097956E+01  0.51100000000E-03 0. -1.
        -12    1    3    3    0    0 -0.93869757678E+00 -0.59118636628E+01 -0.11946989775E+01  0.61039815494E+01  0.00000000000E+00 0.  1.
</event>
<event>
 7    1  0.2323330E-008  0.4614232E+02  0.7816164E-02  0.1320468E+00
        -11   -1    0    0    0    0  0.00000000000E+00  0.00000000000E+00  0.45593999997E+02  0.45594000000E+02  0.51100000000E-03 0.  1.
         11   -1    0    0    0    0 -0.00000000000E+00 -0.00000000000E+00 -0.45593999997E+02  0.45594000000E+02  0.51100000000E-03 0. -1.
    9900012    2    1    2    0    0  0.20150749081E+02 -0.87391988585E+01  0.39327942614E+02  0.46142319236E+02  0.10000013452E+02 0.  0.
         12    1    1    2    0    0 -0.20150749081E+02  0.87391988585E+01 -0.39327942614E+02  0.45045680764E+02  0.00000000000E+00 0. -1.
         11    1    3    3    0    0  0.15289218408E+01 -0.22306347393E+01  0.40508433172E+01  0.48705918714E+01  0.51100000000E-03 0. -1.
        -11    1    3    3    0    0  0.13763836568E+02 -0.70138768079E+01  0.31546520927E+02  0.35125783234E+02  0.51100000000E-03 0.  1.
         12    1    3    3    0    0  0.48579906728E+01  0.50531268880E+00  0.37305783698E+01  0.61459441312E+01  0.00000000000E+00 0. -1.
</event>
<event>
 7    1  0.2323330E-008  0.4614232E+02  0.7816164E-02  0.1320468E+00
        -11   -1    0    0    0    0  0.00000000000E+00  0.00000000000E+00  0.45593999997E+02  0.45594000000E+02  0.51100000000E-03 0.  1.
         11   -1    0    0    0    0 -0.00000000000E+00 -0.00000000000E+00 -0.45593999997E+02  0.45594000000E+02  0.51100000000E-03 0. -1.
    9900012    2    1    2    0    0 -0.36229214384E+02 -0.26736336003E+02  0.13137210032E+01  0.46142317625E+02  0.99999987605E+01 0.  0.
         12    1    1    2    0    0  0.36229214384E+02  0.26736336003E+02 -0.13137210032E+01  0.45045682375E+02  0.00000000000E+00 0. -1.
         11    1    3    3    0    0 -0.25965333313E+02 -0.17894540306E+02  0.23321824543E+01  0.31620439309E+02  0.51100000000E-03 0.  1.
        -11    1    3    3    0    0 -0.46507201470E+01 -0.14927716585E+01 -0.18813879103E+01  0.52342321156E+01  0.51100000000E-03 0. -1.
         12    1    3    3    0    0 -0.56131609239E+01 -0.73490240388E+01  0.86292645926E+00  0.92876462010E+01  0.00000000000E+00 0. -1.
</event>
<event>
 7    1  0.2323330E-008  0.4614232E+02  0.7816164E-02  0.1320468E+00
        -11   -1    0    0    0    0  0.00000000000E+00  0.00000000000E+00  0.45593999997E+02  0.45594000000E+02  0.51100000000E-03 0.  1.
         11   -1    0    0    0    0 -0.00000000000E+00 -0.00000000000E+00 -0.45593999997E+02  0.45594000000E+02  0.51100000000E-03 0. -1.
    9900012    2    1    2    0    0 -0.26032982748E+02  0.24792666494E+02  0.27142605270E+02  0.46142317371E+02  0.99999964432E+01 0.  0.
         12    1    1    2    0    0  0.26032982748E+02 -0.24792666494E+02 -0.27142605270E+02  0.45045682629E+02  0.00000000000E+00 0. -1.
         11    1    3    3    0    0 -0.14880509401E+01  0.89455792881E+00  0.57026234014E+00  0.18274925133E+01  0.51100000000E-03 0.  1.
        -11    1    3    3    0    0 -0.47858332937E+01  0.60946049808E+00  0.48134908215E+01  0.68150815522E+01  0.51100000000E-03 0. -1.
        -12    1    3    3    0    0 -0.19759098514E+02  0.23288648067E+02  0.21758852108E+02  0.37499743306E+02  0.00000000000E+00 0.  1.
</event>
<event>
 7    1  0.2323330E-008  0.4614232E+02  0.7816164E-02  0.1320468E+00
        -11   -1    0    0    0    0  0.00000000000E+00  0.00000000000E+00  0.45593999997E+02  0.45594000000E+02  0.51100000000E-03 0.  1.
         11   -1    0    0    0    0 -0.00000000000E+00 -0.00000000000E+00 -0.45593999997E+02  0.45594000000E+02  0.51100000000E-03 0. -1.
    9900012    2    1    2    0    0 -0.49579093414E+00 -0.89158908055E+01  0.44151722462E+02  0.46142317478E+02  0.99999974195E+01 0.  0.
         12    1    1    2    0    0  0.49579093414E+00  0.89158908055E+01 -0.44151722462E+02  0.45045682522E+02  0.00000000000E+00 0. -1.
         11    1    3    3    0    0  0.31617366369E-01  0.56721906268E+00  0.12156865074E+01  0.13418759512E+01  0.51100000000E-03 0. -1.
        -11    1    3    3    0    0  0.19729600596E+01 -0.46533225633E+01  0.33740534664E+02  0.34116999603E+02  0.51100000000E-03 0.  1.
         12    1    3    3    0    0 -0.25003683602E+01 -0.48297873049E+01  0.91955012907E+01  0.10683441924E+02  0.00000000000E+00 0. -1.
</event>
<event>
 7    1  0.2323330E-008  0.4614233E+02  0.7816164E-02  0.1320468E+00
        -11   -1    0    0    0    0  0.00000000000E+00  0.00000000000E+00  0.45593999997E+02  0.45594000000E+02  0.51100000000E-03 0.  1.
         11   -1    0    0    0    0 -0.00000000000E+00 -0.00000000000E+00 -0.45593999997E+02  0.45594000000E+02  0.51100000000E-03 0. -1.
    9900012    2    1    2    0    0 -0.69606803245E+01  0.15601757444E+02  0.41680292838E+02  0.46142326324E+02  0.10000078083E+02 0.  0.
         12    1    1    2    0    0  0.69606803245E+01 -0.15601757444E+02 -0.41680292838E+02  0.45045673676E+02  0.00000000000E+00 0. -1.
         11    1    3    3    0    0 -0.45630850343E+01  0.55680536734E+01  0.12789399340E+02  0.14676297302E+02  0.51100000000E-03 0. -1.
        -11    1    3    3    0    0 -0.27607913226E+01  0.11014828612E+02  0.25423868793E+02  0.27844595934E+02  0.51100000000E-03 0.  1.
        -12    1    3    3    0    0  0.36319603247E+00 -0.98112484140E+00  0.34670247041E+01  0.36214330881E+01  0.00000000000E+00 0.  1.
</event>
<event>
 7    1  0.2323330E-008  0.4614232E+02  0.7816164E-02  0.1320468E+00
        -11   -1    0    0    0    0  0.00000000000E+00  0.00000000000E+00  0.45593999997E+02  0.45594000000E+02  0.51100000000E-03 0.  1.
         11   -1    0    0    0    0 -0.00000000000E+00 -0.00000000000E+00 -0.45593999997E+02  0.45594000000E+02  0.51100000000E-03 0. -1.
    9900012    2    1    2    0    0  0.90973144354E+01 -0.18958040139E+02  0.39836479164E+02  0.46142317765E+02  0.10000000033E+02 0.  0.
         12    1    1    2    0    0 -0.90973144354E+01  0.18958040139E+02 -0.39836479164E+02  0.45045682235E+02  0.00000000000E+00 0. -1.
         11    1    3    3    0    0  0.10613355609E+01 -0.71591992130E+01  0.79915191065E+01  0.10781694878E+02  0.51100000000E-03 0. -1.
        -11    1    3    3    0    0  0.39714701901E+01 -0.10200085091E+02  0.21329945202E+02  0.23974588086E+02  0.51100000000E-03 0.  1.
         12    1    3    3    0    0  0.40645086845E+01 -0.15987558348E+01  0.10515014856E+02  0.11386034801E+02  0.00000000000E+00 0. -1.
</event>
<event>
 7    1  0.2323330E-008  0.4614232E+02  0.7816164E-02  0.1320468E+00
        -11   -1    0    0    0    0  0.00000000000E+00  0.00000000000E+00  0.45593999997E+02  0.45594000000E+02  0.51100000000E-03 0. -1.
         11   -1    0    0    0    0 -0.00000000000E+00 -0.00000000000E+00 -0.45593999997E+02  0.45594000000E+02  0.51100000000E-03 0.  1.
    9900012    2    1    2    0    0 -0.10625521750E+02 -0.43613582725E+02  0.37506226314E+01  0.46142317846E+02  0.10000000778E+02 0.  0.
         12    1    1    2    0    0  0.10625521750E+02  0.43613582725E+02 -0.37506226314E+01  0.45045682154E+02  0.00000000000E+00 0. -1.
         11    1    3    3    0    0 -0.66306597185E+01 -0.14678467909E+02  0.14400560554E+01  0.16170863618E+02  0.51100000000E-03 0. -1.
        -11    1    3    3    0    0 -0.17016706903E+01 -0.10627292127E+02 -0.21817133676E+01  0.10981570678E+02  0.51100000000E-03 0.  1.
         12    1    3    3    0    0 -0.22931913410E+01 -0.18307822689E+02  0.44922799436E+01  0.18989883550E+02  0.00000000000E+00 0. -1.
</event>
<event>
 7    1  0.2323330E-008  0.4614232E+02  0.7816164E-02  0.1320468E+00
        -11   -1    0    0    0    0  0.00000000000E+00  0.00000000000E+00  0.45593999997E+02  0.45594000000E+02  0.51100000000E-03 0. -1.
         11   -1    0    0    0    0 -0.00000000000E+00 -0.00000000000E+00 -0.45593999997E+02  0.45594000000E+02  0.51100000000E-03 0.  1.
    9900012    2    1    2    0    0  0.17868932977E+02 -0.19763370989E+02 -0.36321118118E+02  0.46142320741E+02  0.10000027170E+02 0.  0.
         12    1    1    2    0    0 -0.17868932977E+02  0.19763370989E+02  0.36321118118E+02  0.45045679259E+02  0.00000000000E+00 0. -1.
         11    1    3    3    0    0  0.99780773214E+01 -0.53269481255E+01 -0.17847802054E+02  0.21130131135E+02  0.51100000000E-03 0. -1.
        -11    1    3    3    0    0  0.58150911421E+01 -0.13008795733E+02 -0.16572999989E+02  0.21856540905E+02  0.51100000000E-03 0.  1.
         12    1    3    3    0    0  0.20757645133E+01 -0.14276271311E+01 -0.19003160742E+01  0.31556487007E+01  0.00000000000E+00 0. -1.
</event>
<event>
 7    1  0.2323330E-008  0.4614232E+02  0.7816164E-02  0.1320468E+00
        -11   -1    0    0    0    0  0.00000000000E+00  0.00000000000E+00  0.45593999997E+02  0.45594000000E+02  0.51100000000E-03 0.  1.
         11   -1    0    0    0    0 -0.00000000000E+00 -0.00000000000E+00 -0.45593999997E+02  0.45594000000E+02  0.51100000000E-03 0. -1.
    9900012    2    1    2    0    0  0.24817693110E+02  0.18090871762E+01  0.37548940865E+02  0.46142315992E+02  0.99999838686E+01 0.  0.
         12    1    1    2    0    0 -0.24817693110E+02 -0.18090871762E+01 -0.37548940865E+02  0.45045684008E+02  0.00000000000E+00 0. -1.
         11    1    3    3    0    0  0.16847156560E+01  0.17686668174E+01  0.25314481649E+01  0.35177662266E+01  0.51100000000E-03 0. -1.
        -11    1    3    3    0    0  0.77315596336E+01 -0.24055910816E+01  0.16761336375E+02  0.18614679158E+02  0.51100000000E-03 0.  1.
        -12    1    3    3    0    0  0.15401417820E+02  0.24460114403E+01  0.18256156324E+02  0.24009870607E+02  0.00000000000E+00 0.  1.
</event>
<event>
 7    1  0.2323330E-008  0.4614232E+02  0.7816164E-02  0.1320468E+00
        -11   -1    0    0    0    0  0.00000000000E+00  0.00000000000E+00  0.45593999997E+02  0.45594000000E+02  0.51100000000E-03 0. -1.
         11   -1    0    0    0    0 -0.00000000000E+00 -0.00000000000E+00 -0.45593999997E+02  0.45594000000E+02  0.51100000000E-03 0.  1.
    9900012    2    1    2    0    0 -0.12784346630E+02  0.20381762902E+02 -0.38082249379E+02  0.46142317682E+02  0.99999992769E+01 0.  0.
         12    1    1    2    0    0  0.12784346630E+02 -0.20381762902E+02  0.38082249379E+02  0.45045682318E+02  0.00000000000E+00 0. -1.
         11    1    3    3    0    0 -0.93735183432E+01  0.13790791215E+02 -0.29488527287E+02  0.33876570226E+02  0.51100000000E-03 0.  1.
        -11    1    3    3    0    0 -0.77229422783E+00  0.48707942148E+01 -0.74096709133E+01  0.89008032200E+01  0.51100000000E-03 0. -1.
        -12    1    3    3    0    0 -0.26385340585E+01  0.17201774726E+01 -0.11840511785E+01  0.33649442356E+01  0.00000000000E+00 0.  1.
</event>
<event>
 7    1  0.2323330E-008  0.4614232E+02  0.7816164E-02  0.1320468E+00
        -11   -1    0    0    0    0  0.00000000000E+00  0.00000000000E+00  0.45593999997E+02  0.45594000000E+02  0.51100000000E-03 0.  1.
         11   -1    0    0    0    0 -0.00000000000E+00 -0.00000000000E+00 -0.45593999997E+02  0.45594000000E+02  0.51100000000E-03 0. -1.
    9900012    2    1    2    0    0  0.27311845325E+02  0.25163474646E+02  0.25494629543E+02  0.46142317778E+02  0.10000000153E+02 0.  0.
         12    1    1    2    0    0 -0.27311845325E+02 -0.25163474646E+02 -0.25494629543E+02  0.45045682222E+02  0.00000000000E+00 0. -1.
         11    1    3    3    0    0  0.87034617964E+01  0.60275373675E+01  0.39037436038E+01  0.11283646057E+02  0.51100000000E-03 0. -1.
        -11    1    3    3    0    0  0.18740767760E+02  0.17389463359E+02  0.20690500847E+02  0.32889308867E+02  0.51100000000E-03 0.  1.
         12    1    3    3    0    0 -0.13238423175E+00  0.17464739198E+01  0.90038509167E+00  0.19693628540E+01  0.00000000000E+00 0. -1.
</event>
<event>
 7    1  0.2323330E-008  0.4614232E+02  0.7816164E-02  0.1320468E+00
        -11   -1    0    0    0    0  0.00000000000E+00  0.00000000000E+00  0.45593999997E+02  0.45594000000E+02  0.51100000000E-03 0.  1.
         11   -1    0    0    0    0 -0.00000000000E+00 -0.00000000000E+00 -0.45593999997E+02  0.45594000000E+02  0.51100000000E-03 0. -1.
    9900012    2    1    2    0    0 -0.40853322561E+02 -0.11932024675E+02  0.14756229625E+02  0.46142317744E+02  0.99999998441E+01 0.  0.
         12    1    1    2    0    0  0.40853322561E+02  0.11932024675E+02 -0.14756229625E+02  0.45045682256E+02  0.00000000000E+00 0. -1.
         11    1    3    3    0    0 -0.28764536487E+02 -0.76327328262E+01  0.10372477168E+02  0.31515796873E+02  0.51100000000E-03 0.  1.
        -11    1    3    3    0    0 -0.82590359889E+01 -0.52137176198E+01  0.18397881480E+01  0.99387799843E+01  0.51100000000E-03 0. -1.
        -12    1    3    3    0    0 -0.38297500859E+01  0.91442577125E+00  0.25439643098E+01  0.46877408867E+01  0.00000000000E+00 0.  1.
</event>
<event>
 7    1  0.2323330E-008  0.4614232E+02  0.7816164E-02  0.1320468E+00
        -11   -1    0    0    0    0  0.00000000000E+00  0.00000000000E+00  0.45593999997E+02  0.45594000000E+02  0.51100000000E-03 0. -1.
         11   -1    0    0    0    0 -0.00000000000E+00 -0.00000000000E+00 -0.45593999997E+02  0.45594000000E+02  0.51100000000E-03 0.  1.
    9900012    2    1    2    0    0  0.65712644229E+01 -0.44545839382E+02 -0.12649393539E+01  0.46142318810E+02  0.10000009562E+02 0.  0.
         12    1    1    2    0    0 -0.65712644229E+01  0.44545839382E+02  0.12649393539E+01  0.45045681190E+02  0.00000000000E+00 0. -1.
         11    1    3    3    0    0 -0.14850372455E+00 -0.34585380143E+01  0.21863321122E+01  0.40943359558E+01  0.51100000000E-03 0. -1.
        -11    1    3    3    0    0 -0.57987215303E+00 -0.75657421138E+01 -0.25399737440E+00  0.75921815293E+01  0.51100000000E-03 0.  1.
        -12    1    3    3    0    0  0.72996403005E+01 -0.33521559254E+02 -0.31972740917E+01  0.34455801325E+02  0.00000000000E+00 0.  1.
</event>
<event>
 7    1  0.2323330E-008  0.4614232E+02  0.7816164E-02  0.1320468E+00
        -11   -1    0    0    0    0  0.00000000000E+00  0.00000000000E+00  0.45593999997E+02  0.45594000000E+02  0.51100000000E-03 0. -1.
         11   -1    0    0    0    0 -0.00000000000E+00 -0.00000000000E+00 -0.45593999997E+02  0.45594000000E+02  0.51100000000E-03 0.  1.
    9900012    2    1    2    0    0 -0.39137041912E+02 -0.13292806190E+02 -0.17908286849E+02  0.46142317811E+02  0.10000000452E+02 0.  0.
         12    1    1    2    0    0  0.39137041912E+02  0.13292806190E+02  0.17908286849E+02  0.45045682189E+02  0.00000000000E+00 0. -1.
         11    1    3    3    0    0 -0.97533881106E-02  0.10265491385E+00 -0.10066846935E+01  0.10119523177E+01  0.51100000000E-03 0. -1.
        -11    1    3    3    0    0 -0.17252264725E+02 -0.35277829915E+01 -0.47876980582E+01  0.18248505252E+02  0.51100000000E-03 0.  1.
        -12    1    3    3    0    0 -0.21875023799E+02 -0.98676781124E+01 -0.12113904097E+02  0.26881860241E+02  0.00000000000E+00 0.  1.
</event>
<event>
 7    1  0.2323330E-008  0.4614232E+02  0.7816164E-02  0.1320468E+00
        -11   -1    0    0    0    0  0.00000000000E+00  0.00000000000E+00  0.45593999997E+02  0.45594000000E+02  0.51100000000E-03 0. -1.
         11   -1    0    0    0    0 -0.00000000000E+00 -0.00000000000E+00 -0.45593999997E+02  0.45594000000E+02  0.51100000000E-03 0.  1.
    9900012    2    1    2    0    0  0.27527766602E+02 -0.18923775419E+02 -0.30219634450E+02  0.46142317449E+02  0.99999971503E+01 0.  0.
         12    1    1    2    0    0 -0.27527766602E+02  0.18923775419E+02  0.30219634450E+02  0.45045682551E+02  0.00000000000E+00 0. -1.
         11    1    3    3    0    0  0.31326970472E+01 -0.80931165688E+00 -0.32510076873E+01  0.45867011447E+01  0.51100000000E-03 0. -1.
        -11    1    3    3    0    0  0.21154143430E+02 -0.18673382827E+02 -0.25145315220E+02  0.37795236317E+02  0.51100000000E-03 0.  1.
        -12    1    3    3    0    0  0.32409261245E+01  0.55891906411E+00 -0.18233115425E+01  0.37603799868E+01  0.00000000000E+00 0.  1.
</event>
<event>
 7    1  0.2323330E-008  0.4614232E+02  0.7816164E-02  0.1320468E+00
        -11   -1    0    0    0    0  0.00000000000E+00  0.00000000000E+00  0.45593999997E+02  0.45594000000E+02  0.51100000000E-03 0.  1.
         11   -1    0    0    0    0 -0.00000000000E+00 -0.00000000000E+00 -0.45593999997E+02  0.45594000000E+02  0.51100000000E-03 0. -1.
    9900012    2    1    2    0    0  0.10784958243E+02  0.13864584234E+02  0.41479773013E+02  0.46142316639E+02  0.99999897651E+01 0.  0.
         12    1    1    2    0    0 -0.10784958243E+02 -0.13864584234E+02 -0.41479773013E+02  0.45045683361E+02  0.00000000000E+00 0. -1.
         11    1    3    3    0    0  0.12762038987E+01  0.14505547463E+01  0.77071750406E+01  0.79456499313E+01  0.51100000000E-03 0. -1.
        -11    1    3    3    0    0  0.64057057124E+01  0.85071758160E+01  0.12858499246E+02  0.16695691335E+02  0.51100000000E-03 0.  1.
        -12    1    3    3    0    0  0.31030486315E+01  0.39068536721E+01  0.20914098727E+02  0.21500975373E+02  0.00000000000E+00 0.  1.
</event>
<event>
 7    1  0.2323330E-008  0.4614232E+02  0.7816164E-02  0.1320468E+00
        -11   -1    0    0    0    0  0.00000000000E+00  0.00000000000E+00  0.45593999997E+02  0.45594000000E+02  0.51100000000E-03 0. -1.
         11   -1    0    0    0    0 -0.00000000000E+00 -0.00000000000E+00 -0.45593999997E+02  0.45594000000E+02  0.51100000000E-03 0.  1.
    9900012    2    1    2    0    0  0.11700385713E+02  0.85507992160E+01 -0.42650889055E+02  0.46142317296E+02  0.99999957612E+01 0.  0.
         12    1    1    2    0    0 -0.11700385713E+02 -0.85507992160E+01  0.42650889055E+02  0.45045682704E+02  0.00000000000E+00 0. -1.
         11    1    3    3    0    0  0.17394220212E+01  0.29381834276E+01 -0.36980720915E+01  0.50333138465E+01  0.51100000000E-03 0.  1.
        -11    1    3    3    0    0 -0.84378768660E-02 -0.22325243427E+00  0.19241191746E+00  0.29484818852E+00  0.51100000000E-03 0. -1.
        -12    1    3    3    0    0  0.99694015683E+01  0.58358682227E+01 -0.39145228881E+02  0.40814155261E+02  0.00000000000E+00 0.  1.
</event>
<event>
 7    1  0.2323330E-008  0.4614231E+02  0.7816164E-02  0.1320468E+00
        -11   -1    0    0    0    0  0.00000000000E+00  0.00000000000E+00  0.45593999997E+02  0.45594000000E+02  0.51100000000E-03 0. -1.
         11   -1    0    0    0    0 -0.00000000000E+00 -0.00000000000E+00 -0.45593999997E+02  0.45594000000E+02  0.51100000000E-03 0.  1.
    9900012    2    1    2    0    0  0.37168831768E+02  0.15804681710E+02 -0.19945022189E+02  0.46142312869E+02  0.99999553892E+01 0.  0.
         12    1    1    2    0    0 -0.37168831768E+02 -0.15804681710E+02  0.19945022189E+02  0.45045687131E+02  0.00000000000E+00 0. -1.
         11    1    3    3    0    0  0.10345844335E+02  0.52380801779E+00 -0.28841386318E+01  0.10753098425E+02  0.51100000000E-03 0. -1.
        -11    1    3    3    0    0  0.14129154257E+02  0.64004635198E+01 -0.83260406397E+01  0.17604598441E+02  0.51100000000E-03 0.  1.
        -12    1    3    3    0    0  0.12693833177E+02  0.88804101727E+01 -0.87348429178E+01  0.17784616002E+02  0.00000000000E+00 0.  1.
</event>
<event>
 7    1  0.2323330E-008  0.4614232E+02  0.7816164E-02  0.1320468E+00
        -11   -1    0    0    0    0  0.00000000000E+00  0.00000000000E+00  0.45593999997E+02  0.45594000000E+02  0.51100000000E-03 0. -1.
         11   -1    0    0    0    0 -0.00000000000E+00 -0.00000000000E+00 -0.45593999997E+02  0.45594000000E+02  0.51100000000E-03 0.  1.
    9900012    2    1    2    0    0 -0.23129170670E+02  0.14888036646E+02 -0.35672135036E+02  0.46142318863E+02  0.10000010050E+02 0.  0.
         12    1    1    2    0    0  0.23129170670E+02 -0.14888036646E+02  0.35672135036E+02  0.45045681137E+02  0.00000000000E+00 0. -1.
         11    1    3    3    0    0 -0.56368027064E+01  0.61774654315E+01 -0.15980042302E+02  0.18035974500E+02  0.51100000000E-03 0. -1.
        -11    1    3    3    0    0 -0.15432763938E+02  0.91378349437E+01 -0.17957171925E+02  0.25379721315E+02  0.51100000000E-03 0.  1.
         12    1    3    3    0    0 -0.20596040257E+01 -0.42726372920E+00 -0.17349208083E+01  0.27266230483E+01  0.00000000000E+00 0. -1.
</event>
<event>
 7    1  0.2323330E-008  0.4614232E+02  0.7816164E-02  0.1320468E+00
        -11   -1    0    0    0    0  0.00000000000E+00  0.00000000000E+00  0.45593999997E+02  0.45594000000E+02  0.51100000000E-03 0. -1.
         11   -1    0    0    0    0 -0.00000000000E+00 -0.00000000000E+00 -0.45593999997E+02  0.45594000000E+02  0.51100000000E-03 0.  1.
    9900012    2    1    2    0    0  0.32500960825E+02  0.23400482891E+02  0.20620825127E+02  0.46142317820E+02  0.10000000539E+02 0.  0.
         12    1    1    2    0    0 -0.32500960825E+02 -0.23400482891E+02 -0.20620825127E+02  0.45045682180E+02  0.00000000000E+00 0. -1.
         11    1    3    3    0    0  0.99886628195E+01  0.37953312861E+01  0.29545519546E+01  0.11086356570E+02  0.51100000000E-03 0. -1.
        -11    1    3    3    0    0  0.22164831123E+02  0.17954997020E+02  0.16101429005E+02  0.32755422039E+02  0.51100000000E-03 0.  1.
         12    1    3    3    0    0  0.34746688261E+00  0.16501545855E+01  0.15648441680E+01  0.23005392109E+01  0.00000000000E+00 0. -1.
</event>
<event>
 7    1  0.2323330E-008  0.4614232E+02  0.7816164E-02  0.1320468E+00
        -11   -1    0    0    0    0  0.00000000000E+00  0.00000000000E+00  0.45593999997E+02  0.45594000000E+02  0.51100000000E-03 0.  1.
         11   -1    0    0    0    0 -0.00000000000E+00 -0.00000000000E+00 -0.45593999997E+02  0.45594000000E+02  0.51100000000E-03 0. -1.
    9900012    2    1    2    0    0 -0.30137780816E+02 -0.24537986339E+00  0.33477865374E+02  0.46142317479E+02  0.99999974232E+01 0.  0.
         12    1    1    2    0    0  0.30137780816E+02  0.24537986339E+00 -0.33477865374E+02  0.45045682521E+02  0.00000000000E+00 0. -1.
         11    1    3    3    0    0 -0.12065787035E+02  0.10965745623E+01  0.14604988424E+02  0.18976073874E+02  0.51100000000E-03 0. -1.
        -11    1    3    3    0    0 -0.13679962216E+02 -0.29725915426E+01  0.17232994583E+02  0.22202562223E+02  0.51100000000E-03 0.  1.
         12    1    3    3    0    0 -0.43920315658E+01  0.16306371169E+01  0.16398823674E+01  0.49636813819E+01  0.00000000000E+00 0. -1.
</event>
<event>
 7    1  0.2323330E-008  0.4614232E+02  0.7816164E-02  0.1320468E+00
        -11   -1    0    0    0    0  0.00000000000E+00  0.00000000000E+00  0.45593999997E+02  0.45594000000E+02  0.51100000000E-03 0.  1.
         11   -1    0    0    0    0 -0.00000000000E+00 -0.00000000000E+00 -0.45593999997E+02  0.45594000000E+02  0.51100000000E-03 0. -1.
    9900012    2    1    2    0    0  0.21598507737E+02  0.14703755481E+02  0.36693561210E+02  0.46142318786E+02  0.10000009350E+02 0.  0.
         12    1    1    2    0    0 -0.21598507737E+02 -0.14703755481E+02 -0.36693561210E+02  0.45045681214E+02  0.00000000000E+00 0. -1.
         11    1    3    3    0    0  0.90951969635E+01  0.90586969396E+01  0.17614790462E+02  0.21795950113E+02  0.51100000000E-03 0. -1.
        -11    1    3    3    0    0  0.12274909182E+02  0.41891150276E+01  0.18810242626E+02  0.22848354603E+02  0.51100000000E-03 0.  1.
         12    1    3    3    0    0  0.22840159164E+00  0.14559435142E+01  0.26852812188E+00  0.14980140706E+01  0.00000000000E+00 0. -1.
</event>
<event>
 7    1  0.2323330E-008  0.4614232E+02  0.7816164E-02  0.1320468E+00
        -11   -1    0    0    0    0  0.00000000000E+00  0.00000000000E+00  0.45593999997E+02  0.45594000000E+02  0.51100000000E-03 0.  1.
         11   -1    0    0    0    0 -0.00000000000E+00 -0.00000000000E+00 -0.45593999997E+02  0.45594000000E+02  0.51100000000E-03 0. -1.
    9900012    2    1    2    0    0 -0.34615567917E+02  0.17135057421E+02  0.23178992060E+02  0.46142318654E+02  0.10000008139E+02 0.  0.
         12    1    1    2    0    0  0.34615567917E+02 -0.17135057421E+02 -0.23178992060E+02  0.45045681346E+02  0.00000000000E+00 0. -1.
         11    1    3    3    0    0 -0.98837624111E+01  0.72620087884E+01  0.65332050305E+01  0.13896341219E+02  0.51100000000E-03 0. -1.
        -11    1    3    3    0    0 -0.82553554721E+01  0.67646083607E+01  0.47186021610E+01  0.11669448439E+02  0.51100000000E-03 0.  1.
         12    1    3    3    0    0 -0.16476450034E+02  0.31084402714E+01  0.11927184869E+02  0.20576528996E+02  0.00000000000E+00 0. -1.
</event>
<event>
 7    1  0.2323330E-008  0.4614232E+02  0.7816164E-02  0.1320468E+00
        -11   -1    0    0    0    0  0.00000000000E+00  0.00000000000E+00  0.45593999997E+02  0.45594000000E+02  0.51100000000E-03 0.  1.
         11   -1    0    0    0    0 -0.00000000000E+00 -0.00000000000E+00 -0.45593999997E+02  0.45594000000E+02  0.51100000000E-03 0. -1.
    9900012    2    1    2    0    0 -0.69787467700E+01 -0.11228983396E+02  0.43061820912E+02  0.46142318799E+02  0.10000009467E+02 0.  0.
         12    1    1    2    0    0  0.69787467700E+01  0.11228983396E+02 -0.43061820912E+02  0.45045681201E+02  0.00000000000E+00 0. -1.
         11    1    3    3    0    0  0.14432426698E+01 -0.11264842092E+01  0.14239854966E+01  0.23194074745E+01  0.51100000000E-03 0. -1.
        -11    1    3    3    0    0 -0.71921774470E+01 -0.96928700957E+01  0.34067636992E+02  0.36142537786E+02  0.51100000000E-03 0.  1.
         12    1    3    3    0    0 -0.12298119928E+01 -0.40962909111E+00  0.75701984230E+01  0.76803735386E+01  0.00000000000E+00 0. -1.
</event>
<event>
 7    1  0.2323330E-008  0.4614232E+02  0.7816164E-02  0.1320468E+00
        -11   -1    0    0    0    0  0.00000000000E+00  0.00000000000E+00  0.45593999997E+02  0.45594000000E+02  0.51100000000E-03 0.  1.
         11   -1    0    0    0    0 -0.00000000000E+00 -0.00000000000E+00 -0.45593999997E+02  0.45594000000E+02  0.51100000000E-03 0. -1.
    9900012    2    1    2    0    0  0.13148748885E+02  0.37669007467E+00  0.43082269481E+02  0.46142318339E+02  0.10000005268E+02 0.  0.
         12    1    1    2    0    0 -0.13148748885E+02 -0.37669007467E+00 -0.43082269481E+02  0.45045681661E+02  0.00000000000E+00 0. -1.
         11    1    3    3    0    0 -0.77612125477E+00  0.16118138276E+01  0.88957061460E+01  0.90738027372E+01  0.51100000000E-03 0. -1.
        -11    1    3    3    0    0  0.91370850841E+01  0.42079923920E+00  0.24189949369E+02  0.25861497377E+02  0.51100000000E-03 0.  1.
         12    1    3    3    0    0  0.47877850559E+01 -0.16559229921E+01  0.99966139659E+01  0.11207018224E+02  0.00000000000E+00 0. -1.
</event>
<event>
 7    1  0.2323330E-008  0.4614232E+02  0.7816164E-02  0.1320468E+00
        -11   -1    0    0    0    0  0.00000000000E+00  0.00000000000E+00  0.45593999997E+02  0.45594000000E+02  0.51100000000E-03 0.  1.
         11   -1    0    0    0    0 -0.00000000000E+00 -0.00000000000E+00 -0.45593999997E+02  0.45594000000E+02  0.51100000000E-03 0. -1.
    9900012    2    1    2    0    0  0.34576718701E+02  0.17483946365E+02  0.22975544986E+02  0.46142317366E+02  0.99999963944E+01 0.  0.
         12    1    1    2    0    0 -0.34576718701E+02 -0.17483946365E+02 -0.22975544986E+02  0.45045682634E+02  0.00000000000E+00 0. -1.
         11    1    3    3    0    0  0.34577437353E+02  0.17052608954E+02  0.22973641946E+02  0.44879604171E+02  0.51100000000E-03 0.  1.
        -11    1    3    3    0    0  0.29179263813E+00  0.63144045529E+00  0.33880795679E+00  0.77372545838E+00  0.51100000000E-03 0. -1.
        -12    1    3    3    0    0 -0.29251129058E+00 -0.20010304451E+00 -0.33690491642E+00  0.48898773629E+00  0.00000000000E+00 0.  1.
</event>
<event>
 7    1  0.2323330E-008  0.4614232E+02  0.7816164E-02  0.1320468E+00
        -11   -1    0    0    0    0  0.00000000000E+00  0.00000000000E+00  0.45593999997E+02  0.45594000000E+02  0.51100000000E-03 0. -1.
         11   -1    0    0    0    0 -0.00000000000E+00 -0.00000000000E+00 -0.45593999997E+02  0.45594000000E+02  0.51100000000E-03 0.  1.
    9900012    2    1    2    0    0 -0.68491733986E+01  0.41978748122E+02 -0.14831958454E+02  0.46142318057E+02  0.10000002696E+02 0.  0.
         12    1    1    2    0    0  0.68491733986E+01 -0.41978748122E+02  0.14831958454E+02  0.45045681943E+02  0.00000000000E+00 0. -1.
         11    1    3    3    0    0 -0.37267489291E+01  0.10477263664E+02 -0.43007574994E+01  0.11923012488E+02  0.51100000000E-03 0. -1.
        -11    1    3    3    0    0 -0.72625995973E+00  0.11058957738E+01  0.96129076904E+00  0.16354018452E+01  0.51100000000E-03 0.  1.
        -12    1    3    3    0    0 -0.23961645097E+01  0.30395588685E+02 -0.11492491724E+02  0.32583903724E+02  0.00000000000E+00 0.  1.
</event>
<event>
 7    1  0.2323330E-008  0.4614232E+02  0.7816164E-02  0.1320468E+00
        -11   -1    0    0    0    0  0.00000000000E+00  0.00000000000E+00  0.45593999997E+02  0.45594000000E+02  0.51100000000E-03 0.  1.
         11   -1    0    0    0    0 -0.00000000000E+00 -0.00000000000E+00 -0.45593999997E+02  0.45594000000E+02  0.51100000000E-03 0. -1.
    9900012    2    1    2    0    0  0.10154284542E+02  0.15533740303E+02  0.41045181434E+02  0.46142317617E+02  0.99999986886E+01 0.  0.
         12    1    1    2    0    0 -0.10154284542E+02 -0.15533740303E+02 -0.41045181434E+02  0.45045682383E+02  0.00000000000E+00 0. -1.
         11    1    3    3    0    0  0.20817043001E+01  0.10069969133E+02  0.16735071049E+02  0.19641801710E+02  0.51100000000E-03 0. -1.
        -11    1    3    3    0    0 -0.25008628693E+00  0.40060231513E+00  0.33978511747E+01  0.34305128235E+01  0.51100000000E-03 0.  1.
        -12    1    3    3    0    0  0.83226665291E+01  0.50631688548E+01  0.20912259211E+02  0.23070003084E+02  0.00000000000E+00 0.  1.
</event>
<event>
 7    1  0.2323330E-008  0.4614232E+02  0.7816164E-02  0.1320468E+00
        -11   -1    0    0    0    0  0.00000000000E+00  0.00000000000E+00  0.45593999997E+02  0.45594000000E+02  0.51100000000E-03 0.  1.
         11   -1    0    0    0    0 -0.00000000000E+00 -0.00000000000E+00 -0.45593999997E+02  0.45594000000E+02  0.51100000000E-03 0. -1.
    9900012    2    1    2    0    0 -0.40186484127E+02  0.18438143988E+02 -0.86136362188E+01  0.46142318863E+02  0.10000010045E+02 0.  0.
         12    1    1    2    0    0  0.40186484127E+02 -0.18438143988E+02  0.86136362188E+01  0.45045681137E+02  0.00000000000E+00 0. -1.
         11    1    3    3    0    0 -0.59055224412E+01  0.11115373656E+01  0.10834621481E+01  0.61061117829E+01  0.51100000000E-03 0. -1.
        -11    1    3    3    0    0 -0.11961045438E+02  0.76568146681E+01 -0.11287276854E+01  0.14246664356E+02  0.51100000000E-03 0.  1.
         12    1    3    3    0    0 -0.22319916248E+02  0.96697919545E+01 -0.85683706815E+01  0.25789542724E+02  0.00000000000E+00 0. -1.
</event>
<event>
 7    1  0.2323330E-008  0.4614232E+02  0.7816164E-02  0.1320468E+00
        -11   -1    0    0    0    0  0.00000000000E+00  0.00000000000E+00  0.45593999997E+02  0.45594000000E+02  0.51100000000E-03 0.  1.
         11   -1    0    0    0    0 -0.00000000000E+00 -0.00000000000E+00 -0.45593999997E+02  0.45594000000E+02  0.51100000000E-03 0. -1.
    9900012    2    1    2    0    0  0.42196478235E+02 -0.95682998307E+01  0.12530697521E+02  0.46142317439E+02  0.99999970583E+01 0.  0.
         12    1    1    2    0    0 -0.42196478235E+02  0.95682998307E+01 -0.12530697521E+02  0.45045682561E+02  0.00000000000E+00 0. -1.
         11    1    3    3    0    0 -0.50356378298E+00 -0.11785011269E+00  0.49508306888E+00  0.71594178450E+00  0.51100000000E-03 0. -1.
        -11    1    3    3    0    0  0.91453629547E+01 -0.16694569256E+01  0.35522760650E+01  0.99520558430E+01  0.51100000000E-03 0.  1.
         12    1    3    3    0    0  0.33554679063E+02 -0.77809927924E+01  0.84833383868E+01  0.35474319811E+02  0.00000000000E+00 0. -1.
</event>
<event>
 7    1  0.2323330E-008  0.4614232E+02  0.7816164E-02  0.1320468E+00
        -11   -1    0    0    0    0  0.00000000000E+00  0.00000000000E+00  0.45593999997E+02  0.45594000000E+02  0.51100000000E-03 0. -1.
         11   -1    0    0    0    0 -0.00000000000E+00 -0.00000000000E+00 -0.45593999997E+02  0.45594000000E+02  0.51100000000E-03 0.  1.
    9900012    2    1    2    0    0 -0.11626073730E+02 -0.29819586562E+02 -0.31697636046E+02  0.46142318031E+02  0.10000002465E+02 0.  0.
         12    1    1    2    0    0  0.11626073730E+02  0.29819586562E+02  0.31697636046E+02  0.45045681969E+02  0.00000000000E+00 0. -1.
         11    1    3    3    0    0 -0.82132337708E+01 -0.16369734338E+02 -0.23057892232E+02  0.29446422630E+02  0.51100000000E-03 0. -1.
        -11    1    3    3    0    0  0.43775021251E+00 -0.20213500515E+01 -0.22190632042E+01  0.30334341998E+01  0.51100000000E-03 0.  1.
         12    1    3    3    0    0 -0.38505901717E+01 -0.11428502173E+02 -0.64206806093E+01  0.13662461202E+02  0.00000000000E+00 0. -1.
</event>
<event>
 7    1  0.2323330E-008  0.4614232E+02  0.7816164E-02  0.1320468E+00
        -11   -1    0    0    0    0  0.00000000000E+00  0.00000000000E+00  0.45593999997E+02  0.45594000000E+02  0.51100000000E-03 0. -1.
         11   -1    0    0    0    0 -0.00000000000E+00 -0.00000000000E+00 -0.45593999997E+02  0.45594000000E+02  0.51100000000E-03 0.  1.
    9900012    2    1    2    0    0 -0.40122004327E+02 -0.18581560626E+02 -0.86060359520E+01  0.46142317840E+02  0.10000000715E+02 0.  0.
         12    1    1    2    0    0  0.40122004327E+02  0.18581560626E+02  0.86060359520E+01  0.45045682160E+02  0.00000000000E+00 0. -1.
         11    1    3    3    0    0 -0.13574994446E+01 -0.27740734322E+01 -0.18465712232E+01  0.35983487453E+01  0.51100000000E-03 0. -1.
        -11    1    3    3    0    0 -0.90287395756E+01 -0.21647429993E+01 -0.12877619326E+01  0.93735042345E+01  0.51100000000E-03 0.  1.
        -12    1    3    3    0    0 -0.29735765307E+02 -0.13642744194E+02 -0.54717027962E+01  0.33170464860E+02  0.00000000000E+00 0.  1.
</event>
<event>
 7    1  0.2323330E-008  0.4614232E+02  0.7816164E-02  0.1320468E+00
        -11   -1    0    0    0    0  0.00000000000E+00  0.00000000000E+00  0.45593999997E+02  0.45594000000E+02  0.51100000000E-03 0.  1.
         11   -1    0    0    0    0 -0.00000000000E+00 -0.00000000000E+00 -0.45593999997E+02  0.45594000000E+02  0.51100000000E-03 0. -1.
    9900012    2    1    2    0    0  0.36640454239E+01 -0.38031314550E+01  0.44735047459E+02  0.46142317533E+02  0.99999979226E+01 0.  0.
         12    1    1    2    0    0 -0.36640454239E+01  0.38031314550E+01 -0.44735047459E+02  0.45045682467E+02  0.00000000000E+00 0. -1.
         11    1    3    3    0    0  0.22790275144E+01 -0.34542836700E+01  0.57208021848E+01  0.70607095948E+01  0.51100000000E-03 0. -1.
        -11    1    3    3    0    0 -0.10928039697E+00 -0.69550257467E+00  0.16606877356E+02  0.16621794182E+02  0.51100000000E-03 0.  1.
        -12    1    3    3    0    0  0.14942983065E+01  0.34665478962E+00  0.22407367918E+02  0.22459813757E+02  0.00000000000E+00 0.  1.
</event>
<event>
 7    1  0.2323330E-008  0.4614232E+02  0.7816164E-02  0.1320468E+00
        -11   -1    0    0    0    0  0.00000000000E+00  0.00000000000E+00  0.45593999997E+02  0.45594000000E+02  0.51100000000E-03 0. -1.
         11   -1    0    0    0    0 -0.00000000000E+00 -0.00000000000E+00 -0.45593999997E+02  0.45594000000E+02  0.51100000000E-03 0.  1.
    9900012    2    1    2    0    0 -0.25081741423E+01  0.18733304743E+02 -0.40888701602E+02  0.46142316935E+02  0.99999924675E+01 0.  0.
         12    1    1    2    0    0  0.25081741423E+01 -0.18733304743E+02  0.40888701602E+02  0.45045683065E+02  0.00000000000E+00 0. -1.
         11    1    3    3    0    0 -0.47675292200E+00 -0.40983946303E+00 -0.29482102669E+01  0.30144992574E+01  0.51100000000E-03 0. -1.
        -11    1    3    3    0    0 -0.14987017729E+01  0.19441232769E+02 -0.37749775993E+02  0.42488271633E+02  0.51100000000E-03 0.  1.
         12    1    3    3    0    0 -0.53271944743E+00 -0.29808856323E+00 -0.19071534140E+00  0.63954604419E+00  0.00000000000E+00 0. -1.
</event>
<event>
 7    1  0.2323330E-008  0.4614232E+02  0.7816164E-02  0.1320468E+00
        -11   -1    0    0    0    0  0.00000000000E+00  0.00000000000E+00  0.45593999997E+02  0.45594000000E+02  0.51100000000E-03 0.  1.
         11   -1    0    0    0    0 -0.00000000000E+00 -0.00000000000E+00 -0.45593999997E+02  0.45594000000E+02  0.51100000000E-03 0. -1.
    9900012    2    1    2    0    0  0.18918374575E+02 -0.17142633441E+02  0.37112514983E+02  0.46142317119E+02  0.99999941436E+01 0.  0.
         12    1    1    2    0    0 -0.18918374575E+02  0.17142633441E+02 -0.37112514983E+02  0.45045682881E+02  0.00000000000E+00 0. -1.
         11    1    3    3    0    0  0.12817342792E+00  0.15360693091E+00 -0.46066595257E+00  0.50223191637E+00  0.51100000000E-03 0. -1.
        -11    1    3    3    0    0  0.10345883951E+02 -0.94640621139E+01  0.16751817593E+02  0.21845575739E+02  0.51100000000E-03 0.  1.
        -12    1    3    3    0    0  0.84443171962E+01 -0.78321782575E+01  0.20821363343E+02  0.23794509464E+02  0.00000000000E+00 0.  1.
</event>
<event>
 7    1  0.2323330E-008  0.4614232E+02  0.7816164E-02  0.1320468E+00
        -11   -1    0    0    0    0  0.00000000000E+00  0.00000000000E+00  0.45593999997E+02  0.45594000000E+02  0.51100000000E-03 0.  1.
         11   -1    0    0    0    0 -0.00000000000E+00 -0.00000000000E+00 -0.45593999997E+02  0.45594000000E+02  0.51100000000E-03 0. -1.
    9900012    2    1    2    0    0  0.18366440596E+02 -0.20029620669E+02  0.35924946878E+02  0.46142315939E+02  0.99999833846E+01 0.  0.
         12    1    1    2    0    0 -0.18366440596E+02  0.20029620669E+02 -0.35924946878E+02  0.45045684061E+02  0.00000000000E+00 0. -1.
         11    1    3    3    0    0  0.10606384696E+02 -0.13031452945E+02  0.18581398365E+02  0.25051597307E+02  0.51100000000E-03 0.  1.
        -11    1    3    3    0    0  0.42213761592E+00 -0.32072818438E+01  0.79475326049E+01  0.85806836418E+01  0.51100000000E-03 0. -1.
         12    1    3    3    0    0  0.73379182846E+01 -0.37908858803E+01  0.93960159086E+01  0.12510034991E+02  0.00000000000E+00 0. -1.
</event>
<event>
 7    1  0.2323330E-008  0.4614232E+02  0.7816164E-02  0.1320468E+00
        -11   -1    0    0    0    0  0.00000000000E+00  0.00000000000E+00  0.45593999997E+02  0.45594000000E+02  0.51100000000E-03 0.  1.
         11   -1    0    0    0    0 -0.00000000000E+00 -0.00000000000E+00 -0.45593999997E+02  0.45594000000E+02  0.51100000000E-03 0. -1.
    9900012    2    1    2    0    0  0.17170689480E+02  0.37478070556E+02  0.18156958977E+02  0.46142317531E+02  0.99999979008E+01 0.  0.
         12    1    1    2    0    0 -0.17170689480E+02 -0.37478070556E+02 -0.18156958977E+02  0.45045682469E+02  0.00000000000E+00 0. -1.
         11    1    3    3    0    0  0.41523008477E+01  0.16185032552E+02  0.80004367530E+01  0.18525762320E+02  0.51100000000E-03 0. -1.
        -11    1    3    3    0    0  0.67406003001E+01  0.13551998755E+02  0.89324415166E+01  0.17575007094E+02  0.51100000000E-03 0.  1.
         12    1    3    3    0    0  0.62777883318E+01  0.77410392496E+01  0.12240807072E+01  0.10041548117E+02  0.00000000000E+00 0. -1.
</event>
<event>
 7    1  0.2323330E-008  0.4614232E+02  0.7816164E-02  0.1320468E+00
        -11   -1    0    0    0    0  0.00000000000E+00  0.00000000000E+00  0.45593999997E+02  0.45594000000E+02  0.51100000000E-03 0. -1.
         11   -1    0    0    0    0 -0.00000000000E+00 -0.00000000000E+00 -0.45593999997E+02  0.45594000000E+02  0.51100000000E-03 0.  1.
    9900012    2    1    2    0    0  0.28765544771E+02  0.25932167441E+02 -0.23003905557E+02  0.46142317132E+02  0.99999942611E+01 0.  0.
         12    1    1    2    0    0 -0.28765544771E+02 -0.25932167441E+02  0.23003905557E+02  0.45045682868E+02  0.00000000000E+00 0. -1.
         11    1    3    3    0    0  0.17504978889E+01  0.90760788080E+00  0.15271731110E+00  0.19777051759E+01  0.51100000000E-03 0. -1.
        -11    1    3    3    0    0  0.26383056497E+02  0.21710211705E+02 -0.20293386870E+02  0.39739407561E+02  0.51100000000E-03 0.  1.
         12    1    3    3    0    0  0.63199038567E+00  0.33143478559E+01 -0.28632359983E+01  0.44252043952E+01  0.00000000000E+00 0. -1.
</event>
<event>
 7    1  0.2323330E-008  0.4614232E+02  0.7816164E-02  0.1320468E+00
        -11   -1    0    0    0    0  0.00000000000E+00  0.00000000000E+00  0.45593999997E+02  0.45594000000E+02  0.51100000000E-03 0.  1.
         11   -1    0    0    0    0 -0.00000000000E+00 -0.00000000000E+00 -0.45593999997E+02  0.45594000000E+02  0.51100000000E-03 0. -1.
    9900012    2    1    2    0    0 -0.42741782947E+02 -0.41551960754E+01  0.13601026953E+02  0.46142316543E+02  0.99999888942E+01 0.  0.
         12    1    1    2    0    0  0.42741782947E+02  0.41551960754E+01 -0.13601026953E+02  0.45045683457E+02  0.00000000000E+00 0. -1.
         11    1    3    3    0    0 -0.57628147069E+01  0.74371687447E+00 -0.70074270545E+00  0.58527078123E+01  0.51100000000E-03 0. -1.
        -11    1    3    3    0    0 -0.18571232536E+02 -0.47138607427E+01  0.58487988536E+01  0.20032963068E+02  0.51100000000E-03 0.  1.
        -12    1    3    3    0    0 -0.18407735704E+02 -0.18505220717E+00  0.84529708048E+01  0.20256645663E+02  0.00000000000E+00 0.  1.
</event>
<event>
 7    1  0.2323330E-008  0.4614232E+02  0.7816164E-02  0.1320468E+00
        -11   -1    0    0    0    0  0.00000000000E+00  0.00000000000E+00  0.45593999997E+02  0.45594000000E+02  0.51100000000E-03 0.  1.
         11   -1    0    0    0    0 -0.00000000000E+00 -0.00000000000E+00 -0.45593999997E+02  0.45594000000E+02  0.51100000000E-03 0. -1.
    9900012    2    1    2    0    0  0.25612344455E+02 -0.17342424700E+02  0.32746932469E+02  0.46142317975E+02  0.10000001952E+02 0.  0.
         12    1    1    2    0    0 -0.25612344455E+02  0.17342424700E+02 -0.32746932469E+02  0.45045682025E+02  0.00000000000E+00 0. -1.
         11    1    3    3    0    0  0.80612211267E+01 -0.34156584260E+01  0.68055786920E+01  0.11088999510E+02  0.51100000000E-03 0. -1.
        -11    1    3    3    0    0  0.17851871816E+02 -0.13585683370E+02  0.23191695658E+02  0.32266311653E+02  0.51100000000E-03 0.  1.
         12    1    3    3    0    0 -0.30074848752E+00 -0.34108290448E+00  0.27496581185E+01  0.27870068118E+01  0.00000000000E+00 0. -1.
</event>
<event>
 7    1  0.2323330E-008  0.4614232E+02  0.7816164E-02  0.1320468E+00
        -11   -1    0    0    0    0  0.00000000000E+00  0.00000000000E+00  0.45593999997E+02  0.45594000000E+02  0.51100000000E-03 0.  1.
         11   -1    0    0    0    0 -0.00000000000E+00 -0.00000000000E+00 -0.45593999997E+02  0.45594000000E+02  0.51100000000E-03 0. -1.
    9900012    2    1    2    0    0 -0.13777814818E+02 -0.41454913440E+02  0.10989789130E+02  0.46142317692E+02  0.99999993706E+01 0.  0.
         12    1    1    2    0    0  0.13777814818E+02  0.41454913440E+02 -0.10989789130E+02  0.45045682308E+02  0.00000000000E+00 0. -1.
         11    1    3    3    0    0 -0.23113721310E+01 -0.13860048628E+02  0.71646964921E+01  0.15772642936E+02  0.51100000000E-03 0. -1.
        -11    1    3    3    0    0 -0.54685308961E+01 -0.92540651974E+01  0.29703887979E+00  0.10753175587E+02  0.51100000000E-03 0.  1.
        -12    1    3    3    0    0 -0.59979117908E+01 -0.18340799615E+02  0.35280537582E+01  0.19616499170E+02  0.00000000000E+00 0.  1.
</event>
<event>
 7    1  0.2323330E-008  0.4614232E+02  0.7816164E-02  0.1320468E+00
        -11   -1    0    0    0    0  0.00000000000E+00  0.00000000000E+00  0.45593999997E+02  0.45594000000E+02  0.51100000000E-03 0.  1.
         11   -1    0    0    0    0 -0.00000000000E+00 -0.00000000000E+00 -0.45593999997E+02  0.45594000000E+02  0.51100000000E-03 0. -1.
    9900012    2    1    2    0    0  0.28555665876E+02  0.34370366257E+02 -0.56890540924E+01  0.46142318001E+02  0.10000002190E+02 0.  0.
         12    1    1    2    0    0 -0.28555665876E+02 -0.34370366257E+02  0.56890540924E+01  0.45045681999E+02  0.00000000000E+00 0. -1.
         11    1    3    3    0    0  0.19088420826E+01  0.13660830535E+01 -0.12255369701E+01  0.26479807649E+01  0.51100000000E-03 0. -1.
        -11    1    3    3    0    0  0.14674656347E+02  0.23867183509E+02 -0.48219537148E+01  0.28429548457E+02  0.51100000000E-03 0.  1.
        -12    1    3    3    0    0  0.11972167446E+02  0.91370996947E+01  0.35843659247E+00  0.15064788780E+02  0.00000000000E+00 0.  1.
</event>
<event>
 7    1  0.2323330E-008  0.4614232E+02  0.7816164E-02  0.1320468E+00
        -11   -1    0    0    0    0  0.00000000000E+00  0.00000000000E+00  0.45593999997E+02  0.45594000000E+02  0.51100000000E-03 0.  1.
         11   -1    0    0    0    0 -0.00000000000E+00 -0.00000000000E+00 -0.45593999997E+02  0.45594000000E+02  0.51100000000E-03 0. -1.
    9900012    2    1    2    0    0 -0.89495514105E+01  0.54177493537E+01  0.43814005096E+02  0.46142317398E+02  0.99999966895E+01 0.  0.
         12    1    1    2    0    0  0.89495514105E+01 -0.54177493537E+01 -0.43814005096E+02  0.45045682602E+02  0.00000000000E+00 0. -1.
         11    1    3    3    0    0 -0.30708612021E+01  0.15590705702E+01  0.62914244057E+01  0.71723713567E+01  0.51100000000E-03 0. -1.
        -11    1    3    3    0    0 -0.17463401000E+01  0.51947636879E+01  0.13714279680E+02  0.14768775877E+02  0.51100000000E-03 0.  1.
         12    1    3    3    0    0 -0.41323501084E+01 -0.13360849045E+01  0.23808301011E+02  0.24201170164E+02  0.00000000000E+00 0. -1.
</event>
<event>
 7    1  0.2323330E-008  0.4614232E+02  0.7816164E-02  0.1320468E+00
        -11   -1    0    0    0    0  0.00000000000E+00  0.00000000000E+00  0.45593999997E+02  0.45594000000E+02  0.51100000000E-03 0. -1.
         11   -1    0    0    0    0 -0.00000000000E+00 -0.00000000000E+00 -0.45593999997E+02  0.45594000000E+02  0.51100000000E-03 0.  1.
    9900012    2    1    2    0    0 -0.48733470529E+01 -0.35590783170E+02 -0.27178304726E+02  0.46142316456E+02  0.99999880999E+01 0.  0.
         12    1    1    2    0    0  0.48733470529E+01  0.35590783170E+02  0.27178304726E+02  0.45045683544E+02  0.00000000000E+00 0. -1.
         11    1    3    3    0    0  0.20246695374E+01 -0.32583056636E+01 -0.25535066574E+01  0.46082794016E+01  0.51100000000E-03 0. -1.
        -11    1    3    3    0    0 -0.23175925119E+01 -0.21878393480E+02 -0.15336492734E+02  0.26818712608E+02  0.51100000000E-03 0.  1.
         12    1    3    3    0    0 -0.45804240784E+01 -0.10454084027E+02 -0.92883053349E+01  0.14715324447E+02  0.00000000000E+00 0. -1.
</event>
<event>
 7    1  0.2323330E-008  0.4614232E+02  0.7816164E-02  0.1320468E+00
        -11   -1    0    0    0    0  0.00000000000E+00  0.00000000000E+00  0.45593999997E+02  0.45594000000E+02  0.51100000000E-03 0.  1.
         11   -1    0    0    0    0 -0.00000000000E+00 -0.00000000000E+00 -0.45593999997E+02  0.45594000000E+02  0.51100000000E-03 0. -1.
    9900012    2    1    2    0    0 -0.28428064058E+02  0.19990727028E+01  0.34884988290E+02  0.46142317346E+02  0.99999962167E+01 0.  0.
         12    1    1    2    0    0  0.28428064058E+02 -0.19990727028E+01 -0.34884988290E+02  0.45045682654E+02  0.00000000000E+00 0. -1.
         11    1    3    3    0    0 -0.90150376434E+00  0.10876688998E+01  0.32251445780E+01  0.35209786257E+01  0.51100000000E-03 0. -1.
        -11    1    3    3    0    0 -0.13465087537E+02  0.40029248491E+01  0.17327246215E+02  0.22306175185E+02  0.51100000000E-03 0.  1.
         12    1    3    3    0    0 -0.14061472757E+02 -0.30915210461E+01  0.14332597497E+02  0.20315163535E+02  0.00000000000E+00 0. -1.
</event>
<event>
 7    1  0.2323330E-008  0.4614232E+02  0.7816164E-02  0.1320468E+00
        -11   -1    0    0    0    0  0.00000000000E+00  0.00000000000E+00  0.45593999997E+02  0.45594000000E+02  0.51100000000E-03 0.  1.
         11   -1    0    0    0    0 -0.00000000000E+00 -0.00000000000E+00 -0.45593999997E+02  0.45594000000E+02  0.51100000000E-03 0. -1.
    9900012    2    1    2    0    0 -0.20581856979E+02 -0.22125227138E+02  0.33406202697E+02  0.46142324389E+02  0.10000060440E+02 0.  0.
         12    1    1    2    0    0  0.20581856979E+02  0.22125227138E+02 -0.33406202697E+02  0.45045675611E+02  0.00000000000E+00 0. -1.
         11    1    3    3    0    0 -0.11052066805E+01 -0.37073181505E+01  0.67948984347E+01  0.78189727378E+01  0.51100000000E-03 0. -1.
        -11    1    3    3    0    0  0.26681455417E+00 -0.57326289164E+00  0.19165494465E+01  0.20181631231E+01  0.51100000000E-03 0.  1.
        -12    1    3    3    0    0 -0.19743464852E+02 -0.17844646096E+02  0.24694754816E+02  0.36305188528E+02  0.00000000000E+00 0.  1.
</event>
<event>
 7    1  0.2323330E-008  0.4614232E+02  0.7816164E-02  0.1320468E+00
        -11   -1    0    0    0    0  0.00000000000E+00  0.00000000000E+00  0.45593999997E+02  0.45594000000E+02  0.51100000000E-03 0. -1.
         11   -1    0    0    0    0 -0.00000000000E+00 -0.00000000000E+00 -0.45593999997E+02  0.45594000000E+02  0.51100000000E-03 0.  1.
    9900012    2    1    2    0    0  0.38982024883E+02  0.19519249263E+02  0.11336402739E+02  0.46142318932E+02  0.10000010681E+02 0.  0.
         12    1    1    2    0    0 -0.38982024883E+02 -0.19519249263E+02 -0.11336402739E+02  0.45045681068E+02  0.00000000000E+00 0. -1.
         11    1    3    3    0    0  0.20266763377E+02  0.11708785851E+02  0.92010000971E+01  0.25149468522E+02  0.51100000000E-03 0. -1.
        -11    1    3    3    0    0  0.16434176649E+02  0.81681635263E+01  0.28582520100E+01  0.18573385861E+02  0.51100000000E-03 0.  1.
         12    1    3    3    0    0  0.22810848574E+01 -0.35770011511E+00 -0.72284936778E+00  0.24194645498E+01  0.00000000000E+00 0. -1.
</event>
<event>
 7    1  0.2323330E-008  0.4614232E+02  0.7816164E-02  0.1320468E+00
        -11   -1    0    0    0    0  0.00000000000E+00  0.00000000000E+00  0.45593999997E+02  0.45594000000E+02  0.51100000000E-03 0.  1.
         11   -1    0    0    0    0 -0.00000000000E+00 -0.00000000000E+00 -0.45593999997E+02  0.45594000000E+02  0.51100000000E-03 0. -1.
    9900012    2    1    2    0    0  0.65040818696E+01 -0.31354832649E+02  0.31680985519E+02  0.46142318133E+02  0.10000003389E+02 0.  0.
         12    1    1    2    0    0 -0.65040818696E+01  0.31354832649E+02 -0.31680985519E+02  0.45045681867E+02  0.00000000000E+00 0. -1.
         11    1    3    3    0    0  0.15051372892E+01 -0.25034479680E+01  0.69825394676E+00  0.30033729078E+01  0.51100000000E-03 0. -1.
        -11    1    3    3    0    0 -0.17518632993E+00 -0.16588917478E+02  0.15277809396E+02  0.22552922948E+02  0.51100000000E-03 0.  1.
         12    1    3    3    0    0  0.51741309104E+01 -0.12262467203E+02  0.15704922177E+02  0.20586022277E+02  0.00000000000E+00 0. -1.
</event>
<event>
 7    1  0.2323330E-008  0.4614232E+02  0.7816164E-02  0.1320468E+00
        -11   -1    0    0    0    0  0.00000000000E+00  0.00000000000E+00  0.45593999997E+02  0.45594000000E+02  0.51100000000E-03 0.  1.
         11   -1    0    0    0    0 -0.00000000000E+00 -0.00000000000E+00 -0.45593999997E+02  0.45594000000E+02  0.51100000000E-03 0. -1.
    9900012    2    1    2    0    0  0.40019544314E+02  0.10961534632E+02  0.17532665657E+02  0.46142317258E+02  0.99999954144E+01 0.  0.
         12    1    1    2    0    0 -0.40019544314E+02 -0.10961534632E+02 -0.17532665657E+02  0.45045682742E+02  0.00000000000E+00 0. -1.
         11    1    3    3    0    0  0.21461282742E+01  0.90970934609E+00 -0.52440036351E+00  0.23892328614E+01  0.51100000000E-03 0. -1.
        -11    1    3    3    0    0  0.12949842877E+02  0.66506419281E+01  0.48652444315E+01  0.15349269436E+02  0.51100000000E-03 0.  1.
        -12    1    3    3    0    0  0.24923573163E+02  0.34011833580E+01  0.13191821589E+02  0.28403814961E+02  0.00000000000E+00 0.  1.
</event>
<event>
 7    1  0.2323330E-008  0.4614232E+02  0.7816164E-02  0.1320468E+00
        -11   -1    0    0    0    0  0.00000000000E+00  0.00000000000E+00  0.45593999997E+02  0.45594000000E+02  0.51100000000E-03 0.  1.
         11   -1    0    0    0    0 -0.00000000000E+00 -0.00000000000E+00 -0.45593999997E+02  0.45594000000E+02  0.51100000000E-03 0. -1.
    9900012    2    1    2    0    0  0.44045098817E+02 -0.87757053291E+01 -0.34827782167E+01  0.46142317877E+02  0.10000001053E+02 0.  0.
         12    1    1    2    0    0 -0.44045098817E+02  0.87757053291E+01  0.34827782167E+01  0.45045682123E+02  0.00000000000E+00 0. -1.
         11    1    3    3    0    0 -0.41958523348E+00 -0.14120711876E+00  0.18000854933E+00  0.47790643173E+00  0.51100000000E-03 0. -1.
        -11    1    3    3    0    0  0.14636832068E+02 -0.31609163611E+01  0.88023315255E+00  0.15000101863E+02  0.51100000000E-03 0.  1.
         12    1    3    3    0    0  0.29827851983E+02 -0.54735818493E+01 -0.45430199186E+01  0.30664309582E+02  0.00000000000E+00 0. -1.
</event>
<event>
 7    1  0.2323330E-008  0.4614232E+02  0.7816164E-02  0.1320468E+00
        -11   -1    0    0    0    0  0.00000000000E+00  0.00000000000E+00  0.45593999997E+02  0.45594000000E+02  0.51100000000E-03 0.  1.
         11   -1    0    0    0    0 -0.00000000000E+00 -0.00000000000E+00 -0.45593999997E+02  0.45594000000E+02  0.51100000000E-03 0. -1.
    9900012    2    1    2    0    0  0.17795849274E+02 -0.41296802492E+02 -0.26448822061E+01  0.46142317085E+02  0.99999938310E+01 0.  0.
         12    1    1    2    0    0 -0.17795849274E+02  0.41296802492E+02  0.26448822061E+01  0.45045682915E+02  0.00000000000E+00 0. -1.
         11    1    3    3    0    0  0.53148733267E+01 -0.16546237588E+02 -0.10569015107E+01  0.17410999335E+02  0.51100000000E-03 0. -1.
        -11    1    3    3    0    0  0.44467818187E+01 -0.15644567215E+02  0.10728230671E+01  0.16299610471E+02  0.51100000000E-03 0.  1.
         12    1    3    3    0    0  0.80341941283E+01 -0.91059976887E+01 -0.26608037625E+01  0.12431707279E+02  0.00000000000E+00 0. -1.
</event>
<event>
 7    1  0.2323330E-008  0.4614232E+02  0.7816164E-02  0.1320468E+00
        -11   -1    0    0    0    0  0.00000000000E+00  0.00000000000E+00  0.45593999997E+02  0.45594000000E+02  0.51100000000E-03 0.  1.
         11   -1    0    0    0    0 -0.00000000000E+00 -0.00000000000E+00 -0.45593999997E+02  0.45594000000E+02  0.51100000000E-03 0. -1.
    9900012    2    1    2    0    0  0.40254271302E+02  0.98059920065E+01  0.17679074286E+02  0.46142317578E+02  0.99999983264E+01 0.  0.
         12    1    1    2    0    0 -0.40254271302E+02 -0.98059920065E+01 -0.17679074286E+02  0.45045682422E+02  0.00000000000E+00 0. -1.
         11    1    3    3    0    0  0.15823890541E+01  0.15526081626E+01  0.81901234864E+00  0.23633300052E+01  0.51100000000E-03 0. -1.
        -11    1    3    3    0    0  0.38192947994E+02  0.75593551995E+01  0.14975969582E+02  0.41714803040E+02  0.51100000000E-03 0.  1.
        -12    1    3    3    0    0  0.47893425390E+00  0.69402864445E+00  0.18840923554E+01  0.20641845321E+01  0.00000000000E+00 0.  1.
</event>
<event>
 7    1  0.2323330E-008  0.4614232E+02  0.7816164E-02  0.1320468E+00
        -11   -1    0    0    0    0  0.00000000000E+00  0.00000000000E+00  0.45593999997E+02  0.45594000000E+02  0.51100000000E-03 0.  1.
         11   -1    0    0    0    0 -0.00000000000E+00 -0.00000000000E+00 -0.45593999997E+02  0.45594000000E+02  0.51100000000E-03 0. -1.
    9900012    2    1    2    0    0  0.32354979617E+02 -0.88648379120E+01  0.30061327631E+02  0.46142317897E+02  0.10000001240E+02 0.  0.
         12    1    1    2    0    0 -0.32354979617E+02  0.88648379120E+01 -0.30061327631E+02  0.45045682103E+02  0.00000000000E+00 0. -1.
         11    1    3    3    0    0  0.12969791717E+02 -0.22546246815E+01  0.80177878414E+01  0.15413752034E+02  0.51100000000E-03 0.  1.
        -11    1    3    3    0    0  0.12090464157E+02 -0.71076462948E+01  0.15661897146E+02  0.21023629132E+02  0.51100000000E-03 0. -1.
         12    1    3    3    0    0  0.72947237424E+01  0.49743306431E+00  0.63816426433E+01  0.97049367312E+01  0.00000000000E+00 0. -1.
</event>
<event>
 7    1  0.2323330E-008  0.4614232E+02  0.7816164E-02  0.1320468E+00
        -11   -1    0    0    0    0  0.00000000000E+00  0.00000000000E+00  0.45593999997E+02  0.45594000000E+02  0.51100000000E-03 0.  1.
         11   -1    0    0    0    0 -0.00000000000E+00 -0.00000000000E+00 -0.45593999997E+02  0.45594000000E+02  0.51100000000E-03 0. -1.
    9900012    2    1    2    0    0  0.32841488295E+02  0.25485394175E+02  0.17350641400E+02  0.46142318446E+02  0.10000006243E+02 0.  0.
         12    1    1    2    0    0 -0.32841488295E+02 -0.25485394175E+02 -0.17350641400E+02  0.45045681554E+02  0.00000000000E+00 0. -1.
         11    1    3    3    0    0  0.76988618829E+00  0.13502762008E+01  0.42787713398E+00  0.16121568361E+01  0.51100000000E-03 0. -1.
        -11    1    3    3    0    0  0.17150360725E+02  0.97528135669E+01  0.12448402480E+02  0.23328415506E+02  0.51100000000E-03 0.  1.
        -12    1    3    3    0    0  0.14921241382E+02  0.14382304407E+02  0.44743617863E+01  0.21201746103E+02  0.00000000000E+00 0.  1.
</event>
<event>
 7    1  0.2323330E-008  0.4614232E+02  0.7816164E-02  0.1320468E+00
        -11   -1    0    0    0    0  0.00000000000E+00  0.00000000000E+00  0.45593999997E+02  0.45594000000E+02  0.51100000000E-03 0. -1.
         11   -1    0    0    0    0 -0.00000000000E+00 -0.00000000000E+00 -0.45593999997E+02  0.45594000000E+02  0.51100000000E-03 0.  1.
    9900012    2    1    2    0    0  0.91355122482E+01 -0.39405636826E+02 -0.19820490308E+02  0.46142316148E+02  0.99999852867E+01 0.  0.
         12    1    1    2    0    0 -0.91355122482E+01  0.39405636826E+02  0.19820490308E+02  0.45045683852E+02  0.00000000000E+00 0. -1.
         11    1    3    3    0    0  0.41868496746E+01 -0.63486137072E+01 -0.20481076254E+01  0.78758714633E+01  0.51100000000E-03 0. -1.
        -11    1    3    3    0    0  0.34153396298E+01 -0.12243319545E+02 -0.92646183856E+01  0.15728845233E+02  0.51100000000E-03 0.  1.
        -12    1    3    3    0    0  0.15333229438E+01 -0.20813703573E+02 -0.85077642974E+01  0.22537599451E+02  0.00000000000E+00 0.  1.
</event>
<event>
 7    1  0.2323330E-008  0.4614232E+02  0.7816164E-02  0.1320468E+00
        -11   -1    0    0    0    0  0.00000000000E+00  0.00000000000E+00  0.45593999997E+02  0.45594000000E+02  0.51100000000E-03 0. -1.
         11   -1    0    0    0    0 -0.00000000000E+00 -0.00000000000E+00 -0.45593999997E+02  0.45594000000E+02  0.51100000000E-03 0.  1.
    9900012    2    1    2    0    0  0.40325367099E-01 -0.41054119371E+02 -0.18538360951E+02  0.46142321293E+02  0.10000032206E+02 0.  0.
         12    1    1    2    0    0 -0.40325367099E-01  0.41054119371E+02  0.18538360951E+02  0.45045678707E+02  0.00000000000E+00 0. -1.
         11    1    3    3    0    0 -0.29340169691E+00 -0.86363032834E+01 -0.62507362398E+01  0.10665060842E+02  0.51100000000E-03 0. -1.
        -11    1    3    3    0    0 -0.33126380313E+01 -0.21825690709E+02 -0.83953227542E+01  0.23618124186E+02  0.51100000000E-03 0.  1.
        -12    1    3    3    0    0  0.36463650953E+01 -0.10592125379E+02 -0.38923019566E+01  0.11859136266E+02  0.00000000000E+00 0.  1.
</event>
<event>
 7    1  0.2323330E-008  0.4614232E+02  0.7816164E-02  0.1320468E+00
        -11   -1    0    0    0    0  0.00000000000E+00  0.00000000000E+00  0.45593999997E+02  0.45594000000E+02  0.51100000000E-03 0.  1.
         11   -1    0    0    0    0 -0.00000000000E+00 -0.00000000000E+00 -0.45593999997E+02  0.45594000000E+02  0.51100000000E-03 0. -1.
    9900012    2    1    2    0    0  0.44632864763E+02  0.35953438215E+01  0.49086016473E+01  0.46142317806E+02  0.10000000411E+02 0.  0.
         12    1    1    2    0    0 -0.44632864763E+02 -0.35953438215E+01 -0.49086016473E+01  0.45045682194E+02  0.00000000000E+00 0. -1.
         11    1    3    3    0    0  0.62755330671E+01  0.11641105778E+01 -0.16750252378E+01  0.65987255225E+01  0.51100000000E-03 0. -1.
        -11    1    3    3    0    0  0.19197940506E+02  0.44961737856E+01  0.36099995987E+01  0.20045163900E+02  0.51100000000E-03 0.  1.
        -12    1    3    3    0    0  0.19159391190E+02 -0.20649405418E+01  0.29736272864E+01  0.19498428384E+02  0.00000000000E+00 0.  1.
</event>
<event>
 7    1  0.2323330E-008  0.4614231E+02  0.7816164E-02  0.1320468E+00
        -11   -1    0    0    0    0  0.00000000000E+00  0.00000000000E+00  0.45593999997E+02  0.45594000000E+02  0.51100000000E-03 0.  1.
         11   -1    0    0    0    0 -0.00000000000E+00 -0.00000000000E+00 -0.45593999997E+02  0.45594000000E+02  0.51100000000E-03 0. -1.
    9900012    2    1    2    0    0  0.52778942978E+01  0.41620919440E+02  0.16399904334E+02  0.46142312466E+02  0.99999517152E+01 0.  0.
         12    1    1    2    0    0 -0.52778942978E+01 -0.41620919440E+02 -0.16399904334E+02  0.45045687534E+02  0.00000000000E+00 0. -1.
         11    1    3    3    0    0  0.26264212998E+01  0.35249127221E+01  0.29266890770E+01  0.52809665552E+01  0.51100000000E-03 0. -1.
        -11    1    3    3    0    0 -0.13291111763E+01  0.52930289410E+01  0.10371727644E+01  0.55550355079E+01  0.51100000000E-03 0.  1.
        -12    1    3    3    0    0  0.39805841743E+01  0.32802977777E+02  0.12436042493E+02  0.35306310403E+02  0.00000000000E+00 0.  1.
</event>
<event>
 7    1  0.2323330E-008  0.4614232E+02  0.7816164E-02  0.1320468E+00
        -11   -1    0    0    0    0  0.00000000000E+00  0.00000000000E+00  0.45593999997E+02  0.45594000000E+02  0.51100000000E-03 0.  1.
         11   -1    0    0    0    0 -0.00000000000E+00 -0.00000000000E+00 -0.45593999997E+02  0.45594000000E+02  0.51100000000E-03 0. -1.
    9900012    2    1    2    0    0  0.28216600644E+02  0.18044847505E+02  0.30121759959E+02  0.46142317672E+02  0.99999991856E+01 0.  0.
         12    1    1    2    0    0 -0.28216600644E+02 -0.18044847505E+02 -0.30121759959E+02  0.45045682328E+02  0.00000000000E+00 0. -1.
         11    1    3    3    0    0  0.74627180421E+01  0.42559363976E+01  0.52286069772E+01  0.10057011802E+02  0.51100000000E-03 0. -1.
        -11    1    3    3    0    0 -0.13298244743E+00 -0.11731635204E+00  0.23401735792E+01  0.23468830605E+01  0.51100000000E-03 0.  1.
        -12    1    3    3    0    0  0.20886865049E+02  0.13906227460E+02  0.22552979403E+02  0.33738422810E+02  0.00000000000E+00 0.  1.
</event>
<event>
 7    1  0.2323330E-008  0.4614232E+02  0.7816164E-02  0.1320468E+00
        -11   -1    0    0    0    0  0.00000000000E+00  0.00000000000E+00  0.45593999997E+02  0.45594000000E+02  0.51100000000E-03 0. -1.
         11   -1    0    0    0    0 -0.00000000000E+00 -0.00000000000E+00 -0.45593999997E+02  0.45594000000E+02  0.51100000000E-03 0.  1.
    9900012    2    1    2    0    0  0.95613881374E+01 -0.36020237590E+02 -0.25302880664E+02  0.46142318420E+02  0.10000006004E+02 0.  0.
         12    1    1    2    0    0 -0.95613881374E+01  0.36020237590E+02  0.25302880664E+02  0.45045681580E+02  0.00000000000E+00 0. -1.
         11    1    3    3    0    0 -0.13102441997E+01 -0.16627634191E+01 -0.26088951853E+01  0.33597405256E+01  0.51100000000E-03 0. -1.
        -11    1    3    3    0    0  0.54656838505E+01 -0.19994209996E+02 -0.15199870663E+02  0.25703661252E+02  0.51100000000E-03 0.  1.
         12    1    3    3    0    0  0.54059484866E+01 -0.14363264175E+02 -0.74941148156E+01  0.17078916642E+02  0.00000000000E+00 0. -1.
</event>
<event>
 7    1  0.2323330E-008  0.4614232E+02  0.7816164E-02  0.1320468E+00
        -11   -1    0    0    0    0  0.00000000000E+00  0.00000000000E+00  0.45593999997E+02  0.45594000000E+02  0.51100000000E-03 0.  1.
         11   -1    0    0    0    0 -0.00000000000E+00 -0.00000000000E+00 -0.45593999997E+02  0.45594000000E+02  0.51100000000E-03 0. -1.
    9900012    2    1    2    0    0 -0.64285647667E+01 -0.28345124002E+02  0.34414258148E+02  0.46142315817E+02  0.99999822724E+01 0.  0.
         12    1    1    2    0    0  0.64285647667E+01  0.28345124002E+02 -0.34414258148E+02  0.45045684183E+02  0.00000000000E+00 0. -1.
         11    1    3    3    0    0 -0.18939598747E+01 -0.19069364338E+02  0.15765932975E+02  0.24815164378E+02  0.51100000000E-03 0.  1.
        -11    1    3    3    0    0 -0.18138507850E+01 -0.44667173001E+01  0.88990342182E+01  0.10120989496E+02  0.51100000000E-03 0. -1.
        -12    1    3    3    0    0 -0.27207541070E+01 -0.48090423633E+01  0.97492909546E+01  0.11206161942E+02  0.00000000000E+00 0.  1.
</event>
<event>
 7    1  0.2323330E-008  0.4614232E+02  0.7816164E-02  0.1320468E+00
        -11   -1    0    0    0    0  0.00000000000E+00  0.00000000000E+00  0.45593999997E+02  0.45594000000E+02  0.51100000000E-03 0.  1.
         11   -1    0    0    0    0 -0.00000000000E+00 -0.00000000000E+00 -0.45593999997E+02  0.45594000000E+02  0.51100000000E-03 0. -1.
    9900012    2    1    2    0    0  0.39392258958E+02 -0.15199647446E+02  0.15695032942E+02  0.46142318660E+02  0.10000008201E+02 0.  0.
         12    1    1    2    0    0 -0.39392258958E+02  0.15199647446E+02 -0.15695032942E+02  0.45045681340E+02  0.00000000000E+00 0. -1.
         11    1    3    3    0    0  0.64420993662E+01 -0.29900821789E+01  0.46061053263E+01  0.84650718969E+01  0.51100000000E-03 0. -1.
        -11    1    3    3    0    0  0.97653843761E+01 -0.73759970148E+01  0.50289870608E+01  0.13230977859E+02  0.51100000000E-03 0.  1.
         12    1    3    3    0    0  0.23184775215E+02 -0.48335682526E+01  0.60599405553E+01  0.24446268905E+02  0.00000000000E+00 0. -1.
</event>
<event>
 7    1  0.2323330E-008  0.4614232E+02  0.7816164E-02  0.1320468E+00
        -11   -1    0    0    0    0  0.00000000000E+00  0.00000000000E+00  0.45593999997E+02  0.45594000000E+02  0.51100000000E-03 0.  1.
         11   -1    0    0    0    0 -0.00000000000E+00 -0.00000000000E+00 -0.45593999997E+02  0.45594000000E+02  0.51100000000E-03 0. -1.
    9900012    2    1    2    0    0  0.17987214733E+02  0.28938917425E+02  0.29463750968E+02  0.46142318113E+02  0.10000003210E+02 0.  0.
         12    1    1    2    0    0 -0.17987214733E+02 -0.28938917425E+02 -0.29463750968E+02  0.45045681887E+02  0.00000000000E+00 0. -1.
         11    1    3    3    0    0  0.18315249989E+00 -0.26823716368E+00 -0.10774316140E+00  0.34220587976E+00  0.51100000000E-03 0. -1.
        -11    1    3    3    0    0  0.17129739756E+02  0.29580561000E+02  0.29135584003E+02  0.44914583697E+02  0.51100000000E-03 0.  1.
        -12    1    3    3    0    0  0.67432247686E+00 -0.37340641164E+00  0.43591012594E+00  0.88552853650E+00  0.00000000000E+00 0.  1.
</event>
<event>
 7    1  0.2323330E-008  0.4614232E+02  0.7816164E-02  0.1320468E+00
        -11   -1    0    0    0    0  0.00000000000E+00  0.00000000000E+00  0.45593999997E+02  0.45594000000E+02  0.51100000000E-03 0.  1.
         11   -1    0    0    0    0 -0.00000000000E+00 -0.00000000000E+00 -0.45593999997E+02  0.45594000000E+02  0.51100000000E-03 0. -1.
    9900012    2    1    2    0    0 -0.33011947927E+01  0.37350823913E+02  0.24962603222E+02  0.46142317703E+02  0.99999994661E+01 0.  0.
         12    1    1    2    0    0  0.33011947927E+01 -0.37350823913E+02 -0.24962603222E+02  0.45045682297E+02  0.00000000000E+00 0. -1.
         11    1    3    3    0    0 -0.38949634919E+01  0.29557202793E+02  0.17766134951E+02  0.34704964039E+02  0.51100000000E-03 0. -1.
        -11    1    3    3    0    0 -0.11251512397E+01  0.64512660273E+01  0.43938100587E+01  0.78860868471E+01  0.51100000000E-03 0.  1.
         12    1    3    3    0    0  0.17189199388E+01  0.13423550923E+01  0.28026582121E+01  0.35512668168E+01  0.00000000000E+00 0. -1.
</event>
<event>
 7    1  0.2323330E-008  0.4614232E+02  0.7816164E-02  0.1320468E+00
        -11   -1    0    0    0    0  0.00000000000E+00  0.00000000000E+00  0.45593999997E+02  0.45594000000E+02  0.51100000000E-03 0. -1.
         11   -1    0    0    0    0 -0.00000000000E+00 -0.00000000000E+00 -0.45593999997E+02  0.45594000000E+02  0.51100000000E-03 0.  1.
    9900012    2    1    2    0    0  0.20314194546E+02 -0.35101841635E+02  0.19603769592E+02  0.46142316872E+02  0.99999918955E+01 0.  0.
         12    1    1    2    0    0 -0.20314194546E+02  0.35101841635E+02 -0.19603769592E+02  0.45045683128E+02  0.00000000000E+00 0. -1.
         11    1    3    3    0    0  0.45152526362E+01 -0.46736475031E+01  0.38445717354E+01  0.75505774244E+01  0.51100000000E-03 0. -1.
        -11    1    3    3    0    0  0.13743127147E+02 -0.18114109229E+02  0.98500362121E+01  0.24779380754E+02  0.51100000000E-03 0.  1.
         12    1    3    3    0    0  0.20558147632E+01 -0.12314084903E+02  0.59091616440E+01  0.13812358694E+02  0.00000000000E+00 0. -1.
</event>
<event>
 7    1  0.2323330E-008  0.4614233E+02  0.7816164E-02  0.1320468E+00
        -11   -1    0    0    0    0  0.00000000000E+00  0.00000000000E+00  0.45593999997E+02  0.45594000000E+02  0.51100000000E-03 0.  1.
         11   -1    0    0    0    0 -0.00000000000E+00 -0.00000000000E+00 -0.45593999997E+02  0.45594000000E+02  0.51100000000E-03 0. -1.
    9900012    2    1    2    0    0  0.16150928573E+02 -0.14352239866E+02  0.39525604803E+02  0.46142326313E+02  0.10000077979E+02 0.  0.
         12    1    1    2    0    0 -0.16150928573E+02  0.14352239866E+02 -0.39525604803E+02  0.45045673687E+02  0.00000000000E+00 0. -1.
         11    1    3    3    0    0  0.90904948985E+01 -0.64211420507E+01  0.24552518538E+02  0.26957268585E+02  0.51100000000E-03 0. -1.
        -11    1    3    3    0    0  0.68123979592E+01 -0.67488927514E+01  0.15184264903E+02  0.17958792282E+02  0.51100000000E-03 0.  1.
        -12    1    3    3    0    0  0.24803571509E+00 -0.11822050635E+01 -0.21117863746E+00  0.12262654464E+01  0.00000000000E+00 0.  1.
</event>
<event>
 7    1  0.2323330E-008  0.4614232E+02  0.7816164E-02  0.1320468E+00
        -11   -1    0    0    0    0  0.00000000000E+00  0.00000000000E+00  0.45593999997E+02  0.45594000000E+02  0.51100000000E-03 0. -1.
         11   -1    0    0    0    0 -0.00000000000E+00 -0.00000000000E+00 -0.45593999997E+02  0.45594000000E+02  0.51100000000E-03 0.  1.
    9900012    2    1    2    0    0 -0.43853694753E+02 -0.25718569117E+01 -0.99675736945E+01  0.46142317445E+02  0.99999971162E+01 0.  0.
         12    1    1    2    0    0  0.43853694753E+02  0.25718569117E+01  0.99675736945E+01  0.45045682555E+02  0.00000000000E+00 0. -1.
         11    1    3    3    0    0 -0.14035754033E+02  0.17657448013E+01 -0.68089659053E+01  0.15699753595E+02  0.51100000000E-03 0. -1.
        -11    1    3    3    0    0 -0.21492017382E+02 -0.43349770576E+01 -0.28673473030E+01  0.22111547166E+02  0.51100000000E-03 0.  1.
         12    1    3    3    0    0 -0.83259233378E+01 -0.26246554584E-02 -0.29126048623E+00  0.83310166838E+01  0.00000000000E+00 0. -1.
</event>
<event>
 7    1  0.2323330E-008  0.4614232E+02  0.7816164E-02  0.1320468E+00
        -11   -1    0    0    0    0  0.00000000000E+00  0.00000000000E+00  0.45593999997E+02  0.45594000000E+02  0.51100000000E-03 0. -1.
         11   -1    0    0    0    0 -0.00000000000E+00 -0.00000000000E+00 -0.45593999997E+02  0.45594000000E+02  0.51100000000E-03 0.  1.
    9900012    2    1    2    0    0 -0.43946478193E+02  0.53767069352E+01 -0.83012947538E+01  0.46142318547E+02  0.10000007164E+02 0.  0.
         12    1    1    2    0    0  0.43946478193E+02 -0.53767069352E+01  0.83012947538E+01  0.45045681453E+02  0.00000000000E+00 0. -1.
         11    1    3    3    0    0 -0.11056202718E+02  0.38750956256E+01 -0.43935051193E+01  0.12512348786E+02  0.51100000000E-03 0. -1.
        -11    1    3    3    0    0 -0.79504224800E+01  0.20662155846E+01  0.76423104354E+00  0.82500008364E+01  0.51100000000E-03 0.  1.
        -12    1    3    3    0    0 -0.24939852994E+02 -0.56460427501E+00 -0.46720206780E+01  0.25379968924E+02  0.00000000000E+00 0.  1.
</event>
<event>
 7    1  0.2323330E-008  0.4614232E+02  0.7816164E-02  0.1320468E+00
        -11   -1    0    0    0    0  0.00000000000E+00  0.00000000000E+00  0.45593999997E+02  0.45594000000E+02  0.51100000000E-03 0.  1.
         11   -1    0    0    0    0 -0.00000000000E+00 -0.00000000000E+00 -0.45593999997E+02  0.45594000000E+02  0.51100000000E-03 0. -1.
    9900012    2    1    2    0    0  0.18689203149E+02  0.12413659033E+02  0.39060570298E+02  0.46142318776E+02  0.10000009252E+02 0.  0.
         12    1    1    2    0    0 -0.18689203149E+02 -0.12413659033E+02 -0.39060570298E+02  0.45045681224E+02  0.00000000000E+00 0. -1.
         11    1    3    3    0    0  0.70011978219E+01  0.65318674333E+00  0.80578371231E+01  0.10694492191E+02  0.51100000000E-03 0. -1.
        -11    1    3    3    0    0  0.77126408452E+01  0.49925014726E+01  0.14368732994E+02  0.17054922687E+02  0.51100000000E-03 0.  1.
         12    1    3    3    0    0  0.39753644822E+01  0.67679708174E+01  0.16634000181E+02  0.18392903897E+02  0.00000000000E+00 0. -1.
</event>
<event>
 7    1  0.2323330E-008  0.4614232E+02  0.7816164E-02  0.1320468E+00
        -11   -1    0    0    0    0  0.00000000000E+00  0.00000000000E+00  0.45593999997E+02  0.45594000000E+02  0.51100000000E-03 0.  1.
         11   -1    0    0    0    0 -0.00000000000E+00 -0.00000000000E+00 -0.45593999997E+02  0.45594000000E+02  0.51100000000E-03 0. -1.
    9900012    2    1    2    0    0 -0.20277127335E+02  0.29160329958E+02  0.27706078487E+02  0.46142317395E+02  0.99999966585E+01 0.  0.
         12    1    1    2    0    0  0.20277127335E+02 -0.29160329958E+02 -0.27706078487E+02  0.45045682605E+02  0.00000000000E+00 0. -1.
         11    1    3    3    0    0 -0.37111477368E+01  0.65652957126E+01  0.21234486126E+01  0.78348426653E+01  0.51100000000E-03 0. -1.
        -11    1    3    3    0    0 -0.84943613247E+01  0.15753572057E+02  0.15161881456E+02  0.23456595158E+02  0.51100000000E-03 0.  1.
        -12    1    3    3    0    0 -0.80716182737E+01  0.68414621888E+01  0.10420748418E+02  0.14850879571E+02  0.00000000000E+00 0.  1.
</event>
<event>
 7    1  0.2323330E-008  0.4614232E+02  0.7816164E-02  0.1320468E+00
        -11   -1    0    0    0    0  0.00000000000E+00  0.00000000000E+00  0.45593999997E+02  0.45594000000E+02  0.51100000000E-03 0. -1.
         11   -1    0    0    0    0 -0.00000000000E+00 -0.00000000000E+00 -0.45593999997E+02  0.45594000000E+02  0.51100000000E-03 0.  1.
    9900012    2    1    2    0    0 -0.35088230598E+02 -0.27676947342E+02  0.56494330484E+01  0.46142318360E+02  0.10000005463E+02 0.  0.
         12    1    1    2    0    0  0.35088230598E+02  0.27676947342E+02 -0.56494330484E+01  0.45045681640E+02  0.00000000000E+00 0. -1.
         11    1    3    3    0    0 -0.84570588235E+01 -0.31617913348E+01  0.80248777783E+00  0.90643673405E+01  0.51100000000E-03 0. -1.
        -11    1    3    3    0    0 -0.82688530831E+01 -0.10315026590E+02  0.41453886272E+01  0.13854889101E+02  0.51100000000E-03 0.  1.
        -12    1    3    3    0    0 -0.18362318691E+02 -0.14200129417E+02  0.70155664331E+00  0.23223061919E+02  0.00000000000E+00 0.  1.
</event>
<event>
 7    1  0.2323330E-008  0.4614232E+02  0.7816164E-02  0.1320468E+00
        -11   -1    0    0    0    0  0.00000000000E+00  0.00000000000E+00  0.45593999997E+02  0.45594000000E+02  0.51100000000E-03 0.  1.
         11   -1    0    0    0    0 -0.00000000000E+00 -0.00000000000E+00 -0.45593999997E+02  0.45594000000E+02  0.51100000000E-03 0. -1.
    9900012    2    1    2    0    0 -0.40958362100E+02  0.14764873868E+02 -0.11555287864E+02  0.46142316479E+02  0.99999883067E+01 0.  0.
         12    1    1    2    0    0  0.40958362100E+02 -0.14764873868E+02  0.11555287864E+02  0.45045683521E+02  0.00000000000E+00 0. -1.
         11    1    3    3    0    0 -0.18566508893E+02  0.89805848786E+01 -0.80980624801E+01  0.22157273601E+02  0.51100000000E-03 0. -1.
        -11    1    3    3    0    0 -0.23966767660E+01  0.17439009950E+01 -0.19122431024E+01  0.35273111778E+01  0.51100000000E-03 0.  1.
        -12    1    3    3    0    0 -0.19995176441E+02  0.40403879947E+01 -0.15449822815E+01  0.20457731700E+02  0.00000000000E+00 0.  1.
</event>
<event>
 7    1  0.2323330E-008  0.4614232E+02  0.7816164E-02  0.1320468E+00
        -11   -1    0    0    0    0  0.00000000000E+00  0.00000000000E+00  0.45593999997E+02  0.45594000000E+02  0.51100000000E-03 0.  1.
         11   -1    0    0    0    0 -0.00000000000E+00 -0.00000000000E+00 -0.45593999997E+02  0.45594000000E+02  0.51100000000E-03 0. -1.
    9900012    2    1    2    0    0 -0.75282113711E+01  0.35099457547E+01  0.44273239074E+02  0.46142318922E+02  0.10000010585E+02 0.  0.
         12    1    1    2    0    0  0.75282113711E+01 -0.35099457547E+01 -0.44273239074E+02  0.45045681078E+02  0.00000000000E+00 0. -1.
         11    1    3    3    0    0 -0.66140699146E+01 -0.15743905288E+01  0.19098779952E+02  0.20272839522E+02  0.51100000000E-03 0. -1.
        -11    1    3    3    0    0  0.87397443703E-01 -0.33396818633E-01  0.59371747648E+01  0.59379119318E+01  0.51100000000E-03 0.  1.
        -12    1    3    3    0    0 -0.10015389002E+01  0.51177331021E+01  0.19237284358E+02  0.19931567468E+02  0.00000000000E+00 0.  1.
</event>
<event>
 7    1  0.2323330E-008  0.4614232E+02  0.7816164E-02  0.1320468E+00
        -11   -1    0    0    0    0  0.00000000000E+00  0.00000000000E+00  0.45593999997E+02  0.45594000000E+02  0.51100000000E-03 0.  1.
         11   -1    0    0    0    0 -0.00000000000E+00 -0.00000000000E+00 -0.45593999997E+02  0.45594000000E+02  0.51100000000E-03 0. -1.
    9900012    2    1    2    0    0 -0.40671253844E+01 -0.33873426577E+02  0.29413653227E+02  0.46142317264E+02  0.99999954706E+01 0.  0.
         12    1    1    2    0    0  0.40671253844E+01  0.33873426577E+02 -0.29413653227E+02  0.45045682736E+02  0.00000000000E+00 0. -1.
         11    1    3    3    0    0 -0.35141173637E+00 -0.17681543771E+02  0.11678881008E+02  0.21193318338E+02  0.51100000000E-03 0. -1.
        -11    1    3    3    0    0  0.13683098044E+01 -0.23104917797E+01  0.19222343807E+01  0.33023672207E+01  0.51100000000E-03 0.  1.
        -12    1    3    3    0    0 -0.50840234524E+01 -0.13881391026E+02  0.15812537839E+02  0.21646631705E+02  0.00000000000E+00 0.  1.
</event>
<event>
 7    1  0.2323330E-008  0.4614232E+02  0.7816164E-02  0.1320468E+00
        -11   -1    0    0    0    0  0.00000000000E+00  0.00000000000E+00  0.45593999997E+02  0.45594000000E+02  0.51100000000E-03 0. -1.
         11   -1    0    0    0    0 -0.00000000000E+00 -0.00000000000E+00 -0.45593999997E+02  0.45594000000E+02  0.51100000000E-03 0.  1.
    9900012    2    1    2    0    0  0.29457276109E+02  0.31101735384E+02 -0.13930694033E+02  0.46142319897E+02  0.10000019478E+02 0.  0.
         12    1    1    2    0    0 -0.29457276109E+02 -0.31101735384E+02  0.13930694033E+02  0.45045680103E+02  0.00000000000E+00 0. -1.
         11    1    3    3    0    0  0.13348619941E+02  0.93171954969E+01 -0.58777187411E+01  0.17307321113E+02  0.51100000000E-03 0. -1.
        -11    1    3    3    0    0  0.63227487742E+01  0.13183252642E+02 -0.50110169093E+01  0.15455924205E+02  0.51100000000E-03 0.  1.
        -12    1    3    3    0    0  0.97859073940E+01  0.86012872450E+01 -0.30419583825E+01  0.13379074579E+02  0.00000000000E+00 0.  1.
</event>
<event>
 7    1  0.2323330E-008  0.4614231E+02  0.7816164E-02  0.1320468E+00
        -11   -1    0    0    0    0  0.00000000000E+00  0.00000000000E+00  0.45593999997E+02  0.45594000000E+02  0.51100000000E-03 0. -1.
         11   -1    0    0    0    0 -0.00000000000E+00 -0.00000000000E+00 -0.45593999997E+02  0.45594000000E+02  0.51100000000E-03 0.  1.
    9900012    2    1    2    0    0 -0.42138985240E+01  0.27974400652E+02 -0.35054097931E+02  0.46142314143E+02  0.99999670050E+01 0.  0.
         12    1    1    2    0    0  0.42138985240E+01 -0.27974400652E+02  0.35054097931E+02  0.45045685857E+02  0.00000000000E+00 0. -1.
         11    1    3    3    0    0 -0.94259815160E+00  0.29934276210E+01 -0.72728751632E+01  0.79210992671E+01  0.51100000000E-03 0. -1.
        -11    1    3    3    0    0 -0.41220289611E+01  0.20605382933E+02 -0.25977397568E+02  0.33412544250E+02  0.51100000000E-03 0.  1.
         12    1    3    3    0    0  0.85072858870E+00  0.43755900980E+01 -0.18038251991E+01  0.48086706256E+01  0.00000000000E+00 0. -1.
</event>
<event>
 7    1  0.2323330E-008  0.4614232E+02  0.7816164E-02  0.1320468E+00
        -11   -1    0    0    0    0  0.00000000000E+00  0.00000000000E+00  0.45593999997E+02  0.45594000000E+02  0.51100000000E-03 0.  1.
         11   -1    0    0    0    0 -0.00000000000E+00 -0.00000000000E+00 -0.45593999997E+02  0.45594000000E+02  0.51100000000E-03 0. -1.
    9900012    2    1    2    0    0  0.36111829669E+01 -0.41487894891E+02  0.17170535929E+02  0.46142319086E+02  0.10000012083E+02 0.  0.
         12    1    1    2    0    0 -0.36111829669E+01  0.41487894891E+02 -0.17170535929E+02  0.45045680914E+02  0.00000000000E+00 0. -1.
         11    1    3    3    0    0 -0.96883587649E+00 -0.10370223519E+02  0.45621739277E+01  0.11370734805E+02  0.51100000000E-03 0. -1.
        -11    1    3    3    0    0  0.26939277068E+01 -0.29978693969E+02  0.11011576565E+02  0.32050493870E+02  0.51100000000E-03 0.  1.
         12    1    3    3    0    0  0.18860911366E+01 -0.11389774025E+01  0.15967854360E+01  0.27210904115E+01  0.00000000000E+00 0. -1.
</event>
<event>
 7    1  0.2323330E-008  0.4614232E+02  0.7816164E-02  0.1320468E+00
        -11   -1    0    0    0    0  0.00000000000E+00  0.00000000000E+00  0.45593999997E+02  0.45594000000E+02  0.51100000000E-03 0.  1.
         11   -1    0    0    0    0 -0.00000000000E+00 -0.00000000000E+00 -0.45593999997E+02  0.45594000000E+02  0.51100000000E-03 0. -1.
    9900012    2    1    2    0    0 -0.21194656142E+02 -0.36691168609E+02  0.15285880917E+02  0.46142318095E+02  0.10000003046E+02 0.  0.
         12    1    1    2    0    0  0.21194656142E+02  0.36691168609E+02 -0.15285880917E+02  0.45045681905E+02  0.00000000000E+00 0. -1.
         11    1    3    3    0    0 -0.57878966113E+00 -0.27439676609E+01  0.35807536833E+01  0.45482032934E+01  0.51100000000E-03 0. -1.
        -11    1    3    3    0    0 -0.11048925415E+02 -0.17515706955E+02  0.40745731651E+01  0.21106418211E+02  0.51100000000E-03 0.  1.
         12    1    3    3    0    0 -0.95669410658E+01 -0.16431493993E+02  0.76305540683E+01  0.20487696591E+02  0.00000000000E+00 0. -1.
</event>
<event>
 7    1  0.2323330E-008  0.4614232E+02  0.7816164E-02  0.1320468E+00
        -11   -1    0    0    0    0  0.00000000000E+00  0.00000000000E+00  0.45593999997E+02  0.45594000000E+02  0.51100000000E-03 0. -1.
         11   -1    0    0    0    0 -0.00000000000E+00 -0.00000000000E+00 -0.45593999997E+02  0.45594000000E+02  0.51100000000E-03 0.  1.
    9900012    2    1    2    0    0  0.71719746520E+01 -0.33835752982E+02  0.28858589123E+02  0.46142316895E+02  0.99999921003E+01 0.  0.
         12    1    1    2    0    0 -0.71719746520E+01  0.33835752982E+02 -0.28858589123E+02  0.45045683105E+02  0.00000000000E+00 0. -1.
         11    1    3    3    0    0 -0.55268840141E+00 -0.65991027743E+00  0.47353492731E+00  0.98243657903E+00  0.51100000000E-03 0. -1.
        -11    1    3    3    0    0 -0.18172553400E+01 -0.74601698347E+01  0.56365061588E+01  0.95250592057E+01  0.51100000000E-03 0.  1.
         12    1    3    3    0    0  0.95419183934E+01 -0.25715672870E+02  0.22748548036E+02  0.35634821110E+02  0.00000000000E+00 0. -1.
</event>
<event>
 7    1  0.2323330E-008  0.4614232E+02  0.7816164E-02  0.1320468E+00
        -11   -1    0    0    0    0  0.00000000000E+00  0.00000000000E+00  0.45593999997E+02  0.45594000000E+02  0.51100000000E-03 0.  1.
         11   -1    0    0    0    0 -0.00000000000E+00 -0.00000000000E+00 -0.45593999997E+02  0.45594000000E+02  0.51100000000E-03 0. -1.
    9900012    2    1    2    0    0  0.38774049626E+02  0.10485686449E+02  0.20389628422E+02  0.46142317721E+02  0.99999996387E+01 0.  0.
         12    1    1    2    0    0 -0.38774049626E+02 -0.10485686449E+02 -0.20389628422E+02  0.45045682279E+02  0.00000000000E+00 0. -1.
         11    1    3    3    0    0  0.18167621116E+02  0.42609491344E+01  0.14370141583E+02  0.23552475749E+02  0.51100000000E-03 0. -1.
        -11    1    3    3    0    0  0.49639386167E+01  0.81216933505E+00  0.26965093994E+01  0.57071419135E+01  0.51100000000E-03 0.  1.
         12    1    3    3    0    0  0.15642489893E+02  0.54125679800E+01  0.33229774398E+01  0.16882700059E+02  0.00000000000E+00 0. -1.
</event>
<event>
 7    1  0.2323330E-008  0.4614232E+02  0.7816164E-02  0.1320468E+00
        -11   -1    0    0    0    0  0.00000000000E+00  0.00000000000E+00  0.45593999997E+02  0.45594000000E+02  0.51100000000E-03 0.  1.
         11   -1    0    0    0    0 -0.00000000000E+00 -0.00000000000E+00 -0.45593999997E+02  0.45594000000E+02  0.51100000000E-03 0. -1.
    9900012    2    1    2    0    0  0.37888900047E+02  0.11068245685E+02  0.21703423990E+02  0.46142318495E+02  0.10000006695E+02 0.  0.
         12    1    1    2    0    0 -0.37888900047E+02 -0.11068245685E+02 -0.21703423990E+02  0.45045681505E+02  0.00000000000E+00 0. -1.
         11    1    3    3    0    0  0.10163908433E+02  0.59878091700E+01  0.38419933244E+01  0.12406442127E+02  0.51100000000E-03 0. -1.
        -11    1    3    3    0    0  0.11939611414E+02  0.44861008016E+01  0.91426452628E+01  0.15692908710E+02  0.51100000000E-03 0.  1.
        -12    1    3    3    0    0  0.15785380200E+02  0.59433571304E+00  0.87187854030E+01  0.18042967658E+02  0.00000000000E+00 0.  1.
</event>
<event>
 7    1  0.2323330E-008  0.4614232E+02  0.7816164E-02  0.1320468E+00
        -11   -1    0    0    0    0  0.00000000000E+00  0.00000000000E+00  0.45593999997E+02  0.45594000000E+02  0.51100000000E-03 0.  1.
         11   -1    0    0    0    0 -0.00000000000E+00 -0.00000000000E+00 -0.45593999997E+02  0.45594000000E+02  0.51100000000E-03 0. -1.
    9900012    2    1    2    0    0 -0.24937537644E+02 -0.33849190224E+02  0.16169881861E+02  0.46142317166E+02  0.99999945720E+01 0.  0.
         12    1    1    2    0    0  0.24937537644E+02  0.33849190224E+02 -0.16169881861E+02  0.45045682834E+02  0.00000000000E+00 0. -1.
         11    1    3    3    0    0 -0.28679804542E+00 -0.20133244765E+01 -0.51801948519E+00  0.20985883386E+01  0.51100000000E-03 0. -1.
        -11    1    3    3    0    0 -0.95285669249E+01 -0.91070706961E+01  0.30592021998E+01  0.13531113874E+02  0.51100000000E-03 0.  1.
        -12    1    3    3    0    0 -0.15122172674E+02 -0.22728795052E+02  0.13628699146E+02  0.30512614953E+02  0.00000000000E+00 0.  1.
</event>
<event>
 7    1  0.2323330E-008  0.4614232E+02  0.7816164E-02  0.1320468E+00
        -11   -1    0    0    0    0  0.00000000000E+00  0.00000000000E+00  0.45593999997E+02  0.45594000000E+02  0.51100000000E-03 0.  1.
         11   -1    0    0    0    0 -0.00000000000E+00 -0.00000000000E+00 -0.45593999997E+02  0.45594000000E+02  0.51100000000E-03 0. -1.
    9900012    2    1    2    0    0  0.91961899097E+01 -0.58076653890E+00  0.44093156601E+02  0.46142315882E+02  0.99999828661E+01 0.  0.
         12    1    1    2    0    0 -0.91961899097E+01  0.58076653890E+00 -0.44093156601E+02  0.45045684118E+02  0.00000000000E+00 0. -1.
         11    1    3    3    0    0 -0.76362638946E+00 -0.86997793903E+00  0.42278804639E+01  0.43834872368E+01  0.51100000000E-03 0. -1.
        -11    1    3    3    0    0  0.79457326180E+01  0.29030539594E+01  0.33922465329E+02  0.34961350709E+02  0.51100000000E-03 0.  1.
        -12    1    3    3    0    0  0.20140836811E+01 -0.26138425593E+01  0.59428108079E+01  0.67974779365E+01  0.00000000000E+00 0.  1.
</event>
<event>
 7    1  0.2323330E-008  0.4614232E+02  0.7816164E-02  0.1320468E+00
        -11   -1    0    0    0    0  0.00000000000E+00  0.00000000000E+00  0.45593999997E+02  0.45594000000E+02  0.51100000000E-03 0.  1.
         11   -1    0    0    0    0 -0.00000000000E+00 -0.00000000000E+00 -0.45593999997E+02  0.45594000000E+02  0.51100000000E-03 0. -1.
    9900012    2    1    2    0    0  0.15895516929E+02 -0.41195200468E+02 -0.89107473837E+01  0.46142318532E+02  0.10000007027E+02 0.  0.
         12    1    1    2    0    0 -0.15895516929E+02  0.41195200468E+02  0.89107473837E+01  0.45045681468E+02  0.00000000000E+00 0. -1.
         11    1    3    3    0    0  0.51601736250E+01 -0.20969092446E+02 -0.35781975693E+01  0.21889123508E+02  0.51100000000E-03 0. -1.
        -11    1    3    3    0    0  0.33952722811E+01 -0.11411172695E+02 -0.45853537956E+01  0.12758064345E+02  0.51100000000E-03 0.  1.
         12    1    3    3    0    0  0.73400710224E+01 -0.88149353273E+01 -0.74719601880E+00  0.11495130679E+02  0.00000000000E+00 0. -1.
</event>
<event>
 7    1  0.2323330E-008  0.4614232E+02  0.7816164E-02  0.1320468E+00
        -11   -1    0    0    0    0  0.00000000000E+00  0.00000000000E+00  0.45593999997E+02  0.45594000000E+02  0.51100000000E-03 0.  1.
         11   -1    0    0    0    0 -0.00000000000E+00 -0.00000000000E+00 -0.45593999997E+02  0.45594000000E+02  0.51100000000E-03 0. -1.
    9900012    2    1    2    0    0  0.17190553721E+02 -0.12781242764E+02  0.39626231815E+02  0.46142317059E+02  0.99999935938E+01 0.  0.
         12    1    1    2    0    0 -0.17190553721E+02  0.12781242764E+02 -0.39626231815E+02  0.45045682941E+02  0.00000000000E+00 0. -1.
         11    1    3    3    0    0  0.16423983232E+02 -0.13929992655E+02  0.35184766665E+02  0.41252390550E+02  0.51100000000E-03 0.  1.
        -11    1    3    3    0    0  0.33857009495E+00  0.18994032911E+00  0.70432163204E-01  0.39454782797E+00  0.51100000000E-03 0. -1.
        -12    1    3    3    0    0  0.42800039377E+00  0.95880956143E+00  0.43710329863E+01  0.44953786803E+01  0.00000000000E+00 0.  1.
</event>
<event>
 7    1  0.2323330E-008  0.4614232E+02  0.7816164E-02  0.1320468E+00
        -11   -1    0    0    0    0  0.00000000000E+00  0.00000000000E+00  0.45593999997E+02  0.45594000000E+02  0.51100000000E-03 0. -1.
         11   -1    0    0    0    0 -0.00000000000E+00 -0.00000000000E+00 -0.45593999997E+02  0.45594000000E+02  0.51100000000E-03 0.  1.
    9900012    2    1    2    0    0  0.12488614713E+02  0.10163961829E+02 -0.42069488610E+02  0.46142317750E+02  0.99999998990E+01 0.  0.
         12    1    1    2    0    0 -0.12488614713E+02 -0.10163961829E+02  0.42069488610E+02  0.45045682250E+02  0.00000000000E+00 0. -1.
         11    1    3    3    0    0  0.31570587308E+01  0.23329926547E+01 -0.15917493036E+02  0.16394403294E+02  0.51100000000E-03 0. -1.
        -11    1    3    3    0    0  0.58142514784E+01  0.83529436217E+01 -0.15722948044E+02  0.18729342830E+02  0.51100000000E-03 0.  1.
         12    1    3    3    0    0  0.35173045036E+01 -0.52197444781E+00 -0.10429047529E+02  0.11018571625E+02  0.00000000000E+00 0. -1.
</event>
<event>
 7    1  0.2323330E-008  0.4614232E+02  0.7816164E-02  0.1320468E+00
        -11   -1    0    0    0    0  0.00000000000E+00  0.00000000000E+00  0.45593999997E+02  0.45594000000E+02  0.51100000000E-03 0.  1.
         11   -1    0    0    0    0 -0.00000000000E+00 -0.00000000000E+00 -0.45593999997E+02  0.45594000000E+02  0.51100000000E-03 0. -1.
    9900012    2    1    2    0    0 -0.27425837594E+02 -0.29018808216E+02  0.20852951533E+02  0.46142318901E+02  0.10000010399E+02 0.  0.
         12    1    1    2    0    0  0.27425837594E+02  0.29018808216E+02 -0.20852951533E+02  0.45045681099E+02  0.00000000000E+00 0. -1.
         11    1    3    3    0    0 -0.84804892340E+01 -0.83758485194E+01  0.25857471939E+01  0.12196705493E+02  0.51100000000E-03 0. -1.
        -11    1    3    3    0    0 -0.13714645629E+02 -0.17502745519E+02  0.12297826867E+02  0.25410119074E+02  0.51100000000E-03 0.  1.
        -12    1    3    3    0    0 -0.52307027307E+01 -0.31402141777E+01  0.59693774714E+01  0.85354943345E+01  0.00000000000E+00 0.  1.
</event>
<event>
 7    1  0.2323330E-008  0.4614232E+02  0.7816164E-02  0.1320468E+00
        -11   -1    0    0    0    0  0.00000000000E+00  0.00000000000E+00  0.45593999997E+02  0.45594000000E+02  0.51100000000E-03 0.  1.
         11   -1    0    0    0    0 -0.00000000000E+00 -0.00000000000E+00 -0.45593999997E+02  0.45594000000E+02  0.51100000000E-03 0. -1.
    9900012    2    1    2    0    0 -0.42134994354E+02  0.15166637698E+02  0.48712239011E+01  0.46142317958E+02  0.10000001797E+02 0.  0.
         12    1    1    2    0    0  0.42134994354E+02 -0.15166637698E+02 -0.48712239011E+01  0.45045682042E+02  0.00000000000E+00 0. -1.
         11    1    3    3    0    0 -0.10735457063E+01  0.21818871440E+00  0.16043947358E+01  0.19427273170E+01  0.51100000000E-03 0. -1.
        -11    1    3    3    0    0 -0.26964785577E+01  0.16219893185E+01  0.16517255517E+01  0.35538772518E+01  0.51100000000E-03 0.  1.
        -12    1    3    3    0    0 -0.38364970090E+02  0.13326459665E+02  0.16151036135E+01  0.40645713389E+02  0.00000000000E+00 0.  1.
</event>
<event>
 7    1  0.2323330E-008  0.4614232E+02  0.7816164E-02  0.1320468E+00
        -11   -1    0    0    0    0  0.00000000000E+00  0.00000000000E+00  0.45593999997E+02  0.45594000000E+02  0.51100000000E-03 0.  1.
         11   -1    0    0    0    0 -0.00000000000E+00 -0.00000000000E+00 -0.45593999997E+02  0.45594000000E+02  0.51100000000E-03 0. -1.
    9900012    2    1    2    0    0  0.55886614635E+01 -0.41795671841E+02  0.15843046306E+02  0.46142318322E+02  0.10000005117E+02 0.  0.
         12    1    1    2    0    0 -0.55886614635E+01  0.41795671841E+02 -0.15843046306E+02  0.45045681678E+02  0.00000000000E+00 0. -1.
         11    1    3    3    0    0  0.30157834517E+01 -0.76943959392E+01  0.11524098795E+00  0.82651049263E+01  0.51100000000E-03 0. -1.
        -11    1    3    3    0    0 -0.13179925650E+00 -0.13363259088E+01  0.16134046975E+01  0.20990981296E+01  0.51100000000E-03 0.  1.
        -12    1    3    3    0    0  0.27046772683E+01 -0.32764949993E+02  0.14114400620E+02  0.35778115266E+02  0.00000000000E+00 0.  1.
</event>
<event>
 7    1  0.2323330E-008  0.4614232E+02  0.7816164E-02  0.1320468E+00
        -11   -1    0    0    0    0  0.00000000000E+00  0.00000000000E+00  0.45593999997E+02  0.45594000000E+02  0.51100000000E-03 0. -1.
         11   -1    0    0    0    0 -0.00000000000E+00 -0.00000000000E+00 -0.45593999997E+02  0.45594000000E+02  0.51100000000E-03 0.  1.
    9900012    2    1    2    0    0 -0.11925784177E+02 -0.23630180050E+02 -0.36448645529E+02  0.46142317650E+02  0.99999989913E+01 0.  0.
         12    1    1    2    0    0  0.11925784177E+02  0.23630180050E+02  0.36448645529E+02  0.45045682350E+02  0.00000000000E+00 0. -1.
         11    1    3    3    0    0 -0.48882749177E+01 -0.10169063746E+02 -0.15154353396E+02  0.18893372284E+02  0.51100000000E-03 0. -1.
        -11    1    3    3    0    0 -0.80057462780E+01 -0.12238251036E+02 -0.15763560014E+02  0.21502478612E+02  0.51100000000E-03 0.  1.
         12    1    3    3    0    0  0.96823701875E+00 -0.12228652676E+01 -0.55307321190E+01  0.57464667544E+01  0.00000000000E+00 0. -1.
</event>
<event>
 7    1  0.2323330E-008  0.4614232E+02  0.7816164E-02  0.1320468E+00
        -11   -1    0    0    0    0  0.00000000000E+00  0.00000000000E+00  0.45593999997E+02  0.45594000000E+02  0.51100000000E-03 0.  1.
         11   -1    0    0    0    0 -0.00000000000E+00 -0.00000000000E+00 -0.45593999997E+02  0.45594000000E+02  0.51100000000E-03 0. -1.
    9900012    2    1    2    0    0  0.43452891612E+02 -0.65585545483E+01  0.98967202979E+01  0.46142317634E+02  0.99999988371E+01 0.  0.
         12    1    1    2    0    0 -0.43452891612E+02  0.65585545483E+01 -0.98967202979E+01  0.45045682366E+02  0.00000000000E+00 0. -1.
         11    1    3    3    0    0  0.21807414431E+01 -0.18781474328E+01  0.23887252183E+00  0.28879285593E+01  0.51100000000E-03 0. -1.
        -11    1    3    3    0    0  0.40506387098E+02 -0.40256478741E+01  0.10387511104E+02  0.42010398995E+02  0.51100000000E-03 0.  1.
        -12    1    3    3    0    0  0.76576307065E+00 -0.65475924146E+00 -0.72966332775E+00  0.12439900789E+01  0.00000000000E+00 0.  1.
</event>
<event>
 7    1  0.2323330E-008  0.4614232E+02  0.7816164E-02  0.1320468E+00
        -11   -1    0    0    0    0  0.00000000000E+00  0.00000000000E+00  0.45593999997E+02  0.45594000000E+02  0.51100000000E-03 0.  1.
         11   -1    0    0    0    0 -0.00000000000E+00 -0.00000000000E+00 -0.45593999997E+02  0.45594000000E+02  0.51100000000E-03 0. -1.
    9900012    2    1    2    0    0  0.36851154286E+02 -0.16675513937E+02  0.19825063576E+02  0.46142317820E+02  0.10000000539E+02 0.  0.
         12    1    1    2    0    0 -0.36851154286E+02  0.16675513937E+02 -0.19825063576E+02  0.45045682180E+02  0.00000000000E+00 0. -1.
         11    1    3    3    0    0  0.19747494397E+01 -0.85523018846E+00 -0.39235008700E+00  0.21874626572E+01  0.51100000000E-03 0. -1.
        -11    1    3    3    0    0  0.10333188988E+02 -0.73184325464E+01  0.96198184935E+01  0.15902048853E+02  0.51100000000E-03 0.  1.
         12    1    3    3    0    0  0.24543215858E+02 -0.85018512017E+01  0.10597595170E+02  0.28052806310E+02  0.00000000000E+00 0. -1.
</event>
<event>
 7    1  0.2323330E-008  0.4614232E+02  0.7816164E-02  0.1320468E+00
        -11   -1    0    0    0    0  0.00000000000E+00  0.00000000000E+00  0.45593999997E+02  0.45594000000E+02  0.51100000000E-03 0. -1.
         11   -1    0    0    0    0 -0.00000000000E+00 -0.00000000000E+00 -0.45593999997E+02  0.45594000000E+02  0.51100000000E-03 0.  1.
    9900012    2    1    2    0    0  0.22807703026E+01  0.33939979176E+02 -0.29529457793E+02  0.46142323435E+02  0.10000051739E+02 0.  0.
         12    1    1    2    0    0 -0.22807703026E+01 -0.33939979176E+02  0.29529457793E+02  0.45045676565E+02  0.00000000000E+00 0. -1.
         11    1    3    3    0    0  0.77099154242E+00  0.38651365986E+01 -0.20286358526E+01  0.44327274412E+01  0.51100000000E-03 0. -1.
        -11    1    3    3    0    0  0.14051066996E+01  0.74323008663E+01 -0.24700675232E+01  0.79570506367E+01  0.51100000000E-03 0.  1.
        -12    1    3    3    0    0  0.10467206052E+00  0.22642541711E+02 -0.25030754417E+02  0.33752545357E+02  0.00000000000E+00 0.  1.
</event>
<event>
 7    1  0.2323330E-008  0.4614232E+02  0.7816164E-02  0.1320468E+00
        -11   -1    0    0    0    0  0.00000000000E+00  0.00000000000E+00  0.45593999997E+02  0.45594000000E+02  0.51100000000E-03 0. -1.
         11   -1    0    0    0    0 -0.00000000000E+00 -0.00000000000E+00 -0.45593999997E+02  0.45594000000E+02  0.51100000000E-03 0.  1.
    9900012    2    1    2    0    0  0.90884288222E+01 -0.28480924274E+02 -0.33694967287E+02  0.46142318670E+02  0.10000008292E+02 0.  0.
         12    1    1    2    0    0 -0.90884288222E+01  0.28480924274E+02  0.33694967287E+02  0.45045681330E+02  0.00000000000E+00 0. -1.
         11    1    3    3    0    0  0.34222100605E+01 -0.55462697069E+01 -0.51810010119E+01  0.83255871328E+01  0.51100000000E-03 0. -1.
        -11    1    3    3    0    0  0.34015807347E+01 -0.21028339646E+02 -0.27275282798E+02  0.34607844078E+02  0.51100000000E-03 0.  1.
         12    1    3    3    0    0  0.22646380271E+01 -0.19063149216E+01 -0.12386834775E+01  0.32088874600E+01  0.00000000000E+00 0. -1.
</event>
<event>
 7    1  0.2323330E-008  0.4614232E+02  0.7816164E-02  0.1320468E+00
        -11   -1    0    0    0    0  0.00000000000E+00  0.00000000000E+00  0.45593999997E+02  0.45594000000E+02  0.51100000000E-03 0. -1.
         11   -1    0    0    0    0 -0.00000000000E+00 -0.00000000000E+00 -0.45593999997E+02  0.45594000000E+02  0.51100000000E-03 0.  1.
    9900012    2    1    2    0    0 -0.42778865910E+02  0.14093669617E+02  0.67124799847E+00  0.46142318013E+02  0.10000002295E+02 0.  0.
         12    1    1    2    0    0  0.42778865910E+02 -0.14093669617E+02 -0.67124799847E+00  0.45045681987E+02  0.00000000000E+00 0. -1.
         11    1    3    3    0    0 -0.86173074697E+01  0.43332705985E+00 -0.36454520953E+00  0.86358933434E+01  0.51100000000E-03 0. -1.
        -11    1    3    3    0    0 -0.10972307855E+02  0.40777454105E+01 -0.30217708210E+01  0.12089278161E+02  0.51100000000E-03 0.  1.
         12    1    3    3    0    0 -0.23189250585E+02  0.95825971470E+01  0.40575640290E+01  0.25417146508E+02  0.00000000000E+00 0. -1.
</event>
<event>
 7    1  0.2323330E-008  0.4614232E+02  0.7816164E-02  0.1320468E+00
        -11   -1    0    0    0    0  0.00000000000E+00  0.00000000000E+00  0.45593999997E+02  0.45594000000E+02  0.51100000000E-03 0.  1.
         11   -1    0    0    0    0 -0.00000000000E+00 -0.00000000000E+00 -0.45593999997E+02  0.45594000000E+02  0.51100000000E-03 0. -1.
    9900012    2    1    2    0    0  0.18259523189E+02 -0.32283827003E+02  0.25562820745E+02  0.46142317882E+02  0.10000001100E+02 0.  0.
         12    1    1    2    0    0 -0.18259523189E+02  0.32283827003E+02 -0.25562820745E+02  0.45045682118E+02  0.00000000000E+00 0. -1.
         11    1    3    3    0    0  0.96514642566E+01 -0.11292770928E+02  0.13913846341E+02  0.20353686590E+02  0.51100000000E-03 0. -1.
        -11    1    3    3    0    0  0.78086187185E+01 -0.17042298348E+02  0.10918841934E+02  0.21694136736E+02  0.51100000000E-03 0.  1.
        -12    1    3    3    0    0  0.79944021404E+00 -0.39487577278E+01  0.73013246918E+00  0.40944945562E+01  0.00000000000E+00 0.  1.
</event>
<event>
 7    1  0.2323330E-008  0.4614232E+02  0.7816164E-02  0.1320468E+00
        -11   -1    0    0    0    0  0.00000000000E+00  0.00000000000E+00  0.45593999997E+02  0.45594000000E+02  0.51100000000E-03 0. -1.
         11   -1    0    0    0    0 -0.00000000000E+00 -0.00000000000E+00 -0.45593999997E+02  0.45594000000E+02  0.51100000000E-03 0.  1.
    9900012    2    1    2    0    0 -0.30423113652E+02  0.32147662299E+02 -0.83711099162E+01  0.46142317446E+02  0.99999971231E+01 0.  0.
         12    1    1    2    0    0  0.30423113652E+02 -0.32147662299E+02  0.83711099162E+01  0.45045682554E+02  0.00000000000E+00 0. -1.
         11    1    3    3    0    0 -0.15554622308E+02  0.13508381259E+02 -0.63506135346E+01  0.21558129137E+02  0.51100000000E-03 0.  1.
        -11    1    3    3    0    0 -0.50277225996E+01  0.46754286978E+01  0.17603505951E+01  0.70877685152E+01  0.51100000000E-03 0. -1.
        -12    1    3    3    0    0 -0.98407687448E+01  0.13963852342E+02 -0.37808469768E+01  0.17496419793E+02  0.00000000000E+00 0.  1.
</event>
<event>
 7    1  0.2323330E-008  0.4614232E+02  0.7816164E-02  0.1320468E+00
        -11   -1    0    0    0    0  0.00000000000E+00  0.00000000000E+00  0.45593999997E+02  0.45594000000E+02  0.51100000000E-03 0.  1.
         11   -1    0    0    0    0 -0.00000000000E+00 -0.00000000000E+00 -0.45593999997E+02  0.45594000000E+02  0.51100000000E-03 0. -1.
    9900012    2    1    2    0    0 -0.82435370825E+00  0.98866328715E+01  0.43939600861E+02  0.46142316606E+02  0.99999894695E+01 0.  0.
         12    1    1    2    0    0  0.82435370825E+00 -0.98866328715E+01 -0.43939600861E+02  0.45045683394E+02  0.00000000000E+00 0. -1.
         11    1    3    3    0    0  0.89283525598E+00 -0.12079484973E+00  0.90150337577E+00  0.12745410106E+01  0.51100000000E-03 0. -1.
        -11    1    3    3    0    0 -0.24947191184E+01  0.20358848126E+00  0.51786442245E+01  0.57518195394E+01  0.51100000000E-03 0.  1.
        -12    1    3    3    0    0  0.77753015417E+00  0.98038392400E+01  0.37859453261E+02  0.39115956056E+02  0.00000000000E+00 0.  1.
</event>
<event>
 7    1  0.2323330E-008  0.4614232E+02  0.7816164E-02  0.1320468E+00
        -11   -1    0    0    0    0  0.00000000000E+00  0.00000000000E+00  0.45593999997E+02  0.45594000000E+02  0.51100000000E-03 0.  1.
         11   -1    0    0    0    0 -0.00000000000E+00 -0.00000000000E+00 -0.45593999997E+02  0.45594000000E+02  0.51100000000E-03 0. -1.
    9900012    2    1    2    0    0 -0.17615503521E+02 -0.77345416469E+01  0.40730635043E+02  0.46142315081E+02  0.99999755646E+01 0.  0.
         12    1    1    2    0    0  0.17615503521E+02  0.77345416469E+01 -0.40730635043E+02  0.45045684919E+02  0.00000000000E+00 0. -1.
         11    1    3    3    0    0 -0.24780800160E+00 -0.17861675643E+01  0.15462268226E+01  0.23754201778E+01  0.51100000000E-03 0. -1.
        -11    1    3    3    0    0  0.24936415292E+00 -0.67125936870E+00  0.34778946140E+00  0.79607122257E+00  0.51100000000E-03 0.  1.
        -12    1    3    3    0    0 -0.17617059672E+02 -0.52771147139E+01  0.38836618759E+02  0.42970823681E+02  0.00000000000E+00 0.  1.
</event>
<event>
 7    1  0.2323330E-008  0.4614232E+02  0.7816164E-02  0.1320468E+00
        -11   -1    0    0    0    0  0.00000000000E+00  0.00000000000E+00  0.45593999997E+02  0.45594000000E+02  0.51100000000E-03 0. -1.
         11   -1    0    0    0    0 -0.00000000000E+00 -0.00000000000E+00 -0.45593999997E+02  0.45594000000E+02  0.51100000000E-03 0.  1.
    9900012    2    1    2    0    0 -0.19886262687E+02 -0.35647598060E+02 -0.19049903078E+02  0.46142317650E+02  0.99999989839E+01 0.  0.
         12    1    1    2    0    0  0.19886262687E+02  0.35647598060E+02  0.19049903078E+02  0.45045682350E+02  0.00000000000E+00 0. -1.
         11    1    3    3    0    0 -0.50810972590E+01 -0.88249987581E+01 -0.12305405216E+01  0.10257308744E+02  0.51100000000E-03 0. -1.
        -11    1    3    3    0    0  0.97738711349E-01 -0.24267331166E+00  0.32671921291E+00  0.41855572758E+00  0.51100000000E-03 0.  1.
        -12    1    3    3    0    0 -0.14902904140E+02 -0.26579925990E+02 -0.18146081769E+02  0.35466453178E+02  0.00000000000E+00 0.  1.
</event>
<event>
 7    1  0.2323330E-008  0.4614232E+02  0.7816164E-02  0.1320468E+00
        -11   -1    0    0    0    0  0.00000000000E+00  0.00000000000E+00  0.45593999997E+02  0.45594000000E+02  0.51100000000E-03 0.  1.
         11   -1    0    0    0    0 -0.00000000000E+00 -0.00000000000E+00 -0.45593999997E+02  0.45594000000E+02  0.51100000000E-03 0. -1.
    9900012    2    1    2    0    0 -0.28553471748E+02  0.66913989442E+01  0.34191198197E+02  0.46142316490E+02  0.99999884114E+01 0.  0.
         12    1    1    2    0    0  0.28553471748E+02 -0.66913989442E+01 -0.34191198197E+02  0.45045683510E+02  0.00000000000E+00 0. -1.
         11    1    3    3    0    0 -0.19655649435E+02  0.18333107677E+01  0.22542176508E+02  0.29964233764E+02  0.51100000000E-03 0. -1.
        -11    1    3    3    0    0 -0.44165071843E+01  0.54148932308E+00  0.74298268765E+01  0.86603160492E+01  0.51100000000E-03 0.  1.
         12    1    3    3    0    0 -0.44813151291E+01  0.43165988535E+01  0.42191948129E+01  0.75177666775E+01  0.00000000000E+00 0. -1.
</event>
<event>
 7    1  0.2323330E-008  0.4614232E+02  0.7816164E-02  0.1320468E+00
        -11   -1    0    0    0    0  0.00000000000E+00  0.00000000000E+00  0.45593999997E+02  0.45594000000E+02  0.51100000000E-03 0.  1.
         11   -1    0    0    0    0 -0.00000000000E+00 -0.00000000000E+00 -0.45593999997E+02  0.45594000000E+02  0.51100000000E-03 0. -1.
    9900012    2    1    2    0    0 -0.19167348790E+02 -0.38872438706E+01  0.40578510711E+02  0.46142318120E+02  0.10000003272E+02 0.  0.
         12    1    1    2    0    0  0.19167348790E+02  0.38872438706E+01 -0.40578510711E+02  0.45045681880E+02  0.00000000000E+00 0. -1.
         11    1    3    3    0    0 -0.18374916890E+01 -0.26144482166E+01  0.73192831691E+01  0.79864648973E+01  0.51100000000E-03 0. -1.
        -11    1    3    3    0    0 -0.55716834773E+01 -0.34015618955E+01  0.90558820089E+01  0.11163479714E+02  0.51100000000E-03 0.  1.
         12    1    3    3    0    0 -0.11758173623E+02  0.21287662415E+01  0.24203345533E+02  0.26992373509E+02  0.00000000000E+00 0. -1.
</event>
<event>
 7    1  0.2323330E-008  0.4614232E+02  0.7816164E-02  0.1320468E+00
        -11   -1    0    0    0    0  0.00000000000E+00  0.00000000000E+00  0.45593999997E+02  0.45594000000E+02  0.51100000000E-03 0.  1.
         11   -1    0    0    0    0 -0.00000000000E+00 -0.00000000000E+00 -0.45593999997E+02  0.45594000000E+02  0.51100000000E-03 0. -1.
    9900012    2    1    2    0    0 -0.19922486862E+01 -0.89483328507E+00  0.44992707074E+02  0.46142317951E+02  0.10000001732E+02 0.  0.
         12    1    1    2    0    0  0.19922486862E+01  0.89483328507E+00 -0.44992707074E+02  0.45045682049E+02  0.00000000000E+00 0. -1.
         11    1    3    3    0    0  0.65311773200E+00 -0.18289899254E+01  0.60765636106E+01  0.63793724217E+01  0.51100000000E-03 0. -1.
        -11    1    3    3    0    0 -0.12726356155E+01 -0.33137443384E+01  0.13565946264E+02  0.14022674540E+02  0.51100000000E-03 0.  1.
        -12    1    3    3    0    0 -0.13727308028E+01  0.42479009787E+01  0.25350197199E+02  0.25740270989E+02  0.00000000000E+00 0.  1.
</event>
<event>
 7    1  0.2323330E-008  0.4614232E+02  0.7816164E-02  0.1320468E+00
        -11   -1    0    0    0    0  0.00000000000E+00  0.00000000000E+00  0.45593999997E+02  0.45594000000E+02  0.51100000000E-03 0.  1.
         11   -1    0    0    0    0 -0.00000000000E+00 -0.00000000000E+00 -0.45593999997E+02  0.45594000000E+02  0.51100000000E-03 0. -1.
    9900012    2    1    2    0    0 -0.33615090092E+02 -0.11590977119E+02  0.27654811368E+02  0.46142316253E+02  0.99999862453E+01 0.  0.
         12    1    1    2    0    0  0.33615090092E+02  0.11590977119E+02 -0.27654811368E+02  0.45045683747E+02  0.00000000000E+00 0. -1.
         11    1    3    3    0    0 -0.73366389639E+01 -0.13996787559E+01  0.28962199796E+01  0.80108340601E+01  0.51100000000E-03 0. -1.
        -11    1    3    3    0    0 -0.29904018761E+01 -0.24263149574E+01  0.64319542245E+01  0.74966354493E+01  0.51100000000E-03 0.  1.
        -12    1    3    3    0    0 -0.23288049252E+02 -0.77649834060E+01  0.18326637164E+02  0.30634846743E+02  0.00000000000E+00 0.  1.
</event>
<event>
 7    1  0.2323330E-008  0.4614232E+02  0.7816164E-02  0.1320468E+00
        -11   -1    0    0    0    0  0.00000000000E+00  0.00000000000E+00  0.45593999997E+02  0.45594000000E+02  0.51100000000E-03 0. -1.
         11   -1    0    0    0    0 -0.00000000000E+00 -0.00000000000E+00 -0.45593999997E+02  0.45594000000E+02  0.51100000000E-03 0.  1.
    9900012    2    1    2    0    0  0.21055160982E+02 -0.78273271176E+01 -0.39045188173E+02  0.46142316819E+02  0.99999914082E+01 0.  0.
         12    1    1    2    0    0 -0.21055160982E+02  0.78273271176E+01  0.39045188173E+02  0.45045683181E+02  0.00000000000E+00 0. -1.
         11    1    3    3    0    0  0.10330649670E+02  0.28598847502E+00 -0.20566870184E+02  0.23017390413E+02  0.51100000000E-03 0. -1.
        -11    1    3    3    0    0  0.70222491582E+01 -0.37964441599E+01 -0.12822151959E+02  0.15104057489E+02  0.51100000000E-03 0.  1.
         12    1    3    3    0    0  0.37022621545E+01 -0.43168714327E+01 -0.56561660295E+01  0.80208689168E+01  0.00000000000E+00 0. -1.
</event>
<event>
 7    1  0.2323330E-008  0.4614232E+02  0.7816164E-02  0.1320468E+00
        -11   -1    0    0    0    0  0.00000000000E+00  0.00000000000E+00  0.45593999997E+02  0.45594000000E+02  0.51100000000E-03 0. -1.
         11   -1    0    0    0    0 -0.00000000000E+00 -0.00000000000E+00 -0.45593999997E+02  0.45594000000E+02  0.51100000000E-03 0.  1.
    9900012    2    1    2    0    0  0.85794607990E+01  0.44144181641E+02  0.26072291652E+01  0.46142316918E+02  0.99999923127E+01 0.  0.
         12    1    1    2    0    0 -0.85794607990E+01 -0.44144181641E+02 -0.26072291652E+01  0.45045683082E+02  0.00000000000E+00 0. -1.
         11    1    3    3    0    0  0.20683947355E+01  0.34533382743E+01  0.25432575599E+01  0.47615083005E+01  0.51100000000E-03 0.  1.
        -11    1    3    3    0    0  0.12605155005E+01  0.22846027406E+01  0.20198755633E+00  0.26170800988E+01  0.51100000000E-03 0. -1.
        -12    1    3    3    0    0  0.52505505630E+01  0.38406240627E+02 -0.13801595102E+00  0.38763728519E+02  0.00000000000E+00 0.  1.
</event>
<event>
 7    1  0.2323330E-008  0.4614232E+02  0.7816164E-02  0.1320468E+00
        -11   -1    0    0    0    0  0.00000000000E+00  0.00000000000E+00  0.45593999997E+02  0.45594000000E+02  0.51100000000E-03 0. -1.
         11   -1    0    0    0    0 -0.00000000000E+00 -0.00000000000E+00 -0.45593999997E+02  0.45594000000E+02  0.51100000000E-03 0.  1.
    9900012    2    1    2    0    0 -0.75820427610E+01  0.43310347857E+02 -0.97897959970E+01  0.46142315305E+02  0.99999776050E+01 0.  0.
         12    1    1    2    0    0  0.75820427610E+01 -0.43310347857E+02  0.97897959970E+01  0.45045684695E+02  0.00000000000E+00 0. -1.
         11    1    3    3    0    0 -0.76895511348E+01  0.28503298679E+02 -0.48212873156E+01  0.29913409098E+02  0.51100000000E-03 0. -1.
        -11    1    3    3    0    0 -0.64033728268E+00  0.13313973247E+02 -0.30283064689E+01  0.13669036388E+02  0.51100000000E-03 0.  1.
         12    1    3    3    0    0  0.74784565650E+00  0.14930759317E+01 -0.19402022125E+01  0.25598698188E+01  0.00000000000E+00 0. -1.
</event>
<event>
 7    1  0.2323330E-008  0.4614232E+02  0.7816164E-02  0.1320468E+00
        -11   -1    0    0    0    0  0.00000000000E+00  0.00000000000E+00  0.45593999997E+02  0.45594000000E+02  0.51100000000E-03 0.  1.
         11   -1    0    0    0    0 -0.00000000000E+00 -0.00000000000E+00 -0.45593999997E+02  0.45594000000E+02  0.51100000000E-03 0. -1.
    9900012    2    1    2    0    0 -0.25014419018E+02 -0.12591711385E+02  0.35282307120E+02  0.46142317076E+02  0.99999937503E+01 0.  0.
         12    1    1    2    0    0  0.25014419018E+02  0.12591711385E+02 -0.35282307120E+02  0.45045682924E+02  0.00000000000E+00 0. -1.
         11    1    3    3    0    0 -0.44269167686E+01 -0.38160508820E+01  0.69141168432E+01  0.90534440073E+01  0.51100000000E-03 0. -1.
        -11    1    3    3    0    0 -0.20371300427E+02 -0.95779343684E+01  0.25094714304E+02  0.33711591391E+02  0.51100000000E-03 0.  1.
         12    1    3    3    0    0 -0.21620182210E+00  0.80227386571E+00  0.32734759728E+01  0.33772816773E+01  0.00000000000E+00 0. -1.
</event>
<event>
 7    1  0.2323330E-008  0.4614232E+02  0.7816164E-02  0.1320468E+00
        -11   -1    0    0    0    0  0.00000000000E+00  0.00000000000E+00  0.45593999997E+02  0.45594000000E+02  0.51100000000E-03 0.  1.
         11   -1    0    0    0    0 -0.00000000000E+00 -0.00000000000E+00 -0.45593999997E+02  0.45594000000E+02  0.51100000000E-03 0. -1.
    9900012    2    1    2    0    0 -0.40490127889E+02  0.19719242387E+02  0.90257999218E+00  0.46142316218E+02  0.99999859261E+01 0.  0.
         12    1    1    2    0    0  0.40490127889E+02 -0.19719242387E+02 -0.90257999218E+00  0.45045683782E+02  0.00000000000E+00 0. -1.
         11    1    3    3    0    0 -0.78089897401E+01  0.40371310925E+01 -0.92894465816E+00  0.88397786543E+01  0.51100000000E-03 0. -1.
        -11    1    3    3    0    0 -0.31970569467E+02  0.14902381289E+02  0.98091278936E-01  0.35273331318E+02  0.51100000000E-03 0.  1.
        -12    1    3    3    0    0 -0.71056868209E+00  0.77973000566E+00  0.17334333714E+01  0.20292062455E+01  0.00000000000E+00 0.  1.
</event>
<event>
 7    1  0.2323330E-008  0.4614232E+02  0.7816164E-02  0.1320468E+00
        -11   -1    0    0    0    0  0.00000000000E+00  0.00000000000E+00  0.45593999997E+02  0.45594000000E+02  0.51100000000E-03 0.  1.
         11   -1    0    0    0    0 -0.00000000000E+00 -0.00000000000E+00 -0.45593999997E+02  0.45594000000E+02  0.51100000000E-03 0. -1.
    9900012    2    1    2    0    0  0.40650305122E+02  0.19357434212E+02 -0.13985389427E+01  0.46142317887E+02  0.10000001151E+02 0.  0.
         12    1    1    2    0    0 -0.40650305122E+02 -0.19357434212E+02  0.13985389427E+01  0.45045682113E+02  0.00000000000E+00 0. -1.
         11    1    3    3    0    0  0.22712981406E+02  0.64183332164E+01 -0.13565426333E+01  0.23641377578E+02  0.51100000000E-03 0. -1.
        -11    1    3    3    0    0  0.12474689709E+02  0.93304225760E+01 -0.19049685331E+01  0.15694061748E+02  0.51100000000E-03 0.  1.
        -12    1    3    3    0    0  0.54626340078E+01  0.36086784199E+01  0.18629722237E+01  0.68068785613E+01  0.00000000000E+00 0.  1.
</event>
<event>
 7    1  0.2323330E-008  0.4614232E+02  0.7816164E-02  0.1320468E+00
        -11   -1    0    0    0    0  0.00000000000E+00  0.00000000000E+00  0.45593999997E+02  0.45594000000E+02  0.51100000000E-03 0. -1.
         11   -1    0    0    0    0 -0.00000000000E+00 -0.00000000000E+00 -0.45593999997E+02  0.45594000000E+02  0.51100000000E-03 0.  1.
    9900012    2    1    2    0    0 -0.31953113448E+02 -0.30619224068E+02 -0.84009017351E+01  0.46142317726E+02  0.99999996769E+01 0.  0.
         12    1    1    2    0    0  0.31953113448E+02  0.30619224068E+02  0.84009017351E+01  0.45045682274E+02  0.00000000000E+00 0. -1.
         11    1    3    3    0    0 -0.39461987601E+00 -0.18110249074E+01  0.34462516984E+00  0.18852858750E+01  0.51100000000E-03 0. -1.
        -11    1    3    3    0    0 -0.31333111305E+02 -0.29083096585E+02 -0.80867399970E+01  0.43508455903E+02  0.51100000000E-03 0.  1.
         12    1    3    3    0    0 -0.22538226720E+00  0.27489742344E+00 -0.65878690786E+00  0.74857594789E+00  0.00000000000E+00 0. -1.
</event>
<event>
 7    1  0.2323330E-008  0.4614232E+02  0.7816164E-02  0.1320468E+00
        -11   -1    0    0    0    0  0.00000000000E+00  0.00000000000E+00  0.45593999997E+02  0.45594000000E+02  0.51100000000E-03 0.  1.
         11   -1    0    0    0    0 -0.00000000000E+00 -0.00000000000E+00 -0.45593999997E+02  0.45594000000E+02  0.51100000000E-03 0. -1.
    9900012    2    1    2    0    0 -0.16619960015E+02  0.22388039106E+02  0.35378893707E+02  0.46142317789E+02  0.10000000253E+02 0.  0.
         12    1    1    2    0    0  0.16619960015E+02 -0.22388039106E+02 -0.35378893707E+02  0.45045682211E+02  0.00000000000E+00 0. -1.
         11    1    3    3    0    0 -0.10557814626E+01  0.15121709203E+01  0.14589424652E+01  0.23515630477E+01  0.51100000000E-03 0. -1.
        -11    1    3    3    0    0 -0.89895107738E+01  0.95881536593E+01  0.99219527557E+01  0.16467821389E+02  0.51100000000E-03 0.  1.
         12    1    3    3    0    0 -0.65746677789E+01  0.11287714527E+02  0.23997998486E+02  0.27322933352E+02  0.00000000000E+00 0. -1.
</event>
<event>
 7    1  0.2323330E-008  0.4614231E+02  0.7816164E-02  0.1320468E+00
        -11   -1    0    0    0    0  0.00000000000E+00  0.00000000000E+00  0.45593999997E+02  0.45594000000E+02  0.51100000000E-03 0. -1.
         11   -1    0    0    0    0 -0.00000000000E+00 -0.00000000000E+00 -0.45593999997E+02  0.45594000000E+02  0.51100000000E-03 0.  1.
    9900012    2    1    2    0    0 -0.15943108428E+02 -0.15233455628E+02 -0.39279420401E+02  0.46142314927E+02  0.99999741559E+01 0.  0.
         12    1    1    2    0    0  0.15943108428E+02  0.15233455628E+02  0.39279420401E+02  0.45045685073E+02  0.00000000000E+00 0. -1.
         11    1    3    3    0    0 -0.31317798189E+01 -0.34360804466E+01 -0.59283534253E+01  0.75339278113E+01  0.51100000000E-03 0.  1.
        -11    1    3    3    0    0 -0.15446230183E+00 -0.12993663339E+01 -0.97860171506E+01  0.98731121439E+01  0.51100000000E-03 0. -1.
         12    1    3    3    0    0 -0.12656866307E+02 -0.10498008847E+02 -0.23565049825E+02  0.28735274972E+02  0.00000000000E+00 0. -1.
</event>
<event>
 7    1  0.2323330E-008  0.4614232E+02  0.7816164E-02  0.1320468E+00
        -11   -1    0    0    0    0  0.00000000000E+00  0.00000000000E+00  0.45593999997E+02  0.45594000000E+02  0.51100000000E-03 0.  1.
         11   -1    0    0    0    0 -0.00000000000E+00 -0.00000000000E+00 -0.45593999997E+02  0.45594000000E+02  0.51100000000E-03 0. -1.
    9900012    2    1    2    0    0  0.92329676893E+01  0.41614671395E+02  0.14563135924E+02  0.46142317680E+02  0.99999992648E+01 0.  0.
         12    1    1    2    0    0 -0.92329676893E+01 -0.41614671395E+02 -0.14563135924E+02  0.45045682320E+02  0.00000000000E+00 0. -1.
         11    1    3    3    0    0  0.25057094557E+01  0.14949578862E+02  0.47031266223E+01  0.15870976288E+02  0.51100000000E-03 0.  1.
        -11    1    3    3    0    0  0.10906078180E+01  0.10767101522E+00 -0.51061060977E+00  0.12090251925E+01  0.51100000000E-03 0. -1.
         12    1    3    3    0    0  0.56366504156E+01  0.26557421518E+02  0.10370619912E+02  0.29062316200E+02  0.00000000000E+00 0. -1.
</event>
<event>
 7    1  0.2323330E-008  0.4614232E+02  0.7816164E-02  0.1320468E+00
        -11   -1    0    0    0    0  0.00000000000E+00  0.00000000000E+00  0.45593999997E+02  0.45594000000E+02  0.51100000000E-03 0.  1.
         11   -1    0    0    0    0 -0.00000000000E+00 -0.00000000000E+00 -0.45593999997E+02  0.45594000000E+02  0.51100000000E-03 0. -1.
    9900012    2    1    2    0    0  0.75841630892E+01  0.34106581593E+02  0.28431235717E+02  0.46142316498E+02  0.99999884828E+01 0.  0.
         12    1    1    2    0    0 -0.75841630892E+01 -0.34106581593E+02 -0.28431235717E+02  0.45045683502E+02  0.00000000000E+00 0. -1.
         11    1    3    3    0    0  0.35204019089E+01  0.13212736627E+02  0.66100600646E+01  0.15187578250E+02  0.51100000000E-03 0. -1.
        -11    1    3    3    0    0  0.72896516330E-01 -0.16685064771E+00 -0.16701496874E+00  0.24707752151E+00  0.51100000000E-03 0.  1.
        -12    1    3    3    0    0  0.39908646639E+01  0.21060695614E+02  0.21988190621E+02  0.30707660727E+02  0.00000000000E+00 0.  1.
</event>
<event>
 7    1  0.2323330E-008  0.4614232E+02  0.7816164E-02  0.1320468E+00
        -11   -1    0    0    0    0  0.00000000000E+00  0.00000000000E+00  0.45593999997E+02  0.45594000000E+02  0.51100000000E-03 0.  1.
         11   -1    0    0    0    0 -0.00000000000E+00 -0.00000000000E+00 -0.45593999997E+02  0.45594000000E+02  0.51100000000E-03 0. -1.
    9900012    2    1    2    0    0 -0.17304318886E+02  0.23144843034E+02  0.34554164523E+02  0.46142317665E+02  0.99999991215E+01 0.  0.
         12    1    1    2    0    0  0.17304318886E+02 -0.23144843034E+02 -0.34554164523E+02  0.45045682335E+02  0.00000000000E+00 0. -1.
         11    1    3    3    0    0 -0.15343436140E+01  0.72094590397E+01  0.92462458311E+01  0.11824701781E+02  0.51100000000E-03 0. -1.
        -11    1    3    3    0    0 -0.13388917703E+02  0.12246649287E+02  0.16726711431E+02  0.24678460478E+02  0.51100000000E-03 0.  1.
         12    1    3    3    0    0 -0.23810575690E+01  0.36887347075E+01  0.85812072607E+01  0.96391554059E+01  0.00000000000E+00 0. -1.
</event>
<event>
 7    1  0.2323330E-008  0.4614232E+02  0.7816164E-02  0.1320468E+00
        -11   -1    0    0    0    0  0.00000000000E+00  0.00000000000E+00  0.45593999997E+02  0.45594000000E+02  0.51100000000E-03 0.  1.
         11   -1    0    0    0    0 -0.00000000000E+00 -0.00000000000E+00 -0.45593999997E+02  0.45594000000E+02  0.51100000000E-03 0. -1.
    9900012    2    1    2    0    0 -0.26555996415E+01 -0.12152407220E+02  0.43294113775E+02  0.46142317651E+02  0.99999989976E+01 0.  0.
         12    1    1    2    0    0  0.26555996415E+01  0.12152407220E+02 -0.43294113775E+02  0.45045682349E+02  0.00000000000E+00 0. -1.
         11    1    3    3    0    0  0.10978759482E+01 -0.24937966209E+01  0.81525799180E+01  0.85958660276E+01  0.51100000000E-03 0. -1.
        -11    1    3    3    0    0 -0.24340241431E+01 -0.80653018460E+01  0.34289314150E+02  0.35309072949E+02  0.51100000000E-03 0.  1.
         12    1    3    3    0    0 -0.13194514466E+01 -0.15933087534E+01  0.85221970718E+00  0.22373786745E+01  0.00000000000E+00 0. -1.
</event>
<event>
 7    1  0.2323330E-008  0.4614232E+02  0.7816164E-02  0.1320468E+00
        -11   -1    0    0    0    0  0.00000000000E+00  0.00000000000E+00  0.45593999997E+02  0.45594000000E+02  0.51100000000E-03 0. -1.
         11   -1    0    0    0    0 -0.00000000000E+00 -0.00000000000E+00 -0.45593999997E+02  0.45594000000E+02  0.51100000000E-03 0.  1.
    9900012    2    1    2    0    0 -0.17916795154E+01  0.36828983927E+02 -0.25875264416E+02  0.46142317841E+02  0.10000000726E+02 0.  0.
         12    1    1    2    0    0  0.17916795154E+01 -0.36828983927E+02  0.25875264416E+02  0.45045682159E+02  0.00000000000E+00 0. -1.
         11    1    3    3    0    0  0.17633957171E+01  0.76814134315E+01 -0.92134973078E+01  0.12124446778E+02  0.51100000000E-03 0. -1.
        -11    1    3    3    0    0 -0.16609840651E+01  0.24399395646E+02 -0.14752701971E+02  0.28561015242E+02  0.51100000000E-03 0.  1.
         12    1    3    3    0    0 -0.18940911674E+01  0.47481748496E+01 -0.19090651370E+01  0.54568558209E+01  0.00000000000E+00 0. -1.
</event>
<event>
 7    1  0.2323330E-008  0.4614232E+02  0.7816164E-02  0.1320468E+00
        -11   -1    0    0    0    0  0.00000000000E+00  0.00000000000E+00  0.45593999997E+02  0.45594000000E+02  0.51100000000E-03 0. -1.
         11   -1    0    0    0    0 -0.00000000000E+00 -0.00000000000E+00 -0.45593999997E+02  0.45594000000E+02  0.51100000000E-03 0.  1.
    9900012    2    1    2    0    0  0.10465894545E+02 -0.15308641382E+02 -0.41051481027E+02  0.46142317142E+02  0.99999943554E+01 0.  0.
         12    1    1    2    0    0 -0.10465894545E+02  0.15308641382E+02  0.41051481027E+02  0.45045682858E+02  0.00000000000E+00 0. -1.
         11    1    3    3    0    0  0.36410516419E+01 -0.29213754625E+00 -0.73143412726E+01  0.81757073038E+01  0.51100000000E-03 0. -1.
        -11    1    3    3    0    0  0.57195753052E+01 -0.92786390789E+01 -0.26573133995E+02  0.28721736288E+02  0.51100000000E-03 0.  1.
         12    1    3    3    0    0  0.11052675981E+01 -0.57378647569E+01 -0.71640057597E+01  0.92448735500E+01  0.00000000000E+00 0. -1.
</event>
<event>
 7    1  0.2323330E-008  0.4614232E+02  0.7816164E-02  0.1320468E+00
        -11   -1    0    0    0    0  0.00000000000E+00  0.00000000000E+00  0.45593999997E+02  0.45594000000E+02  0.51100000000E-03 0.  1.
         11   -1    0    0    0    0 -0.00000000000E+00 -0.00000000000E+00 -0.45593999997E+02  0.45594000000E+02  0.51100000000E-03 0. -1.
    9900012    2    1    2    0    0  0.22391594277E+02  0.16895964036E+02  0.35245660846E+02  0.46142315374E+02  0.99999782284E+01 0.  0.
         12    1    1    2    0    0 -0.22391594277E+02 -0.16895964036E+02 -0.35245660846E+02  0.45045684626E+02  0.00000000000E+00 0. -1.
         11    1    3    3    0    0  0.26318819354E+00  0.60783379331E+00  0.37640595500E+01  0.38218940988E+01  0.51100000000E-03 0. -1.
        -11    1    3    3    0    0  0.17047313869E+02  0.88328044882E+01  0.22689815081E+02  0.29723005466E+02  0.51100000000E-03 0.  1.
         12    1    3    3    0    0  0.50810922142E+01  0.74553257545E+01  0.87917862159E+01  0.12597415809E+02  0.00000000000E+00 0. -1.
</event>
<event>
 7    1  0.2323330E-008  0.4614233E+02  0.7816164E-02  0.1320468E+00
        -11   -1    0    0    0    0  0.00000000000E+00  0.00000000000E+00  0.45593999997E+02  0.45594000000E+02  0.51100000000E-03 0.  1.
         11   -1    0    0    0    0 -0.00000000000E+00 -0.00000000000E+00 -0.45593999997E+02  0.45594000000E+02  0.51100000000E-03 0. -1.
    9900012    2    1    2    0    0  0.15127959814E+02 -0.41888819806E+02  0.67515871060E+01  0.46142330715E+02  0.10000118127E+02 0.  0.
         12    1    1    2    0    0 -0.15127959814E+02  0.41888819806E+02 -0.67515871060E+01  0.45045669285E+02  0.00000000000E+00 0. -1.
         11    1    3    3    0    0  0.60791521449E+01 -0.18436655684E+02  0.51841220557E+01  0.20093319421E+02  0.51100000000E-03 0. -1.
        -11    1    3    3    0    0  0.51814284368E+01 -0.88636912071E+01  0.34691039050E+01  0.10837292311E+02  0.51100000000E-03 0.  1.
         12    1    3    3    0    0  0.38673792322E+01 -0.14588472914E+02 -0.19016388547E+01  0.15211718983E+02  0.00000000000E+00 0. -1.
</event>
<event>
 7    1  0.2323330E-008  0.4614232E+02  0.7816164E-02  0.1320468E+00
        -11   -1    0    0    0    0  0.00000000000E+00  0.00000000000E+00  0.45593999997E+02  0.45594000000E+02  0.51100000000E-03 0. -1.
         11   -1    0    0    0    0 -0.00000000000E+00 -0.00000000000E+00 -0.45593999997E+02  0.45594000000E+02  0.51100000000E-03 0.  1.
    9900012    2    1    2    0    0 -0.33299590362E+02 -0.79044921702E+01 -0.29287706924E+02  0.46142317725E+02  0.99999996736E+01 0.  0.
         12    1    1    2    0    0  0.33299590362E+02  0.79044921702E+01  0.29287706924E+02  0.45045682275E+02  0.00000000000E+00 0. -1.
         11    1    3    3    0    0 -0.14358944135E+02  0.97409686230E-01 -0.13546891960E+02  0.19740999148E+02  0.51100000000E-03 0. -1.
        -11    1    3    3    0    0 -0.11480196658E+02 -0.22501507938E+01 -0.75972054406E+01  0.13949036693E+02  0.51100000000E-03 0.  1.
         12    1    3    3    0    0 -0.74604495684E+01 -0.57517510626E+01 -0.81436095234E+01  0.12452281884E+02  0.00000000000E+00 0. -1.
</event>
<event>
 7    1  0.2323330E-008  0.4614232E+02  0.7816164E-02  0.1320468E+00
        -11   -1    0    0    0    0  0.00000000000E+00  0.00000000000E+00  0.45593999997E+02  0.45594000000E+02  0.51100000000E-03 0.  1.
         11   -1    0    0    0    0 -0.00000000000E+00 -0.00000000000E+00 -0.45593999997E+02  0.45594000000E+02  0.51100000000E-03 0. -1.
    9900012    2    1    2    0    0  0.29154633840E+02 -0.10192394727E+02  0.32790789781E+02  0.46142317864E+02  0.10000000938E+02 0.  0.
         12    1    1    2    0    0 -0.29154633840E+02  0.10192394727E+02 -0.32790789781E+02  0.45045682136E+02  0.00000000000E+00 0. -1.
         11    1    3    3    0    0  0.11454426533E+02 -0.69825937608E-01  0.10152330463E+02  0.15306161405E+02  0.51100000000E-03 0. -1.
        -11    1    3    3    0    0  0.14901687913E+02 -0.74218798971E+01  0.20464392910E+02  0.26380598577E+02  0.51100000000E-03 0.  1.
        -12    1    3    3    0    0  0.27985193935E+01 -0.27006888919E+01  0.21740664081E+01  0.44555578813E+01  0.00000000000E+00 0.  1.
</event>
<event>
 7    1  0.2323330E-008  0.4614232E+02  0.7816164E-02  0.1320468E+00
        -11   -1    0    0    0    0  0.00000000000E+00  0.00000000000E+00  0.45593999997E+02  0.45594000000E+02  0.51100000000E-03 0.  1.
         11   -1    0    0    0    0 -0.00000000000E+00 -0.00000000000E+00 -0.45593999997E+02  0.45594000000E+02  0.51100000000E-03 0. -1.
    9900012    2    1    2    0    0 -0.55405676866E+01 -0.18258138810E+02  0.40805097663E+02  0.46142317428E+02  0.99999969646E+01 0.  0.
         12    1    1    2    0    0  0.55405676866E+01  0.18258138810E+02 -0.40805097663E+02  0.45045682572E+02  0.00000000000E+00 0. -1.
         11    1    3    3    0    0  0.11514404199E+01 -0.78948608345E+00  0.87954138674E+00  0.16500595833E+01  0.51100000000E-03 0. -1.
        -11    1    3    3    0    0 -0.71934845851E+01 -0.17462484426E+02  0.37185311810E+02  0.41706498264E+02  0.51100000000E-03 0.  1.
        -12    1    3    3    0    0  0.50147647863E+00 -0.61683001623E-02  0.27402444662E+01  0.27857595807E+01  0.00000000000E+00 0.  1.
</event>
<event>
 7    1  0.2323330E-008  0.4614232E+02  0.7816164E-02  0.1320468E+00
        -11   -1    0    0    0    0  0.00000000000E+00  0.00000000000E+00  0.45593999997E+02  0.45594000000E+02  0.51100000000E-03 0.  1.
         11   -1    0    0    0    0 -0.00000000000E+00 -0.00000000000E+00 -0.45593999997E+02  0.45594000000E+02  0.51100000000E-03 0. -1.
    9900012    2    1    2    0    0 -0.29899139963E+02  0.31808401930E+02  0.11107679408E+02  0.46142317125E+02  0.99999942012E+01 0.  0.
         12    1    1    2    0    0  0.29899139963E+02 -0.31808401930E+02 -0.11107679408E+02  0.45045682875E+02  0.00000000000E+00 0. -1.
         11    1    3    3    0    0 -0.15414135337E+01  0.40393194552E+01  0.21913936666E+01  0.48470881781E+01  0.51100000000E-03 0. -1.
        -11    1    3    3    0    0 -0.28080917930E+02  0.26144743276E+02  0.74391476681E+01  0.39082303809E+02  0.51100000000E-03 0.  1.
        -12    1    3    3    0    0 -0.27680849878E+00  0.16243391988E+01  0.14771380734E+01  0.22129251379E+01  0.00000000000E+00 0.  1.
</event>
<event>
 7    1  0.2323330E-008  0.4614232E+02  0.7816164E-02  0.1320468E+00
        -11   -1    0    0    0    0  0.00000000000E+00  0.00000000000E+00  0.45593999997E+02  0.45594000000E+02  0.51100000000E-03 0.  1.
         11   -1    0    0    0    0 -0.00000000000E+00 -0.00000000000E+00 -0.45593999997E+02  0.45594000000E+02  0.51100000000E-03 0. -1.
    9900012    2    1    2    0    0  0.33515954189E+02 -0.24505693625E+02  0.17471848991E+02  0.46142315274E+02  0.99999773239E+01 0.  0.
         12    1    1    2    0    0 -0.33515954189E+02  0.24505693625E+02 -0.17471848991E+02  0.45045684726E+02  0.00000000000E+00 0. -1.
         11    1    3    3    0    0  0.26386672694E+02 -0.21666954318E+02  0.15654958532E+02  0.37560499626E+02  0.51100000000E-03 0.  1.
        -11    1    3    3    0    0  0.23292589534E+01 -0.16634491863E+01  0.22218837527E+01  0.36234345777E+01  0.51100000000E-03 0. -1.
        -12    1    3    3    0    0  0.48000225418E+01 -0.11752901210E+01 -0.40499329453E+00  0.49583810703E+01  0.00000000000E+00 0.  1.
</event>
<event>
 7    1  0.2323330E-008  0.4614232E+02  0.7816164E-02  0.1320468E+00
        -11   -1    0    0    0    0  0.00000000000E+00  0.00000000000E+00  0.45593999997E+02  0.45594000000E+02  0.51100000000E-03 0.  1.
         11   -1    0    0    0    0 -0.00000000000E+00 -0.00000000000E+00 -0.45593999997E+02  0.45594000000E+02  0.51100000000E-03 0. -1.
    9900012    2    1    2    0    0 -0.43772169110E+02  0.40476579382E+01  0.98350066545E+01  0.46142315642E+02  0.99999806808E+01 0.  0.
         12    1    1    2    0    0  0.43772169110E+02 -0.40476579382E+01 -0.98350066545E+01  0.45045684358E+02  0.00000000000E+00 0. -1.
         11    1    3    3    0    0 -0.97443377667E+01  0.58594269424E+00 -0.62372979790E+00  0.97818447378E+01  0.51100000000E-03 0. -1.
        -11    1    3    3    0    0 -0.83038400656E+01 -0.18092424617E+01  0.16000499461E+01  0.86479638188E+01  0.51100000000E-03 0.  1.
         12    1    3    3    0    0 -0.25723991277E+02  0.52709577057E+01  0.88586865063E+01  0.27712507086E+02  0.00000000000E+00 0. -1.
</event>
<event>
 7    1  0.2323330E-008  0.4614232E+02  0.7816164E-02  0.1320468E+00
        -11   -1    0    0    0    0  0.00000000000E+00  0.00000000000E+00  0.45593999997E+02  0.45594000000E+02  0.51100000000E-03 0. -1.
         11   -1    0    0    0    0 -0.00000000000E+00 -0.00000000000E+00 -0.45593999997E+02  0.45594000000E+02  0.51100000000E-03 0.  1.
    9900012    2    1    2    0    0  0.51291734410E+01  0.40007018168E+02 -0.20056007612E+02  0.46142319139E+02  0.10000012562E+02 0.  0.
         12    1    1    2    0    0 -0.51291734410E+01 -0.40007018168E+02  0.20056007612E+02  0.45045680861E+02  0.00000000000E+00 0. -1.
         11    1    3    3    0    0  0.43781285120E+01  0.15403536620E+02 -0.97713154168E+01  0.18759412435E+02  0.51100000000E-03 0. -1.
        -11    1    3    3    0    0  0.18618705332E+01  0.10145785420E+02 -0.71407793418E+01  0.12545686651E+02  0.51100000000E-03 0.  1.
         12    1    3    3    0    0 -0.11108256042E+01  0.14457696128E+02 -0.31439128534E+01  0.14837220053E+02  0.00000000000E+00 0. -1.
</event>
<event>
 7    1  0.2323330E-008  0.4614232E+02  0.7816164E-02  0.1320468E+00
        -11   -1    0    0    0    0  0.00000000000E+00  0.00000000000E+00  0.45593999997E+02  0.45594000000E+02  0.51100000000E-03 0.  1.
         11   -1    0    0    0    0 -0.00000000000E+00 -0.00000000000E+00 -0.45593999997E+02  0.45594000000E+02  0.51100000000E-03 0. -1.
    9900012    2    1    2    0    0  0.43903202481E+02 -0.75525792278E+01 -0.66768855673E+01  0.46142318276E+02  0.10000004699E+02 0.  0.
         12    1    1    2    0    0 -0.43903202481E+02  0.75525792278E+01  0.66768855673E+01  0.45045681724E+02  0.00000000000E+00 0. -1.
         11    1    3    3    0    0  0.27176542764E+02 -0.14928255482E+01 -0.13362454266E+01  0.27250294619E+02  0.51100000000E-03 0.  1.
        -11    1    3    3    0    0  0.19429556654E+01 -0.79255505304E+00 -0.18880285443E+01  0.28227419781E+01  0.51100000000E-03 0. -1.
        -12    1    3    3    0    0  0.14783704051E+02 -0.52671986266E+01 -0.34526115964E+01  0.16069281679E+02  0.00000000000E+00 0.  1.
</event>
<event>
 7    1  0.2323330E-008  0.4614232E+02  0.7816164E-02  0.1320468E+00
        -11   -1    0    0    0    0  0.00000000000E+00  0.00000000000E+00  0.45593999997E+02  0.45594000000E+02  0.51100000000E-03 0.  1.
         11   -1    0    0    0    0 -0.00000000000E+00 -0.00000000000E+00 -0.45593999997E+02  0.45594000000E+02  0.51100000000E-03 0. -1.
    9900012    2    1    2    0    0  0.37665300525E+02  0.17881477148E+02 -0.17049672425E+02  0.46142318538E+02  0.10000007081E+02 0.  0.
         12    1    1    2    0    0 -0.37665300525E+02 -0.17881477148E+02  0.17049672425E+02  0.45045681462E+02  0.00000000000E+00 0. -1.
         11    1    3    3    0    0  0.33889618021E+01  0.30996328104E+01 -0.52274882620E+01  0.69584063870E+01  0.51100000000E-03 0. -1.
        -11    1    3    3    0    0  0.24451214772E+02  0.10839965269E+02 -0.91151306139E+01  0.28256899286E+02  0.51100000000E-03 0.  1.
         12    1    3    3    0    0  0.98251239506E+01  0.39418790681E+01 -0.27070535487E+01  0.10927012865E+02  0.00000000000E+00 0. -1.
</event>
<event>
 7    1  0.2323330E-008  0.4614232E+02  0.7816164E-02  0.1320468E+00
        -11   -1    0    0    0    0  0.00000000000E+00  0.00000000000E+00  0.45593999997E+02  0.45594000000E+02  0.51100000000E-03 0. -1.
         11   -1    0    0    0    0 -0.00000000000E+00 -0.00000000000E+00 -0.45593999997E+02  0.45594000000E+02  0.51100000000E-03 0.  1.
    9900012    2    1    2    0    0  0.37392257140E+02 -0.23992649287E+02  0.74354066248E+01  0.46142318903E+02  0.10000010410E+02 0.  0.
         12    1    1    2    0    0 -0.37392257140E+02  0.23992649287E+02 -0.74354066248E+01  0.45045681097E+02  0.00000000000E+00 0. -1.
         11    1    3    3    0    0  0.12191885860E+02 -0.70403744939E+01 -0.21219390857E+01  0.14237681679E+02  0.51100000000E-03 0. -1.
        -11    1    3    3    0    0  0.16291271243E+02 -0.11955746590E+02  0.68555995415E+01  0.21338805978E+02  0.51100000000E-03 0.  1.
         12    1    3    3    0    0  0.89091000373E+01 -0.49965282031E+01  0.27017461690E+01  0.10565831246E+02  0.00000000000E+00 0. -1.
</event>
<event>
 7    1  0.2323330E-008  0.4614232E+02  0.7816164E-02  0.1320468E+00
        -11   -1    0    0    0    0  0.00000000000E+00  0.00000000000E+00  0.45593999997E+02  0.45594000000E+02  0.51100000000E-03 0.  1.
         11   -1    0    0    0    0 -0.00000000000E+00 -0.00000000000E+00 -0.45593999997E+02  0.45594000000E+02  0.51100000000E-03 0. -1.
    9900012    2    1    2    0    0 -0.25838126848E+02  0.33642689183E+02  0.15155004657E+02  0.46142317625E+02  0.99999987612E+01 0.  0.
         12    1    1    2    0    0  0.25838126848E+02 -0.33642689183E+02 -0.15155004657E+02  0.45045682375E+02  0.00000000000E+00 0. -1.
         11    1    3    3    0    0 -0.64717144785E+01  0.51967259944E+01  0.80732141970E-01  0.83003353723E+01  0.51100000000E-03 0. -1.
        -11    1    3    3    0    0 -0.92031554222E+01  0.10225714242E+02  0.73276979666E+01  0.15587124791E+02  0.51100000000E-03 0.  1.
         12    1    3    3    0    0 -0.10163256947E+02  0.18220248946E+02  0.77465745489E+01  0.22254857462E+02  0.00000000000E+00 0. -1.
</event>
<event>
 7    1  0.2323330E-008  0.4614232E+02  0.7816164E-02  0.1320468E+00
        -11   -1    0    0    0    0  0.00000000000E+00  0.00000000000E+00  0.45593999997E+02  0.45594000000E+02  0.51100000000E-03 0. -1.
         11   -1    0    0    0    0 -0.00000000000E+00 -0.00000000000E+00 -0.45593999997E+02  0.45594000000E+02  0.51100000000E-03 0.  1.
    9900012    2    1    2    0    0  0.18756120546E+02 -0.37049882341E+02 -0.17453585517E+02  0.46142317779E+02  0.10000000161E+02 0.  0.
         12    1    1    2    0    0 -0.18756120546E+02  0.37049882341E+02  0.17453585517E+02  0.45045682221E+02  0.00000000000E+00 0. -1.
         11    1    3    3    0    0  0.12351245042E+02 -0.29598272669E+02 -0.14768511640E+02  0.35308921470E+02  0.51100000000E-03 0.  1.
        -11    1    3    3    0    0  0.34787861019E+01 -0.62640517795E+01 -0.27500511553E+01  0.76748341387E+01  0.51100000000E-03 0. -1.
         12    1    3    3    0    0  0.29260894015E+01 -0.11875578921E+01  0.64977278229E-01  0.31585621696E+01  0.00000000000E+00 0. -1.
</event>
<event>
 7    1  0.2323330E-008  0.4614232E+02  0.7816164E-02  0.1320468E+00
        -11   -1    0    0    0    0  0.00000000000E+00  0.00000000000E+00  0.45593999997E+02  0.45594000000E+02  0.51100000000E-03 0. -1.
         11   -1    0    0    0    0 -0.00000000000E+00 -0.00000000000E+00 -0.45593999997E+02  0.45594000000E+02  0.51100000000E-03 0.  1.
    9900012    2    1    2    0    0 -0.16577926586E+02 -0.29076764104E+02 -0.30146768843E+02  0.46142317274E+02  0.99999955558E+01 0.  0.
         12    1    1    2    0    0  0.16577926586E+02  0.29076764104E+02  0.30146768843E+02  0.45045682726E+02  0.00000000000E+00 0. -1.
         11    1    3    3    0    0 -0.10197796542E+01 -0.73787246014E+01 -0.33033760351E+01  0.81484857966E+01  0.51100000000E-03 0. -1.
        -11    1    3    3    0    0 -0.59740340297E+00 -0.10284930344E+01 -0.41918931549E+00  0.12611140674E+01  0.51100000000E-03 0.  1.
        -12    1    3    3    0    0 -0.14960743528E+02 -0.20669546468E+02 -0.26424203492E+02  0.36732717410E+02  0.00000000000E+00 0.  1.
</event>
<event>
 7    1  0.2323330E-008  0.4614232E+02  0.7816164E-02  0.1320468E+00
        -11   -1    0    0    0    0  0.00000000000E+00  0.00000000000E+00  0.45593999997E+02  0.45594000000E+02  0.51100000000E-03 0. -1.
         11   -1    0    0    0    0 -0.00000000000E+00 -0.00000000000E+00 -0.45593999997E+02  0.45594000000E+02  0.51100000000E-03 0.  1.
    9900012    2    1    2    0    0 -0.12675371268E+02 -0.41256626970E+02 -0.12897256504E+02  0.46142317288E+02  0.99999956836E+01 0.  0.
         12    1    1    2    0    0  0.12675371268E+02  0.41256626970E+02  0.12897256504E+02  0.45045682712E+02  0.00000000000E+00 0. -1.
         11    1    3    3    0    0  0.99493209005E-01 -0.99336340379E-01  0.39104968199E+00  0.41555591929E+00  0.51100000000E-03 0. -1.
        -11    1    3    3    0    0 -0.71764934601E+01 -0.11472607783E+02 -0.46299266260E+01  0.14302412683E+02  0.51100000000E-03 0.  1.
        -12    1    3    3    0    0 -0.55983710171E+01 -0.29684682846E+02 -0.86583795596E+01  0.31424348686E+02  0.00000000000E+00 0.  1.
</event>
<event>
 7    1  0.2323330E-008  0.4614232E+02  0.7816164E-02  0.1320468E+00
        -11   -1    0    0    0    0  0.00000000000E+00  0.00000000000E+00  0.45593999997E+02  0.45594000000E+02  0.51100000000E-03 0.  1.
         11   -1    0    0    0    0 -0.00000000000E+00 -0.00000000000E+00 -0.45593999997E+02  0.45594000000E+02  0.51100000000E-03 0. -1.
    9900012    2    1    2    0    0 -0.40358346276E+02  0.11528872251E+02  0.16352446620E+02  0.46142317410E+02  0.99999967997E+01 0.  0.
         12    1    1    2    0    0  0.40358346276E+02 -0.11528872251E+02 -0.16352446620E+02  0.45045682590E+02  0.00000000000E+00 0. -1.
         11    1    3    3    0    0 -0.21770273121E+02  0.49948636824E+01  0.77163605648E+01  0.23631243632E+02  0.51100000000E-03 0.  1.
        -11    1    3    3    0    0 -0.13859094282E+02  0.55742457237E+01  0.32649775878E+01  0.15290741925E+02  0.51100000000E-03 0. -1.
        -12    1    3    3    0    0 -0.47289788731E+01  0.95976284448E+00  0.53711084673E+01  0.72203318530E+01  0.00000000000E+00 0.  1.
</event>
<event>
 7    1  0.2323330E-008  0.4614232E+02  0.7816164E-02  0.1320468E+00
        -11   -1    0    0    0    0  0.00000000000E+00  0.00000000000E+00  0.45593999997E+02  0.45594000000E+02  0.51100000000E-03 0.  1.
         11   -1    0    0    0    0 -0.00000000000E+00 -0.00000000000E+00 -0.45593999997E+02  0.45594000000E+02  0.51100000000E-03 0. -1.
    9900012    2    1    2    0    0  0.10977841229E+02 -0.72780757168E+01  0.43077026341E+02  0.46142316715E+02  0.99999904650E+01 0.  0.
         12    1    1    2    0    0 -0.10977841229E+02  0.72780757168E+01 -0.43077026341E+02  0.45045683285E+02  0.00000000000E+00 0. -1.
         11    1    3    3    0    0  0.26950809880E+01  0.17692547887E+01  0.13115611591E+02  0.13506035381E+02  0.51100000000E-03 0. -1.
        -11    1    3    3    0    0  0.86603470750E+01 -0.78820534170E+01  0.26855519122E+02  0.29297564491E+02  0.51100000000E-03 0.  1.
         12    1    3    3    0    0 -0.37758683425E+00 -0.11652770885E+01  0.31058956282E+01  0.33387168439E+01  0.00000000000E+00 0. -1.
</event>
<event>
 7    1  0.2323330E-008  0.4614232E+02  0.7816164E-02  0.1320468E+00
        -11   -1    0    0    0    0  0.00000000000E+00  0.00000000000E+00  0.45593999997E+02  0.45594000000E+02  0.51100000000E-03 0.  1.
         11   -1    0    0    0    0 -0.00000000000E+00 -0.00000000000E+00 -0.45593999997E+02  0.45594000000E+02  0.51100000000E-03 0. -1.
    9900012    2    1    2    0    0  0.70744822054E+01  0.23528748486E+02  0.37755305702E+02  0.46142318604E+02  0.10000007688E+02 0.  0.
         12    1    1    2    0    0 -0.70744822054E+01 -0.23528748486E+02 -0.37755305702E+02  0.45045681396E+02  0.00000000000E+00 0. -1.
         11    1    3    3    0    0  0.49907493225E+01  0.77958635854E+01  0.16806246546E+02  0.19186792099E+02  0.51100000000E-03 0. -1.
        -11    1    3    3    0    0  0.37064732894E+01  0.58394675841E+01  0.92121495025E+01  0.11519593076E+02  0.51100000000E-03 0.  1.
         12    1    3    3    0    0 -0.16227404065E+01  0.98934173162E+01  0.11736909653E+02  0.15435933429E+02  0.00000000000E+00 0. -1.
</event>
<event>
 7    1  0.2323330E-008  0.4614232E+02  0.7816164E-02  0.1320468E+00
        -11   -1    0    0    0    0  0.00000000000E+00  0.00000000000E+00  0.45593999997E+02  0.45594000000E+02  0.51100000000E-03 0. -1.
         11   -1    0    0    0    0 -0.00000000000E+00 -0.00000000000E+00 -0.45593999997E+02  0.45594000000E+02  0.51100000000E-03 0.  1.
    9900012    2    1    2    0    0 -0.39980884894E+02 -0.17857238308E+02  0.10571723328E+02  0.46142318176E+02  0.10000003783E+02 0.  0.
         12    1    1    2    0    0  0.39980884894E+02  0.17857238308E+02 -0.10571723328E+02  0.45045681824E+02  0.00000000000E+00 0. -1.
         11    1    3    3    0    0 -0.89510488698E+01 -0.27624149037E+01  0.19919817520E+00  0.93697327680E+01  0.51100000000E-03 0. -1.
        -11    1    3    3    0    0 -0.26966793274E+02 -0.10111289057E+02  0.77185668791E+01  0.29816478343E+02  0.51100000000E-03 0.  1.
        -12    1    3    3    0    0 -0.40630427500E+01 -0.49835343471E+01  0.26539582733E+01  0.69561070645E+01  0.00000000000E+00 0.  1.
</event>
<event>
 7    1  0.2323330E-008  0.4614232E+02  0.7816164E-02  0.1320468E+00
        -11   -1    0    0    0    0  0.00000000000E+00  0.00000000000E+00  0.45593999997E+02  0.45594000000E+02  0.51100000000E-03 0. -1.
         11   -1    0    0    0    0 -0.00000000000E+00 -0.00000000000E+00 -0.45593999997E+02  0.45594000000E+02  0.51100000000E-03 0.  1.
    9900012    2    1    2    0    0  0.18542747488E+02 -0.32168630161E+02 -0.25504102766E+02  0.46142317535E+02  0.99999979372E+01 0.  0.
         12    1    1    2    0    0 -0.18542747488E+02  0.32168630161E+02  0.25504102766E+02  0.45045682465E+02  0.00000000000E+00 0. -1.
         11    1    3    3    0    0  0.65093941966E+01 -0.83633361609E+01 -0.99974695801E+01  0.14569385808E+02  0.51100000000E-03 0. -1.
        -11    1    3    3    0    0  0.73417445340E+01 -0.74858190689E+01 -0.51293911917E+01  0.11672589867E+02  0.51100000000E-03 0.  1.
        -12    1    3    3    0    0  0.46916087577E+01 -0.16319474931E+02 -0.10377241995E+02  0.19900341861E+02  0.00000000000E+00 0.  1.
</event>
<event>
 7    1  0.2323330E-008  0.4614232E+02  0.7816164E-02  0.1320468E+00
        -11   -1    0    0    0    0  0.00000000000E+00  0.00000000000E+00  0.45593999997E+02  0.45594000000E+02  0.51100000000E-03 0.  1.
         11   -1    0    0    0    0 -0.00000000000E+00 -0.00000000000E+00 -0.45593999997E+02  0.45594000000E+02  0.51100000000E-03 0. -1.
    9900012    2    1    2    0    0 -0.31933038982E+02 -0.11100941666E+02  0.29768499848E+02  0.46142317991E+02  0.10000002092E+02 0.  0.
         12    1    1    2    0    0  0.31933038982E+02  0.11100941666E+02 -0.29768499848E+02  0.45045682009E+02  0.00000000000E+00 0. -1.
         11    1    3    3    0    0 -0.35547488337E+01  0.28573176518E+00  0.47250791297E+01  0.59198188279E+01  0.51100000000E-03 0. -1.
        -11    1    3    3    0    0 -0.15874821011E+02 -0.41630229238E+01  0.93158900592E+01  0.18871314470E+02  0.51100000000E-03 0.  1.
        -12    1    3    3    0    0 -0.12503469138E+02 -0.72236505070E+01  0.15727530659E+02  0.21351184692E+02  0.00000000000E+00 0.  1.
</event>
<event>
 7    1  0.2323330E-008  0.4614232E+02  0.7816164E-02  0.1320468E+00
        -11   -1    0    0    0    0  0.00000000000E+00  0.00000000000E+00  0.45593999997E+02  0.45594000000E+02  0.51100000000E-03 0.  1.
         11   -1    0    0    0    0 -0.00000000000E+00 -0.00000000000E+00 -0.45593999997E+02  0.45594000000E+02  0.51100000000E-03 0. -1.
    9900012    2    1    2    0    0  0.26715098635E+02 -0.22772179855E+01  0.36197116429E+02  0.46142318136E+02  0.10000003418E+02 0.  0.
         12    1    1    2    0    0 -0.26715098635E+02  0.22772179855E+01 -0.36197116429E+02  0.45045681864E+02  0.00000000000E+00 0. -1.
         11    1    3    3    0    0  0.29641739764E+01 -0.13201128596E+01  0.61322726083E+01  0.69378521841E+01  0.51100000000E-03 0. -1.
        -11    1    3    3    0    0  0.19527564054E+02  0.48816759430E+00  0.28338366697E+02  0.34418412119E+02  0.51100000000E-03 0.  1.
        -12    1    3    3    0    0  0.42233606048E+01 -0.14452727203E+01  0.17264771237E+01  0.47860538330E+01  0.00000000000E+00 0.  1.
</event>
<event>
 7    1  0.2323330E-008  0.4614232E+02  0.7816164E-02  0.1320468E+00
        -11   -1    0    0    0    0  0.00000000000E+00  0.00000000000E+00  0.45593999997E+02  0.45594000000E+02  0.51100000000E-03 0.  1.
         11   -1    0    0    0    0 -0.00000000000E+00 -0.00000000000E+00 -0.45593999997E+02  0.45594000000E+02  0.51100000000E-03 0. -1.
    9900012    2    1    2    0    0  0.41899625146E+02 -0.15362214805E+02  0.61267702690E+01  0.46142317132E+02  0.99999942659E+01 0.  0.
         12    1    1    2    0    0 -0.41899625146E+02  0.15362214805E+02 -0.61267702690E+01  0.45045682868E+02  0.00000000000E+00 0. -1.
         11    1    3    3    0    0  0.21912493237E+00 -0.22672338102E+00  0.53991029388E+00  0.62523804590E+00  0.51100000000E-03 0. -1.
        -11    1    3    3    0    0  0.77631122849E+01  0.12145329227E+00  0.26765906983E+01  0.82124783883E+01  0.51100000000E-03 0.  1.
         12    1    3    3    0    0  0.33917387929E+02 -0.15256944717E+02  0.29102692768E+01  0.37304600698E+02  0.00000000000E+00 0. -1.
</event>
<event>
 7    1  0.2323330E-008  0.4614232E+02  0.7816164E-02  0.1320468E+00
        -11   -1    0    0    0    0  0.00000000000E+00  0.00000000000E+00  0.45593999997E+02  0.45594000000E+02  0.51100000000E-03 0.  1.
         11   -1    0    0    0    0 -0.00000000000E+00 -0.00000000000E+00 -0.45593999997E+02  0.45594000000E+02  0.51100000000E-03 0. -1.
    9900012    2    1    2    0    0  0.32181384353E+02  0.32920673652E+01  0.31347001110E+02  0.46142315578E+02  0.99999800972E+01 0.  0.
         12    1    1    2    0    0 -0.32181384353E+02 -0.32920673652E+01 -0.31347001110E+02  0.45045684422E+02  0.00000000000E+00 0. -1.
         11    1    3    3    0    0  0.95824072669E+01  0.19551246728E+01  0.10150645476E+02  0.14095412209E+02  0.51100000000E-03 0. -1.
        -11    1    3    3    0    0  0.22258420398E+02  0.25215106631E+01  0.18392592573E+02  0.28984181142E+02  0.51100000000E-03 0.  1.
         12    1    3    3    0    0  0.34055668719E+00 -0.11845679707E+01  0.28037630616E+01  0.30627222270E+01  0.00000000000E+00 0. -1.
</event>
<event>
 7    1  0.2323330E-008  0.4614232E+02  0.7816164E-02  0.1320468E+00
        -11   -1    0    0    0    0  0.00000000000E+00  0.00000000000E+00  0.45593999997E+02  0.45594000000E+02  0.51100000000E-03 0.  1.
         11   -1    0    0    0    0 -0.00000000000E+00 -0.00000000000E+00 -0.45593999997E+02  0.45594000000E+02  0.51100000000E-03 0. -1.
    9900012    2    1    2    0    0  0.21668310246E+02  0.39491173166E+02  0.21197901543E+00  0.46142319163E+02  0.10000012786E+02 0.  0.
         12    1    1    2    0    0 -0.21668310246E+02 -0.39491173166E+02 -0.21197901543E+00  0.45045680837E+02  0.00000000000E+00 0. -1.
         11    1    3    3    0    0  0.11685057630E+02  0.19820800717E+02  0.34793218019E+01  0.23270375875E+02  0.51100000000E-03 0. -1.
        -11    1    3    3    0    0  0.96377184275E+01  0.15612581649E+02 -0.14275014108E+01  0.18403154153E+02  0.51100000000E-03 0.  1.
         12    1    3    3    0    0  0.34553418822E+00  0.40577908002E+01 -0.18398413757E+01  0.44687891359E+01  0.00000000000E+00 0. -1.
</event>
<event>
 7    1  0.2323330E-008  0.4614232E+02  0.7816164E-02  0.1320468E+00
        -11   -1    0    0    0    0  0.00000000000E+00  0.00000000000E+00  0.45593999997E+02  0.45594000000E+02  0.51100000000E-03 0. -1.
         11   -1    0    0    0    0 -0.00000000000E+00 -0.00000000000E+00 -0.45593999997E+02  0.45594000000E+02  0.51100000000E-03 0.  1.
    9900012    2    1    2    0    0 -0.12615902129E+02  0.41393082512E+02 -0.12512605428E+02  0.46142316956E+02  0.99999926549E+01 0.  0.
         12    1    1    2    0    0  0.12615902129E+02 -0.41393082512E+02  0.12512605428E+02  0.45045683044E+02  0.00000000000E+00 0. -1.
         11    1    3    3    0    0  0.29683488762E+00  0.97235578093E+01 -0.10472535133E+01  0.97842949467E+01  0.51100000000E-03 0. -1.
        -11    1    3    3    0    0 -0.42531045619E+01  0.12609173600E+02 -0.66492606865E+01  0.14875914265E+02  0.51100000000E-03 0.  1.
         12    1    3    3    0    0 -0.86596324546E+01  0.19060351103E+02 -0.48160912277E+01  0.21482107744E+02  0.00000000000E+00 0. -1.
</event>
<event>
 7    1  0.2323330E-008  0.4614232E+02  0.7816164E-02  0.1320468E+00
        -11   -1    0    0    0    0  0.00000000000E+00  0.00000000000E+00  0.45593999997E+02  0.45594000000E+02  0.51100000000E-03 0. -1.
         11   -1    0    0    0    0 -0.00000000000E+00 -0.00000000000E+00 -0.45593999997E+02  0.45594000000E+02  0.51100000000E-03 0.  1.
    9900012    2    1    2    0    0 -0.37601719814E+02 -0.24607560377E+02 -0.31132293865E+01  0.46142316989E+02  0.99999929617E+01 0.  0.
         12    1    1    2    0    0  0.37601719814E+02  0.24607560377E+02  0.31132293865E+01  0.45045683011E+02  0.00000000000E+00 0. -1.
         11    1    3    3    0    0 -0.65507106240E+01 -0.68757598787E+01  0.10833320595E+01  0.95583205743E+01  0.51100000000E-03 0. -1.
        -11    1    3    3    0    0 -0.15439171777E+02 -0.51702772659E+01 -0.12396960085E+01  0.16329012175E+02  0.51100000000E-03 0.  1.
        -12    1    3    3    0    0 -0.15611837413E+02 -0.12561523232E+02 -0.29568654375E+01  0.20254984239E+02  0.00000000000E+00 0.  1.
</event>
<event>
 7    1  0.2323330E-008  0.4614232E+02  0.7816164E-02  0.1320468E+00
        -11   -1    0    0    0    0  0.00000000000E+00  0.00000000000E+00  0.45593999997E+02  0.45594000000E+02  0.51100000000E-03 0.  1.
         11   -1    0    0    0    0 -0.00000000000E+00 -0.00000000000E+00 -0.45593999997E+02  0.45594000000E+02  0.51100000000E-03 0. -1.
    9900012    2    1    2    0    0  0.28345906920E+02 -0.39537199123E+01  0.34784927430E+02  0.46142317448E+02  0.99999971480E+01 0.  0.
         12    1    1    2    0    0 -0.28345906920E+02  0.39537199123E+01 -0.34784927430E+02  0.45045682552E+02  0.00000000000E+00 0. -1.
         11    1    3    3    0    0  0.14739001313E+02  0.80041979417E+00  0.12061494151E+02  0.19061964037E+02  0.51100000000E-03 0.  1.
        -11    1    3    3    0    0  0.34759235441E+01 -0.15517621401E+01  0.38034791958E+01  0.53811211172E+01  0.51100000000E-03 0. -1.
        -12    1    3    3    0    0  0.10130982063E+02 -0.32023775663E+01  0.18919954083E+02  0.21699232294E+02  0.00000000000E+00 0.  1.
</event>
<event>
 7    1  0.2323330E-008  0.4614232E+02  0.7816164E-02  0.1320468E+00
        -11   -1    0    0    0    0  0.00000000000E+00  0.00000000000E+00  0.45593999997E+02  0.45594000000E+02  0.51100000000E-03 0. -1.
         11   -1    0    0    0    0 -0.00000000000E+00 -0.00000000000E+00 -0.45593999997E+02  0.45594000000E+02  0.51100000000E-03 0.  1.
    9900012    2    1    2    0    0  0.38996267999E+02  0.91253522951E+01 -0.20618745887E+02  0.46142315919E+02  0.99999832006E+01 0.  0.
         12    1    1    2    0    0 -0.38996267999E+02 -0.91253522951E+01  0.20618745887E+02  0.45045684081E+02  0.00000000000E+00 0. -1.
         11    1    3    3    0    0  0.58286282791E+01  0.13172249147E+01 -0.61868643842E+01  0.86014696570E+01  0.51100000000E-03 0. -1.
        -11    1    3    3    0    0  0.96629203454E+01 -0.52956989958E-01 -0.22366796298E+01  0.99185467722E+01  0.51100000000E-03 0.  1.
         12    1    3    3    0    0  0.23504719375E+02  0.78610843704E+01 -0.12195201873E+02  0.27622299490E+02  0.00000000000E+00 0. -1.
</event>
<event>
 7    1  0.2323330E-008  0.4614232E+02  0.7816164E-02  0.1320468E+00
        -11   -1    0    0    0    0  0.00000000000E+00  0.00000000000E+00  0.45593999997E+02  0.45594000000E+02  0.51100000000E-03 0. -1.
         11   -1    0    0    0    0 -0.00000000000E+00 -0.00000000000E+00 -0.45593999997E+02  0.45594000000E+02  0.51100000000E-03 0.  1.
    9900012    2    1    2    0    0  0.44347676607E+02 -0.89836055942E+00  0.78479311936E+01  0.46142317675E+02  0.99999992124E+01 0.  0.
         12    1    1    2    0    0 -0.44347676607E+02  0.89836055942E+00 -0.78479311936E+01  0.45045682325E+02  0.00000000000E+00 0. -1.
         11    1    3    3    0    0  0.53389167965E+01 -0.68754579380E+00 -0.14867748613E+00  0.53850586844E+01  0.51100000000E-03 0. -1.
        -11    1    3    3    0    0  0.25418552757E+02  0.20690073434E+01  0.15662946570E+01  0.25550673081E+02  0.51100000000E-03 0.  1.
         12    1    3    3    0    0  0.13590207053E+02 -0.22798221090E+01  0.64303140227E+01  0.15206585910E+02  0.00000000000E+00 0. -1.
</event>
<event>
 7    1  0.2323330E-008  0.4614232E+02  0.7816164E-02  0.1320468E+00
        -11   -1    0    0    0    0  0.00000000000E+00  0.00000000000E+00  0.45593999997E+02  0.45594000000E+02  0.51100000000E-03 0. -1.
         11   -1    0    0    0    0 -0.00000000000E+00 -0.00000000000E+00 -0.45593999997E+02  0.45594000000E+02  0.51100000000E-03 0.  1.
    9900012    2    1    2    0    0 -0.23299482802E+02  0.34339461001E+02 -0.17522815021E+02  0.46142317333E+02  0.99999960977E+01 0.  0.
         12    1    1    2    0    0  0.23299482802E+02 -0.34339461001E+02  0.17522815021E+02  0.45045682667E+02  0.00000000000E+00 0. -1.
         11    1    3    3    0    0 -0.63970451722E+01  0.54199404509E+01 -0.63176416039E+01  0.10498120647E+02  0.51100000000E-03 0. -1.
        -11    1    3    3    0    0 -0.27403994892E+01  0.30444496507E+01 -0.28381040791E+01  0.49833019235E+01  0.51100000000E-03 0.  1.
        -12    1    3    3    0    0 -0.14162038141E+02  0.25875070899E+02 -0.83670693381E+01  0.30660894762E+02  0.00000000000E+00 0.  1.
</event>
<event>
 7    1  0.2323330E-008  0.4614232E+02  0.7816164E-02  0.1320468E+00
        -11   -1    0    0    0    0  0.00000000000E+00  0.00000000000E+00  0.45593999997E+02  0.45594000000E+02  0.51100000000E-03 0.  1.
         11   -1    0    0    0    0 -0.00000000000E+00 -0.00000000000E+00 -0.45593999997E+02  0.45594000000E+02  0.51100000000E-03 0. -1.
    9900012    2    1    2    0    0  0.31142630851E+02  0.68400832946E+01  0.31819227334E+02  0.46142318476E+02  0.10000006519E+02 0.  0.
         12    1    1    2    0    0 -0.31142630851E+02 -0.68400832946E+01 -0.31819227334E+02  0.45045681524E+02  0.00000000000E+00 0. -1.
         11    1    3    3    0    0  0.16487975334E+02  0.15086922930E+01  0.13168611228E+02  0.21155183880E+02  0.51100000000E-03 0. -1.
        -11    1    3    3    0    0  0.11123989074E+02  0.61897425285E+01  0.12485692363E+02  0.17831112123E+02  0.51100000000E-03 0.  1.
        -12    1    3    3    0    0  0.35306664423E+01 -0.85835152693E+00  0.61649237437E+01  0.71560224732E+01  0.00000000000E+00 0.  1.
</event>
<event>
 7    1  0.2323330E-008  0.4614232E+02  0.7816164E-02  0.1320468E+00
        -11   -1    0    0    0    0  0.00000000000E+00  0.00000000000E+00  0.45593999997E+02  0.45594000000E+02  0.51100000000E-03 0.  1.
         11   -1    0    0    0    0 -0.00000000000E+00 -0.00000000000E+00 -0.45593999997E+02  0.45594000000E+02  0.51100000000E-03 0. -1.
    9900012    2    1    2    0    0 -0.23027754462E+02 -0.31444907992E+02  0.22584370644E+02  0.46142317503E+02  0.99999976494E+01 0.  0.
         12    1    1    2    0    0  0.23027754462E+02  0.31444907992E+02 -0.22584370644E+02  0.45045682497E+02  0.00000000000E+00 0. -1.
         11    1    3    3    0    0 -0.10786388531E+02 -0.22366713558E+02  0.13030305517E+02  0.28042912029E+02  0.51100000000E-03 0. -1.
        -11    1    3    3    0    0 -0.38864515619E+01 -0.22843127910E+01  0.37646228674E+01  0.58732423979E+01  0.51100000000E-03 0.  1.
         12    1    3    3    0    0 -0.83549143691E+01 -0.67938816433E+01  0.57894422600E+01  0.12226163077E+02  0.00000000000E+00 0. -1.
</event>
<event>
 7    1  0.2323330E-008  0.4614232E+02  0.7816164E-02  0.1320468E+00
        -11   -1    0    0    0    0  0.00000000000E+00  0.00000000000E+00  0.45593999997E+02  0.45594000000E+02  0.51100000000E-03 0.  1.
         11   -1    0    0    0    0 -0.00000000000E+00 -0.00000000000E+00 -0.45593999997E+02  0.45594000000E+02  0.51100000000E-03 0. -1.
    9900012    2    1    2    0    0  0.26534974561E+02  0.27758801325E+02  0.23546920126E+02  0.46142319037E+02  0.10000011639E+02 0.  0.
         12    1    1    2    0    0 -0.26534974561E+02 -0.27758801325E+02 -0.23546920126E+02  0.45045680963E+02  0.00000000000E+00 0. -1.
         11    1    3    3    0    0  0.33131504323E+01  0.42445652833E+01  0.67655816399E-01  0.53849677624E+01  0.51100000000E-03 0. -1.
        -11    1    3    3    0    0  0.92232098150E+00  0.24945811078E+01  0.16013121246E+01  0.31044825137E+01  0.51100000000E-03 0.  1.
         12    1    3    3    0    0  0.22299503147E+02  0.21019654934E+02  0.21877952185E+02  0.37652868761E+02  0.00000000000E+00 0. -1.
</event>
<event>
 7    1  0.2323330E-008  0.4614232E+02  0.7816164E-02  0.1320468E+00
        -11   -1    0    0    0    0  0.00000000000E+00  0.00000000000E+00  0.45593999997E+02  0.45594000000E+02  0.51100000000E-03 0.  1.
         11   -1    0    0    0    0 -0.00000000000E+00 -0.00000000000E+00 -0.45593999997E+02  0.45594000000E+02  0.51100000000E-03 0. -1.
    9900012    2    1    2    0    0  0.23852989122E+01  0.44578246991E+02  0.60169495924E+01  0.46142318319E+02  0.10000005086E+02 0.  0.
         12    1    1    2    0    0 -0.23852989122E+01 -0.44578246991E+02 -0.60169495924E+01  0.45045681681E+02  0.00000000000E+00 0. -1.
         11    1    3    3    0    0 -0.12577376123E+01  0.34033056238E+02  0.46058102306E+01  0.34366325217E+02  0.51100000000E-03 0. -1.
        -11    1    3    3    0    0  0.26890995511E+01  0.63192286352E+01  0.25008189769E+01  0.73087620535E+01  0.51100000000E-03 0.  1.
         12    1    3    3    0    0  0.95393697345E+00  0.42259621186E+01 -0.10896796151E+01  0.44672310485E+01  0.00000000000E+00 0. -1.
</event>
<event>
 7    1  0.2323330E-008  0.4614232E+02  0.7816164E-02  0.1320468E+00
        -11   -1    0    0    0    0  0.00000000000E+00  0.00000000000E+00  0.45593999997E+02  0.45594000000E+02  0.51100000000E-03 0. -1.
         11   -1    0    0    0    0 -0.00000000000E+00 -0.00000000000E+00 -0.45593999997E+02  0.45594000000E+02  0.51100000000E-03 0.  1.
    9900012    2    1    2    0    0 -0.26596906225E+02 -0.32871797630E+02  0.15529422487E+02  0.46142318043E+02  0.10000002569E+02 0.  0.
         12    1    1    2    0    0  0.26596906225E+02  0.32871797630E+02 -0.15529422487E+02  0.45045681957E+02  0.00000000000E+00 0. -1.
         11    1    3    3    0    0 -0.46077584811E+01 -0.36184667428E+01 -0.11228581667E+00  0.58598078598E+01  0.51100000000E-03 0. -1.
        -11    1    3    3    0    0 -0.13416421372E+02 -0.16928518378E+02  0.12458389955E+02  0.24935648727E+02  0.51100000000E-03 0.  1.
         12    1    3    3    0    0 -0.85727263723E+01 -0.12324812509E+02  0.31833183495E+01  0.15346861456E+02  0.00000000000E+00 0. -1.
</event>
<event>
 7    1  0.2323330E-008  0.4614232E+02  0.7816164E-02  0.1320468E+00
        -11   -1    0    0    0    0  0.00000000000E+00  0.00000000000E+00  0.45593999997E+02  0.45594000000E+02  0.51100000000E-03 0.  1.
         11   -1    0    0    0    0 -0.00000000000E+00 -0.00000000000E+00 -0.45593999997E+02  0.45594000000E+02  0.51100000000E-03 0. -1.
    9900012    2    1    2    0    0  0.26464074959E+02 -0.13589744227E+02  0.33824326269E+02  0.46142318086E+02  0.10000002960E+02 0.  0.
         12    1    1    2    0    0 -0.26464074959E+02  0.13589744227E+02 -0.33824326269E+02  0.45045681914E+02  0.00000000000E+00 0. -1.
         11    1    3    3    0    0  0.62412295560E+01 -0.94717856028E+00  0.26157275141E+01  0.68331635634E+01  0.51100000000E-03 0. -1.
        -11    1    3    3    0    0  0.12247768867E+02 -0.75126130569E+01  0.20027444022E+02  0.24648442374E+02  0.51100000000E-03 0.  1.
         12    1    3    3    0    0  0.79750765361E+01 -0.51299526095E+01  0.11181154733E+02  0.14660712148E+02  0.00000000000E+00 0. -1.
</event>
<event>
 7    1  0.2323330E-008  0.4614232E+02  0.7816164E-02  0.1320468E+00
        -11   -1    0    0    0    0  0.00000000000E+00  0.00000000000E+00  0.45593999997E+02  0.45594000000E+02  0.51100000000E-03 0.  1.
         11   -1    0    0    0    0 -0.00000000000E+00 -0.00000000000E+00 -0.45593999997E+02  0.45594000000E+02  0.51100000000E-03 0. -1.
    9900012    2    1    2    0    0 -0.30904809273E+02 -0.33828682340E+01  0.32596968735E+02  0.46142318693E+02  0.10000008498E+02 0.  0.
         12    1    1    2    0    0  0.30904809273E+02  0.33828682340E+01 -0.32596968735E+02  0.45045681307E+02  0.00000000000E+00 0. -1.
         11    1    3    3    0    0 -0.38573770987E+01  0.16633130683E+01  0.15310410664E+01  0.44710239826E+01  0.51100000000E-03 0. -1.
        -11    1    3    3    0    0 -0.20355174101E+02 -0.54061465384E+01  0.23049246596E+02  0.31222224488E+02  0.51100000000E-03 0.  1.
        -12    1    3    3    0    0 -0.66922580731E+01  0.35996523620E+00  0.80166810729E+01  0.10449070222E+02  0.00000000000E+00 0.  1.
</event>
<event>
 7    1  0.2323330E-008  0.4614232E+02  0.7816164E-02  0.1320468E+00
        -11   -1    0    0    0    0  0.00000000000E+00  0.00000000000E+00  0.45593999997E+02  0.45594000000E+02  0.51100000000E-03 0.  1.
         11   -1    0    0    0    0 -0.00000000000E+00 -0.00000000000E+00 -0.45593999997E+02  0.45594000000E+02  0.51100000000E-03 0. -1.
    9900012    2    1    2    0    0  0.32194417371E+02  0.30809431723E+02  0.65887499728E+01  0.46142320749E+02  0.10000027246E+02 0.  0.
         12    1    1    2    0    0 -0.32194417371E+02 -0.30809431723E+02 -0.65887499728E+01  0.45045679251E+02  0.00000000000E+00 0. -1.
         11    1    3    3    0    0  0.52748565511E+01  0.31268818596E+01  0.90657214068E+00  0.61986591378E+01  0.51100000000E-03 0. -1.
        -11    1    3    3    0    0  0.11691556622E+02  0.11045594096E+02 -0.17918408558E+01  0.16183582394E+02  0.51100000000E-03 0.  1.
         12    1    3    3    0    0  0.15228004198E+02  0.16636955768E+02  0.74740186879E+01  0.23760079217E+02  0.00000000000E+00 0. -1.
</event>
<event>
 7    1  0.2323330E-008  0.4614231E+02  0.7816164E-02  0.1320468E+00
        -11   -1    0    0    0    0  0.00000000000E+00  0.00000000000E+00  0.45593999997E+02  0.45594000000E+02  0.51100000000E-03 0.  1.
         11   -1    0    0    0    0 -0.00000000000E+00 -0.00000000000E+00 -0.45593999997E+02  0.45594000000E+02  0.51100000000E-03 0. -1.
    9900012    2    1    2    0    0  0.25122336942E+02 -0.22201642514E+02  0.30084372404E+02  0.46142309788E+02  0.99999272943E+01 0.  0.
         12    1    1    2    0    0 -0.25122336942E+02  0.22201642514E+02 -0.30084372404E+02  0.45045690212E+02  0.00000000000E+00 0. -1.
         11    1    3    3    0    0  0.12461212416E+02 -0.99083402079E+01  0.11856702027E+02  0.19850400595E+02  0.51100000000E-03 0. -1.
        -11    1    3    3    0    0  0.16697640069E+01 -0.21279798765E+01  0.12103488314E-02  0.27048866741E+01  0.51100000000E-03 0.  1.
        -12    1    3    3    0    0  0.10991360518E+02 -0.10165322430E+02  0.18226460029E+02  0.23587022519E+02  0.00000000000E+00 0.  1.
</event>
<event>
 7    1  0.2323330E-008  0.4614232E+02  0.7816164E-02  0.1320468E+00
        -11   -1    0    0    0    0  0.00000000000E+00  0.00000000000E+00  0.45593999997E+02  0.45594000000E+02  0.51100000000E-03 0. -1.
         11   -1    0    0    0    0 -0.00000000000E+00 -0.00000000000E+00 -0.45593999997E+02  0.45594000000E+02  0.51100000000E-03 0.  1.
    9900012    2    1    2    0    0 -0.17674592793E+01 -0.45010801828E+02 -0.13154382190E+00  0.46142317662E+02  0.99999990978E+01 0.  0.
         12    1    1    2    0    0  0.17674592793E+01  0.45010801828E+02  0.13154382190E+00  0.45045682338E+02  0.00000000000E+00 0. -1.
         11    1    3    3    0    0 -0.30852803540E+01 -0.16552414052E+02 -0.21231170403E+01  0.16970827677E+02  0.51100000000E-03 0. -1.
        -11    1    3    3    0    0 -0.11057841168E+01 -0.19432226524E+02 -0.60013346221E+00  0.19472913152E+02  0.51100000000E-03 0.  1.
        -12    1    3    3    0    0  0.24236051915E+01 -0.90261612517E+01  0.25917066806E+01  0.96985768329E+01  0.00000000000E+00 0.  1.
</event>
<event>
 7    1  0.2323330E-008  0.4614232E+02  0.7816164E-02  0.1320468E+00
        -11   -1    0    0    0    0  0.00000000000E+00  0.00000000000E+00  0.45593999997E+02  0.45594000000E+02  0.51100000000E-03 0.  1.
         11   -1    0    0    0    0 -0.00000000000E+00 -0.00000000000E+00 -0.45593999997E+02  0.45594000000E+02  0.51100000000E-03 0. -1.
    9900012    2    1    2    0    0  0.22069076589E+02 -0.10778837087E+02  0.37760909028E+02  0.46142315179E+02  0.99999764498E+01 0.  0.
         12    1    1    2    0    0 -0.22069076589E+02  0.10778837087E+02 -0.37760909028E+02  0.45045684821E+02  0.00000000000E+00 0. -1.
         11    1    3    3    0    0  0.22830214669E+01 -0.44528829226E+01  0.52705669336E+01  0.72676839092E+01  0.51100000000E-03 0. -1.
        -11    1    3    3    0    0  0.82597247471E+01 -0.19251301058E+01  0.17600649718E+02  0.19537452484E+02  0.51100000000E-03 0.  1.
        -12    1    3    3    0    0  0.11526330375E+02 -0.44008240586E+01  0.14889692376E+02  0.19337178785E+02  0.00000000000E+00 0.  1.
</event>
<event>
 7    1  0.2323330E-008  0.4614232E+02  0.7816164E-02  0.1320468E+00
        -11   -1    0    0    0    0  0.00000000000E+00  0.00000000000E+00  0.45593999997E+02  0.45594000000E+02  0.51100000000E-03 0.  1.
         11   -1    0    0    0    0 -0.00000000000E+00 -0.00000000000E+00 -0.45593999997E+02  0.45594000000E+02  0.51100000000E-03 0. -1.
    9900012    2    1    2    0    0  0.79980042493E+01 -0.39813829976E+02  0.19493699169E+02  0.46142318336E+02  0.10000005238E+02 0.  0.
         12    1    1    2    0    0 -0.79980042493E+01  0.39813829976E+02 -0.19493699169E+02  0.45045681664E+02  0.00000000000E+00 0. -1.
         11    1    3    3    0    0  0.61897568808E+01 -0.25199903142E+02  0.76791474286E+01  0.27061365710E+02  0.51100000000E-03 0.  1.
        -11    1    3    3    0    0 -0.48866827378E+00 -0.14769515087E+01  0.64107800921E+00  0.16826062273E+01  0.51100000000E-03 0. -1.
        -12    1    3    3    0    0  0.22969156422E+01 -0.13136975325E+02  0.11173473732E+02  0.17398346398E+02  0.00000000000E+00 0.  1.
</event>
<event>
 7    1  0.2323330E-008  0.4614232E+02  0.7816164E-02  0.1320468E+00
        -11   -1    0    0    0    0  0.00000000000E+00  0.00000000000E+00  0.45593999997E+02  0.45594000000E+02  0.51100000000E-03 0.  1.
         11   -1    0    0    0    0 -0.00000000000E+00 -0.00000000000E+00 -0.45593999997E+02  0.45594000000E+02  0.51100000000E-03 0. -1.
    9900012    2    1    2    0    0  0.27247764053E+02  0.35826221242E+02  0.17761485613E+01  0.46142317875E+02  0.10000001041E+02 0.  0.
         12    1    1    2    0    0 -0.27247764053E+02 -0.35826221242E+02 -0.17761485613E+01  0.45045682125E+02  0.00000000000E+00 0. -1.
         11    1    3    3    0    0  0.13235508491E+01  0.28604841229E+01 -0.19500685463E+01  0.37063356383E+01  0.51100000000E-03 0. -1.
        -11    1    3    3    0    0  0.13822581906E+02  0.19336289051E+02  0.45081771913E+01  0.24192550644E+02  0.51100000000E-03 0.  1.
        -12    1    3    3    0    0  0.12101631297E+02  0.13629448068E+02 -0.78196008369E+00  0.18243431593E+02  0.00000000000E+00 0.  1.
</event>
<event>
 7    1  0.2323330E-008  0.4614232E+02  0.7816164E-02  0.1320468E+00
        -11   -1    0    0    0    0  0.00000000000E+00  0.00000000000E+00  0.45593999997E+02  0.45594000000E+02  0.51100000000E-03 0.  1.
         11   -1    0    0    0    0 -0.00000000000E+00 -0.00000000000E+00 -0.45593999997E+02  0.45594000000E+02  0.51100000000E-03 0. -1.
    9900012    2    1    2    0    0  0.38623967049E+00  0.29093578445E+02  0.34387906831E+02  0.46142316255E+02  0.99999862694E+01 0.  0.
         12    1    1    2    0    0 -0.38623967049E+00 -0.29093578445E+02 -0.34387906831E+02  0.45045683745E+02  0.00000000000E+00 0. -1.
         11    1    3    3    0    0 -0.31738634980E+01  0.91136274485E+01  0.82707074707E+01  0.12709689890E+02  0.51100000000E-03 0. -1.
        -11    1    3    3    0    0  0.29197886612E+01  0.97568164590E+01  0.16453348928E+02  0.19350279700E+02  0.51100000000E-03 0.  1.
         12    1    3    3    0    0  0.64031450727E+00  0.10223134538E+02  0.96638504314E+01  0.14082346666E+02  0.00000000000E+00 0. -1.
</event>
<event>
 7    1  0.2323330E-008  0.4614232E+02  0.7816164E-02  0.1320468E+00
        -11   -1    0    0    0    0  0.00000000000E+00  0.00000000000E+00  0.45593999997E+02  0.45594000000E+02  0.51100000000E-03 0.  1.
         11   -1    0    0    0    0 -0.00000000000E+00 -0.00000000000E+00 -0.45593999997E+02  0.45594000000E+02  0.51100000000E-03 0. -1.
    9900012    2    1    2    0    0  0.29739597789E+02  0.10194426610E+02  0.32260556249E+02  0.46142317631E+02  0.99999988137E+01 0.  0.
         12    1    1    2    0    0 -0.29739597789E+02 -0.10194426610E+02 -0.32260556249E+02  0.45045682369E+02  0.00000000000E+00 0. -1.
         11    1    3    3    0    0  0.53310574770E+01  0.21224941395E+01  0.37453282511E+01  0.68521995859E+01  0.51100000000E-03 0. -1.
        -11    1    3    3    0    0  0.23256109844E+02  0.53377693141E+01  0.23677151117E+02  0.33614668102E+02  0.51100000000E-03 0.  1.
         12    1    3    3    0    0  0.11524304684E+01  0.27341631562E+01  0.48380768815E+01  0.56754499435E+01  0.00000000000E+00 0. -1.
</event>
<event>
 7    1  0.2323330E-008  0.4614232E+02  0.7816164E-02  0.1320468E+00
        -11   -1    0    0    0    0  0.00000000000E+00  0.00000000000E+00  0.45593999997E+02  0.45594000000E+02  0.51100000000E-03 0.  1.
         11   -1    0    0    0    0 -0.00000000000E+00 -0.00000000000E+00 -0.45593999997E+02  0.45594000000E+02  0.51100000000E-03 0. -1.
    9900012    2    1    2    0    0 -0.13670389687E+02 -0.38593627768E+02  0.18782060599E+02  0.46142318089E+02  0.10000002988E+02 0.  0.
         12    1    1    2    0    0  0.13670389687E+02  0.38593627768E+02 -0.18782060599E+02  0.45045681911E+02  0.00000000000E+00 0. -1.
         11    1    3    3    0    0 -0.54888155297E+01 -0.46112136966E+01  0.36385979393E+01  0.80392650721E+01  0.51100000000E-03 0. -1.
        -11    1    3    3    0    0 -0.20295000981E+01 -0.10004788705E+02  0.42518120396E+01  0.11058597269E+02  0.51100000000E-03 0.  1.
         12    1    3    3    0    0 -0.61520740593E+01 -0.23977625366E+02  0.10891650620E+02  0.27044455747E+02  0.00000000000E+00 0. -1.
</event>
<event>
 7    1  0.2323330E-008  0.4614232E+02  0.7816164E-02  0.1320468E+00
        -11   -1    0    0    0    0  0.00000000000E+00  0.00000000000E+00  0.45593999997E+02  0.45594000000E+02  0.51100000000E-03 0. -1.
         11   -1    0    0    0    0 -0.00000000000E+00 -0.00000000000E+00 -0.45593999997E+02  0.45594000000E+02  0.51100000000E-03 0.  1.
    9900012    2    1    2    0    0  0.18790155776E+02 -0.90661696345E+01 -0.39923025980E+02  0.46142318860E+02  0.10000010023E+02 0.  0.
         12    1    1    2    0    0 -0.18790155776E+02  0.90661696345E+01  0.39923025980E+02  0.45045681140E+02  0.00000000000E+00 0. -1.
         11    1    3    3    0    0  0.38465452205E+01 -0.23770675071E+01 -0.42113051899E+01  0.61791141541E+01  0.51100000000E-03 0. -1.
        -11    1    3    3    0    0  0.53567203260E+01 -0.50651583880E+01 -0.21620027843E+02  0.22842414197E+02  0.51100000000E-03 0.  1.
         12    1    3    3    0    0  0.95868902299E+01 -0.16239437394E+01 -0.14091692947E+02  0.17120790510E+02  0.00000000000E+00 0. -1.
</event>
<event>
 7    1  0.2323330E-008  0.4614232E+02  0.7816164E-02  0.1320468E+00
        -11   -1    0    0    0    0  0.00000000000E+00  0.00000000000E+00  0.45593999997E+02  0.45594000000E+02  0.51100000000E-03 0.  1.
         11   -1    0    0    0    0 -0.00000000000E+00 -0.00000000000E+00 -0.45593999997E+02  0.45594000000E+02  0.51100000000E-03 0. -1.
    9900012    2    1    2    0    0  0.16845071507E+02 -0.24396848727E+02  0.33913873907E+02  0.46142317574E+02  0.99999982895E+01 0.  0.
         12    1    1    2    0    0 -0.16845071507E+02  0.24396848727E+02 -0.33913873907E+02  0.45045682426E+02  0.00000000000E+00 0. -1.
         11    1    3    3    0    0  0.80466105944E+01 -0.62255067789E+01  0.15579611895E+02  0.18607234716E+02  0.51100000000E-03 0.  1.
        -11    1    3    3    0    0  0.53858336063E+01 -0.72640346044E+01  0.69629052127E+01  0.11412951048E+02  0.51100000000E-03 0. -1.
        -12    1    3    3    0    0  0.34126273061E+01 -0.10907307344E+02  0.11371356800E+02  0.16122131810E+02  0.00000000000E+00 0.  1.
</event>
<event>
 7    1  0.2323330E-008  0.4614232E+02  0.7816164E-02  0.1320468E+00
        -11   -1    0    0    0    0  0.00000000000E+00  0.00000000000E+00  0.45593999997E+02  0.45594000000E+02  0.51100000000E-03 0.  1.
         11   -1    0    0    0    0 -0.00000000000E+00 -0.00000000000E+00 -0.45593999997E+02  0.45594000000E+02  0.51100000000E-03 0. -1.
    9900012    2    1    2    0    0  0.71149638320E+01 -0.13233233009E+02  0.42466131553E+02  0.46142317684E+02  0.99999992995E+01 0.  0.
         12    1    1    2    0    0 -0.71149638320E+01  0.13233233009E+02 -0.42466131553E+02  0.45045682316E+02  0.00000000000E+00 0. -1.
         11    1    3    3    0    0  0.16640702252E+01 -0.36578551299E+01  0.72844547464E+01  0.83193939130E+01  0.51100000000E-03 0. -1.
        -11    1    3    3    0    0  0.30014571204E+01  0.56556714926E+00  0.12326778054E+02  0.12699530247E+02  0.51100000000E-03 0.  1.
        -12    1    3    3    0    0  0.24494364864E+01 -0.10140945029E+02  0.22854898753E+02  0.25123393525E+02  0.00000000000E+00 0.  1.
</event>
<event>
 7    1  0.2323330E-008  0.4614232E+02  0.7816164E-02  0.1320468E+00
        -11   -1    0    0    0    0  0.00000000000E+00  0.00000000000E+00  0.45593999997E+02  0.45594000000E+02  0.51100000000E-03 0.  1.
         11   -1    0    0    0    0 -0.00000000000E+00 -0.00000000000E+00 -0.45593999997E+02  0.45594000000E+02  0.51100000000E-03 0. -1.
    9900012    2    1    2    0    0 -0.43569757398E+02 -0.98884772714E+01 -0.57452327230E+01  0.46142318281E+02  0.10000004739E+02 0.  0.
         12    1    1    2    0    0  0.43569757398E+02  0.98884772714E+01  0.57452327230E+01  0.45045681719E+02  0.00000000000E+00 0. -1.
         11    1    3    3    0    0 -0.26465761651E+01 -0.23040330819E+01  0.57082130927E+00  0.35551049308E+01  0.51100000000E-03 0. -1.
        -11    1    3    3    0    0 -0.73092469065E+01 -0.32165518889E+01 -0.29931176761E+01  0.85281914894E+01  0.51100000000E-03 0.  1.
        -12    1    3    3    0    0 -0.33613934327E+02 -0.43678923005E+01 -0.33229363561E+01  0.34059021861E+02  0.00000000000E+00 0.  1.
</event>
<event>
 7    1  0.2323330E-008  0.4614232E+02  0.7816164E-02  0.1320468E+00
        -11   -1    0    0    0    0  0.00000000000E+00  0.00000000000E+00  0.45593999997E+02  0.45594000000E+02  0.51100000000E-03 0.  1.
         11   -1    0    0    0    0 -0.00000000000E+00 -0.00000000000E+00 -0.45593999997E+02  0.45594000000E+02  0.51100000000E-03 0. -1.
    9900012    2    1    2    0    0  0.24681215271E+02  0.22796420344E+02  0.30004571938E+02  0.46142317577E+02  0.99999983223E+01 0.  0.
         12    1    1    2    0    0 -0.24681215271E+02 -0.22796420344E+02 -0.30004571938E+02  0.45045682423E+02  0.00000000000E+00 0. -1.
         11    1    3    3    0    0  0.17634695853E+02  0.12560295654E+02  0.22209197418E+02  0.31015995469E+02  0.51100000000E-03 0. -1.
        -11    1    3    3    0    0  0.17368779104E+01  0.56386732427E+01  0.41477440093E+01  0.72121537312E+01  0.51100000000E-03 0.  1.
         12    1    3    3    0    0  0.53096415077E+01  0.45974514477E+01  0.36476305109E+01  0.79141683770E+01  0.00000000000E+00 0. -1.
</event>
<event>
 7    1  0.2323330E-008  0.4614232E+02  0.7816164E-02  0.1320468E+00
        -11   -1    0    0    0    0  0.00000000000E+00  0.00000000000E+00  0.45593999997E+02  0.45594000000E+02  0.51100000000E-03 0. -1.
         11   -1    0    0    0    0 -0.00000000000E+00 -0.00000000000E+00 -0.45593999997E+02  0.45594000000E+02  0.51100000000E-03 0.  1.
    9900012    2    1    2    0    0 -0.39648254600E+02  0.16161417486E+02 -0.13997785091E+02  0.46142317683E+02  0.99999992880E+01 0.  0.
         12    1    1    2    0    0  0.39648254600E+02 -0.16161417486E+02  0.13997785091E+02  0.45045682317E+02  0.00000000000E+00 0. -1.
         11    1    3    3    0    0 -0.15647394287E+01  0.97887419254E+00 -0.17138330717E+01  0.25186957385E+01  0.51100000000E-03 0. -1.
        -11    1    3    3    0    0 -0.35392363449E+02  0.16208522147E+02 -0.11971900978E+02  0.40726674231E+02  0.51100000000E-03 0.  1.
         12    1    3    3    0    0 -0.26911517224E+01 -0.10259788533E+01 -0.31205104091E+00  0.28969477131E+01  0.00000000000E+00 0. -1.
</event>
<event>
 7    1  0.2323330E-008  0.4614232E+02  0.7816164E-02  0.1320468E+00
        -11   -1    0    0    0    0  0.00000000000E+00  0.00000000000E+00  0.45593999997E+02  0.45594000000E+02  0.51100000000E-03 0. -1.
         11   -1    0    0    0    0 -0.00000000000E+00 -0.00000000000E+00 -0.45593999997E+02  0.45594000000E+02  0.51100000000E-03 0.  1.
    9900012    2    1    2    0    0 -0.26404996177E+02  0.24185709774E+02 -0.27330219859E+02  0.46142319875E+02  0.10000019277E+02 0.  0.
         12    1    1    2    0    0  0.26404996177E+02 -0.24185709774E+02  0.27330219859E+02  0.45045680125E+02  0.00000000000E+00 0. -1.
         11    1    3    3    0    0 -0.13878608283E+02  0.63875579254E+01 -0.11206623685E+02  0.18947429345E+02  0.51100000000E-03 0. -1.
        -11    1    3    3    0    0 -0.85940200487E+01  0.11326265885E+02 -0.11787012041E+02  0.18468219530E+02  0.51100000000E-03 0.  1.
         12    1    3    3    0    0 -0.39323678456E+01  0.64718859632E+01 -0.43365841330E+01  0.87266709997E+01  0.00000000000E+00 0. -1.
</event>
<event>
 7    1  0.2323330E-008  0.4614232E+02  0.7816164E-02  0.1320468E+00
        -11   -1    0    0    0    0  0.00000000000E+00  0.00000000000E+00  0.45593999997E+02  0.45594000000E+02  0.51100000000E-03 0. -1.
         11   -1    0    0    0    0 -0.00000000000E+00 -0.00000000000E+00 -0.45593999997E+02  0.45594000000E+02  0.51100000000E-03 0.  1.
    9900012    2    1    2    0    0  0.28651749048E+02  0.34756679934E+02  0.40495622432E+00  0.46142317487E+02  0.99999975009E+01 0.  0.
         12    1    1    2    0    0 -0.28651749048E+02 -0.34756679934E+02 -0.40495622432E+00  0.45045682513E+02  0.00000000000E+00 0. -1.
         11    1    3    3    0    0  0.53258408052E+01  0.59812975099E+01  0.22962791068E+01  0.83314703493E+01  0.51100000000E-03 0. -1.
        -11    1    3    3    0    0  0.22958676016E+02  0.25157509892E+02 -0.23792727981E+01  0.34141793270E+02  0.51100000000E-03 0.  1.
        -12    1    3    3    0    0  0.36723222631E+00  0.36178725313E+01  0.48794991564E+00  0.36690538673E+01  0.00000000000E+00 0.  1.
</event>
<event>
 7    1  0.2323330E-008  0.4614232E+02  0.7816164E-02  0.1320468E+00
        -11   -1    0    0    0    0  0.00000000000E+00  0.00000000000E+00  0.45593999997E+02  0.45594000000E+02  0.51100000000E-03 0. -1.
         11   -1    0    0    0    0 -0.00000000000E+00 -0.00000000000E+00 -0.45593999997E+02  0.45594000000E+02  0.51100000000E-03 0.  1.
    9900012    2    1    2    0    0 -0.32076880454E+02  0.31204580571E+02 -0.51440609029E+01  0.46142317955E+02  0.10000001770E+02 0.  0.
         12    1    1    2    0    0  0.32076880454E+02 -0.31204580571E+02  0.51440609029E+01  0.45045682045E+02  0.00000000000E+00 0. -1.
         11    1    3    3    0    0 -0.68491170629E+01  0.10038755577E+02  0.11774411686E+01  0.12209561255E+02  0.51100000000E-03 0. -1.
        -11    1    3    3    0    0 -0.16390858961E+02  0.16310244203E+02 -0.30016540723E+01  0.23317252215E+02  0.51100000000E-03 0.  1.
         12    1    3    3    0    0 -0.88369044306E+01  0.48555807917E+01 -0.33198479992E+01  0.10615504485E+02  0.00000000000E+00 0. -1.
</event>
<event>
 7    1  0.2323330E-008  0.4614232E+02  0.7816164E-02  0.1320468E+00
        -11   -1    0    0    0    0  0.00000000000E+00  0.00000000000E+00  0.45593999997E+02  0.45594000000E+02  0.51100000000E-03 0. -1.
         11   -1    0    0    0    0 -0.00000000000E+00 -0.00000000000E+00 -0.45593999997E+02  0.45594000000E+02  0.51100000000E-03 0.  1.
    9900012    2    1    2    0    0 -0.27236290844E+02  0.33731602486E+02 -0.12226075295E+02  0.46142318050E+02  0.10000002635E+02 0.  0.
         12    1    1    2    0    0  0.27236290844E+02 -0.33731602486E+02  0.12226075295E+02  0.45045681950E+02  0.00000000000E+00 0. -1.
         11    1    3    3    0    0 -0.21258523853E+02  0.26259828489E+02 -0.10730500455E+02  0.35449218171E+02  0.51100000000E-03 0.  1.
        -11    1    3    3    0    0 -0.52055462118E+01  0.48149702778E+01 -0.28132019376E+01  0.76286142609E+01  0.51100000000E-03 0. -1.
         12    1    3    3    0    0 -0.77222077902E+00  0.26568037194E+01  0.13176270973E+01  0.30644856179E+01  0.00000000000E+00 0. -1.
</event>
<event>
 7    1  0.2323330E-008  0.4614232E+02  0.7816164E-02  0.1320468E+00
        -11   -1    0    0    0    0  0.00000000000E+00  0.00000000000E+00  0.45593999997E+02  0.45594000000E+02  0.51100000000E-03 0.  1.
         11   -1    0    0    0    0 -0.00000000000E+00 -0.00000000000E+00 -0.45593999997E+02  0.45594000000E+02  0.51100000000E-03 0. -1.
    9900012    2    1    2    0    0 -0.65718252797E+01 -0.37834173078E+02  0.23547823928E+02  0.46142317058E+02  0.99999935840E+01 0.  0.
         12    1    1    2    0    0  0.65718252797E+01  0.37834173078E+02 -0.23547823928E+02  0.45045682942E+02  0.00000000000E+00 0. -1.
         11    1    3    3    0    0 -0.10102940682E+01 -0.24434309850E+01  0.18394340387E+01  0.32209574550E+01  0.51100000000E-03 0. -1.
        -11    1    3    3    0    0 -0.71436652844E+01 -0.31155542083E+02  0.16325715281E+02  0.35891903486E+02  0.51100000000E-03 0.  1.
        -12    1    3    3    0    0  0.15821340729E+01 -0.42352000101E+01  0.53826746082E+01  0.70294561161E+01  0.00000000000E+00 0.  1.
</event>
<event>
 7    1  0.2323330E-008  0.4614232E+02  0.7816164E-02  0.1320468E+00
        -11   -1    0    0    0    0  0.00000000000E+00  0.00000000000E+00  0.45593999997E+02  0.45594000000E+02  0.51100000000E-03 0.  1.
         11   -1    0    0    0    0 -0.00000000000E+00 -0.00000000000E+00 -0.45593999997E+02  0.45594000000E+02  0.51100000000E-03 0. -1.
    9900012    2    1    2    0    0 -0.27697680385E+01 -0.44338761250E+02  0.74509119687E+01  0.46142318150E+02  0.10000003545E+02 0.  0.
         12    1    1    2    0    0  0.27697680385E+01  0.44338761250E+02 -0.74509119687E+01  0.45045681850E+02  0.00000000000E+00 0. -1.
         11    1    3    3    0    0 -0.14012483110E+01 -0.34968739410E+02  0.67262586526E+01  0.35637322970E+02  0.51100000000E-03 0. -1.
        -11    1    3    3    0    0 -0.14702668070E+01 -0.80849403894E+01 -0.10789481634E+01  0.82880682299E+01  0.51100000000E-03 0.  1.
         12    1    3    3    0    0  0.10174707945E+00 -0.12850814503E+01  0.18036014795E+01  0.22169269494E+01  0.00000000000E+00 0. -1.
</event>
<event>
 7    1  0.2323330E-008  0.4614232E+02  0.7816164E-02  0.1320468E+00
        -11   -1    0    0    0    0  0.00000000000E+00  0.00000000000E+00  0.45593999997E+02  0.45594000000E+02  0.51100000000E-03 0.  1.
         11   -1    0    0    0    0 -0.00000000000E+00 -0.00000000000E+00 -0.45593999997E+02  0.45594000000E+02  0.51100000000E-03 0. -1.
    9900012    2    1    2    0    0  0.11992025870E+02 -0.34207837755E+02  0.26741890860E+02  0.46142316798E+02  0.99999912176E+01 0.  0.
         12    1    1    2    0    0 -0.11992025870E+02  0.34207837755E+02 -0.26741890860E+02  0.45045683202E+02  0.00000000000E+00 0. -1.
         11    1    3    3    0    0  0.67609868293E+01 -0.12645973691E+02  0.11191980494E+02  0.18190437630E+02  0.51100000000E-03 0. -1.
        -11    1    3    3    0    0  0.40898558569E+01 -0.14256944849E+02  0.14003907657E+02  0.20398451591E+02  0.51100000000E-03 0.  1.
         12    1    3    3    0    0  0.11411831842E+01 -0.73049192151E+01  0.15460027079E+01  0.75534275777E+01  0.00000000000E+00 0. -1.
</event>
<event>
 7    1  0.2323330E-008  0.4614232E+02  0.7816164E-02  0.1320468E+00
        -11   -1    0    0    0    0  0.00000000000E+00  0.00000000000E+00  0.45593999997E+02  0.45594000000E+02  0.51100000000E-03 0.  1.
         11   -1    0    0    0    0 -0.00000000000E+00 -0.00000000000E+00 -0.45593999997E+02  0.45594000000E+02  0.51100000000E-03 0. -1.
    9900012    2    1    2    0    0  0.11596421342E+02 -0.69325196540E+01  0.42971813924E+02  0.46142316426E+02  0.99999878274E+01 0.  0.
         12    1    1    2    0    0 -0.11596421342E+02  0.69325196540E+01 -0.42971813924E+02  0.45045683574E+02  0.00000000000E+00 0. -1.
         11    1    3    3    0    0  0.17975253825E+01  0.92945509132E-01  0.41190866003E+01  0.44951764204E+01  0.51100000000E-03 0. -1.
        -11    1    3    3    0    0  0.68751249686E+01 -0.41086072906E+01  0.11679612632E+02  0.14161968391E+02  0.51100000000E-03 0.  1.
         12    1    3    3    0    0  0.29237709905E+01 -0.29168578726E+01  0.27173114692E+02  0.27485171615E+02  0.00000000000E+00 0. -1.
</event>
<event>
 7    1  0.2323330E-008  0.4614232E+02  0.7816164E-02  0.1320468E+00
        -11   -1    0    0    0    0  0.00000000000E+00  0.00000000000E+00  0.45593999997E+02  0.45594000000E+02  0.51100000000E-03 0.  1.
         11   -1    0    0    0    0 -0.00000000000E+00 -0.00000000000E+00 -0.45593999997E+02  0.45594000000E+02  0.51100000000E-03 0. -1.
    9900012    2    1    2    0    0 -0.84891275790E+01 -0.85738832715E+01  0.43399731731E+02  0.46142317902E+02  0.10000001282E+02 0.  0.
         12    1    1    2    0    0  0.84891275790E+01  0.85738832715E+01 -0.43399731731E+02  0.45045682098E+02  0.00000000000E+00 0. -1.
         11    1    3    3    0    0 -0.38357382685E+01 -0.46189159801E+00  0.13681085230E+02  0.14216129053E+02  0.51100000000E-03 0. -1.
        -11    1    3    3    0    0 -0.43123910438E+01 -0.63390830424E+01  0.12866182330E+02  0.14977294093E+02  0.51100000000E-03 0.  1.
        -12    1    3    3    0    0 -0.34099826674E+00 -0.17729086311E+01  0.16852464170E+02  0.16948894756E+02  0.00000000000E+00 0.  1.
</event>
<event>
 7    1  0.2323330E-008  0.4614232E+02  0.7816164E-02  0.1320468E+00
        -11   -1    0    0    0    0  0.00000000000E+00  0.00000000000E+00  0.45593999997E+02  0.45594000000E+02  0.51100000000E-03 0.  1.
         11   -1    0    0    0    0 -0.00000000000E+00 -0.00000000000E+00 -0.45593999997E+02  0.45594000000E+02  0.51100000000E-03 0. -1.
    9900012    2    1    2    0    0 -0.23757505957E+01 -0.26534121058E+02  0.36323680268E+02  0.46142317417E+02  0.99999968576E+01 0.  0.
         12    1    1    2    0    0  0.23757505957E+01  0.26534121058E+02 -0.36323680268E+02  0.45045682583E+02  0.00000000000E+00 0. -1.
         11    1    3    3    0    0  0.56981692068E+00 -0.15337070712E+02  0.16745668534E+02  0.22714925583E+02  0.51100000000E-03 0. -1.
        -11    1    3    3    0    0 -0.46009105102E+01 -0.77961726176E+01  0.14536156776E+02  0.17124501134E+02  0.51100000000E-03 0.  1.
         12    1    3    3    0    0  0.16553429938E+01 -0.34008777283E+01  0.50418549587E+01  0.63028906998E+01  0.00000000000E+00 0. -1.
</event>
<event>
 7    1  0.2323330E-008  0.4614232E+02  0.7816164E-02  0.1320468E+00
        -11   -1    0    0    0    0  0.00000000000E+00  0.00000000000E+00  0.45593999997E+02  0.45594000000E+02  0.51100000000E-03 0.  1.
         11   -1    0    0    0    0 -0.00000000000E+00 -0.00000000000E+00 -0.45593999997E+02  0.45594000000E+02  0.51100000000E-03 0. -1.
    9900012    2    1    2    0    0 -0.91906277020E+01  0.43948686568E+02  0.36275040268E+01  0.46142317920E+02  0.10000001451E+02 0.  0.
         12    1    1    2    0    0  0.91906277020E+01 -0.43948686568E+02 -0.36275040268E+01  0.45045682080E+02  0.00000000000E+00 0. -1.
         11    1    3    3    0    0 -0.79645332139E+01  0.20373095167E+02 -0.50775653374E+00  0.21880461900E+02  0.51100000000E-03 0. -1.
        -11    1    3    3    0    0 -0.99861062138E+00  0.25153495684E+01 -0.34769127678E+00  0.27285703416E+01  0.51100000000E-03 0.  1.
        -12    1    3    3    0    0 -0.22748386673E+00  0.21060241832E+02  0.44829518373E+01  0.21533285678E+02  0.00000000000E+00 0.  1.
</event>
<event>
 7    1  0.2323330E-008  0.4614232E+02  0.7816164E-02  0.1320468E+00
        -11   -1    0    0    0    0  0.00000000000E+00  0.00000000000E+00  0.45593999997E+02  0.45594000000E+02  0.51100000000E-03 0. -1.
         11   -1    0    0    0    0 -0.00000000000E+00 -0.00000000000E+00 -0.45593999997E+02  0.45594000000E+02  0.51100000000E-03 0.  1.
    9900012    2    1    2    0    0 -0.16163487139E+02 -0.14124221837E+02 -0.39602545351E+02  0.46142316996E+02  0.99999930247E+01 0.  0.
         12    1    1    2    0    0  0.16163487139E+02  0.14124221837E+02  0.39602545351E+02  0.45045683004E+02  0.00000000000E+00 0. -1.
         11    1    3    3    0    0 -0.52093009017E+01 -0.10260881475E+02 -0.20156056507E+02  0.23209677264E+02  0.51100000000E-03 0. -1.
        -11    1    3    3    0    0 -0.15899964970E+01 -0.17131117101E+01 -0.23080739807E+01  0.32848205968E+01  0.51100000000E-03 0.  1.
         12    1    3    3    0    0 -0.93641897401E+01 -0.21502286524E+01 -0.17138414863E+02  0.19647819135E+02  0.00000000000E+00 0. -1.
</event>
<event>
 7    1  0.2323330E-008  0.4614232E+02  0.7816164E-02  0.1320468E+00
        -11   -1    0    0    0    0  0.00000000000E+00  0.00000000000E+00  0.45593999997E+02  0.45594000000E+02  0.51100000000E-03 0.  1.
         11   -1    0    0    0    0 -0.00000000000E+00 -0.00000000000E+00 -0.45593999997E+02  0.45594000000E+02  0.51100000000E-03 0. -1.
    9900012    2    1    2    0    0  0.34263747953E+02 -0.23652805226E-02  0.29242248347E+02  0.46142317434E+02  0.99999970190E+01 0.  0.
         12    1    1    2    0    0 -0.34263747953E+02  0.23652805226E-02 -0.29242248347E+02  0.45045682566E+02  0.00000000000E+00 0. -1.
         11    1    3    3    0    0  0.56820630170E+01  0.12394841494E+01  0.46210301785E+01  0.74280603968E+01  0.51100000000E-03 0. -1.
        -11    1    3    3    0    0  0.14645554455E+02  0.34922187108E+01  0.14046007056E+02  0.20590730227E+02  0.51100000000E-03 0.  1.
         12    1    3    3    0    0  0.13936130481E+02 -0.47340681407E+01  0.10575211113E+02  0.18123526810E+02  0.00000000000E+00 0. -1.
</event>
<event>
 7    1  0.2323330E-008  0.4614232E+02  0.7816164E-02  0.1320468E+00
        -11   -1    0    0    0    0  0.00000000000E+00  0.00000000000E+00  0.45593999997E+02  0.45594000000E+02  0.51100000000E-03 0.  1.
         11   -1    0    0    0    0 -0.00000000000E+00 -0.00000000000E+00 -0.45593999997E+02  0.45594000000E+02  0.51100000000E-03 0. -1.
    9900012    2    1    2    0    0  0.40288786699E+02 -0.33042464410E+01  0.19874829321E+02  0.46142320754E+02  0.10000027287E+02 0.  0.
         12    1    1    2    0    0 -0.40288786699E+02  0.33042464410E+01 -0.19874829321E+02  0.45045679246E+02  0.00000000000E+00 0. -1.
         11    1    3    3    0    0  0.10796123064E+02 -0.25509381801E+01  0.46211204536E+01  0.12017417082E+02  0.51100000000E-03 0. -1.
        -11    1    3    3    0    0  0.28583014202E+02  0.15011862835E+00  0.12721295038E+02  0.31286460078E+02  0.51100000000E-03 0.  1.
         12    1    3    3    0    0  0.90964943335E+00 -0.90342688928E+00  0.25324138290E+01  0.28384435942E+01  0.00000000000E+00 0. -1.
</event>
<event>
 7    1  0.2323330E-008  0.4614232E+02  0.7816164E-02  0.1320468E+00
        -11   -1    0    0    0    0  0.00000000000E+00  0.00000000000E+00  0.45593999997E+02  0.45594000000E+02  0.51100000000E-03 0.  1.
         11   -1    0    0    0    0 -0.00000000000E+00 -0.00000000000E+00 -0.45593999997E+02  0.45594000000E+02  0.51100000000E-03 0. -1.
    9900012    2    1    2    0    0  0.15936101212E+02 -0.11971140745E+02  0.40396111102E+02  0.46142319577E+02  0.10000016561E+02 0.  0.
         12    1    1    2    0    0 -0.15936101212E+02  0.11971140745E+02 -0.40396111102E+02  0.45045680423E+02  0.00000000000E+00 0. -1.
         11    1    3    3    0    0  0.33285475859E+01 -0.51465798469E+01  0.19212499679E+02  0.20166473597E+02  0.51100000000E-03 0. -1.
        -11    1    3    3    0    0  0.10543525455E+02 -0.38420344226E+01  0.17627531718E+02  0.20896340164E+02  0.51100000000E-03 0.  1.
         12    1    3    3    0    0  0.20640281717E+01 -0.29825264757E+01  0.35560797046E+01  0.50795058162E+01  0.00000000000E+00 0. -1.
</event>
<event>
 7    1  0.2323330E-008  0.4614232E+02  0.7816164E-02  0.1320468E+00
        -11   -1    0    0    0    0  0.00000000000E+00  0.00000000000E+00  0.45593999997E+02  0.45594000000E+02  0.51100000000E-03 0. -1.
         11   -1    0    0    0    0 -0.00000000000E+00 -0.00000000000E+00 -0.45593999997E+02  0.45594000000E+02  0.51100000000E-03 0.  1.
    9900012    2    1    2    0    0 -0.34970710395E+02  0.10592342804E+02 -0.26343216265E+02  0.46142319244E+02  0.10000013523E+02 0.  0.
         12    1    1    2    0    0  0.34970710395E+02 -0.10592342804E+02  0.26343216265E+02  0.45045680756E+02  0.00000000000E+00 0. -1.
         11    1    3    3    0    0 -0.89936310753E+01  0.18873338786E+00 -0.34285667360E+01  0.96268421788E+01  0.51100000000E-03 0. -1.
        -11    1    3    3    0    0 -0.57342423813E+01  0.37105466356E+00 -0.35094525314E+01  0.67331623018E+01  0.51100000000E-03 0.  1.
        -12    1    3    3    0    0 -0.20242836938E+02  0.10032554753E+02 -0.19405196998E+02  0.29782314764E+02  0.00000000000E+00 0.  1.
</event>
<event>
 7    1  0.2323330E-008  0.4614232E+02  0.7816164E-02  0.1320468E+00
        -11   -1    0    0    0    0  0.00000000000E+00  0.00000000000E+00  0.45593999997E+02  0.45594000000E+02  0.51100000000E-03 0. -1.
         11   -1    0    0    0    0 -0.00000000000E+00 -0.00000000000E+00 -0.45593999997E+02  0.45594000000E+02  0.51100000000E-03 0.  1.
    9900012    2    1    2    0    0  0.16290179729E+02 -0.36571546512E+02 -0.20646196463E+02  0.46142318761E+02  0.10000009120E+02 0.  0.
         12    1    1    2    0    0 -0.16290179729E+02  0.36571546512E+02  0.20646196463E+02  0.45045681239E+02  0.00000000000E+00 0. -1.
         11    1    3    3    0    0  0.48416723221E+01 -0.10246327378E+02 -0.83741302468E+01  0.14090957145E+02  0.51100000000E-03 0. -1.
        -11    1    3    3    0    0  0.84990092175E+01 -0.13894316924E+02 -0.98901593112E+01  0.19055194880E+02  0.51100000000E-03 0.  1.
         12    1    3    3    0    0  0.29494981893E+01 -0.12430902211E+02 -0.23819069050E+01  0.12996166736E+02  0.00000000000E+00 0. -1.
</event>
<event>
 7    1  0.2323330E-008  0.4614231E+02  0.7816164E-02  0.1320468E+00
        -11   -1    0    0    0    0  0.00000000000E+00  0.00000000000E+00  0.45593999997E+02  0.45594000000E+02  0.51100000000E-03 0. -1.
         11   -1    0    0    0    0 -0.00000000000E+00 -0.00000000000E+00 -0.45593999997E+02  0.45594000000E+02  0.51100000000E-03 0.  1.
    9900012    2    1    2    0    0  0.38279998489E+02  0.49629863493E+01 -0.23219058168E+02  0.46142310084E+02  0.99999299919E+01 0.  0.
         12    1    1    2    0    0 -0.38279998489E+02 -0.49629863493E+01  0.23219058168E+02  0.45045689916E+02  0.00000000000E+00 0. -1.
         11    1    3    3    0    0  0.18957209980E+02 -0.44460559603E-01 -0.10814115083E+02  0.21824822388E+02  0.51100000000E-03 0. -1.
        -11    1    3    3    0    0  0.13013670897E+02  0.40591162212E+00 -0.66711260327E+01  0.14629569962E+02  0.51100000000E-03 0.  1.
        -12    1    3    3    0    0  0.63091176117E+01  0.46015352867E+01 -0.57338170521E+01  0.96879177339E+01  0.00000000000E+00 0.  1.
</event>
<event>
 7    1  0.2323330E-008  0.4614232E+02  0.7816164E-02  0.1320468E+00
        -11   -1    0    0    0    0  0.00000000000E+00  0.00000000000E+00  0.45593999997E+02  0.45594000000E+02  0.51100000000E-03 0.  1.
         11   -1    0    0    0    0 -0.00000000000E+00 -0.00000000000E+00 -0.45593999997E+02  0.45594000000E+02  0.51100000000E-03 0. -1.
    9900012    2    1    2    0    0 -0.31506602476E+02 -0.15582209900E+02  0.28171656461E+02  0.46142317713E+02  0.99999995646E+01 0.  0.
         12    1    1    2    0    0  0.31506602476E+02  0.15582209900E+02 -0.28171656461E+02  0.45045682287E+02  0.00000000000E+00 0. -1.
         11    1    3    3    0    0 -0.26811573605E+01 -0.30405890302E+01  0.63514453011E+01  0.75348950966E+01  0.51100000000E-03 0. -1.
        -11    1    3    3    0    0 -0.25086001683E+02 -0.10344755292E+02  0.20696471949E+02  0.34127194345E+02  0.51100000000E-03 0.  1.
        -12    1    3    3    0    0 -0.37394434322E+01 -0.21968655780E+01  0.11237392103E+01  0.44802282713E+01  0.00000000000E+00 0.  1.
</event>
<event>
 7    1  0.2323330E-008  0.4614232E+02  0.7816164E-02  0.1320468E+00
        -11   -1    0    0    0    0  0.00000000000E+00  0.00000000000E+00  0.45593999997E+02  0.45594000000E+02  0.51100000000E-03 0.  1.
         11   -1    0    0    0    0 -0.00000000000E+00 -0.00000000000E+00 -0.45593999997E+02  0.45594000000E+02  0.51100000000E-03 0. -1.
    9900012    2    1    2    0    0  0.96257960569E+01  0.83884375589E+01  0.43198282790E+02  0.46142317960E+02  0.10000001817E+02 0.  0.
         12    1    1    2    0    0 -0.96257960569E+01 -0.83884375589E+01 -0.43198282790E+02  0.45045682040E+02  0.00000000000E+00 0. -1.
         11    1    3    3    0    0 -0.84693448935E+00  0.18064316624E+01  0.51065530471E+01  0.54824609131E+01  0.51100000000E-03 0. -1.
        -11    1    3    3    0    0  0.54303534685E+01  0.10874151259E+00  0.21140765420E+02  0.21827334384E+02  0.51100000000E-03 0.  1.
         12    1    3    3    0    0  0.50423770777E+01  0.64732643838E+01  0.16950964323E+02  0.18832522663E+02  0.00000000000E+00 0. -1.
</event>
<event>
 7    1  0.2323330E-008  0.4614232E+02  0.7816164E-02  0.1320468E+00
        -11   -1    0    0    0    0  0.00000000000E+00  0.00000000000E+00  0.45593999997E+02  0.45594000000E+02  0.51100000000E-03 0.  1.
         11   -1    0    0    0    0 -0.00000000000E+00 -0.00000000000E+00 -0.45593999997E+02  0.45594000000E+02  0.51100000000E-03 0. -1.
    9900012    2    1    2    0    0  0.36768127076E+02  0.25696572786E+02  0.41114964302E+01  0.46142318470E+02  0.10000006465E+02 0.  0.
         12    1    1    2    0    0 -0.36768127076E+02 -0.25696572786E+02 -0.41114964302E+01  0.45045681530E+02  0.00000000000E+00 0. -1.
         11    1    3    3    0    0  0.44255119579E+01  0.14764240913E+01  0.27679900700E+01  0.54246431657E+01  0.51100000000E-03 0. -1.
        -11    1    3    3    0    0  0.14152415997E+02  0.80027435620E+01  0.16851346436E+01  0.16345472220E+02  0.51100000000E-03 0.  1.
         12    1    3    3    0    0  0.18190199121E+02  0.16217405133E+02 -0.34162828343E+00  0.24372203084E+02  0.00000000000E+00 0. -1.
</event>
<event>
 7    1  0.2323330E-008  0.4614232E+02  0.7816164E-02  0.1320468E+00
        -11   -1    0    0    0    0  0.00000000000E+00  0.00000000000E+00  0.45593999997E+02  0.45594000000E+02  0.51100000000E-03 0.  1.
         11   -1    0    0    0    0 -0.00000000000E+00 -0.00000000000E+00 -0.45593999997E+02  0.45594000000E+02  0.51100000000E-03 0. -1.
    9900012    2    1    2    0    0  0.38495511875E+02  0.66013702269E+01  0.22441725722E+02  0.46142316779E+02  0.99999910475E+01 0.  0.
         12    1    1    2    0    0 -0.38495511875E+02 -0.66013702269E+01 -0.22441725722E+02  0.45045683221E+02  0.00000000000E+00 0. -1.
         11    1    3    3    0    0  0.44711346451E+01  0.12869068940E+01  0.41212807624E+01  0.62154750222E+01  0.51100000000E-03 0.  1.
        -11    1    3    3    0    0  0.10649085583E+00 -0.86810900758E+00 -0.21020715511E-01  0.87486895191E+00  0.51100000000E-03 0. -1.
        -12    1    3    3    0    0  0.33917886374E+02  0.61825723405E+01  0.18341465675E+02  0.39051972805E+02  0.00000000000E+00 0.  1.
</event>
<event>
 7    1  0.2323330E-008  0.4614232E+02  0.7816164E-02  0.1320468E+00
        -11   -1    0    0    0    0  0.00000000000E+00  0.00000000000E+00  0.45593999997E+02  0.45594000000E+02  0.51100000000E-03 0. -1.
         11   -1    0    0    0    0 -0.00000000000E+00 -0.00000000000E+00 -0.45593999997E+02  0.45594000000E+02  0.51100000000E-03 0.  1.
    9900012    2    1    2    0    0  0.41332015475E+02  0.13191214501E+02  0.12114863297E+02  0.46142317012E+02  0.99999931653E+01 0.  0.
         12    1    1    2    0    0 -0.41332015475E+02 -0.13191214501E+02 -0.12114863297E+02  0.45045682988E+02  0.00000000000E+00 0. -1.
         11    1    3    3    0    0 -0.20904136063E+00 -0.34995933951E+00 -0.35722716123E+00  0.54201599202E+00  0.51100000000E-03 0. -1.
        -11    1    3    3    0    0  0.17652568210E+02  0.72158476722E+01  0.67950496656E+01  0.20244859156E+02  0.51100000000E-03 0.  1.
        -12    1    3    3    0    0  0.23888488625E+02  0.63253261679E+01  0.56770407927E+01  0.25355441863E+02  0.00000000000E+00 0.  1.
</event>
<event>
 7    1  0.2323330E-008  0.4614232E+02  0.7816164E-02  0.1320468E+00
        -11   -1    0    0    0    0  0.00000000000E+00  0.00000000000E+00  0.45593999997E+02  0.45594000000E+02  0.51100000000E-03 0. -1.
         11   -1    0    0    0    0 -0.00000000000E+00 -0.00000000000E+00 -0.45593999997E+02  0.45594000000E+02  0.51100000000E-03 0.  1.
    9900012    2    1    2    0    0  0.40436922895E+01  0.31716649937E+02 -0.31730366578E+02  0.46142317701E+02  0.99999994539E+01 0.  0.
         12    1    1    2    0    0 -0.40436922895E+01 -0.31716649937E+02  0.31730366578E+02  0.45045682299E+02  0.00000000000E+00 0. -1.
         11    1    3    3    0    0  0.17584574056E+01  0.13714230653E+02 -0.11836350228E+02  0.18200864865E+02  0.51100000000E-03 0.  1.
        -11    1    3    3    0    0  0.45709992080E+01  0.15648544640E+02 -0.17174769736E+02  0.23680027425E+02  0.51100000000E-03 0. -1.
        -12    1    3    3    0    0 -0.22857643241E+01  0.23538746443E+01 -0.27192466139E+01  0.42614254110E+01  0.00000000000E+00 0.  1.
</event>
<event>
 7    1  0.2323330E-008  0.4614232E+02  0.7816164E-02  0.1320468E+00
        -11   -1    0    0    0    0  0.00000000000E+00  0.00000000000E+00  0.45593999997E+02  0.45594000000E+02  0.51100000000E-03 0.  1.
         11   -1    0    0    0    0 -0.00000000000E+00 -0.00000000000E+00 -0.45593999997E+02  0.45594000000E+02  0.51100000000E-03 0. -1.
    9900012    2    1    2    0    0 -0.32286609629E+02  0.11336855626E+02  0.29294436626E+02  0.46142317920E+02  0.10000001451E+02 0.  0.
         12    1    1    2    0    0  0.32286609629E+02 -0.11336855626E+02 -0.29294436626E+02  0.45045682080E+02  0.00000000000E+00 0. -1.
         11    1    3    3    0    0 -0.97225540187E+01  0.50897269467E+01  0.86961240829E+01  0.14001998120E+02  0.51100000000E-03 0.  1.
        -11    1    3    3    0    0 -0.58218926276E+01 -0.17629018650E+00  0.92111337487E+01  0.10898187794E+02  0.51100000000E-03 0. -1.
         12    1    3    3    0    0 -0.16742162982E+02  0.64234188656E+01  0.11387178795E+02  0.21242132006E+02  0.00000000000E+00 0. -1.
</event>
<event>
 7    1  0.2323330E-008  0.4614232E+02  0.7816164E-02  0.1320468E+00
        -11   -1    0    0    0    0  0.00000000000E+00  0.00000000000E+00  0.45593999997E+02  0.45594000000E+02  0.51100000000E-03 0.  1.
         11   -1    0    0    0    0 -0.00000000000E+00 -0.00000000000E+00 -0.45593999997E+02  0.45594000000E+02  0.51100000000E-03 0. -1.
    9900012    2    1    2    0    0  0.18795303247E+02  0.32147010730E+02  0.25345998018E+02  0.46142319424E+02  0.10000015166E+02 0.  0.
         12    1    1    2    0    0 -0.18795303247E+02 -0.32147010730E+02 -0.25345998018E+02  0.45045680576E+02  0.00000000000E+00 0. -1.
         11    1    3    3    0    0  0.13643227976E+02  0.18994365090E+02  0.20709752559E+02  0.31238076542E+02  0.51100000000E-03 0. -1.
        -11    1    3    3    0    0  0.28661100218E+01  0.74231339620E+01  0.31572837009E+01  0.85607210621E+01  0.51100000000E-03 0.  1.
         12    1    3    3    0    0  0.22859652495E+01  0.57295116785E+01  0.14789617579E+01  0.63435218197E+01  0.00000000000E+00 0. -1.
</event>
<event>
 7    1  0.2323330E-008  0.4614232E+02  0.7816164E-02  0.1320468E+00
        -11   -1    0    0    0    0  0.00000000000E+00  0.00000000000E+00  0.45593999997E+02  0.45594000000E+02  0.51100000000E-03 0. -1.
         11   -1    0    0    0    0 -0.00000000000E+00 -0.00000000000E+00 -0.45593999997E+02  0.45594000000E+02  0.51100000000E-03 0.  1.
    9900012    2    1    2    0    0  0.44430300167E+02 -0.68520134855E+01  0.28481243841E+01  0.46142317918E+02  0.10000001430E+02 0.  0.
         12    1    1    2    0    0 -0.44430300167E+02  0.68520134855E+01 -0.28481243841E+01  0.45045682082E+02  0.00000000000E+00 0. -1.
         11    1    3    3    0    0  0.14853354778E+02  0.28568030968E+00  0.20284391801E+01  0.14993943016E+02  0.51100000000E-03 0. -1.
        -11    1    3    3    0    0  0.29355648346E+02 -0.68119007822E+01  0.17004486781E+01  0.30183565198E+02  0.51100000000E-03 0.  1.
         12    1    3    3    0    0  0.22129704333E+00 -0.32579301302E+00 -0.88076347404E+00  0.96480970452E+00  0.00000000000E+00 0. -1.
</event>
<event>
 7    1  0.2323330E-008  0.4614232E+02  0.7816164E-02  0.1320468E+00
        -11   -1    0    0    0    0  0.00000000000E+00  0.00000000000E+00  0.45593999997E+02  0.45594000000E+02  0.51100000000E-03 0.  1.
         11   -1    0    0    0    0 -0.00000000000E+00 -0.00000000000E+00 -0.45593999997E+02  0.45594000000E+02  0.51100000000E-03 0. -1.
    9900012    2    1    2    0    0 -0.40411727130E+02 -0.30521741520E+01  0.19664435463E+02  0.46142317867E+02  0.10000000969E+02 0.  0.
         12    1    1    2    0    0  0.40411727130E+02  0.30521741520E+01 -0.19664435463E+02  0.45045682133E+02  0.00000000000E+00 0. -1.
         11    1    3    3    0    0 -0.96818740807E+01 -0.99099398181E+00  0.29900296659E+01  0.10181406212E+02  0.51100000000E-03 0. -1.
        -11    1    3    3    0    0 -0.24376665052E+02  0.11522038581E+00  0.95793147976E+01  0.26191570152E+02  0.51100000000E-03 0.  1.
        -12    1    3    3    0    0 -0.63531879982E+01 -0.21764005560E+01  0.70950909997E+01  0.97693415036E+01  0.00000000000E+00 0.  1.
</event>
<event>
 7    1  0.2323330E-008  0.4614232E+02  0.7816164E-02  0.1320468E+00
        -11   -1    0    0    0    0  0.00000000000E+00  0.00000000000E+00  0.45593999997E+02  0.45594000000E+02  0.51100000000E-03 0.  1.
         11   -1    0    0    0    0 -0.00000000000E+00 -0.00000000000E+00 -0.45593999997E+02  0.45594000000E+02  0.51100000000E-03 0. -1.
    9900012    2    1    2    0    0  0.14809501777E+02  0.90507250780E+01  0.41567734147E+02  0.46142317749E+02  0.99999998906E+01 0.  0.
         12    1    1    2    0    0 -0.14809501777E+02 -0.90507250780E+01 -0.41567734147E+02  0.45045682251E+02  0.00000000000E+00 0. -1.
         11    1    3    3    0    0  0.26406736731E+01  0.15135012654E+01  0.11653534085E+02  0.12044446872E+02  0.51100000000E-03 0. -1.
        -11    1    3    3    0    0  0.30125966612E+01  0.36819767845E+01  0.17831736454E+02  0.18455446809E+02  0.51100000000E-03 0.  1.
         12    1    3    3    0    0  0.91562314431E+01  0.38552470281E+01  0.12082463608E+02  0.15642424068E+02  0.00000000000E+00 0. -1.
</event>
<event>
 7    1  0.2323330E-008  0.4614232E+02  0.7816164E-02  0.1320468E+00
        -11   -1    0    0    0    0  0.00000000000E+00  0.00000000000E+00  0.45593999997E+02  0.45594000000E+02  0.51100000000E-03 0.  1.
         11   -1    0    0    0    0 -0.00000000000E+00 -0.00000000000E+00 -0.45593999997E+02  0.45594000000E+02  0.51100000000E-03 0. -1.
    9900012    2    1    2    0    0  0.12797598316E+02 -0.43188138619E+02 -0.34596884228E+00  0.46142317249E+02  0.99999953292E+01 0.  0.
         12    1    1    2    0    0 -0.12797598316E+02  0.43188138619E+02  0.34596884228E+00  0.45045682751E+02  0.00000000000E+00 0. -1.
         11    1    3    3    0    0  0.46066227134E+01 -0.20778498404E+02  0.28419157430E+01  0.21471922460E+02  0.51100000000E-03 0.  1.
        -11    1    3    3    0    0  0.85785907530E+01 -0.21708423097E+02 -0.22701302204E+01  0.23452107456E+02  0.51100000000E-03 0. -1.
         12    1    3    3    0    0 -0.38761515011E+00 -0.70121711831E+00 -0.91775436493E+00  0.12182873331E+01  0.00000000000E+00 0. -1.
</event>
<event>
 7    1  0.2323330E-008  0.4614232E+02  0.7816164E-02  0.1320468E+00
        -11   -1    0    0    0    0  0.00000000000E+00  0.00000000000E+00  0.45593999997E+02  0.45594000000E+02  0.51100000000E-03 0.  1.
         11   -1    0    0    0    0 -0.00000000000E+00 -0.00000000000E+00 -0.45593999997E+02  0.45594000000E+02  0.51100000000E-03 0. -1.
    9900012    2    1    2    0    0 -0.34008282983E+02 -0.24985459935E+02  0.15756790478E+02  0.46142323562E+02  0.10000052893E+02 0.  0.
         12    1    1    2    0    0  0.34008282983E+02  0.24985459935E+02 -0.15756790478E+02  0.45045676438E+02  0.00000000000E+00 0. -1.
         11    1    3    3    0    0 -0.67704101982E+01 -0.87945904767E+01  0.36914391257E+01  0.11696580654E+02  0.51100000000E-03 0. -1.
        -11    1    3    3    0    0 -0.15798268248E+02 -0.12520427343E+02  0.62969816189E+01  0.21118673213E+02  0.51100000000E-03 0.  1.
         12    1    3    3    0    0 -0.11439604537E+02 -0.36704421152E+01  0.57683697336E+01  0.13327069695E+02  0.00000000000E+00 0. -1.
</event>
<event>
 7    1  0.2323330E-008  0.4614232E+02  0.7816164E-02  0.1320468E+00
        -11   -1    0    0    0    0  0.00000000000E+00  0.00000000000E+00  0.45593999997E+02  0.45594000000E+02  0.51100000000E-03 0. -1.
         11   -1    0    0    0    0 -0.00000000000E+00 -0.00000000000E+00 -0.45593999997E+02  0.45594000000E+02  0.51100000000E-03 0.  1.
    9900012    2    1    2    0    0  0.30912777596E+02  0.93381214845E+01 -0.31405623834E+02  0.46142317188E+02  0.99999947769E+01 0.  0.
         12    1    1    2    0    0 -0.30912777596E+02 -0.93381214845E+01  0.31405623834E+02  0.45045682812E+02  0.00000000000E+00 0. -1.
         11    1    3    3    0    0  0.17338953328E+01  0.26086986254E+01 -0.11207908845E+01  0.33268414466E+01  0.51100000000E-03 0.  1.
        -11    1    3    3    0    0  0.21834753865E+02  0.34741335669E+01 -0.20451497678E+02  0.30117932166E+02  0.51100000000E-03 0. -1.
        -12    1    3    3    0    0  0.73441283977E+01  0.32552892922E+01 -0.98333352716E+01  0.12697543576E+02  0.00000000000E+00 0.  1.
</event>
<event>
 7    1  0.2323330E-008  0.4614232E+02  0.7816164E-02  0.1320468E+00
        -11   -1    0    0    0    0  0.00000000000E+00  0.00000000000E+00  0.45593999997E+02  0.45594000000E+02  0.51100000000E-03 0. -1.
         11   -1    0    0    0    0 -0.00000000000E+00 -0.00000000000E+00 -0.45593999997E+02  0.45594000000E+02  0.51100000000E-03 0.  1.
    9900012    2    1    2    0    0  0.16350674494E+02  0.32491107732E+02 -0.26572483687E+02  0.46142317328E+02  0.99999960543E+01 0.  0.
         12    1    1    2    0    0 -0.16350674494E+02 -0.32491107732E+02  0.26572483687E+02  0.45045682672E+02  0.00000000000E+00 0. -1.
         11    1    3    3    0    0  0.30146271458E+01  0.64594141949E+01 -0.34673174747E+01  0.79268088977E+01  0.51100000000E-03 0. -1.
        -11    1    3    3    0    0  0.10726325208E+02  0.23940317007E+02 -0.22969891763E+02  0.34868449331E+02  0.51100000000E-03 0.  1.
        -12    1    3    3    0    0  0.26097221402E+01  0.20913765307E+01 -0.13527444851E+00  0.33470591000E+01  0.00000000000E+00 0.  1.
</event>
<event>
 7    1  0.2323330E-008  0.4614232E+02  0.7816164E-02  0.1320468E+00
        -11   -1    0    0    0    0  0.00000000000E+00  0.00000000000E+00  0.45593999997E+02  0.45594000000E+02  0.51100000000E-03 0.  1.
         11   -1    0    0    0    0 -0.00000000000E+00 -0.00000000000E+00 -0.45593999997E+02  0.45594000000E+02  0.51100000000E-03 0. -1.
    9900012    2    1    2    0    0 -0.41001580952E+02  0.16328754211E+02  0.90197335005E+01  0.46142318219E+02  0.10000004179E+02 0.  0.
         12    1    1    2    0    0  0.41001580952E+02 -0.16328754211E+02 -0.90197335005E+01  0.45045681781E+02  0.00000000000E+00 0. -1.
         11    1    3    3    0    0 -0.15186143363E+02  0.52056445417E+01  0.74349031331E+01  0.17691677993E+02  0.51100000000E-03 0. -1.
        -11    1    3    3    0    0 -0.10277534774E+02  0.54381358632E+01  0.24495123511E+01  0.11882809168E+02  0.51100000000E-03 0.  1.
         12    1    3    3    0    0 -0.15537902815E+02  0.56849738062E+01 -0.86468198369E+00  0.16567831059E+02  0.00000000000E+00 0. -1.
</event>
<event>
 7    1  0.2323330E-008  0.4614232E+02  0.7816164E-02  0.1320468E+00
        -11   -1    0    0    0    0  0.00000000000E+00  0.00000000000E+00  0.45593999997E+02  0.45594000000E+02  0.51100000000E-03 0. -1.
         11   -1    0    0    0    0 -0.00000000000E+00 -0.00000000000E+00 -0.45593999997E+02  0.45594000000E+02  0.51100000000E-03 0.  1.
    9900012    2    1    2    0    0  0.14084845364E+02 -0.25466041491E+02 -0.34383299099E+02  0.46142318797E+02  0.10000009448E+02 0.  0.
         12    1    1    2    0    0 -0.14084845364E+02  0.25466041491E+02  0.34383299099E+02  0.45045681203E+02  0.00000000000E+00 0. -1.
         11    1    3    3    0    0 -0.44237463284E-01 -0.33012506689E+01 -0.40853063040E+01  0.52526127585E+01  0.51100000000E-03 0.  1.
        -11    1    3    3    0    0  0.11641625664E+01 -0.16785182926E+01 -0.69012299776E+01  0.71971990111E+01  0.51100000000E-03 0. -1.
        -12    1    3    3    0    0  0.12964920261E+02 -0.20486272529E+02 -0.23396762817E+02  0.33692507028E+02  0.00000000000E+00 0.  1.
</event>
<event>
 7    1  0.2323330E-008  0.4614232E+02  0.7816164E-02  0.1320468E+00
        -11   -1    0    0    0    0  0.00000000000E+00  0.00000000000E+00  0.45593999997E+02  0.45594000000E+02  0.51100000000E-03 0.  1.
         11   -1    0    0    0    0 -0.00000000000E+00 -0.00000000000E+00 -0.45593999997E+02  0.45594000000E+02  0.51100000000E-03 0. -1.
    9900012    2    1    2    0    0 -0.41151804949E+01  0.20941854714E+02  0.39668848058E+02  0.46142317681E+02  0.99999992657E+01 0.  0.
         12    1    1    2    0    0  0.41151804949E+01 -0.20941854714E+02 -0.39668848058E+02  0.45045682319E+02  0.00000000000E+00 0. -1.
         11    1    3    3    0    0  0.12698712632E+01  0.75706526942E+00  0.71526347244E+01  0.73038280791E+01  0.51100000000E-03 0. -1.
        -11    1    3    3    0    0  0.20895488282E+00  0.21224333071E+01  0.51598757464E+01  0.55832520332E+01  0.51100000000E-03 0.  1.
        -12    1    3    3    0    0 -0.55940066409E+01  0.18062356138E+02  0.27356337587E+02  0.33255237568E+02  0.00000000000E+00 0.  1.
</event>
<event>
 7    1  0.2323330E-008  0.4614231E+02  0.7816164E-02  0.1320468E+00
        -11   -1    0    0    0    0  0.00000000000E+00  0.00000000000E+00  0.45593999997E+02  0.45594000000E+02  0.51100000000E-03 0.  1.
         11   -1    0    0    0    0 -0.00000000000E+00 -0.00000000000E+00 -0.45593999997E+02  0.45594000000E+02  0.51100000000E-03 0. -1.
    9900012    2    1    2    0    0 -0.14041806359E+02 -0.24315471507E+02  0.35223563412E+02  0.46142313193E+02  0.99999583481E+01 0.  0.
         12    1    1    2    0    0  0.14041806359E+02  0.24315471507E+02 -0.35223563412E+02  0.45045686807E+02  0.00000000000E+00 0. -1.
         11    1    3    3    0    0 -0.43516656410E+01 -0.11518611808E+02  0.18408101657E+02  0.22146638993E+02  0.51100000000E-03 0. -1.
        -11    1    3    3    0    0 -0.92267048543E+01 -0.13335308266E+02  0.16696763422E+02  0.23275404144E+02  0.51100000000E-03 0.  1.
         12    1    3    3    0    0 -0.46343586423E+00  0.53844856697E+00  0.11869833267E+00  0.72027005610E+00  0.00000000000E+00 0. -1.
</event>
<event>
 7    1  0.2323330E-008  0.4614232E+02  0.7816164E-02  0.1320468E+00
        -11   -1    0    0    0    0  0.00000000000E+00  0.00000000000E+00  0.45593999997E+02  0.45594000000E+02  0.51100000000E-03 0.  1.
         11   -1    0    0    0    0 -0.00000000000E+00 -0.00000000000E+00 -0.45593999997E+02  0.45594000000E+02  0.51100000000E-03 0. -1.
    9900012    2    1    2    0    0 -0.56337681520E+01  0.18197860099E+02  0.40819259793E+02  0.46142318455E+02  0.10000006330E+02 0.  0.
         12    1    1    2    0    0  0.56337681520E+01 -0.18197860099E+02 -0.40819259793E+02  0.45045681545E+02  0.00000000000E+00 0. -1.
         11    1    3    3    0    0 -0.14771965208E+01  0.10765136868E+02  0.16708518036E+02  0.19931002397E+02  0.51100000000E-03 0. -1.
        -11    1    3    3    0    0 -0.52602618090E+01  0.71644213006E+01  0.22831757161E+02  0.24500784114E+02  0.51100000000E-03 0.  1.
         12    1    3    3    0    0  0.11036901778E+01  0.26830193028E+00  0.12789845963E+01  0.17105319442E+01  0.00000000000E+00 0. -1.
</event>
<event>
 7    1  0.2323330E-008  0.4614232E+02  0.7816164E-02  0.1320468E+00
        -11   -1    0    0    0    0  0.00000000000E+00  0.00000000000E+00  0.45593999997E+02  0.45594000000E+02  0.51100000000E-03 0.  1.
         11   -1    0    0    0    0 -0.00000000000E+00 -0.00000000000E+00 -0.45593999997E+02  0.45594000000E+02  0.51100000000E-03 0. -1.
    9900012    2    1    2    0    0 -0.77799789773E+01 -0.34355996330E+02  0.28075807913E+02  0.46142317114E+02  0.99999940971E+01 0.  0.
         12    1    1    2    0    0  0.77799789773E+01  0.34355996330E+02 -0.28075807913E+02  0.45045682886E+02  0.00000000000E+00 0. -1.
         11    1    3    3    0    0  0.97191569418E+00 -0.65725527028E+01  0.35198586230E+01  0.75188080262E+01  0.51100000000E-03 0. -1.
        -11    1    3    3    0    0 -0.76936902897E+01 -0.16178467638E+02  0.17249373811E+02  0.24869189422E+02  0.51100000000E-03 0.  1.
        -12    1    3    3    0    0 -0.10582043818E+01 -0.11604975989E+02  0.73065754792E+01  0.13754319666E+02  0.00000000000E+00 0.  1.
</event>
<event>
 7    1  0.2323330E-008  0.4614232E+02  0.7816164E-02  0.1320468E+00
        -11   -1    0    0    0    0  0.00000000000E+00  0.00000000000E+00  0.45593999997E+02  0.45594000000E+02  0.51100000000E-03 0. -1.
         11   -1    0    0    0    0 -0.00000000000E+00 -0.00000000000E+00 -0.45593999997E+02  0.45594000000E+02  0.51100000000E-03 0.  1.
    9900012    2    1    2    0    0 -0.25890616380E+02 -0.29557338167E+02  0.22026191971E+02  0.46142318866E+02  0.10000010076E+02 0.  0.
         12    1    1    2    0    0  0.25890616380E+02  0.29557338167E+02 -0.22026191971E+02  0.45045681134E+02  0.00000000000E+00 0. -1.
         11    1    3    3    0    0 -0.49702742021E+01 -0.22143585524E+01  0.29674287087E+01  0.61977933851E+01  0.51100000000E-03 0. -1.
        -11    1    3    3    0    0 -0.29766856916E+01 -0.22221266201E+01  0.98866974630E-01  0.37159493218E+01  0.51100000000E-03 0.  1.
         12    1    3    3    0    0 -0.17943656486E+02 -0.25120852995E+02  0.18959896287E+02  0.36228576159E+02  0.00000000000E+00 0. -1.
</event>
<event>
 7    1  0.2323330E-008  0.4614232E+02  0.7816164E-02  0.1320468E+00
        -11   -1    0    0    0    0  0.00000000000E+00  0.00000000000E+00  0.45593999997E+02  0.45594000000E+02  0.51100000000E-03 0.  1.
         11   -1    0    0    0    0 -0.00000000000E+00 -0.00000000000E+00 -0.45593999997E+02  0.45594000000E+02  0.51100000000E-03 0. -1.
    9900012    2    1    2    0    0  0.13201511050E+02  0.42710671587E+02  0.55346106691E+01  0.46142320111E+02  0.10000021427E+02 0.  0.
         12    1    1    2    0    0 -0.13201511050E+02 -0.42710671587E+02 -0.55346106691E+01  0.45045679889E+02  0.00000000000E+00 0. -1.
         11    1    3    3    0    0 -0.67627444359E+00  0.88875336319E+00 -0.17265364858E-01  0.11169279375E+01  0.51100000000E-03 0. -1.
        -11    1    3    3    0    0  0.85834346225E+01  0.34837849791E+02  0.51982317657E+01  0.36254278943E+02  0.51100000000E-03 0.  1.
        -12    1    3    3    0    0  0.52943508709E+01  0.69840684333E+01  0.35364426830E+00  0.87711132300E+01  0.00000000000E+00 0.  1.
</event>
<event>
 7    1  0.2323330E-008  0.4614232E+02  0.7816164E-02  0.1320468E+00
        -11   -1    0    0    0    0  0.00000000000E+00  0.00000000000E+00  0.45593999997E+02  0.45594000000E+02  0.51100000000E-03 0. -1.
         11   -1    0    0    0    0 -0.00000000000E+00 -0.00000000000E+00 -0.45593999997E+02  0.45594000000E+02  0.51100000000E-03 0.  1.
    9900012    2    1    2    0    0 -0.13061292176E+01  0.37525213044E+02 -0.24885052328E+02  0.46142318555E+02  0.10000007236E+02 0.  0.
         12    1    1    2    0    0  0.13061292176E+01 -0.37525213044E+02  0.24885052328E+02  0.45045681445E+02  0.00000000000E+00 0. -1.
         11    1    3    3    0    0  0.16108950023E+00  0.14662895922E+01  0.29424163418E-01  0.14754053808E+01  0.51100000000E-03 0. -1.
        -11    1    3    3    0    0  0.19832317083E+01  0.12459334534E+02 -0.49107733625E+01  0.13538239188E+02  0.51100000000E-03 0.  1.
        -12    1    3    3    0    0 -0.34504504261E+01  0.23599588917E+02 -0.20003703129E+02  0.31128673985E+02  0.00000000000E+00 0.  1.
</event>
<event>
 7    1  0.2323330E-008  0.4614232E+02  0.7816164E-02  0.1320468E+00
        -11   -1    0    0    0    0  0.00000000000E+00  0.00000000000E+00  0.45593999997E+02  0.45594000000E+02  0.51100000000E-03 0.  1.
         11   -1    0    0    0    0 -0.00000000000E+00 -0.00000000000E+00 -0.45593999997E+02  0.45594000000E+02  0.51100000000E-03 0. -1.
    9900012    2    1    2    0    0  0.71493367810E+01  0.30463557565E+02  0.32403273574E+02  0.46142317696E+02  0.99999994050E+01 0.  0.
         12    1    1    2    0    0 -0.71493367810E+01 -0.30463557565E+02 -0.32403273574E+02  0.45045682304E+02  0.00000000000E+00 0. -1.
         11    1    3    3    0    0  0.49858563432E+01  0.20512603606E+02  0.17656772962E+02  0.27520670447E+02  0.51100000000E-03 0. -1.
        -11    1    3    3    0    0  0.37475946886E+01  0.76563538137E+01  0.10257737725E+02  0.13337368675E+02  0.51100000000E-03 0.  1.
        -12    1    3    3    0    0 -0.15841142508E+01  0.22946001448E+01  0.44887628878E+01  0.52842785739E+01  0.00000000000E+00 0.  1.
</event>
<event>
 7    1  0.2323330E-008  0.4614231E+02  0.7816164E-02  0.1320468E+00
        -11   -1    0    0    0    0  0.00000000000E+00  0.00000000000E+00  0.45593999997E+02  0.45594000000E+02  0.51100000000E-03 0. -1.
         11   -1    0    0    0    0 -0.00000000000E+00 -0.00000000000E+00 -0.45593999997E+02  0.45594000000E+02  0.51100000000E-03 0.  1.
    9900012    2    1    2    0    0 -0.14943479568E+01  0.26955026284E+02 -0.36059775169E+02  0.46142313158E+02  0.99999580285E+01 0.  0.
         12    1    1    2    0    0  0.14943479568E+01 -0.26955026284E+02  0.36059775169E+02  0.45045686842E+02  0.00000000000E+00 0. -1.
         11    1    3    3    0    0 -0.30444168992E+01  0.22266948718E+01 -0.40683135723E+01  0.55477761213E+01  0.51100000000E-03 0. -1.
        -11    1    3    3    0    0  0.73734212625E+00  0.15782897223E+02 -0.22831117788E+02  0.27765148259E+02  0.51100000000E-03 0.  1.
        -12    1    3    3    0    0  0.81272681621E+00  0.89454341890E+01 -0.91603438092E+01  0.12829388778E+02  0.00000000000E+00 0.  1.
</event>
<event>
 7    1  0.2323330E-008  0.4614231E+02  0.7816164E-02  0.1320468E+00
        -11   -1    0    0    0    0  0.00000000000E+00  0.00000000000E+00  0.45593999997E+02  0.45594000000E+02  0.51100000000E-03 0.  1.
         11   -1    0    0    0    0 -0.00000000000E+00 -0.00000000000E+00 -0.45593999997E+02  0.45594000000E+02  0.51100000000E-03 0. -1.
    9900012    2    1    2    0    0 -0.16860242001E+02  0.21669593645E+02  0.35710994442E+02  0.46142310161E+02  0.99999306939E+01 0.  0.
         12    1    1    2    0    0  0.16860242001E+02 -0.21669593645E+02 -0.35710994442E+02  0.45045689839E+02  0.00000000000E+00 0. -1.
         11    1    3    3    0    0 -0.37852936337E+00  0.59459758532E+00  0.46962569820E+01  0.47488588808E+01  0.51100000000E-03 0. -1.
        -11    1    3    3    0    0 -0.16496038733E+02  0.18748275035E+02  0.29328911347E+02  0.38520152540E+02  0.51100000000E-03 0.  1.
         12    1    3    3    0    0  0.14326095518E-01  0.23267210251E+01  0.16858261127E+01  0.28732987398E+01  0.00000000000E+00 0. -1.
</event>
<event>
 7    1  0.2323330E-008  0.4614232E+02  0.7816164E-02  0.1320468E+00
        -11   -1    0    0    0    0  0.00000000000E+00  0.00000000000E+00  0.45593999997E+02  0.45594000000E+02  0.51100000000E-03 0.  1.
         11   -1    0    0    0    0 -0.00000000000E+00 -0.00000000000E+00 -0.45593999997E+02  0.45594000000E+02  0.51100000000E-03 0. -1.
    9900012    2    1    2    0    0  0.33353143348E+01  0.44727951580E+02  0.41712664148E+01  0.46142318323E+02  0.10000005125E+02 0.  0.
         12    1    1    2    0    0 -0.33353143348E+01 -0.44727951580E+02 -0.41712664148E+01  0.45045681677E+02  0.00000000000E+00 0. -1.
         11    1    3    3    0    0  0.72695704587E+00  0.62516693123E+00 -0.46332569942E+00  0.10648808400E+01  0.51100000000E-03 0. -1.
        -11    1    3    3    0    0  0.22629681767E+01  0.36381623688E+02  0.67334868716E+01  0.37068631116E+02  0.51100000000E-03 0.  1.
        -12    1    3    3    0    0  0.34538911224E+00  0.77211609605E+01 -0.20988947574E+01  0.80088063667E+01  0.00000000000E+00 0.  1.
</event>
<event>
 7    1  0.2323330E-008  0.4614233E+02  0.7816164E-02  0.1320468E+00
        -11   -1    0    0    0    0  0.00000000000E+00  0.00000000000E+00  0.45593999997E+02  0.45594000000E+02  0.51100000000E-03 0. -1.
         11   -1    0    0    0    0 -0.00000000000E+00 -0.00000000000E+00 -0.45593999997E+02  0.45594000000E+02  0.51100000000E-03 0.  1.
    9900012    2    1    2    0    0  0.39600224952E+02 -0.84998253747E+01 -0.19715159117E+02  0.46142330434E+02  0.10000115560E+02 0.  0.
         12    1    1    2    0    0 -0.39600224952E+02  0.84998253747E+01  0.19715159117E+02  0.45045669566E+02  0.00000000000E+00 0. -1.
         11    1    3    3    0    0  0.39663357529E+01 -0.22028133446E+01 -0.55677224936E+01  0.71821821171E+01  0.51100000000E-03 0. -1.
        -11    1    3    3    0    0  0.81627125694E+01 -0.34950763140E+00 -0.37694703006E+01  0.89978296651E+01  0.51100000000E-03 0.  1.
         12    1    3    3    0    0  0.27471176630E+02 -0.59475043987E+01 -0.10377966323E+02  0.29962318652E+02  0.00000000000E+00 0. -1.
</event>
<event>
 7    1  0.2323330E-008  0.4614232E+02  0.7816164E-02  0.1320468E+00
        -11   -1    0    0    0    0  0.00000000000E+00  0.00000000000E+00  0.45593999997E+02  0.45594000000E+02  0.51100000000E-03 0. -1.
         11   -1    0    0    0    0 -0.00000000000E+00 -0.00000000000E+00 -0.45593999997E+02  0.45594000000E+02  0.51100000000E-03 0.  1.
    9900012    2    1    2    0    0 -0.48775564482E+01 -0.32000732518E+02 -0.31325327427E+02  0.46142316777E+02  0.99999910274E+01 0.  0.
         12    1    1    2    0    0  0.48775564482E+01  0.32000732518E+02  0.31325327427E+02  0.45045683223E+02  0.00000000000E+00 0. -1.
         11    1    3    3    0    0 -0.21767811696E+01 -0.37705893023E+01 -0.24924692311E+01  0.50167841369E+01  0.51100000000E-03 0. -1.
        -11    1    3    3    0    0 -0.43484240559E+01 -0.21192656854E+02 -0.18215390934E+02  0.28281406674E+02  0.51100000000E-03 0.  1.
         12    1    3    3    0    0  0.16476487773E+01 -0.70374863617E+01 -0.10617467262E+02  0.12844125966E+02  0.00000000000E+00 0. -1.
</event>
<event>
 7    1  0.2323330E-008  0.4614232E+02  0.7816164E-02  0.1320468E+00
        -11   -1    0    0    0    0  0.00000000000E+00  0.00000000000E+00  0.45593999997E+02  0.45594000000E+02  0.51100000000E-03 0.  1.
         11   -1    0    0    0    0 -0.00000000000E+00 -0.00000000000E+00 -0.45593999997E+02  0.45594000000E+02  0.51100000000E-03 0. -1.
    9900012    2    1    2    0    0  0.28034697671E+02 -0.16774657890E+01  0.35218677962E+02  0.46142318272E+02  0.10000004655E+02 0.  0.
         12    1    1    2    0    0 -0.28034697671E+02  0.16774657890E+01 -0.35218677962E+02  0.45045681728E+02  0.00000000000E+00 0. -1.
         11    1    3    3    0    0  0.89928035124E+01 -0.53988848818E+00  0.51146612377E+01  0.10359621346E+02  0.51100000000E-03 0. -1.
        -11    1    3    3    0    0  0.83029510294E+01 -0.20896743013E+01  0.13335662982E+02  0.15847575269E+02  0.51100000000E-03 0.  1.
        -12    1    3    3    0    0  0.10738943129E+02  0.95209700044E+00  0.16768353743E+02  0.19935121657E+02  0.00000000000E+00 0.  1.
</event>
<event>
 7    1  0.2323330E-008  0.4614232E+02  0.7816164E-02  0.1320468E+00
        -11   -1    0    0    0    0  0.00000000000E+00  0.00000000000E+00  0.45593999997E+02  0.45594000000E+02  0.51100000000E-03 0.  1.
         11   -1    0    0    0    0 -0.00000000000E+00 -0.00000000000E+00 -0.45593999997E+02  0.45594000000E+02  0.51100000000E-03 0. -1.
    9900012    2    1    2    0    0  0.43103884043E+02 -0.87877811277E+01  0.96924520029E+01  0.46142317160E+02  0.99999945149E+01 0.  0.
         12    1    1    2    0    0 -0.43103884043E+02  0.87877811277E+01 -0.96924520029E+01  0.45045682840E+02  0.00000000000E+00 0. -1.
         11    1    3    3    0    0  0.12389720330E+02  0.46907899012E+00  0.37137522820E+00  0.12404157560E+02  0.51100000000E-03 0. -1.
        -11    1    3    3    0    0  0.58824115280E+01 -0.36353439921E+01  0.27657352042E+01  0.74476696225E+01  0.51100000000E-03 0.  1.
         12    1    3    3    0    0  0.24831752185E+02 -0.56215161258E+01  0.65553415705E+01  0.26290489977E+02  0.00000000000E+00 0. -1.
</event>
<event>
 7    1  0.2323330E-008  0.4614232E+02  0.7816164E-02  0.1320468E+00
        -11   -1    0    0    0    0  0.00000000000E+00  0.00000000000E+00  0.45593999997E+02  0.45594000000E+02  0.51100000000E-03 0.  1.
         11   -1    0    0    0    0 -0.00000000000E+00 -0.00000000000E+00 -0.45593999997E+02  0.45594000000E+02  0.51100000000E-03 0. -1.
    9900012    2    1    2    0    0 -0.59394829675E+01  0.34980733612E+02  0.27752195518E+02  0.46142317210E+02  0.99999949726E+01 0.  0.
         12    1    1    2    0    0  0.59394829675E+01 -0.34980733612E+02 -0.27752195518E+02  0.45045682790E+02  0.00000000000E+00 0. -1.
         11    1    3    3    0    0 -0.15835392028E+01  0.29472136376E+01  0.47857763319E+01  0.58392910523E+01  0.51100000000E-03 0. -1.
        -11    1    3    3    0    0 -0.43445588264E+01  0.19159920934E+02  0.10053673988E+02  0.22069302719E+02  0.51100000000E-03 0.  1.
         12    1    3    3    0    0 -0.11384938305E-01  0.12873599041E+02  0.12912745198E+02  0.18233723439E+02  0.00000000000E+00 0. -1.
</event>
<event>
 7    1  0.2323330E-008  0.4614232E+02  0.7816164E-02  0.1320468E+00
        -11   -1    0    0    0    0  0.00000000000E+00  0.00000000000E+00  0.45593999997E+02  0.45594000000E+02  0.51100000000E-03 0.  1.
         11   -1    0    0    0    0 -0.00000000000E+00 -0.00000000000E+00 -0.45593999997E+02  0.45594000000E+02  0.51100000000E-03 0. -1.
    9900012    2    1    2    0    0 -0.79371596020E+01  0.15141936962E+02  0.41675373488E+02  0.46142317489E+02  0.99999975170E+01 0.  0.
         12    1    1    2    0    0  0.79371596020E+01 -0.15141936962E+02 -0.41675373488E+02  0.45045682511E+02  0.00000000000E+00 0. -1.
         11    1    3    3    0    0 -0.59902974143E+01  0.24238884293E+01  0.12249236025E+02  0.13849284519E+02  0.51100000000E-03 0. -1.
        -11    1    3    3    0    0  0.58243595878E+00  0.13312983280E+01  0.18576196414E+01  0.23584609129E+01  0.51100000000E-03 0.  1.
         12    1    3    3    0    0 -0.25292981464E+01  0.11386750205E+02  0.27568517822E+02  0.29934572057E+02  0.00000000000E+00 0. -1.
</event>
<event>
 7    1  0.2323330E-008  0.4614232E+02  0.7816164E-02  0.1320468E+00
        -11   -1    0    0    0    0  0.00000000000E+00  0.00000000000E+00  0.45593999997E+02  0.45594000000E+02  0.51100000000E-03 0.  1.
         11   -1    0    0    0    0 -0.00000000000E+00 -0.00000000000E+00 -0.45593999997E+02  0.45594000000E+02  0.51100000000E-03 0. -1.
    9900012    2    1    2    0    0  0.21635270397E+02  0.96080256542E+01  0.38323809705E+02  0.46142317938E+02  0.10000001613E+02 0.  0.
         12    1    1    2    0    0 -0.21635270397E+02 -0.96080256542E+01 -0.38323809705E+02  0.45045682062E+02  0.00000000000E+00 0. -1.
         11    1    3    3    0    0  0.79297809589E+00  0.71391801283E+00  0.65441774456E+01  0.66305921221E+01  0.51100000000E-03 0. -1.
        -11    1    3    3    0    0  0.89889786896E+01  0.43085619093E+01  0.19178363449E+02  0.21614233007E+02  0.51100000000E-03 0.  1.
        -12    1    3    3    0    0  0.11853313611E+02  0.45855457321E+01  0.12601268810E+02  0.17897492809E+02  0.00000000000E+00 0.  1.
</event>
<event>
 7    1  0.2323330E-008  0.4614232E+02  0.7816164E-02  0.1320468E+00
        -11   -1    0    0    0    0  0.00000000000E+00  0.00000000000E+00  0.45593999997E+02  0.45594000000E+02  0.51100000000E-03 0. -1.
         11   -1    0    0    0    0 -0.00000000000E+00 -0.00000000000E+00 -0.45593999997E+02  0.45594000000E+02  0.51100000000E-03 0.  1.
    9900012    2    1    2    0    0  0.22588080923E+02  0.35498183365E+02 -0.16086359147E+02  0.46142319047E+02  0.10000011721E+02 0.  0.
         12    1    1    2    0    0 -0.22588080923E+02 -0.35498183365E+02  0.16086359147E+02  0.45045680953E+02  0.00000000000E+00 0. -1.
         11    1    3    3    0    0  0.26332219099E+01  0.18013334180E+01 -0.35749330602E+01  0.47915348643E+01  0.51100000000E-03 0. -1.
        -11    1    3    3    0    0  0.38211671084E+01  0.75040666342E+01 -0.89785042257E+00  0.84686757975E+01  0.51100000000E-03 0.  1.
         12    1    3    3    0    0  0.16133691904E+02  0.26192783312E+02 -0.11613575665E+02  0.32882108385E+02  0.00000000000E+00 0. -1.
</event>
<event>
 7    1  0.2323330E-008  0.4614232E+02  0.7816164E-02  0.1320468E+00
        -11   -1    0    0    0    0  0.00000000000E+00  0.00000000000E+00  0.45593999997E+02  0.45594000000E+02  0.51100000000E-03 0.  1.
         11   -1    0    0    0    0 -0.00000000000E+00 -0.00000000000E+00 -0.45593999997E+02  0.45594000000E+02  0.51100000000E-03 0. -1.
    9900012    2    1    2    0    0  0.44093916931E+02  0.79356491414E+01  0.46760338022E+01  0.46142319522E+02  0.10000016060E+02 0.  0.
         12    1    1    2    0    0 -0.44093916931E+02 -0.79356491414E+01 -0.46760338022E+01  0.45045680478E+02  0.00000000000E+00 0. -1.
         11    1    3    3    0    0  0.10504198766E+02 -0.10854707284E+01  0.66675575943E-01  0.10560344896E+02  0.51100000000E-03 0. -1.
        -11    1    3    3    0    0  0.21468617214E+02  0.44278072664E+01  0.30115867313E+00  0.21922538610E+02  0.51100000000E-03 0.  1.
         12    1    3    3    0    0  0.12121100950E+02  0.45933126035E+01  0.43081995531E+01  0.13659436017E+02  0.00000000000E+00 0. -1.
</event>
<event>
 7    1  0.2323330E-008  0.4614232E+02  0.7816164E-02  0.1320468E+00
        -11   -1    0    0    0    0  0.00000000000E+00  0.00000000000E+00  0.45593999997E+02  0.45594000000E+02  0.51100000000E-03 0.  1.
         11   -1    0    0    0    0 -0.00000000000E+00 -0.00000000000E+00 -0.45593999997E+02  0.45594000000E+02  0.51100000000E-03 0. -1.
    9900012    2    1    2    0    0 -0.30227785961E+02  0.32434968814E+02  0.79603648151E+01  0.46142315922E+02  0.99999832309E+01 0.  0.
         12    1    1    2    0    0  0.30227785961E+02 -0.32434968814E+02 -0.79603648151E+01  0.45045684078E+02  0.00000000000E+00 0. -1.
         11    1    3    3    0    0 -0.30426407363E+01  0.44569134219E+01 -0.85867039843E+00  0.54643439693E+01  0.51100000000E-03 0. -1.
        -11    1    3    3    0    0 -0.24571769098E+02  0.27733394923E+02  0.86413919786E+01  0.38047163970E+02  0.51100000000E-03 0.  1.
         12    1    3    3    0    0 -0.26133761269E+01  0.24466046898E+00  0.17764323493E+00  0.26308079833E+01  0.00000000000E+00 0. -1.
</event>
<event>
 7    1  0.2323330E-008  0.4614232E+02  0.7816164E-02  0.1320468E+00
        -11   -1    0    0    0    0  0.00000000000E+00  0.00000000000E+00  0.45593999997E+02  0.45594000000E+02  0.51100000000E-03 0.  1.
         11   -1    0    0    0    0 -0.00000000000E+00 -0.00000000000E+00 -0.45593999997E+02  0.45594000000E+02  0.51100000000E-03 0. -1.
    9900012    2    1    2    0    0 -0.17051999326E+02 -0.28742503894E+02  0.30202835850E+02  0.46142317582E+02  0.99999983639E+01 0.  0.
         12    1    1    2    0    0  0.17051999326E+02  0.28742503894E+02 -0.30202835850E+02  0.45045682418E+02  0.00000000000E+00 0. -1.
         11    1    3    3    0    0 -0.11947430042E+02 -0.14160104499E+02  0.21097431962E+02  0.28077593909E+02  0.51100000000E-03 0. -1.
        -11    1    3    3    0    0 -0.46496008497E+01 -0.11336234855E+02  0.78661004938E+01  0.14560375888E+02  0.51100000000E-03 0.  1.
         12    1    3    3    0    0 -0.45496843401E+00 -0.32461645402E+01  0.12393033943E+01  0.35043477854E+01  0.00000000000E+00 0. -1.
</event>
<event>
 7    1  0.2323330E-008  0.4614232E+02  0.7816164E-02  0.1320468E+00
        -11   -1    0    0    0    0  0.00000000000E+00  0.00000000000E+00  0.45593999997E+02  0.45594000000E+02  0.51100000000E-03 0. -1.
         11   -1    0    0    0    0 -0.00000000000E+00 -0.00000000000E+00 -0.45593999997E+02  0.45594000000E+02  0.51100000000E-03 0.  1.
    9900012    2    1    2    0    0 -0.40975123834E+02 -0.18551386588E+02  0.24492464269E+01  0.46142317348E+02  0.99999962359E+01 0.  0.
         12    1    1    2    0    0  0.40975123834E+02  0.18551386588E+02 -0.24492464269E+01  0.45045682652E+02  0.00000000000E+00 0. -1.
         11    1    3    3    0    0 -0.17155066902E+02 -0.66836566293E+01  0.30925725211E+01  0.18669000815E+02  0.51100000000E-03 0. -1.
        -11    1    3    3    0    0 -0.12690286780E+02 -0.56357204012E+01  0.30033707818E+01  0.14206511159E+02  0.51100000000E-03 0.  1.
        -12    1    3    3    0    0 -0.11129770151E+02 -0.62320095571E+01 -0.36466968760E+01  0.13266805374E+02  0.00000000000E+00 0.  1.
</event>
<event>
 7    1  0.2323330E-008  0.4614231E+02  0.7816164E-02  0.1320468E+00
        -11   -1    0    0    0    0  0.00000000000E+00  0.00000000000E+00  0.45593999997E+02  0.45594000000E+02  0.51100000000E-03 0.  1.
         11   -1    0    0    0    0 -0.00000000000E+00 -0.00000000000E+00 -0.45593999997E+02  0.45594000000E+02  0.51100000000E-03 0. -1.
    9900012    2    1    2    0    0  0.23504227410E+02 -0.25357524582E+02  0.28873192405E+02  0.46142312096E+02  0.99999483390E+01 0.  0.
         12    1    1    2    0    0 -0.23504227410E+02  0.25357524582E+02 -0.28873192405E+02  0.45045687904E+02  0.00000000000E+00 0. -1.
         11    1    3    3    0    0  0.76613041305E+01 -0.75051762867E+01  0.93825285931E+01  0.14249740178E+02  0.51100000000E-03 0. -1.
        -11    1    3    3    0    0  0.57616790112E+01 -0.99441921779E+01  0.13555574100E+02  0.17771817367E+02  0.51100000000E-03 0.  1.
         12    1    3    3    0    0  0.10081244269E+02 -0.79081561175E+01  0.59350897120E+01  0.14120754551E+02  0.00000000000E+00 0. -1.
</event>
<event>
 7    1  0.2323330E-008  0.4614231E+02  0.7816164E-02  0.1320468E+00
        -11   -1    0    0    0    0  0.00000000000E+00  0.00000000000E+00  0.45593999997E+02  0.45594000000E+02  0.51100000000E-03 0.  1.
         11   -1    0    0    0    0 -0.00000000000E+00 -0.00000000000E+00 -0.45593999997E+02  0.45594000000E+02  0.51100000000E-03 0. -1.
    9900012    2    1    2    0    0  0.56388225581E+01 -0.28551153192E+02  0.34382395328E+02  0.46142314558E+02  0.99999707943E+01 0.  0.
         12    1    1    2    0    0 -0.56388225581E+01  0.28551153192E+02 -0.34382395328E+02  0.45045685442E+02  0.00000000000E+00 0. -1.
         11    1    3    3    0    0 -0.94870858270E-01 -0.67849289947E+01  0.10610159061E+02  0.12594432798E+02  0.51100000000E-03 0. -1.
        -11    1    3    3    0    0 -0.56306678383E+00 -0.24684479372E+00  0.27313322189E+01  0.27996700710E+01  0.51100000000E-03 0.  1.
        -12    1    3    3    0    0  0.62967602002E+01 -0.21519379404E+02  0.21040904048E+02  0.30748211689E+02  0.00000000000E+00 0.  1.
</event>
<event>
 7    1  0.2323330E-008  0.4614232E+02  0.7816164E-02  0.1320468E+00
        -11   -1    0    0    0    0  0.00000000000E+00  0.00000000000E+00  0.45593999997E+02  0.45594000000E+02  0.51100000000E-03 0. -1.
         11   -1    0    0    0    0 -0.00000000000E+00 -0.00000000000E+00 -0.45593999997E+02  0.45594000000E+02  0.51100000000E-03 0.  1.
    9900012    2    1    2    0    0  0.31110414579E+01  0.32870883810E+01 -0.44817741604E+02  0.46142317727E+02  0.99999996892E+01 0.  0.
         12    1    1    2    0    0 -0.31110414579E+01 -0.32870883810E+01  0.44817741604E+02  0.45045682273E+02  0.00000000000E+00 0. -1.
         11    1    3    3    0    0  0.29132147146E+01 -0.14705564029E+01 -0.13595846485E+02  0.13982002647E+02  0.51100000000E-03 0. -1.
        -11    1    3    3    0    0 -0.17739748931E+01 -0.33139891036E+00 -0.13414301775E+02  0.13535150703E+02  0.51100000000E-03 0.  1.
         12    1    3    3    0    0  0.19718016364E+01  0.50890436943E+01 -0.17807593343E+02  0.18625164377E+02  0.00000000000E+00 0. -1.
</event>
<event>
 7    1  0.2323330E-008  0.4614231E+02  0.7816164E-02  0.1320468E+00
        -11   -1    0    0    0    0  0.00000000000E+00  0.00000000000E+00  0.45593999997E+02  0.45594000000E+02  0.51100000000E-03 0.  1.
         11   -1    0    0    0    0 -0.00000000000E+00 -0.00000000000E+00 -0.45593999997E+02  0.45594000000E+02  0.51100000000E-03 0. -1.
    9900012    2    1    2    0    0  0.92572950488E+01 -0.31013942082E+02  0.31329728062E+02  0.46142312354E+02  0.99999506905E+01 0.  0.
         12    1    1    2    0    0 -0.92572950488E+01  0.31013942082E+02 -0.31329728062E+02  0.45045687646E+02  0.00000000000E+00 0. -1.
         11    1    3    3    0    0  0.50771243774E+01 -0.19966245396E+02  0.21463495790E+02  0.29750794930E+02  0.51100000000E-03 0. -1.
        -11    1    3    3    0    0  0.35558601710E+01 -0.64141526596E+01  0.26598058234E+01  0.78012859950E+01  0.51100000000E-03 0.  1.
         12    1    3    3    0    0  0.62431050034E+00 -0.46335440266E+01  0.72064264482E+01  0.85902314289E+01  0.00000000000E+00 0. -1.
</event>
<event>
 7    1  0.2323330E-008  0.4614232E+02  0.7816164E-02  0.1320468E+00
        -11   -1    0    0    0    0  0.00000000000E+00  0.00000000000E+00  0.45593999997E+02  0.45594000000E+02  0.51100000000E-03 0.  1.
         11   -1    0    0    0    0 -0.00000000000E+00 -0.00000000000E+00 -0.45593999997E+02  0.45594000000E+02  0.51100000000E-03 0. -1.
    9900012    2    1    2    0    0 -0.41940548577E+02 -0.16334008679E+02 -0.18176931067E+01  0.46142318046E+02  0.10000002597E+02 0.  0.
         12    1    1    2    0    0  0.41940548577E+02  0.16334008679E+02  0.18176931067E+01  0.45045681954E+02  0.00000000000E+00 0. -1.
         11    1    3    3    0    0 -0.11504209104E+02 -0.23327317537E+01  0.81408366886E+00  0.11766528673E+02  0.51100000000E-03 0. -1.
        -11    1    3    3    0    0 -0.29682552328E+02 -0.13854399133E+02 -0.38014941069E+01  0.32976501417E+02  0.51100000000E-03 0.  1.
         12    1    3    3    0    0 -0.75378714539E+00 -0.14687779288E+00  0.11697173314E+01  0.13992879553E+01  0.00000000000E+00 0. -1.
</event>
<event>
 7    1  0.2323330E-008  0.4614232E+02  0.7816164E-02  0.1320468E+00
        -11   -1    0    0    0    0  0.00000000000E+00  0.00000000000E+00  0.45593999997E+02  0.45594000000E+02  0.51100000000E-03 0.  1.
         11   -1    0    0    0    0 -0.00000000000E+00 -0.00000000000E+00 -0.45593999997E+02  0.45594000000E+02  0.51100000000E-03 0. -1.
    9900012    2    1    2    0    0 -0.34131965520E+02 -0.29395418004E+02  0.17858115281E+00  0.46142316953E+02  0.99999926330E+01 0.  0.
         12    1    1    2    0    0  0.34131965520E+02  0.29395418004E+02 -0.17858115281E+00  0.45045683047E+02  0.00000000000E+00 0. -1.
         11    1    3    3    0    0 -0.58215915143E+00  0.24340715512E+00  0.31474641142E-01  0.63178100233E+00  0.51100000000E-03 0. -1.
        -11    1    3    3    0    0 -0.22770820493E+02 -0.24354770846E+02 -0.15977417088E+01  0.33379902752E+02  0.51100000000E-03 0.  1.
        -12    1    3    3    0    0 -0.10778985876E+02 -0.52840543129E+01  0.17448482205E+01  0.12130633199E+02  0.00000000000E+00 0.  1.
</event>
<event>
 7    1  0.2323330E-008  0.4614232E+02  0.7816164E-02  0.1320468E+00
        -11   -1    0    0    0    0  0.00000000000E+00  0.00000000000E+00  0.45593999997E+02  0.45594000000E+02  0.51100000000E-03 0. -1.
         11   -1    0    0    0    0 -0.00000000000E+00 -0.00000000000E+00 -0.45593999997E+02  0.45594000000E+02  0.51100000000E-03 0.  1.
    9900012    2    1    2    0    0  0.26412599105E+02  0.36199590965E+02 -0.45910522118E+01  0.46142317211E+02  0.99999949835E+01 0.  0.
         12    1    1    2    0    0 -0.26412599105E+02 -0.36199590965E+02  0.45910522118E+01  0.45045682789E+02  0.00000000000E+00 0. -1.
         11    1    3    3    0    0  0.82610182899E+01  0.16052062818E+02  0.16921458437E+01  0.18132195171E+02  0.51100000000E-03 0. -1.
        -11    1    3    3    0    0  0.37454522107E+01  0.29444383161E+01 -0.19976428395E+01  0.51661113456E+01  0.51100000000E-03 0.  1.
         12    1    3    3    0    0  0.14406128604E+02  0.17203089831E+02 -0.42855552160E+01  0.22844010694E+02  0.00000000000E+00 0. -1.
</event>
<event>
 7    1  0.2323330E-008  0.4614232E+02  0.7816164E-02  0.1320468E+00
        -11   -1    0    0    0    0  0.00000000000E+00  0.00000000000E+00  0.45593999997E+02  0.45594000000E+02  0.51100000000E-03 0. -1.
         11   -1    0    0    0    0 -0.00000000000E+00 -0.00000000000E+00 -0.45593999997E+02  0.45594000000E+02  0.51100000000E-03 0.  1.
    9900012    2    1    2    0    0 -0.82058160318E+01  0.30887838284E+02 -0.31744598699E+02  0.46142317441E+02  0.99999970849E+01 0.  0.
         12    1    1    2    0    0  0.82058160318E+01 -0.30887838284E+02  0.31744598699E+02  0.45045682559E+02  0.00000000000E+00 0. -1.
         11    1    3    3    0    0 -0.16672881406E-01  0.39429491092E+01 -0.87242075309E+01  0.95738666674E+01  0.51100000000E-03 0. -1.
        -11    1    3    3    0    0 -0.36035928261E+00  0.27813968287E-01 -0.15505068818E+00  0.39328540073E+00  0.51100000000E-03 0.  1.
        -12    1    3    3    0    0 -0.78287838678E+01  0.26917075206E+02 -0.22865340480E+02  0.36175165373E+02  0.00000000000E+00 0.  1.
</event>
<event>
 7    1  0.2323330E-008  0.4614232E+02  0.7816164E-02  0.1320468E+00
        -11   -1    0    0    0    0  0.00000000000E+00  0.00000000000E+00  0.45593999997E+02  0.45594000000E+02  0.51100000000E-03 0.  1.
         11   -1    0    0    0    0 -0.00000000000E+00 -0.00000000000E+00 -0.45593999997E+02  0.45594000000E+02  0.51100000000E-03 0. -1.
    9900012    2    1    2    0    0 -0.28368079319E+02  0.15378364095E+02  0.31430424338E+02  0.46142316737E+02  0.99999906652E+01 0.  0.
         12    1    1    2    0    0  0.28368079319E+02 -0.15378364095E+02 -0.31430424338E+02  0.45045683263E+02  0.00000000000E+00 0. -1.
         11    1    3    3    0    0 -0.10079607742E+02  0.68378136809E+01  0.13127072324E+02  0.17907378820E+02  0.51100000000E-03 0.  1.
        -11    1    3    3    0    0 -0.55295138418E+01  0.57113762401E+01  0.41387897318E+01  0.89624172290E+01  0.51100000000E-03 0. -1.
         12    1    3    3    0    0 -0.12758957736E+02  0.28291741744E+01  0.14164562283E+02  0.19272520688E+02  0.00000000000E+00 0. -1.
</event>
<event>
 7    1  0.2323330E-008  0.4614232E+02  0.7816164E-02  0.1320468E+00
        -11   -1    0    0    0    0  0.00000000000E+00  0.00000000000E+00  0.45593999997E+02  0.45594000000E+02  0.51100000000E-03 0. -1.
         11   -1    0    0    0    0 -0.00000000000E+00 -0.00000000000E+00 -0.45593999997E+02  0.45594000000E+02  0.51100000000E-03 0.  1.
    9900012    2    1    2    0    0  0.23285912906E+02 -0.17027470369E+02 -0.34596893148E+02  0.46142317604E+02  0.99999985658E+01 0.  0.
         12    1    1    2    0    0 -0.23285912906E+02  0.17027470369E+02  0.34596893148E+02  0.45045682396E+02  0.00000000000E+00 0. -1.
         11    1    3    3    0    0  0.22824196866E+02 -0.14317660957E+02 -0.31087434933E+02  0.41138400417E+02  0.51100000000E-03 0. -1.
        -11    1    3    3    0    0  0.69597242840E+00 -0.62684610527E+00 -0.25152521307E+01  0.26839909096E+01  0.51100000000E-03 0.  1.
        -12    1    3    3    0    0 -0.23425638896E+00 -0.20829633070E+01 -0.99420608427E+00  0.23199262773E+01  0.00000000000E+00 0.  1.
</event>
<event>
 7    1  0.2323330E-008  0.4614232E+02  0.7816164E-02  0.1320468E+00
        -11   -1    0    0    0    0  0.00000000000E+00  0.00000000000E+00  0.45593999997E+02  0.45594000000E+02  0.51100000000E-03 0.  1.
         11   -1    0    0    0    0 -0.00000000000E+00 -0.00000000000E+00 -0.45593999997E+02  0.45594000000E+02  0.51100000000E-03 0. -1.
    9900012    2    1    2    0    0 -0.96125437613E+01 -0.28749292833E+02  0.33319522812E+02  0.46142318338E+02  0.10000005263E+02 0.  0.
         12    1    1    2    0    0  0.96125437613E+01  0.28749292833E+02 -0.33319522812E+02  0.45045681662E+02  0.00000000000E+00 0. -1.
         11    1    3    3    0    0 -0.50294713626E+01 -0.83985112738E+01  0.55340070739E+01  0.11245257150E+02  0.51100000000E-03 0. -1.
        -11    1    3    3    0    0  0.34832443148E+00 -0.24167958140E+01  0.23710427379E+01  0.34035387235E+01  0.51100000000E-03 0.  1.
        -12    1    3    3    0    0 -0.49313968301E+01 -0.17933985745E+02  0.25414473000E+02  0.31493522465E+02  0.00000000000E+00 0.  1.
</event>
<event>
 7    1  0.2323330E-008  0.4614231E+02  0.7816164E-02  0.1320468E+00
        -11   -1    0    0    0    0  0.00000000000E+00  0.00000000000E+00  0.45593999997E+02  0.45594000000E+02  0.51100000000E-03 0.  1.
         11   -1    0    0    0    0 -0.00000000000E+00 -0.00000000000E+00 -0.45593999997E+02  0.45594000000E+02  0.51100000000E-03 0. -1.
    9900012    2    1    2    0    0 -0.73411470871E+01 -0.13860139723E+02  0.42226980182E+02  0.46142314646E+02  0.99999715939E+01 0.  0.
         12    1    1    2    0    0  0.73411470871E+01  0.13860139723E+02 -0.42226980182E+02  0.45045685354E+02  0.00000000000E+00 0. -1.
         11    1    3    3    0    0  0.10419315450E+01 -0.48325046185E+01  0.68779776435E+01  0.84702596747E+01  0.51100000000E-03 0. -1.
        -11    1    3    3    0    0 -0.51086992681E+01 -0.28709957689E+01  0.12984743028E+02  0.14245875778E+02  0.51100000000E-03 0.  1.
         12    1    3    3    0    0 -0.32743793640E+01 -0.61566393351E+01  0.22364259511E+02  0.23426179193E+02  0.00000000000E+00 0. -1.
</event>
<event>
 7    1  0.2323330E-008  0.4614232E+02  0.7816164E-02  0.1320468E+00
        -11   -1    0    0    0    0  0.00000000000E+00  0.00000000000E+00  0.45593999997E+02  0.45594000000E+02  0.51100000000E-03 0.  1.
         11   -1    0    0    0    0 -0.00000000000E+00 -0.00000000000E+00 -0.45593999997E+02  0.45594000000E+02  0.51100000000E-03 0. -1.
    9900012    2    1    2    0    0  0.28278835013E+02  0.29015753758E+02  0.19685202125E+02  0.46142315872E+02  0.99999827776E+01 0.  0.
         12    1    1    2    0    0 -0.28278835013E+02 -0.29015753758E+02 -0.19685202125E+02  0.45045684128E+02  0.00000000000E+00 0. -1.
         11    1    3    3    0    0  0.22047129279E+01  0.42053950160E+01 -0.39175701600E+00  0.47644076396E+01  0.51100000000E-03 0. -1.
        -11    1    3    3    0    0  0.18556775588E+02  0.15293453498E+02  0.12979722918E+02  0.27326120241E+02  0.51100000000E-03 0.  1.
        -12    1    3    3    0    0  0.75173464971E+01  0.95169052431E+01  0.70972362230E+01  0.14051787992E+02  0.00000000000E+00 0.  1.
</event>
<event>
 7    1  0.2323330E-008  0.4614232E+02  0.7816164E-02  0.1320468E+00
        -11   -1    0    0    0    0  0.00000000000E+00  0.00000000000E+00  0.45593999997E+02  0.45594000000E+02  0.51100000000E-03 0.  1.
         11   -1    0    0    0    0 -0.00000000000E+00 -0.00000000000E+00 -0.45593999997E+02  0.45594000000E+02  0.51100000000E-03 0. -1.
    9900012    2    1    2    0    0  0.13989738668E+02 -0.75672431312E+01  0.42144247152E+02  0.46142317359E+02  0.99999963306E+01 0.  0.
         12    1    1    2    0    0 -0.13989738668E+02  0.75672431312E+01 -0.42144247152E+02  0.45045682641E+02  0.00000000000E+00 0. -1.
         11    1    3    3    0    0  0.99106589390E+01 -0.16793111244E+01  0.22425701892E+02  0.24575462398E+02  0.51100000000E-03 0. -1.
        -11    1    3    3    0    0  0.24949312780E+01 -0.40651387199E+01  0.17951744368E+02  0.18574583737E+02  0.51100000000E-03 0.  1.
         12    1    3    3    0    0  0.15841484516E+01 -0.18227932870E+01  0.17668008914E+01  0.29922712232E+01  0.00000000000E+00 0. -1.
</event>
<event>
 7    1  0.2323330E-008  0.4614232E+02  0.7816164E-02  0.1320468E+00
        -11   -1    0    0    0    0  0.00000000000E+00  0.00000000000E+00  0.45593999997E+02  0.45594000000E+02  0.51100000000E-03 0. -1.
         11   -1    0    0    0    0 -0.00000000000E+00 -0.00000000000E+00 -0.45593999997E+02  0.45594000000E+02  0.51100000000E-03 0.  1.
    9900012    2    1    2    0    0  0.36267441552E+01 -0.44087946875E+02  0.84978256454E+01  0.46142319035E+02  0.10000011620E+02 0.  0.
         12    1    1    2    0    0 -0.36267441552E+01  0.44087946875E+02 -0.84978256454E+01  0.45045680965E+02  0.00000000000E+00 0. -1.
         11    1    3    3    0    0 -0.23493512798E+00 -0.85947713946E+01  0.26720261008E+01  0.90036111414E+01  0.51100000000E-03 0. -1.
        -11    1    3    3    0    0  0.19560545462E+01 -0.34426670439E+02  0.52430490070E+01  0.34878522762E+02  0.51100000000E-03 0.  1.
         12    1    3    3    0    0  0.19056247370E+01 -0.10665050418E+01  0.58275053754E+00  0.22601851321E+01  0.00000000000E+00 0. -1.
</event>
<event>
 7    1  0.2323330E-008  0.4614232E+02  0.7816164E-02  0.1320468E+00
        -11   -1    0    0    0    0  0.00000000000E+00  0.00000000000E+00  0.45593999997E+02  0.45594000000E+02  0.51100000000E-03 0. -1.
         11   -1    0    0    0    0 -0.00000000000E+00 -0.00000000000E+00 -0.45593999997E+02  0.45594000000E+02  0.51100000000E-03 0.  1.
    9900012    2    1    2    0    0  0.21164939971E+02 -0.39628393493E+02 -0.32785952659E+01  0.46142318278E+02  0.10000004716E+02 0.  0.
         12    1    1    2    0    0 -0.21164939971E+02  0.39628393493E+02  0.32785952659E+01  0.45045681722E+02  0.00000000000E+00 0. -1.
         11    1    3    3    0    0  0.11625141182E+02 -0.17614938888E+02  0.10565885584E+01  0.21131643551E+02  0.51100000000E-03 0. -1.
        -11    1    3    3    0    0  0.74857693169E+01 -0.10713387704E+02 -0.32944688462E+01  0.13478388020E+02  0.51100000000E-03 0.  1.
         12    1    3    3    0    0  0.20540294726E+01 -0.11300066901E+02 -0.10407149782E+01  0.11532286708E+02  0.00000000000E+00 0. -1.
</event>
<event>
 7    1  0.2323330E-008  0.4614232E+02  0.7816164E-02  0.1320468E+00
        -11   -1    0    0    0    0  0.00000000000E+00  0.00000000000E+00  0.45593999997E+02  0.45594000000E+02  0.51100000000E-03 0.  1.
         11   -1    0    0    0    0 -0.00000000000E+00 -0.00000000000E+00 -0.45593999997E+02  0.45594000000E+02  0.51100000000E-03 0. -1.
    9900012    2    1    2    0    0  0.28686610210E+02 -0.13392736366E+02  0.32044134496E+02  0.46142317095E+02  0.99999939303E+01 0.  0.
         12    1    1    2    0    0 -0.28686610210E+02  0.13392736366E+02 -0.32044134496E+02  0.45045682905E+02  0.00000000000E+00 0. -1.
         11    1    3    3    0    0  0.38776279257E+01  0.11526124574E+01  0.34948321699E+01  0.53458737325E+01  0.51100000000E-03 0. -1.
        -11    1    3    3    0    0  0.16752095369E+02 -0.88199144487E+01  0.21550982223E+02  0.28685683279E+02  0.51100000000E-03 0.  1.
        -12    1    3    3    0    0  0.80568869158E+01 -0.57254343746E+01  0.69983201034E+01  0.12110760084E+02  0.00000000000E+00 0.  1.
</event>
<event>
 7    1  0.2323330E-008  0.4614231E+02  0.7816164E-02  0.1320468E+00
        -11   -1    0    0    0    0  0.00000000000E+00  0.00000000000E+00  0.45593999997E+02  0.45594000000E+02  0.51100000000E-03 0.  1.
         11   -1    0    0    0    0 -0.00000000000E+00 -0.00000000000E+00 -0.45593999997E+02  0.45594000000E+02  0.51100000000E-03 0. -1.
    9900012    2    1    2    0    0 -0.15496704387E+02 -0.36357000394E+02  0.21613297236E+02  0.46142312727E+02  0.99999540941E+01 0.  0.
         12    1    1    2    0    0  0.15496704387E+02  0.36357000394E+02 -0.21613297236E+02  0.45045687273E+02  0.00000000000E+00 0. -1.
         11    1    3    3    0    0 -0.12918587381E+01 -0.11485829781E+02  0.69098574912E+01  0.13466228706E+02  0.51100000000E-03 0. -1.
        -11    1    3    3    0    0 -0.87752768349E+01 -0.16614361248E+02  0.12451504078E+02  0.22540684046E+02  0.51100000000E-03 0.  1.
        -12    1    3    3    0    0 -0.54295688141E+01 -0.82568093651E+01  0.22519356666E+01  0.10135399975E+02  0.00000000000E+00 0.  1.
</event>
<event>
 7    1  0.2323330E-008  0.4614232E+02  0.7816164E-02  0.1320468E+00
        -11   -1    0    0    0    0  0.00000000000E+00  0.00000000000E+00  0.45593999997E+02  0.45594000000E+02  0.51100000000E-03 0.  1.
         11   -1    0    0    0    0 -0.00000000000E+00 -0.00000000000E+00 -0.45593999997E+02  0.45594000000E+02  0.51100000000E-03 0. -1.
    9900012    2    1    2    0    0 -0.10385203498E+02  0.32642688827E+02  0.29252622007E+02  0.46142317856E+02  0.10000000866E+02 0.  0.
         12    1    1    2    0    0  0.10385203498E+02 -0.32642688827E+02 -0.29252622007E+02  0.45045682144E+02  0.00000000000E+00 0. -1.
         11    1    3    3    0    0 -0.48123193499E+01  0.49408606427E+01  0.57278863184E+01  0.89654449613E+01  0.51100000000E-03 0. -1.
        -11    1    3    3    0    0 -0.41286873215E+01  0.10691762409E+02  0.70701593137E+01  0.13466513854E+02  0.51100000000E-03 0.  1.
        -12    1    3    3    0    0 -0.14441968262E+01  0.17010065776E+02  0.16454576375E+02  0.23710359041E+02  0.00000000000E+00 0.  1.
</event>
<event>
 7    1  0.2323330E-008  0.4614232E+02  0.7816164E-02  0.1320468E+00
        -11   -1    0    0    0    0  0.00000000000E+00  0.00000000000E+00  0.45593999997E+02  0.45594000000E+02  0.51100000000E-03 0.  1.
         11   -1    0    0    0    0 -0.00000000000E+00 -0.00000000000E+00 -0.45593999997E+02  0.45594000000E+02  0.51100000000E-03 0. -1.
    9900012    2    1    2    0    0 -0.16301224303E+02  0.34068357220E+02  0.24550564128E+02  0.46142322334E+02  0.10000041696E+02 0.  0.
         12    1    1    2    0    0  0.16301224303E+02 -0.34068357220E+02 -0.24550564128E+02  0.45045677666E+02  0.00000000000E+00 0. -1.
         11    1    3    3    0    0 -0.34270925603E+01  0.25412563895E+01  0.27322560693E+01  0.50663765102E+01  0.51100000000E-03 0. -1.
        -11    1    3    3    0    0 -0.11975740925E+02  0.22116244933E+02  0.17754526021E+02  0.30785871031E+02  0.51100000000E-03 0.  1.
         12    1    3    3    0    0 -0.89839081756E+00  0.94108558981E+01  0.40637820369E+01  0.10290074793E+02  0.00000000000E+00 0. -1.
</event>
<event>
 7    1  0.2323330E-008  0.4614232E+02  0.7816164E-02  0.1320468E+00
        -11   -1    0    0    0    0  0.00000000000E+00  0.00000000000E+00  0.45593999997E+02  0.45594000000E+02  0.51100000000E-03 0.  1.
         11   -1    0    0    0    0 -0.00000000000E+00 -0.00000000000E+00 -0.45593999997E+02  0.45594000000E+02  0.51100000000E-03 0. -1.
    9900012    2    1    2    0    0  0.33359722274E+02 -0.25004629677E+02  0.17059046776E+02  0.46142315941E+02  0.99999834009E+01 0.  0.
         12    1    1    2    0    0 -0.33359722274E+02  0.25004629677E+02 -0.17059046776E+02  0.45045684059E+02  0.00000000000E+00 0. -1.
         11    1    3    3    0    0  0.65688227571E+01 -0.68158329862E+01  0.59704606413E+00  0.94848023687E+01  0.51100000000E-03 0. -1.
        -11    1    3    3    0    0  0.11371804745E+02 -0.10553203481E+02  0.69846748568E+01  0.17013927530E+02  0.51100000000E-03 0.  1.
         12    1    3    3    0    0  0.15419094772E+02 -0.76355932092E+01  0.94773258547E+01  0.19643586042E+02  0.00000000000E+00 0. -1.
</event>
<event>
 7    1  0.2323330E-008  0.4614232E+02  0.7816164E-02  0.1320468E+00
        -11   -1    0    0    0    0  0.00000000000E+00  0.00000000000E+00  0.45593999997E+02  0.45594000000E+02  0.51100000000E-03 0. -1.
         11   -1    0    0    0    0 -0.00000000000E+00 -0.00000000000E+00 -0.45593999997E+02  0.45594000000E+02  0.51100000000E-03 0.  1.
    9900012    2    1    2    0    0 -0.46436946060E+01  0.50363109300E+01 -0.44521740128E+02  0.46142315729E+02  0.99999814715E+01 0.  0.
         12    1    1    2    0    0  0.46436946060E+01 -0.50363109300E+01  0.44521740128E+02  0.45045684271E+02  0.00000000000E+00 0. -1.
         11    1    3    3    0    0 -0.12296149061E+01  0.29272738538E+01 -0.35716805945E+01  0.47788897835E+01  0.51100000000E-03 0. -1.
        -11    1    3    3    0    0  0.52140823888E+00 -0.29488434554E+00 -0.14641050742E+02  0.14653299643E+02  0.51100000000E-03 0.  1.
        -12    1    3    3    0    0 -0.39354879387E+01  0.24039214217E+01 -0.26309008792E+02  0.26710126303E+02  0.00000000000E+00 0.  1.
</event>
<event>
 7    1  0.2323330E-008  0.4614232E+02  0.7816164E-02  0.1320468E+00
        -11   -1    0    0    0    0  0.00000000000E+00  0.00000000000E+00  0.45593999997E+02  0.45594000000E+02  0.51100000000E-03 0.  1.
         11   -1    0    0    0    0 -0.00000000000E+00 -0.00000000000E+00 -0.45593999997E+02  0.45594000000E+02  0.51100000000E-03 0. -1.
    9900012    2    1    2    0    0  0.96736587809E+00 -0.10877126003E+02  0.43702011695E+02  0.46142317710E+02  0.99999995309E+01 0.  0.
         12    1    1    2    0    0 -0.96736587809E+00  0.10877126003E+02 -0.43702011695E+02  0.45045682290E+02  0.00000000000E+00 0. -1.
         11    1    3    3    0    0  0.23291144711E+01 -0.21071838068E+01  0.69198377310E+01  0.75992863020E+01  0.51100000000E-03 0. -1.
        -11    1    3    3    0    0 -0.10410783029E+01 -0.78797758317E+01  0.36746414274E+02  0.37596192273E+02  0.51100000000E-03 0.  1.
         12    1    3    3    0    0 -0.32067029010E+00 -0.89016636453E+00  0.35759690057E-01  0.94683913466E+00  0.00000000000E+00 0. -1.
</event>
<event>
 7    1  0.2323330E-008  0.4614231E+02  0.7816164E-02  0.1320468E+00
        -11   -1    0    0    0    0  0.00000000000E+00  0.00000000000E+00  0.45593999997E+02  0.45594000000E+02  0.51100000000E-03 0.  1.
         11   -1    0    0    0    0 -0.00000000000E+00 -0.00000000000E+00 -0.45593999997E+02  0.45594000000E+02  0.51100000000E-03 0. -1.
    9900012    2    1    2    0    0  0.14839421778E+02 -0.20628875229E+02  0.37193482274E+02  0.46142311465E+02  0.99999425906E+01 0.  0.
         12    1    1    2    0    0 -0.14839421778E+02  0.20628875229E+02 -0.37193482274E+02  0.45045688535E+02  0.00000000000E+00 0. -1.
         11    1    3    3    0    0  0.57608775422E+01 -0.11282824244E+02  0.11115225700E+02  0.16853429194E+02  0.51100000000E-03 0. -1.
        -11    1    3    3    0    0  0.67677472657E+01 -0.70748488151E+01  0.16600369494E+02  0.19272471466E+02  0.51100000000E-03 0.  1.
         12    1    3    3    0    0  0.23107969703E+01 -0.22712021703E+01  0.94778870795E+01  0.10016410806E+02  0.00000000000E+00 0. -1.
</event>
<event>
 7    1  0.2323330E-008  0.4614232E+02  0.7816164E-02  0.1320468E+00
        -11   -1    0    0    0    0  0.00000000000E+00  0.00000000000E+00  0.45593999997E+02  0.45594000000E+02  0.51100000000E-03 0.  1.
         11   -1    0    0    0    0 -0.00000000000E+00 -0.00000000000E+00 -0.45593999997E+02  0.45594000000E+02  0.51100000000E-03 0. -1.
    9900012    2    1    2    0    0 -0.23475090943E+02 -0.34796127297E+02  0.16348181965E+02  0.46142318484E+02  0.10000006596E+02 0.  0.
         12    1    1    2    0    0  0.23475090943E+02  0.34796127297E+02 -0.16348181965E+02  0.45045681516E+02  0.00000000000E+00 0. -1.
         11    1    3    3    0    0 -0.29804856925E+01 -0.40892069648E+01 -0.30082533197E+00  0.50690634940E+01  0.51100000000E-03 0. -1.
        -11    1    3    3    0    0 -0.83572401476E+00 -0.37363519246E+01  0.35455808224E+01  0.52182280481E+01  0.51100000000E-03 0.  1.
        -12    1    3    3    0    0 -0.19658881236E+02 -0.26970568408E+02  0.13103426474E+02  0.35855026942E+02  0.00000000000E+00 0.  1.
</event>
<event>
 7    1  0.2323330E-008  0.4614232E+02  0.7816164E-02  0.1320468E+00
        -11   -1    0    0    0    0  0.00000000000E+00  0.00000000000E+00  0.45593999997E+02  0.45594000000E+02  0.51100000000E-03 0.  1.
         11   -1    0    0    0    0 -0.00000000000E+00 -0.00000000000E+00 -0.45593999997E+02  0.45594000000E+02  0.51100000000E-03 0. -1.
    9900012    2    1    2    0    0  0.22794679060E+02  0.19307006118E+02  0.33715806403E+02  0.46142317853E+02  0.10000000839E+02 0.  0.
         12    1    1    2    0    0 -0.22794679060E+02 -0.19307006118E+02 -0.33715806403E+02  0.45045682147E+02  0.00000000000E+00 0. -1.
         11    1    3    3    0    0  0.30633564328E+01  0.78820300122E+01  0.75192489834E+01  0.11315902760E+02  0.51100000000E-03 0. -1.
        -11    1    3    3    0    0  0.48495923872E+01  0.38994544843E+01  0.61320074564E+01  0.87364642335E+01  0.51100000000E-03 0.  1.
         12    1    3    3    0    0  0.14881730240E+02  0.75255216212E+01  0.20064549963E+02  0.26089950859E+02  0.00000000000E+00 0. -1.
</event>
<event>
 7    1  0.2323330E-008  0.4614231E+02  0.7816164E-02  0.1320468E+00
        -11   -1    0    0    0    0  0.00000000000E+00  0.00000000000E+00  0.45593999997E+02  0.45594000000E+02  0.51100000000E-03 0. -1.
         11   -1    0    0    0    0 -0.00000000000E+00 -0.00000000000E+00 -0.45593999997E+02  0.45594000000E+02  0.51100000000E-03 0.  1.
    9900012    2    1    2    0    0 -0.42501940581E+02 -0.12052123633E+02  0.88003053002E+01  0.46142311964E+02  0.99999471391E+01 0.  0.
         12    1    1    2    0    0  0.42501940581E+02  0.12052123633E+02 -0.88003053002E+01  0.45045688036E+02  0.00000000000E+00 0. -1.
         11    1    3    3    0    0  0.32837886004E+00  0.12367182420E-02  0.40033190910E+00  0.51778383883E+00  0.51100000000E-03 0. -1.
        -11    1    3    3    0    0 -0.11917095916E+02 -0.37866289786E+01 -0.14027729420E+00  0.12505015477E+02  0.51100000000E-03 0.  1.
        -12    1    3    3    0    0 -0.30913223525E+02 -0.82667313723E+01  0.85402506853E+01  0.33119512648E+02  0.00000000000E+00 0.  1.
</event>
<event>
 7    1  0.2323330E-008  0.4614232E+02  0.7816164E-02  0.1320468E+00
        -11   -1    0    0    0    0  0.00000000000E+00  0.00000000000E+00  0.45593999997E+02  0.45594000000E+02  0.51100000000E-03 0.  1.
         11   -1    0    0    0    0 -0.00000000000E+00 -0.00000000000E+00 -0.45593999997E+02  0.45594000000E+02  0.51100000000E-03 0. -1.
    9900012    2    1    2    0    0 -0.35677708640E+02 -0.20403192572E+02  0.18437034858E+02  0.46142318572E+02  0.10000007399E+02 0.  0.
         12    1    1    2    0    0  0.35677708640E+02  0.20403192572E+02 -0.18437034858E+02  0.45045681428E+02  0.00000000000E+00 0. -1.
         11    1    3    3    0    0 -0.10330952550E+02 -0.44079071784E+01  0.17826482792E+01  0.11372601349E+02  0.51100000000E-03 0. -1.
        -11    1    3    3    0    0 -0.55355454221E+01 -0.14158652600E+01  0.48105918736E+01  0.74691854971E+01  0.51100000000E-03 0.  1.
        -12    1    3    3    0    0 -0.19811210668E+02 -0.14579420133E+02  0.11843794705E+02  0.27300531727E+02  0.00000000000E+00 0.  1.
</event>
<event>
 7    1  0.2323330E-008  0.4614232E+02  0.7816164E-02  0.1320468E+00
        -11   -1    0    0    0    0  0.00000000000E+00  0.00000000000E+00  0.45593999997E+02  0.45594000000E+02  0.51100000000E-03 0.  1.
         11   -1    0    0    0    0 -0.00000000000E+00 -0.00000000000E+00 -0.45593999997E+02  0.45594000000E+02  0.51100000000E-03 0. -1.
    9900012    2    1    2    0    0 -0.19500060832E+02 -0.60252075274E+01  0.40156667854E+02  0.46142317951E+02  0.10000001729E+02 0.  0.
         12    1    1    2    0    0  0.19500060832E+02  0.60252075274E+01 -0.40156667854E+02  0.45045682049E+02  0.00000000000E+00 0. -1.
         11    1    3    3    0    0 -0.55982261610E+01  0.38514039695E+00  0.14353157479E+02  0.15411086890E+02  0.51100000000E-03 0. -1.
        -11    1    3    3    0    0 -0.31689898834E+01 -0.69379877013E+00  0.15399996723E+01  0.35910239300E+01  0.51100000000E-03 0.  1.
        -12    1    3    3    0    0 -0.10732844787E+02 -0.57165491542E+01  0.24263510703E+02  0.27140207130E+02  0.00000000000E+00 0.  1.
</event>
<event>
 7    1  0.2323330E-008  0.4614232E+02  0.7816164E-02  0.1320468E+00
        -11   -1    0    0    0    0  0.00000000000E+00  0.00000000000E+00  0.45593999997E+02  0.45594000000E+02  0.51100000000E-03 0.  1.
         11   -1    0    0    0    0 -0.00000000000E+00 -0.00000000000E+00 -0.45593999997E+02  0.45594000000E+02  0.51100000000E-03 0. -1.
    9900012    2    1    2    0    0  0.25199039402E+02  0.35319966538E+02 -0.12108752294E+02  0.46142317575E+02  0.99999983000E+01 0.  0.
         12    1    1    2    0    0 -0.25199039402E+02 -0.35319966538E+02  0.12108752294E+02  0.45045682425E+02  0.00000000000E+00 0. -1.
         11    1    3    3    0    0  0.16614869721E+01  0.57516118435E+00 -0.81137565795E+00  0.19364090647E+01  0.51100000000E-03 0. -1.
        -11    1    3    3    0    0  0.40384788904E+01  0.58201243221E+01 -0.52141934714E+01  0.87960771195E+01  0.51100000000E-03 0.  1.
         12    1    3    3    0    0  0.19499073539E+02  0.28924681032E+02 -0.60831831647E+01  0.35409831390E+02  0.00000000000E+00 0. -1.
</event>
<event>
 7    1  0.2323330E-008  0.4614232E+02  0.7816164E-02  0.1320468E+00
        -11   -1    0    0    0    0  0.00000000000E+00  0.00000000000E+00  0.45593999997E+02  0.45594000000E+02  0.51100000000E-03 0.  1.
         11   -1    0    0    0    0 -0.00000000000E+00 -0.00000000000E+00 -0.45593999997E+02  0.45594000000E+02  0.51100000000E-03 0. -1.
    9900012    2    1    2    0    0  0.19348731306E+02  0.14887175852E+02  0.37856463943E+02  0.46142320182E+02  0.10000022077E+02 0.  0.
         12    1    1    2    0    0 -0.19348731306E+02 -0.14887175852E+02 -0.37856463943E+02  0.45045679818E+02  0.00000000000E+00 0. -1.
         11    1    3    3    0    0  0.96280100172E+01  0.12125186677E+02  0.19155417000E+02  0.24630240144E+02  0.51100000000E-03 0. -1.
        -11    1    3    3    0    0  0.46139945234E+01  0.70165718500E+00  0.11758153771E+02  0.12650511793E+02  0.51100000000E-03 0.  1.
         12    1    3    3    0    0  0.51067267654E+01  0.20603319903E+01  0.69428931719E+01  0.88615682451E+01  0.00000000000E+00 0. -1.
</event>
<event>
 7    1  0.2323330E-008  0.4614232E+02  0.7816164E-02  0.1320468E+00
        -11   -1    0    0    0    0  0.00000000000E+00  0.00000000000E+00  0.45593999997E+02  0.45594000000E+02  0.51100000000E-03 0.  1.
         11   -1    0    0    0    0 -0.00000000000E+00 -0.00000000000E+00 -0.45593999997E+02  0.45594000000E+02  0.51100000000E-03 0. -1.
    9900012    2    1    2    0    0 -0.21835304811E+01 -0.39373141567E+02  0.21773868826E+02  0.46142318233E+02  0.10000004303E+02 0.  0.
         12    1    1    2    0    0  0.21835304811E+01  0.39373141567E+02 -0.21773868826E+02  0.45045681767E+02  0.00000000000E+00 0. -1.
         11    1    3    3    0    0  0.51918772017E-01 -0.42120407796E+01 -0.26738022977E+00  0.42208382504E+01  0.51100000000E-03 0. -1.
        -11    1    3    3    0    0 -0.19092393927E+01 -0.67588769768E+01  0.25455945749E+01  0.74704528007E+01  0.51100000000E-03 0.  1.
        -12    1    3    3    0    0 -0.32620986049E+00 -0.28402223810E+02  0.19495654481E+02  0.34451027182E+02  0.00000000000E+00 0.  1.
</event>
<event>
 7    1  0.2323330E-008  0.4614232E+02  0.7816164E-02  0.1320468E+00
        -11   -1    0    0    0    0  0.00000000000E+00  0.00000000000E+00  0.45593999997E+02  0.45594000000E+02  0.51100000000E-03 0.  1.
         11   -1    0    0    0    0 -0.00000000000E+00 -0.00000000000E+00 -0.45593999997E+02  0.45594000000E+02  0.51100000000E-03 0. -1.
    9900012    2    1    2    0    0  0.24476182350E+02  0.23560026448E+02  0.29579639756E+02  0.46142318334E+02  0.10000005223E+02 0.  0.
         12    1    1    2    0    0 -0.24476182350E+02 -0.23560026448E+02 -0.29579639756E+02  0.45045681666E+02  0.00000000000E+00 0. -1.
         11    1    3    3    0    0  0.31952212053E+01  0.25705078261E+00  0.12356367045E+01  0.34354493130E+01  0.51100000000E-03 0. -1.
        -11    1    3    3    0    0  0.17054328771E+02  0.15620073035E+02  0.19466331170E+02  0.30228709217E+02  0.51100000000E-03 0.  1.
        -12    1    3    3    0    0  0.42266323736E+01  0.76829026306E+01  0.88776718819E+01  0.12478159804E+02  0.00000000000E+00 0.  1.
</event>
<event>
 7    1  0.2323330E-008  0.4614232E+02  0.7816164E-02  0.1320468E+00
        -11   -1    0    0    0    0  0.00000000000E+00  0.00000000000E+00  0.45593999997E+02  0.45594000000E+02  0.51100000000E-03 0. -1.
         11   -1    0    0    0    0 -0.00000000000E+00 -0.00000000000E+00 -0.45593999997E+02  0.45594000000E+02  0.51100000000E-03 0.  1.
    9900012    2    1    2    0    0  0.33787093261E+02 -0.24709386571E+02  0.16643072998E+02  0.46142319468E+02  0.10000015568E+02 0.  0.
         12    1    1    2    0    0 -0.33787093261E+02  0.24709386571E+02 -0.16643072998E+02  0.45045680532E+02  0.00000000000E+00 0. -1.
         11    1    3    3    0    0  0.29159166110E+02 -0.20377284077E+02  0.11984562508E+02  0.37538252668E+02  0.51100000000E-03 0. -1.
        -11    1    3    3    0    0  0.11880734636E+01  0.46977774107E+00  0.46310196249E+00  0.13589236070E+01  0.51100000000E-03 0.  1.
         12    1    3    3    0    0  0.34398536874E+01 -0.48018802350E+01  0.41954085273E+01  0.72451431935E+01  0.00000000000E+00 0. -1.
</event>
<event>
 7    1  0.2323330E-008  0.4614232E+02  0.7816164E-02  0.1320468E+00
        -11   -1    0    0    0    0  0.00000000000E+00  0.00000000000E+00  0.45593999997E+02  0.45594000000E+02  0.51100000000E-03 0.  1.
         11   -1    0    0    0    0 -0.00000000000E+00 -0.00000000000E+00 -0.45593999997E+02  0.45594000000E+02  0.51100000000E-03 0. -1.
    9900012    2    1    2    0    0  0.19626267608E+02  0.40521707373E+02 -0.13835478243E+01  0.46142319261E+02  0.10000013674E+02 0.  0.
         12    1    1    2    0    0 -0.19626267608E+02 -0.40521707373E+02  0.13835478243E+01  0.45045680739E+02  0.00000000000E+00 0. -1.
         11    1    3    3    0    0  0.42901684257E+00  0.38569619209E+00  0.11631858521E+01  0.12983907700E+01  0.51100000000E-03 0. -1.
        -11    1    3    3    0    0  0.73228151284E+01  0.14655416385E+02 -0.33446514561E+01  0.16720991133E+02  0.51100000000E-03 0.  1.
         12    1    3    3    0    0  0.11874435637E+02  0.25480594796E+02  0.79791777973E+00  0.28122937358E+02  0.00000000000E+00 0. -1.
</event>
<event>
 7    1  0.2323330E-008  0.4614232E+02  0.7816164E-02  0.1320468E+00
        -11   -1    0    0    0    0  0.00000000000E+00  0.00000000000E+00  0.45593999997E+02  0.45594000000E+02  0.51100000000E-03 0.  1.
         11   -1    0    0    0    0 -0.00000000000E+00 -0.00000000000E+00 -0.45593999997E+02  0.45594000000E+02  0.51100000000E-03 0. -1.
    9900012    2    1    2    0    0 -0.10396178456E+02 -0.13422977898E+02  0.41723574398E+02  0.46142317380E+02  0.99999965238E+01 0.  0.
         12    1    1    2    0    0  0.10396178456E+02  0.13422977898E+02 -0.41723574398E+02  0.45045682620E+02  0.00000000000E+00 0. -1.
         11    1    3    3    0    0  0.77121786732E+00 -0.27708623559E+00  0.52237927027E+00  0.97182001623E+00  0.51100000000E-03 0. -1.
        -11    1    3    3    0    0 -0.67947208689E+01 -0.61504025682E+01  0.29221686264E+02  0.30625196029E+02  0.51100000000E-03 0.  1.
         12    1    3    3    0    0 -0.43726754542E+01 -0.69954890942E+01  0.11979508865E+02  0.14545301335E+02  0.00000000000E+00 0. -1.
</event>
<event>
 7    1  0.2323330E-008  0.4614232E+02  0.7816164E-02  0.1320468E+00
        -11   -1    0    0    0    0  0.00000000000E+00  0.00000000000E+00  0.45593999997E+02  0.45594000000E+02  0.51100000000E-03 0.  1.
         11   -1    0    0    0    0 -0.00000000000E+00 -0.00000000000E+00 -0.45593999997E+02  0.45594000000E+02  0.51100000000E-03 0. -1.
    9900012    2    1    2    0    0 -0.23596502812E+01 -0.39539318821E+02  0.21451988340E+02  0.46142317788E+02  0.10000000242E+02 0.  0.
         12    1    1    2    0    0  0.23596502812E+01  0.39539318821E+02 -0.21451988340E+02  0.45045682212E+02  0.00000000000E+00 0. -1.
         11    1    3    3    0    0  0.12612867132E+01 -0.16980534384E+02  0.86763432245E+01  0.19110424489E+02  0.51100000000E-03 0. -1.
        -11    1    3    3    0    0 -0.20501764662E+01 -0.21993072941E+02  0.11336489623E+02  0.24827695789E+02  0.51100000000E-03 0.  1.
         12    1    3    3    0    0 -0.15707605281E+01 -0.56571149541E+00  0.14391554921E+01  0.22041975100E+01  0.00000000000E+00 0. -1.
</event>
<event>
 7    1  0.2323330E-008  0.4614233E+02  0.7816164E-02  0.1320468E+00
        -11   -1    0    0    0    0  0.00000000000E+00  0.00000000000E+00  0.45593999997E+02  0.45594000000E+02  0.51100000000E-03 0. -1.
         11   -1    0    0    0    0 -0.00000000000E+00 -0.00000000000E+00 -0.45593999997E+02  0.45594000000E+02  0.51100000000E-03 0.  1.
    9900012    2    1    2    0    0  0.11303867441E+02 -0.38668553410E+02 -0.20151381912E+02  0.46142327234E+02  0.10000086382E+02 0.  0.
         12    1    1    2    0    0 -0.11303867441E+02  0.38668553410E+02  0.20151381912E+02  0.45045672766E+02  0.00000000000E+00 0. -1.
         11    1    3    3    0    0  0.63825139324E+01 -0.10025055382E+02 -0.55353765579E+01  0.13110248412E+02  0.51100000000E-03 0. -1.
        -11    1    3    3    0    0  0.50942027116E+01 -0.22436045823E+02 -0.91519889056E+01  0.24760572583E+02  0.51100000000E-03 0.  1.
        -12    1    3    3    0    0 -0.17284920287E+00 -0.62074522051E+01 -0.54640164481E+01  0.82715062396E+01  0.00000000000E+00 0.  1.
</event>
<event>
 7    1  0.2323330E-008  0.4614232E+02  0.7816164E-02  0.1320468E+00
        -11   -1    0    0    0    0  0.00000000000E+00  0.00000000000E+00  0.45593999997E+02  0.45594000000E+02  0.51100000000E-03 0.  1.
         11   -1    0    0    0    0 -0.00000000000E+00 -0.00000000000E+00 -0.45593999997E+02  0.45594000000E+02  0.51100000000E-03 0. -1.
    9900012    2    1    2    0    0  0.19473534796E+02  0.18391576907E+02  0.36216638378E+02  0.46142317033E+02  0.99999933566E+01 0.  0.
         12    1    1    2    0    0 -0.19473534796E+02 -0.18391576907E+02 -0.36216638378E+02  0.45045682967E+02  0.00000000000E+00 0. -1.
         11    1    3    3    0    0  0.16457372813E+01  0.55383176631E+01  0.88067007675E+01  0.10532777051E+02  0.51100000000E-03 0. -1.
        -11    1    3    3    0    0  0.16003391701E+01 -0.46890517839E+00  0.13594136133E+01  0.21515025352E+01  0.51100000000E-03 0.  1.
        -12    1    3    3    0    0  0.16227458345E+02  0.13322164422E+02  0.26050523997E+02  0.33458037446E+02  0.00000000000E+00 0.  1.
</event>
<event>
 7    1  0.2323330E-008  0.4614232E+02  0.7816164E-02  0.1320468E+00
        -11   -1    0    0    0    0  0.00000000000E+00  0.00000000000E+00  0.45593999997E+02  0.45594000000E+02  0.51100000000E-03 0.  1.
         11   -1    0    0    0    0 -0.00000000000E+00 -0.00000000000E+00 -0.45593999997E+02  0.45594000000E+02  0.51100000000E-03 0. -1.
    9900012    2    1    2    0    0  0.20046982438E+01 -0.10350689134E+02  0.43794496688E+02  0.46142317402E+02  0.99999967250E+01 0.  0.
         12    1    1    2    0    0 -0.20046982438E+01  0.10350689134E+02 -0.43794496688E+02  0.45045682598E+02  0.00000000000E+00 0. -1.
         11    1    3    3    0    0  0.28463315880E+01  0.37867076387E+00  0.94642037761E+01  0.98902046709E+01  0.51100000000E-03 0.  1.
        -11    1    3    3    0    0  0.10436274370E+01 -0.35528566520E+00  0.31725065169E+01  0.33585985160E+01  0.51100000000E-03 0. -1.
        -12    1    3    3    0    0 -0.18852607812E+01 -0.10374074232E+02  0.31157786395E+02  0.32893514215E+02  0.00000000000E+00 0.  1.
</event>
<event>
 7    1  0.2323330E-008  0.4614232E+02  0.7816164E-02  0.1320468E+00
        -11   -1    0    0    0    0  0.00000000000E+00  0.00000000000E+00  0.45593999997E+02  0.45594000000E+02  0.51100000000E-03 0. -1.
         11   -1    0    0    0    0 -0.00000000000E+00 -0.00000000000E+00 -0.45593999997E+02  0.45594000000E+02  0.51100000000E-03 0.  1.
    9900012    2    1    2    0    0  0.17120666887E+01 -0.44965580089E+02  0.20685425013E+01  0.46142318374E+02  0.10000005586E+02 0.  0.
         12    1    1    2    0    0 -0.17120666887E+01  0.44965580089E+02 -0.20685425013E+01  0.45045681626E+02  0.00000000000E+00 0. -1.
         11    1    3    3    0    0  0.30643922750E+01 -0.87499536106E+01  0.17674937767E+01  0.94380200632E+01  0.51100000000E-03 0. -1.
        -11    1    3    3    0    0 -0.25750469990E+01 -0.17038038018E+02  0.22988657792E+01  0.17384199455E+02  0.51100000000E-03 0.  1.
        -12    1    3    3    0    0  0.12227214128E+01 -0.19177588461E+02 -0.19978170546E+01  0.19320098856E+02  0.00000000000E+00 0.  1.
</event>
<event>
 7    1  0.2323330E-008  0.4614232E+02  0.7816164E-02  0.1320468E+00
        -11   -1    0    0    0    0  0.00000000000E+00  0.00000000000E+00  0.45593999997E+02  0.45594000000E+02  0.51100000000E-03 0. -1.
         11   -1    0    0    0    0 -0.00000000000E+00 -0.00000000000E+00 -0.45593999997E+02  0.45594000000E+02  0.51100000000E-03 0.  1.
    9900012    2    1    2    0    0  0.17217570137E+00  0.21306271131E+02 -0.39687865167E+02  0.46142317904E+02  0.10000001303E+02 0.  0.
         12    1    1    2    0    0 -0.17217570137E+00 -0.21306271131E+02  0.39687865167E+02  0.45045682096E+02  0.00000000000E+00 0. -1.
         11    1    3    3    0    0  0.15538999212E+00  0.12209753788E+02 -0.28891862213E+02  0.31366254734E+02  0.51100000000E-03 0. -1.
        -11    1    3    3    0    0  0.26542933361E+00  0.46360515414E+01 -0.86551982813E+01  0.98222138124E+01  0.51100000000E-03 0.  1.
        -12    1    3    3    0    0 -0.24864362435E+00  0.44604658012E+01 -0.21408046727E+01  0.49538493581E+01  0.00000000000E+00 0.  1.
</event>
<event>
 7    1  0.2323330E-008  0.4614232E+02  0.7816164E-02  0.1320468E+00
        -11   -1    0    0    0    0  0.00000000000E+00  0.00000000000E+00  0.45593999997E+02  0.45594000000E+02  0.51100000000E-03 0.  1.
         11   -1    0    0    0    0 -0.00000000000E+00 -0.00000000000E+00 -0.45593999997E+02  0.45594000000E+02  0.51100000000E-03 0. -1.
    9900012    2    1    2    0    0 -0.54626860309E+01  0.40412745528E+02  0.19133282799E+02  0.46142318182E+02  0.10000003835E+02 0.  0.
         12    1    1    2    0    0  0.54626860309E+01 -0.40412745528E+02 -0.19133282799E+02  0.45045681818E+02  0.00000000000E+00 0. -1.
         11    1    3    3    0    0 -0.45366548387E+01  0.99481447763E+01  0.38349245084E+01  0.11586779875E+02  0.51100000000E-03 0. -1.
        -11    1    3    3    0    0 -0.23508000225E+01  0.24241913163E+02  0.10283440349E+02  0.26437582345E+02  0.51100000000E-03 0.  1.
         12    1    3    3    0    0  0.14247688303E+01  0.62226875886E+01  0.50149179415E+01  0.81179559623E+01  0.00000000000E+00 0. -1.
</event>
<event>
 7    1  0.2323330E-008  0.4614232E+02  0.7816164E-02  0.1320468E+00
        -11   -1    0    0    0    0  0.00000000000E+00  0.00000000000E+00  0.45593999997E+02  0.45594000000E+02  0.51100000000E-03 0.  1.
         11   -1    0    0    0    0 -0.00000000000E+00 -0.00000000000E+00 -0.45593999997E+02  0.45594000000E+02  0.51100000000E-03 0. -1.
    9900012    2    1    2    0    0  0.40576061155E+02 -0.20303937876E+01  0.19456986085E+02  0.46142317129E+02  0.99999942354E+01 0.  0.
         12    1    1    2    0    0 -0.40576061155E+02  0.20303937876E+01 -0.19456986085E+02  0.45045682871E+02  0.00000000000E+00 0. -1.
         11    1    3    3    0    0  0.51697302840E+00 -0.11622314050E+01  0.13764427587E+01  0.18742032653E+01  0.51100000000E-03 0. -1.
        -11    1    3    3    0    0  0.26498477736E+02 -0.35239223070E-01  0.14551646475E+02  0.30231126005E+02  0.51100000000E-03 0.  1.
        -12    1    3    3    0    0  0.13560610390E+02 -0.83292315958E+00  0.35288968518E+01  0.14036987859E+02  0.00000000000E+00 0.  1.
</event>
<event>
 7    1  0.2323330E-008  0.4614232E+02  0.7816164E-02  0.1320468E+00
        -11   -1    0    0    0    0  0.00000000000E+00  0.00000000000E+00  0.45593999997E+02  0.45594000000E+02  0.51100000000E-03 0.  1.
         11   -1    0    0    0    0 -0.00000000000E+00 -0.00000000000E+00 -0.45593999997E+02  0.45594000000E+02  0.51100000000E-03 0. -1.
    9900012    2    1    2    0    0  0.11553320613E+02 -0.30058175873E+02  0.31498259045E+02  0.46142317889E+02  0.10000001166E+02 0.  0.
         12    1    1    2    0    0 -0.11553320613E+02  0.30058175873E+02 -0.31498259045E+02  0.45045682111E+02  0.00000000000E+00 0. -1.
         11    1    3    3    0    0  0.29674077532E+00 -0.11781005675E+01  0.40433412347E+01  0.42219171755E+01  0.51100000000E-03 0. -1.
        -11    1    3    3    0    0 -0.88494245103E-01 -0.31536359780E+01  0.51117291132E+01  0.60069148404E+01  0.51100000000E-03 0.  1.
         12    1    3    3    0    0  0.11345074083E+02 -0.25726439327E+02  0.22343188697E+02  0.35913485873E+02  0.00000000000E+00 0. -1.
</event>
<event>
 7    1  0.2323330E-008  0.4614232E+02  0.7816164E-02  0.1320468E+00
        -11   -1    0    0    0    0  0.00000000000E+00  0.00000000000E+00  0.45593999997E+02  0.45594000000E+02  0.51100000000E-03 0. -1.
         11   -1    0    0    0    0 -0.00000000000E+00 -0.00000000000E+00 -0.45593999997E+02  0.45594000000E+02  0.51100000000E-03 0.  1.
    9900012    2    1    2    0    0  0.33860511663E+02 -0.25434667752E+01 -0.29599156012E+02  0.46142317522E+02  0.99999978170E+01 0.  0.
         12    1    1    2    0    0 -0.33860511663E+02  0.25434667752E+01  0.29599156012E+02  0.45045682478E+02  0.00000000000E+00 0. -1.
         11    1    3    3    0    0  0.98330115826E+01 -0.27310872261E+01 -0.94666929974E+01  0.13919958002E+02  0.51100000000E-03 0. -1.
        -11    1    3    3    0    0  0.21043594508E+02 -0.30866640204E+00 -0.20235166800E+02  0.29195720927E+02  0.51100000000E-03 0.  1.
         12    1    3    3    0    0  0.29839055718E+01  0.49628685288E+00  0.10270378462E+00  0.30266385924E+01  0.00000000000E+00 0. -1.
</event>
<event>
 7    1  0.2323330E-008  0.4614232E+02  0.7816164E-02  0.1320468E+00
        -11   -1    0    0    0    0  0.00000000000E+00  0.00000000000E+00  0.45593999997E+02  0.45594000000E+02  0.51100000000E-03 0. -1.
         11   -1    0    0    0    0 -0.00000000000E+00 -0.00000000000E+00 -0.45593999997E+02  0.45594000000E+02  0.51100000000E-03 0.  1.
    9900012    2    1    2    0    0  0.32178798258E+02  0.12662920733E+02 -0.28866744295E+02  0.46142317132E+02  0.99999942677E+01 0.  0.
         12    1    1    2    0    0 -0.32178798258E+02 -0.12662920733E+02  0.28866744295E+02  0.45045682868E+02  0.00000000000E+00 0. -1.
         11    1    3    3    0    0  0.19975888603E+00  0.35602803265E+00 -0.88910289645E+00  0.97834748130E+00  0.51100000000E-03 0. -1.
        -11    1    3    3    0    0  0.13945369123E+02  0.85931499884E+01 -0.17539311934E+02  0.23998812680E+02  0.51100000000E-03 0.  1.
         12    1    3    3    0    0  0.18033670249E+02  0.37137427123E+01 -0.10438329464E+02  0.21165156971E+02  0.00000000000E+00 0. -1.
</event>
<event>
 7    1  0.2323330E-008  0.4614232E+02  0.7816164E-02  0.1320468E+00
        -11   -1    0    0    0    0  0.00000000000E+00  0.00000000000E+00  0.45593999997E+02  0.45594000000E+02  0.51100000000E-03 0. -1.
         11   -1    0    0    0    0 -0.00000000000E+00 -0.00000000000E+00 -0.45593999997E+02  0.45594000000E+02  0.51100000000E-03 0.  1.
    9900012    2    1    2    0    0 -0.18565708301E+02 -0.36998829719E+02  0.17762730442E+02  0.46142317432E+02  0.99999970000E+01 0.  0.
         12    1    1    2    0    0  0.18565708301E+02  0.36998829719E+02 -0.17762730442E+02  0.45045682568E+02  0.00000000000E+00 0. -1.
         11    1    3    3    0    0 -0.19593324433E+01 -0.19695118263E+01  0.14064268730E+01  0.31138396342E+01  0.51100000000E-03 0. -1.
        -11    1    3    3    0    0 -0.14502847039E+02 -0.23814778655E+02  0.84098116411E+01  0.29123893743E+02  0.51100000000E-03 0.  1.
         12    1    3    3    0    0 -0.21035288184E+01 -0.11214539237E+02  0.79464919278E+01  0.13904584055E+02  0.00000000000E+00 0. -1.
</event>
<event>
 7    1  0.2323330E-008  0.4614232E+02  0.7816164E-02  0.1320468E+00
        -11   -1    0    0    0    0  0.00000000000E+00  0.00000000000E+00  0.45593999997E+02  0.45594000000E+02  0.51100000000E-03 0. -1.
         11   -1    0    0    0    0 -0.00000000000E+00 -0.00000000000E+00 -0.45593999997E+02  0.45594000000E+02  0.51100000000E-03 0.  1.
    9900012    2    1    2    0    0  0.26332345760E+02 -0.16350351303E+02 -0.32686189204E+02  0.46142318901E+02  0.10000010397E+02 0.  0.
         12    1    1    2    0    0 -0.26332345760E+02  0.16350351303E+02  0.32686189204E+02  0.45045681099E+02  0.00000000000E+00 0. -1.
         11    1    3    3    0    0  0.12882500193E+02 -0.10849675714E+02 -0.12690924301E+02  0.21088713432E+02  0.51100000000E-03 0. -1.
        -11    1    3    3    0    0  0.74944740935E+01 -0.29467435771E+01 -0.76311327925E+01  0.11094351158E+02  0.51100000000E-03 0.  1.
        -12    1    3    3    0    0  0.59553714735E+01 -0.25539320120E+01 -0.12364132110E+02  0.13959254312E+02  0.00000000000E+00 0.  1.
</event>
<event>
 7    1  0.2323330E-008  0.4614232E+02  0.7816164E-02  0.1320468E+00
        -11   -1    0    0    0    0  0.00000000000E+00  0.00000000000E+00  0.45593999997E+02  0.45594000000E+02  0.51100000000E-03 0.  1.
         11   -1    0    0    0    0 -0.00000000000E+00 -0.00000000000E+00 -0.45593999997E+02  0.45594000000E+02  0.51100000000E-03 0. -1.
    9900012    2    1    2    0    0 -0.36238042750E+02  0.20511190343E+02  0.17181642942E+02  0.46142317345E+02  0.99999962088E+01 0.  0.
         12    1    1    2    0    0  0.36238042750E+02 -0.20511190343E+02 -0.17181642942E+02  0.45045682655E+02  0.00000000000E+00 0. -1.
         11    1    3    3    0    0 -0.20848597367E+02  0.10928490069E+02  0.72137421097E+01  0.24619788440E+02  0.51100000000E-03 0. -1.
        -11    1    3    3    0    0 -0.10022206471E+02  0.28827675797E+01  0.63263236060E+01  0.12197431783E+02  0.51100000000E-03 0.  1.
         12    1    3    3    0    0 -0.53672389122E+01  0.66999326942E+01  0.36415772263E+01  0.93250971224E+01  0.00000000000E+00 0. -1.
</event>
<event>
 7    1  0.2323330E-008  0.4614232E+02  0.7816164E-02  0.1320468E+00
        -11   -1    0    0    0    0  0.00000000000E+00  0.00000000000E+00  0.45593999997E+02  0.45594000000E+02  0.51100000000E-03 0.  1.
         11   -1    0    0    0    0 -0.00000000000E+00 -0.00000000000E+00 -0.45593999997E+02  0.45594000000E+02  0.51100000000E-03 0. -1.
    9900012    2    1    2    0    0  0.18103910028E+02  0.27224200032E+02  0.30987172777E+02  0.46142317606E+02  0.99999985838E+01 0.  0.
         12    1    1    2    0    0 -0.18103910028E+02 -0.27224200032E+02 -0.30987172777E+02  0.45045682394E+02  0.00000000000E+00 0. -1.
         11    1    3    3    0    0  0.38362806963E+01  0.79210294268E+01  0.58344879347E+01  0.10559403699E+02  0.51100000000E-03 0. -1.
        -11    1    3    3    0    0  0.83508483780E+01  0.11280081552E+02  0.92330192657E+01  0.16799570039E+02  0.51100000000E-03 0.  1.
        -12    1    3    3    0    0  0.59167809533E+01  0.80230890524E+01  0.15919665577E+02  0.18783343868E+02  0.00000000000E+00 0.  1.
</event>
<event>
 7    1  0.2323330E-008  0.4614231E+02  0.7816164E-02  0.1320468E+00
        -11   -1    0    0    0    0  0.00000000000E+00  0.00000000000E+00  0.45593999997E+02  0.45594000000E+02  0.51100000000E-03 0.  1.
         11   -1    0    0    0    0 -0.00000000000E+00 -0.00000000000E+00 -0.45593999997E+02  0.45594000000E+02  0.51100000000E-03 0. -1.
    9900012    2    1    2    0    0 -0.22967788707E+02  0.22677189059E+02  0.31421966923E+02  0.46142309562E+02  0.99999252349E+01 0.  0.
         12    1    1    2    0    0  0.22967788707E+02 -0.22677189059E+02 -0.31421966923E+02  0.45045690438E+02  0.00000000000E+00 0. -1.
         11    1    3    3    0    0 -0.73437417197E+00  0.52613427862E-01  0.24649799886E+01  0.25725862867E+01  0.51100000000E-03 0. -1.
        -11    1    3    3    0    0 -0.16770904996E+01  0.15089891412E+01  0.20124032862E-02  0.22560330412E+01  0.51100000000E-03 0.  1.
        -12    1    3    3    0    0 -0.20556324035E+02  0.21115586490E+02  0.28954974531E+02  0.41313690234E+02  0.00000000000E+00 0.  1.
</event>
<event>
 7    1  0.2323330E-008  0.4614232E+02  0.7816164E-02  0.1320468E+00
        -11   -1    0    0    0    0  0.00000000000E+00  0.00000000000E+00  0.45593999997E+02  0.45594000000E+02  0.51100000000E-03 0.  1.
         11   -1    0    0    0    0 -0.00000000000E+00 -0.00000000000E+00 -0.45593999997E+02  0.45594000000E+02  0.51100000000E-03 0. -1.
    9900012    2    1    2    0    0 -0.19040485675E+02  0.83825273624E+01  0.39953806346E+02  0.46142317618E+02  0.99999986932E+01 0.  0.
         12    1    1    2    0    0  0.19040485675E+02 -0.83825273624E+01 -0.39953806346E+02  0.45045682382E+02  0.00000000000E+00 0. -1.
         11    1    3    3    0    0 -0.87001360828E+01 -0.46744164903E+00  0.12484466291E+02  0.15224085141E+02  0.51100000000E-03 0. -1.
        -11    1    3    3    0    0 -0.23213559655E+01  0.59688852020E+00  0.74642706591E+01  0.78396623752E+01  0.51100000000E-03 0.  1.
         12    1    3    3    0    0 -0.80189936272E+01  0.82530804913E+01  0.20005069396E+02  0.23078570101E+02  0.00000000000E+00 0. -1.
</event>
<event>
 7    1  0.2323330E-008  0.4614232E+02  0.7816164E-02  0.1320468E+00
        -11   -1    0    0    0    0  0.00000000000E+00  0.00000000000E+00  0.45593999997E+02  0.45594000000E+02  0.51100000000E-03 0. -1.
         11   -1    0    0    0    0 -0.00000000000E+00 -0.00000000000E+00 -0.45593999997E+02  0.45594000000E+02  0.51100000000E-03 0.  1.
    9900012    2    1    2    0    0  0.98073901597E+01  0.33024046868E+02 -0.29023106812E+02  0.46142319827E+02  0.10000018836E+02 0.  0.
         12    1    1    2    0    0 -0.98073901597E+01 -0.33024046868E+02  0.29023106812E+02  0.45045680173E+02  0.00000000000E+00 0. -1.
         11    1    3    3    0    0  0.25306734559E+01  0.65599148972E+01 -0.20096923266E+01  0.73127050472E+01  0.51100000000E-03 0.  1.
        -11    1    3    3    0    0  0.12669458521E+01  0.72191056761E+00 -0.14518580631E+01  0.20577168795E+01  0.51100000000E-03 0. -1.
        -12    1    3    3    0    0  0.60097708517E+01  0.25742221403E+02 -0.25561556422E+02  0.36771897900E+02  0.00000000000E+00 0.  1.
</event>
<event>
 7    1  0.2323330E-008  0.4614232E+02  0.7816164E-02  0.1320468E+00
        -11   -1    0    0    0    0  0.00000000000E+00  0.00000000000E+00  0.45593999997E+02  0.45594000000E+02  0.51100000000E-03 0. -1.
         11   -1    0    0    0    0 -0.00000000000E+00 -0.00000000000E+00 -0.45593999997E+02  0.45594000000E+02  0.51100000000E-03 0.  1.
    9900012    2    1    2    0    0 -0.24900663793E+02 -0.37128770222E+02 -0.55249470084E+01  0.46142315690E+02  0.99999811116E+01 0.  0.
         12    1    1    2    0    0  0.24900663793E+02  0.37128770222E+02  0.55249470084E+01  0.45045684310E+02  0.00000000000E+00 0. -1.
         11    1    3    3    0    0 -0.38196282358E+01 -0.63651809223E+01 -0.33262477947E+01  0.81344337656E+01  0.51100000000E-03 0. -1.
        -11    1    3    3    0    0 -0.16702123134E+02 -0.20046847076E+02 -0.36251788165E+01  0.26343479584E+02  0.51100000000E-03 0.  1.
        -12    1    3    3    0    0 -0.43789124232E+01 -0.10716742224E+02  0.14264796028E+01  0.11664402340E+02  0.00000000000E+00 0.  1.
</event>
<event>
 7    1  0.2323330E-008  0.4614232E+02  0.7816164E-02  0.1320468E+00
        -11   -1    0    0    0    0  0.00000000000E+00  0.00000000000E+00  0.45593999997E+02  0.45594000000E+02  0.51100000000E-03 0.  1.
         11   -1    0    0    0    0 -0.00000000000E+00 -0.00000000000E+00 -0.45593999997E+02  0.45594000000E+02  0.51100000000E-03 0. -1.
    9900012    2    1    2    0    0 -0.20090080596E+02 -0.11688533511E+02  0.38586012466E+02  0.46142317498E+02  0.99999976044E+01 0.  0.
         12    1    1    2    0    0  0.20090080596E+02  0.11688533511E+02 -0.38586012466E+02  0.45045682502E+02  0.00000000000E+00 0. -1.
         11    1    3    3    0    0 -0.85095073143E+01 -0.67703414664E+01  0.12885861852E+02  0.16861040129E+02  0.51100000000E-03 0. -1.
        -11    1    3    3    0    0 -0.56837347714E+01  0.57279097014E-01  0.67733939561E+01  0.88423406286E+01  0.51100000000E-03 0.  1.
        -12    1    3    3    0    0 -0.58968385106E+01 -0.49754711416E+01  0.18926756658E+02  0.20438936741E+02  0.00000000000E+00 0.  1.
</event>
<event>
 7    1  0.2323330E-008  0.4614232E+02  0.7816164E-02  0.1320468E+00
        -11   -1    0    0    0    0  0.00000000000E+00  0.00000000000E+00  0.45593999997E+02  0.45594000000E+02  0.51100000000E-03 0.  1.
         11   -1    0    0    0    0 -0.00000000000E+00 -0.00000000000E+00 -0.45593999997E+02  0.45594000000E+02  0.51100000000E-03 0. -1.
    9900012    2    1    2    0    0  0.29961108155E+02  0.33388457312E+02  0.40812243089E+01  0.46142317905E+02  0.10000001313E+02 0.  0.
         12    1    1    2    0    0 -0.29961108155E+02 -0.33388457312E+02 -0.40812243089E+01  0.45045682095E+02  0.00000000000E+00 0. -1.
         11    1    3    3    0    0  0.10473248428E+02  0.90516438996E+01 -0.11269786166E+01  0.13888530195E+02  0.51100000000E-03 0. -1.
        -11    1    3    3    0    0  0.20263416439E+01  0.27744939494E+01  0.27470592108E+01  0.43988875528E+01  0.51100000000E-03 0.  1.
         12    1    3    3    0    0  0.17461518083E+02  0.21562319463E+02  0.24611437147E+01  0.27854900157E+02  0.00000000000E+00 0. -1.
</event>
<event>
 7    1  0.2323330E-008  0.4614232E+02  0.7816164E-02  0.1320468E+00
        -11   -1    0    0    0    0  0.00000000000E+00  0.00000000000E+00  0.45593999997E+02  0.45594000000E+02  0.51100000000E-03 0.  1.
         11   -1    0    0    0    0 -0.00000000000E+00 -0.00000000000E+00 -0.45593999997E+02  0.45594000000E+02  0.51100000000E-03 0. -1.
    9900012    2    1    2    0    0 -0.41550296437E+02  0.17059599748E+02 -0.34141140676E+01  0.46142320380E+02  0.10000023882E+02 0.  0.
         12    1    1    2    0    0  0.41550296437E+02 -0.17059599748E+02  0.34141140676E+01  0.45045679620E+02  0.00000000000E+00 0. -1.
         11    1    3    3    0    0 -0.69563377411E+00  0.10972013262E+01  0.59036415525E+00  0.14269853520E+01  0.51100000000E-03 0. -1.
        -11    1    3    3    0    0 -0.11491400621E+02  0.74093920634E+01  0.10650933471E+01  0.13714437760E+02  0.51100000000E-03 0.  1.
         12    1    3    3    0    0 -0.29363262042E+02  0.85530063585E+01 -0.50695715700E+01  0.31000897268E+02  0.00000000000E+00 0. -1.
</event>
<event>
 7    1  0.2323330E-008  0.4614232E+02  0.7816164E-02  0.1320468E+00
        -11   -1    0    0    0    0  0.00000000000E+00  0.00000000000E+00  0.45593999997E+02  0.45594000000E+02  0.51100000000E-03 0. -1.
         11   -1    0    0    0    0 -0.00000000000E+00 -0.00000000000E+00 -0.45593999997E+02  0.45594000000E+02  0.51100000000E-03 0.  1.
    9900012    2    1    2    0    0 -0.19325572376E+02  0.32229399326E+02 -0.24837501278E+02  0.46142318760E+02  0.10000009113E+02 0.  0.
         12    1    1    2    0    0  0.19325572376E+02 -0.32229399326E+02  0.24837501278E+02  0.45045681240E+02  0.00000000000E+00 0. -1.
         11    1    3    3    0    0 -0.18828536059E+01  0.78913616738E+01 -0.55182789226E+01  0.98117342655E+01  0.51100000000E-03 0. -1.
        -11    1    3    3    0    0 -0.15411824830E+02  0.20058118966E+02 -0.18896964486E+02  0.31574479380E+02  0.51100000000E-03 0.  1.
        -12    1    3    3    0    0 -0.20308939402E+01  0.42799186861E+01 -0.42225786910E+00  0.47561051149E+01  0.00000000000E+00 0.  1.
</event>
<event>
 7    1  0.2323330E-008  0.4614232E+02  0.7816164E-02  0.1320468E+00
        -11   -1    0    0    0    0  0.00000000000E+00  0.00000000000E+00  0.45593999997E+02  0.45594000000E+02  0.51100000000E-03 0.  1.
         11   -1    0    0    0    0 -0.00000000000E+00 -0.00000000000E+00 -0.45593999997E+02  0.45594000000E+02  0.51100000000E-03 0. -1.
    9900012    2    1    2    0    0  0.22992285668E+02  0.24984696034E+02  0.29601236820E+02  0.46142318105E+02  0.10000003134E+02 0.  0.
         12    1    1    2    0    0 -0.22992285668E+02 -0.24984696034E+02 -0.29601236820E+02  0.45045681895E+02  0.00000000000E+00 0. -1.
         11    1    3    3    0    0  0.82255877015E+01  0.80134298612E+01  0.57423398469E+01  0.12839385435E+02  0.51100000000E-03 0. -1.
        -11    1    3    3    0    0  0.89354112958E+01  0.11508380237E+02  0.11390998813E+02  0.18494303040E+02  0.51100000000E-03 0.  1.
        -12    1    3    3    0    0  0.58312866702E+01  0.54628859355E+01  0.12467898160E+02  0.14808629630E+02  0.00000000000E+00 0.  1.
</event>
<event>
 7    1  0.2323330E-008  0.4614232E+02  0.7816164E-02  0.1320468E+00
        -11   -1    0    0    0    0  0.00000000000E+00  0.00000000000E+00  0.45593999997E+02  0.45594000000E+02  0.51100000000E-03 0. -1.
         11   -1    0    0    0    0 -0.00000000000E+00 -0.00000000000E+00 -0.45593999997E+02  0.45594000000E+02  0.51100000000E-03 0.  1.
    9900012    2    1    2    0    0  0.34797088728E+02 -0.27855355109E+02  0.65080914776E+01  0.46142318222E+02  0.10000004204E+02 0.  0.
         12    1    1    2    0    0 -0.34797088728E+02  0.27855355109E+02 -0.65080914776E+01  0.45045681778E+02  0.00000000000E+00 0. -1.
         11    1    3    3    0    0  0.11965818329E+02 -0.12209185243E+02  0.55145045247E+01  0.17962593715E+02  0.51100000000E-03 0. -1.
        -11    1    3    3    0    0  0.77029606180E+01 -0.24406240895E+01  0.37499937707E+00  0.80890588465E+01  0.51100000000E-03 0.  1.
         12    1    3    3    0    0  0.15128309781E+02 -0.13205545776E+02  0.61858757583E+00  0.20090665660E+02  0.00000000000E+00 0. -1.
</event>
<event>
 7    1  0.2323330E-008  0.4614232E+02  0.7816164E-02  0.1320468E+00
        -11   -1    0    0    0    0  0.00000000000E+00  0.00000000000E+00  0.45593999997E+02  0.45594000000E+02  0.51100000000E-03 0.  1.
         11   -1    0    0    0    0 -0.00000000000E+00 -0.00000000000E+00 -0.45593999997E+02  0.45594000000E+02  0.51100000000E-03 0. -1.
    9900012    2    1    2    0    0 -0.28591532007E+02 -0.70089097109E+00  0.34801533267E+02  0.46142315763E+02  0.99999817761E+01 0.  0.
         12    1    1    2    0    0  0.28591532007E+02  0.70089097109E+00 -0.34801533267E+02  0.45045684237E+02  0.00000000000E+00 0. -1.
         11    1    3    3    0    0 -0.14000303599E+02  0.19557461732E+01  0.12775867120E+02  0.19054034347E+02  0.51100000000E-03 0. -1.
        -11    1    3    3    0    0 -0.10735436209E+02 -0.15382236155E+01  0.19592494224E+02  0.22393783795E+02  0.51100000000E-03 0.  1.
         12    1    3    3    0    0 -0.38557921990E+01 -0.11184135288E+01  0.24331719232E+01  0.46944976207E+01  0.00000000000E+00 0. -1.
</event>
<event>
 7    1  0.2323330E-008  0.4614232E+02  0.7816164E-02  0.1320468E+00
        -11   -1    0    0    0    0  0.00000000000E+00  0.00000000000E+00  0.45593999997E+02  0.45594000000E+02  0.51100000000E-03 0.  1.
         11   -1    0    0    0    0 -0.00000000000E+00 -0.00000000000E+00 -0.45593999997E+02  0.45594000000E+02  0.51100000000E-03 0. -1.
    9900012    2    1    2    0    0 -0.12725457534E+02  0.28276651456E+02  0.32674251972E+02  0.46142322860E+02  0.10000046497E+02 0.  0.
         12    1    1    2    0    0  0.12725457534E+02 -0.28276651456E+02 -0.32674251972E+02  0.45045677140E+02  0.00000000000E+00 0. -1.
         11    1    3    3    0    0 -0.41831924630E+01  0.11893717267E+02  0.13776541697E+02  0.18674921981E+02  0.51100000000E-03 0.  1.
        -11    1    3    3    0    0 -0.35634071382E+00  0.82854642864E+01  0.94522479138E+01  0.12574612838E+02  0.51100000000E-03 0. -1.
         12    1    3    3    0    0 -0.81859243568E+01  0.80974699025E+01  0.94454623616E+01  0.14892788041E+02  0.00000000000E+00 0. -1.
</event>
<event>
 7    1  0.2323330E-008  0.4614232E+02  0.7816164E-02  0.1320468E+00
        -11   -1    0    0    0    0  0.00000000000E+00  0.00000000000E+00  0.45593999997E+02  0.45594000000E+02  0.51100000000E-03 0.  1.
         11   -1    0    0    0    0 -0.00000000000E+00 -0.00000000000E+00 -0.45593999997E+02  0.45594000000E+02  0.51100000000E-03 0. -1.
    9900012    2    1    2    0    0 -0.11519691326E+01 -0.19970674631E+01  0.44986643803E+02  0.46142318387E+02  0.10000005709E+02 0.  0.
         12    1    1    2    0    0  0.11519691326E+01  0.19970674631E+01 -0.44986643803E+02  0.45045681613E+02  0.00000000000E+00 0. -1.
         11    1    3    3    0    0 -0.13469245066E+01  0.28425384292E+01  0.69116672408E+01  0.75937720967E+01  0.51100000000E-03 0. -1.
        -11    1    3    3    0    0 -0.33339284043E+00 -0.19882253501E+01  0.57388397831E+01  0.60826370224E+01  0.51100000000E-03 0.  1.
         12    1    3    3    0    0  0.52834821449E+00 -0.28513805423E+01  0.32336136779E+02  0.32465909268E+02  0.00000000000E+00 0. -1.
</event>
<event>
 7    1  0.2323330E-008  0.4614232E+02  0.7816164E-02  0.1320468E+00
        -11   -1    0    0    0    0  0.00000000000E+00  0.00000000000E+00  0.45593999997E+02  0.45594000000E+02  0.51100000000E-03 0. -1.
         11   -1    0    0    0    0 -0.00000000000E+00 -0.00000000000E+00 -0.45593999997E+02  0.45594000000E+02  0.51100000000E-03 0.  1.
    9900012    2    1    2    0    0  0.89601524052E+01  0.43381758811E+02 -0.81763117450E+01  0.46142318715E+02  0.10000008702E+02 0.  0.
         12    1    1    2    0    0 -0.89601524052E+01 -0.43381758811E+02  0.81763117450E+01  0.45045681285E+02  0.00000000000E+00 0. -1.
         11    1    3    3    0    0  0.43871764982E+01  0.17177124450E+02  0.51972397692E+00  0.17736150520E+02  0.51100000000E-03 0. -1.
        -11    1    3    3    0    0  0.10703656196E+01  0.10196231542E+02 -0.99713584543E+00  0.10300635921E+02  0.51100000000E-03 0.  1.
        -12    1    3    3    0    0  0.35026102874E+01  0.16008402819E+02 -0.76988998765E+01  0.18105532275E+02  0.00000000000E+00 0.  1.
</event>
<event>
 7    1  0.2323330E-008  0.4614232E+02  0.7816164E-02  0.1320468E+00
        -11   -1    0    0    0    0  0.00000000000E+00  0.00000000000E+00  0.45593999997E+02  0.45594000000E+02  0.51100000000E-03 0.  1.
         11   -1    0    0    0    0 -0.00000000000E+00 -0.00000000000E+00 -0.45593999997E+02  0.45594000000E+02  0.51100000000E-03 0. -1.
    9900012    2    1    2    0    0 -0.44806684488E+02 -0.42715021970E+01 -0.17968618093E+01  0.46142318540E+02  0.10000007102E+02 0.  0.
         12    1    1    2    0    0  0.44806684488E+02  0.42715021970E+01  0.17968618093E+01  0.45045681460E+02  0.00000000000E+00 0. -1.
         11    1    3    3    0    0 -0.53798002970E+01  0.40663060296E+00  0.21180946684E+01  0.57960266536E+01  0.51100000000E-03 0. -1.
        -11    1    3    3    0    0 -0.11997320108E+02 -0.32713986568E+01  0.87516060350E+00  0.12466099842E+02  0.51100000000E-03 0.  1.
        -12    1    3    3    0    0 -0.27429564083E+02 -0.14067341432E+01 -0.47901170812E+01  0.27880192044E+02  0.00000000000E+00 0.  1.
</event>
<event>
 7    1  0.2323330E-008  0.4614232E+02  0.7816164E-02  0.1320468E+00
        -11   -1    0    0    0    0  0.00000000000E+00  0.00000000000E+00  0.45593999997E+02  0.45594000000E+02  0.51100000000E-03 0.  1.
         11   -1    0    0    0    0 -0.00000000000E+00 -0.00000000000E+00 -0.45593999997E+02  0.45594000000E+02  0.51100000000E-03 0. -1.
    9900012    2    1    2    0    0 -0.24743629726E+02 -0.14389317148E+02  0.34782378320E+02  0.46142317614E+02  0.99999986619E+01 0.  0.
         12    1    1    2    0    0  0.24743629726E+02  0.14389317148E+02 -0.34782378320E+02  0.45045682386E+02  0.00000000000E+00 0. -1.
         11    1    3    3    0    0 -0.15311943128E+02 -0.39112452742E+01  0.18453139660E+02  0.24295509987E+02  0.51100000000E-03 0. -1.
        -11    1    3    3    0    0 -0.26837926260E+01 -0.17800813593E+01  0.20535719758E+01  0.38195013583E+01  0.51100000000E-03 0.  1.
         12    1    3    3    0    0 -0.67478939719E+01 -0.86979905147E+01  0.14275666685E+02  0.18027306270E+02  0.00000000000E+00 0. -1.
</event>
<event>
 7    1  0.2323330E-008  0.4614232E+02  0.7816164E-02  0.1320468E+00
        -11   -1    0    0    0    0  0.00000000000E+00  0.00000000000E+00  0.45593999997E+02  0.45594000000E+02  0.51100000000E-03 0.  1.
         11   -1    0    0    0    0 -0.00000000000E+00 -0.00000000000E+00 -0.45593999997E+02  0.45594000000E+02  0.51100000000E-03 0. -1.
    9900012    2    1    2    0    0 -0.31382220848E+02 -0.15169697286E+02  0.28533314955E+02  0.46142316927E+02  0.99999923982E+01 0.  0.
         12    1    1    2    0    0  0.31382220848E+02  0.15169697286E+02 -0.28533314955E+02  0.45045683073E+02  0.00000000000E+00 0. -1.
         11    1    3    3    0    0 -0.28263684686E+00 -0.83789873837E+00  0.74942265696E+00  0.11591343593E+01  0.51100000000E-03 0. -1.
        -11    1    3    3    0    0 -0.26958790859E+02 -0.86456865930E+01  0.21476968443E+02  0.35535678902E+02  0.51100000000E-03 0.  1.
        -12    1    3    3    0    0 -0.41407931428E+01 -0.56861119550E+01  0.63069238551E+01  0.94475036666E+01  0.00000000000E+00 0.  1.
</event>
<event>
 7    1  0.2323330E-008  0.4614232E+02  0.7816164E-02  0.1320468E+00
        -11   -1    0    0    0    0  0.00000000000E+00  0.00000000000E+00  0.45593999997E+02  0.45594000000E+02  0.51100000000E-03 0.  1.
         11   -1    0    0    0    0 -0.00000000000E+00 -0.00000000000E+00 -0.45593999997E+02  0.45594000000E+02  0.51100000000E-03 0. -1.
    9900012    2    1    2    0    0 -0.42939462860E+02 -0.13571661438E+02  0.10611688572E+01  0.46142317141E+02  0.99999943457E+01 0.  0.
         12    1    1    2    0    0  0.42939462860E+02  0.13571661438E+02 -0.10611688572E+01  0.45045682859E+02  0.00000000000E+00 0. -1.
         11    1    3    3    0    0 -0.19302248248E+02 -0.43489347009E+01 -0.14750466219E+01  0.19841012657E+02  0.51100000000E-03 0. -1.
        -11    1    3    3    0    0 -0.13021851991E+02 -0.69425724374E+01  0.41383499277E+01  0.15326248129E+02  0.51100000000E-03 0.  1.
         12    1    3    3    0    0 -0.10615362621E+02 -0.22801542993E+01 -0.16021344487E+01  0.10975056355E+02  0.00000000000E+00 0. -1.
</event>
<event>
 7    1  0.2323330E-008  0.4614232E+02  0.7816164E-02  0.1320468E+00
        -11   -1    0    0    0    0  0.00000000000E+00  0.00000000000E+00  0.45593999997E+02  0.45594000000E+02  0.51100000000E-03 0.  1.
         11   -1    0    0    0    0 -0.00000000000E+00 -0.00000000000E+00 -0.45593999997E+02  0.45594000000E+02  0.51100000000E-03 0. -1.
    9900012    2    1    2    0    0  0.28571477861E+02  0.33989717408E+02  0.75817731404E+01  0.46142317404E+02  0.99999967393E+01 0.  0.
         12    1    1    2    0    0 -0.28571477861E+02 -0.33989717408E+02 -0.75817731404E+01  0.45045682596E+02  0.00000000000E+00 0. -1.
         11    1    3    3    0    0  0.21780496113E+02  0.20436792013E+02  0.37029904231E+01  0.30095923595E+02  0.51100000000E-03 0.  1.
        -11    1    3    3    0    0  0.44845018405E+01  0.94537078019E+01  0.95214597660E+00  0.10506661229E+02  0.51100000000E-03 0. -1.
        -12    1    3    3    0    0  0.23064799077E+01  0.40992175928E+01  0.29266367407E+01  0.55397325793E+01  0.00000000000E+00 0.  1.
</event>
<event>
 7    1  0.2323330E-008  0.4614232E+02  0.7816164E-02  0.1320468E+00
        -11   -1    0    0    0    0  0.00000000000E+00  0.00000000000E+00  0.45593999997E+02  0.45594000000E+02  0.51100000000E-03 0.  1.
         11   -1    0    0    0    0 -0.00000000000E+00 -0.00000000000E+00 -0.45593999997E+02  0.45594000000E+02  0.51100000000E-03 0. -1.
    9900012    2    1    2    0    0 -0.12264385066E+02  0.26062544439E+02  0.34632962480E+02  0.46142318144E+02  0.10000003496E+02 0.  0.
         12    1    1    2    0    0  0.12264385066E+02 -0.26062544439E+02 -0.34632962480E+02  0.45045681856E+02  0.00000000000E+00 0. -1.
         11    1    3    3    0    0 -0.34195690744E+01  0.10046276481E+02  0.95812142387E+01  0.14297579877E+02  0.51100000000E-03 0. -1.
        -11    1    3    3    0    0 -0.38899785370E+00  0.75999697552E+01  0.11497673128E+02  0.13787942096E+02  0.51100000000E-03 0.  1.
         12    1    3    3    0    0 -0.84558181382E+01  0.84162982029E+01  0.13554075113E+02  0.18056796172E+02  0.00000000000E+00 0. -1.
</event>
<event>
 7    1  0.2323330E-008  0.4614232E+02  0.7816164E-02  0.1320468E+00
        -11   -1    0    0    0    0  0.00000000000E+00  0.00000000000E+00  0.45593999997E+02  0.45594000000E+02  0.51100000000E-03 0.  1.
         11   -1    0    0    0    0 -0.00000000000E+00 -0.00000000000E+00 -0.45593999997E+02  0.45594000000E+02  0.51100000000E-03 0. -1.
    9900012    2    1    2    0    0 -0.30314056192E+02 -0.47365288024E+01  0.32980854091E+02  0.46142318248E+02  0.10000004444E+02 0.  0.
         12    1    1    2    0    0  0.30314056192E+02  0.47365288024E+01 -0.32980854091E+02  0.45045681752E+02  0.00000000000E+00 0. -1.
         11    1    3    3    0    0 -0.23308289283E+01  0.14137153083E+01  0.63866557381E+01  0.69441145040E+01  0.51100000000E-03 0. -1.
        -11    1    3    3    0    0 -0.90779485991E+01 -0.26910154558E+01  0.72078876770E+01  0.11899763022E+02  0.51100000000E-03 0.  1.
         12    1    3    3    0    0 -0.18905278664E+02 -0.34592286549E+01  0.19386310676E+02  0.27298440723E+02  0.00000000000E+00 0. -1.
</event>
<event>
 7    1  0.2323330E-008  0.4614232E+02  0.7816164E-02  0.1320468E+00
        -11   -1    0    0    0    0  0.00000000000E+00  0.00000000000E+00  0.45593999997E+02  0.45594000000E+02  0.51100000000E-03 0.  1.
         11   -1    0    0    0    0 -0.00000000000E+00 -0.00000000000E+00 -0.45593999997E+02  0.45594000000E+02  0.51100000000E-03 0. -1.
    9900012    2    1    2    0    0  0.23212443345E+02 -0.29641739283E+02  0.24731827098E+02  0.46142317572E+02  0.99999982781E+01 0.  0.
         12    1    1    2    0    0 -0.23212443345E+02  0.29641739283E+02 -0.24731827098E+02  0.45045682428E+02  0.00000000000E+00 0. -1.
         11    1    3    3    0    0  0.93503020145E+00 -0.41797516022E+01  0.31432196374E+01  0.53126673982E+01  0.51100000000E-03 0. -1.
        -11    1    3    3    0    0  0.70483828511E+01 -0.13574910371E+02  0.10523771304E+02  0.18566304294E+02  0.51100000000E-03 0.  1.
         12    1    3    3    0    0  0.15229030293E+02 -0.11887077309E+02  0.11064836156E+02  0.22263345880E+02  0.00000000000E+00 0. -1.
</event>
<event>
 7    1  0.2323330E-008  0.4614232E+02  0.7816164E-02  0.1320468E+00
        -11   -1    0    0    0    0  0.00000000000E+00  0.00000000000E+00  0.45593999997E+02  0.45594000000E+02  0.51100000000E-03 0.  1.
         11   -1    0    0    0    0 -0.00000000000E+00 -0.00000000000E+00 -0.45593999997E+02  0.45594000000E+02  0.51100000000E-03 0. -1.
    9900012    2    1    2    0    0 -0.14982056030E+02  0.16806972841E+02  0.39015088505E+02  0.46142317965E+02  0.10000001855E+02 0.  0.
         12    1    1    2    0    0  0.14982056030E+02 -0.16806972841E+02 -0.39015088505E+02  0.45045682035E+02  0.00000000000E+00 0. -1.
         11    1    3    3    0    0 -0.26053396269E+01  0.75445399749E+01  0.16342253659E+02  0.18187279426E+02  0.51100000000E-03 0. -1.
        -11    1    3    3    0    0 -0.63596890339E+01  0.76951121076E+01  0.12069712398E+02  0.15663280390E+02  0.51100000000E-03 0.  1.
        -12    1    3    3    0    0 -0.60170273693E+01  0.15673207589E+01  0.10603122448E+02  0.12291758148E+02  0.00000000000E+00 0.  1.
</event>
<event>
 7    1  0.2323330E-008  0.4614232E+02  0.7816164E-02  0.1320468E+00
        -11   -1    0    0    0    0  0.00000000000E+00  0.00000000000E+00  0.45593999997E+02  0.45594000000E+02  0.51100000000E-03 0.  1.
         11   -1    0    0    0    0 -0.00000000000E+00 -0.00000000000E+00 -0.45593999997E+02  0.45594000000E+02  0.51100000000E-03 0. -1.
    9900012    2    1    2    0    0  0.10196233343E+02 -0.40608715493E+02 -0.16615731046E+02  0.46142318003E+02  0.10000002203E+02 0.  0.
         12    1    1    2    0    0 -0.10196233343E+02  0.40608715493E+02  0.16615731046E+02  0.45045681997E+02  0.00000000000E+00 0. -1.
         11    1    3    3    0    0  0.15386630035E+01 -0.34486544285E+01 -0.49643454855E+00  0.38088251112E+01  0.51100000000E-03 0. -1.
        -11    1    3    3    0    0  0.22948331270E+01 -0.22707220976E+01 -0.33170596352E+01  0.46287495947E+01  0.51100000000E-03 0.  1.
        -12    1    3    3    0    0  0.63627372129E+01 -0.34889338967E+02 -0.12802236862E+02  0.37704743297E+02  0.00000000000E+00 0.  1.
</event>
<event>
 7    1  0.2323330E-008  0.4614232E+02  0.7816164E-02  0.1320468E+00
        -11   -1    0    0    0    0  0.00000000000E+00  0.00000000000E+00  0.45593999997E+02  0.45594000000E+02  0.51100000000E-03 0. -1.
         11   -1    0    0    0    0 -0.00000000000E+00 -0.00000000000E+00 -0.45593999997E+02  0.45594000000E+02  0.51100000000E-03 0.  1.
    9900012    2    1    2    0    0 -0.36956393053E+02 -0.13944838920E+02 -0.21653636801E+02  0.46142317558E+02  0.99999981459E+01 0.  0.
         12    1    1    2    0    0  0.36956393053E+02  0.13944838920E+02  0.21653636801E+02  0.45045682442E+02  0.00000000000E+00 0. -1.
         11    1    3    3    0    0 -0.80515000643E+01 -0.20661251802E+01 -0.69753175316E+01  0.10851294000E+02  0.51100000000E-03 0. -1.
        -11    1    3    3    0    0 -0.15307599815E+02 -0.31420947932E+01 -0.47922241076E+01  0.16345053807E+02  0.51100000000E-03 0.  1.
        -12    1    3    3    0    0 -0.13597293173E+02 -0.87366189464E+01 -0.98860951618E+01  0.18945969751E+02  0.00000000000E+00 0.  1.
</event>
<event>
 7    1  0.2323330E-008  0.4614232E+02  0.7816164E-02  0.1320468E+00
        -11   -1    0    0    0    0  0.00000000000E+00  0.00000000000E+00  0.45593999997E+02  0.45594000000E+02  0.51100000000E-03 0.  1.
         11   -1    0    0    0    0 -0.00000000000E+00 -0.00000000000E+00 -0.45593999997E+02  0.45594000000E+02  0.51100000000E-03 0. -1.
    9900012    2    1    2    0    0  0.42426349240E+02 -0.10651854745E+02  0.10754356726E+02  0.46142319764E+02  0.10000018261E+02 0.  0.
         12    1    1    2    0    0 -0.42426349240E+02  0.10651854745E+02 -0.10754356726E+02  0.45045680236E+02  0.00000000000E+00 0. -1.
         11    1    3    3    0    0  0.35661760964E+01 -0.23544339681E+01  0.13521856905E+01  0.44821175424E+01  0.51100000000E-03 0.  1.
        -11    1    3    3    0    0  0.22454318311E+02 -0.61726267528E+01  0.15237293101E+01  0.23337083860E+02  0.51100000000E-03 0. -1.
         12    1    3    3    0    0  0.16405854833E+02 -0.21247940238E+01  0.78784417257E+01  0.18323118361E+02  0.00000000000E+00 0. -1.
</event>
<event>
 7    1  0.2323330E-008  0.4614231E+02  0.7816164E-02  0.1320468E+00
        -11   -1    0    0    0    0  0.00000000000E+00  0.00000000000E+00  0.45593999997E+02  0.45594000000E+02  0.51100000000E-03 0.  1.
         11   -1    0    0    0    0 -0.00000000000E+00 -0.00000000000E+00 -0.45593999997E+02  0.45594000000E+02  0.51100000000E-03 0. -1.
    9900012    2    1    2    0    0  0.40722772404E+02  0.16912036057E+02  0.92061378129E+01  0.46142310647E+02  0.99999351293E+01 0.  0.
         12    1    1    2    0    0 -0.40722772404E+02 -0.16912036057E+02 -0.92061378129E+01  0.45045689353E+02  0.00000000000E+00 0. -1.
         11    1    3    3    0    0  0.67661775918E+01  0.53362594869E+00  0.19585394689E+01  0.70641201129E+01  0.51100000000E-03 0. -1.
        -11    1    3    3    0    0  0.10459199489E+02  0.15909320897E+01  0.10488374849E+01  0.10631367701E+02  0.51100000000E-03 0.  1.
        -12    1    3    3    0    0  0.23497395323E+02  0.14787478019E+02  0.61987608591E+01  0.28446822833E+02  0.00000000000E+00 0.  1.
</event>
<event>
 7    1  0.2323330E-008  0.4614231E+02  0.7816164E-02  0.1320468E+00
        -11   -1    0    0    0    0  0.00000000000E+00  0.00000000000E+00  0.45593999997E+02  0.45594000000E+02  0.51100000000E-03 0.  1.
         11   -1    0    0    0    0 -0.00000000000E+00 -0.00000000000E+00 -0.45593999997E+02  0.45594000000E+02  0.51100000000E-03 0. -1.
    9900012    2    1    2    0    0  0.33524461162E+01  0.37381852034E+02  0.24909279992E+02  0.46142312235E+02  0.99999496119E+01 0.  0.
         12    1    1    2    0    0 -0.33524461162E+01 -0.37381852034E+02 -0.24909279992E+02  0.45045687765E+02  0.00000000000E+00 0. -1.
         11    1    3    3    0    0  0.11764755235E+01  0.74907947861E+00 -0.24608022483E-01  0.13949267144E+01  0.51100000000E-03 0. -1.
        -11    1    3    3    0    0  0.24445173740E+01  0.19233197103E+02  0.16260231391E+02  0.25303886286E+02  0.51100000000E-03 0.  1.
        -12    1    3    3    0    0 -0.26854678132E+00  0.17399575452E+02  0.86736566234E+01  0.19443499235E+02  0.00000000000E+00 0.  1.
</event>
<event>
 7    1  0.2323330E-008  0.4614232E+02  0.7816164E-02  0.1320468E+00
        -11   -1    0    0    0    0  0.00000000000E+00  0.00000000000E+00  0.45593999997E+02  0.45594000000E+02  0.51100000000E-03 0.  1.
         11   -1    0    0    0    0 -0.00000000000E+00 -0.00000000000E+00 -0.45593999997E+02  0.45594000000E+02  0.51100000000E-03 0. -1.
    9900012    2    1    2    0    0  0.26376802683E+02 -0.35318588497E+02  0.92722741168E+01  0.46142317849E+02  0.10000000798E+02 0.  0.
         12    1    1    2    0    0 -0.26376802683E+02  0.35318588497E+02 -0.92722741168E+01  0.45045682151E+02  0.00000000000E+00 0. -1.
         11    1    3    3    0    0  0.10096352363E+02 -0.13166172864E+02  0.16736459587E+01  0.16675896677E+02  0.51100000000E-03 0. -1.
        -11    1    3    3    0    0  0.10304200344E+02 -0.12163114570E+02  0.79648925369E+01  0.17820140689E+02  0.51100000000E-03 0.  1.
         12    1    3    3    0    0  0.59762499764E+01 -0.99893010623E+01 -0.36626437885E+00  0.11646280483E+02  0.00000000000E+00 0. -1.
</event>
<event>
 7    1  0.2323330E-008  0.4614232E+02  0.7816164E-02  0.1320468E+00
        -11   -1    0    0    0    0  0.00000000000E+00  0.00000000000E+00  0.45593999997E+02  0.45594000000E+02  0.51100000000E-03 0.  1.
         11   -1    0    0    0    0 -0.00000000000E+00 -0.00000000000E+00 -0.45593999997E+02  0.45594000000E+02  0.51100000000E-03 0. -1.
    9900012    2    1    2    0    0 -0.31424784938E+02 -0.27366395614E+02  0.17107798267E+02  0.46142317867E+02  0.10000000965E+02 0.  0.
         12    1    1    2    0    0  0.31424784938E+02  0.27366395614E+02 -0.17107798267E+02  0.45045682133E+02  0.00000000000E+00 0. -1.
         11    1    3    3    0    0 -0.67073053372E+01 -0.65522623373E+01  0.84727731193E+01  0.12637561917E+02  0.51100000000E-03 0. -1.
        -11    1    3    3    0    0 -0.36002331799E+01 -0.39216484954E+01  0.16766524258E+01  0.55814128578E+01  0.51100000000E-03 0.  1.
         12    1    3    3    0    0 -0.21117246421E+02 -0.16892484781E+02  0.69583727220E+01  0.27923343092E+02  0.00000000000E+00 0. -1.
</event>
<event>
 7    1  0.2323330E-008  0.4614232E+02  0.7816164E-02  0.1320468E+00
        -11   -1    0    0    0    0  0.00000000000E+00  0.00000000000E+00  0.45593999997E+02  0.45594000000E+02  0.51100000000E-03 0.  1.
         11   -1    0    0    0    0 -0.00000000000E+00 -0.00000000000E+00 -0.45593999997E+02  0.45594000000E+02  0.51100000000E-03 0. -1.
    9900012    2    1    2    0    0  0.23055402068E+02  0.98601002719E+00  0.38685783297E+02  0.46142316415E+02  0.99999877273E+01 0.  0.
         12    1    1    2    0    0 -0.23055402068E+02 -0.98601002719E+00 -0.38685783297E+02  0.45045683585E+02  0.00000000000E+00 0. -1.
         11    1    3    3    0    0  0.10188389790E+02 -0.21832371351E+01  0.21302615973E+02  0.23714368185E+02  0.51100000000E-03 0. -1.
        -11    1    3    3    0    0  0.34596115252E+00  0.10447884316E+01  0.29909200764E+00  0.11404947506E+01  0.51100000000E-03 0.  1.
        -12    1    3    3    0    0  0.12521051126E+02  0.21244587307E+01  0.17084075317E+02  0.21287453479E+02  0.00000000000E+00 0.  1.
</event>
<event>
 7    1  0.2323330E-008  0.4614231E+02  0.7816164E-02  0.1320468E+00
        -11   -1    0    0    0    0  0.00000000000E+00  0.00000000000E+00  0.45593999997E+02  0.45594000000E+02  0.51100000000E-03 0.  1.
         11   -1    0    0    0    0 -0.00000000000E+00 -0.00000000000E+00 -0.45593999997E+02  0.45594000000E+02  0.51100000000E-03 0. -1.
    9900012    2    1    2    0    0 -0.25567015424E+02  0.90413637346E+01  0.35967983017E+02  0.46142308328E+02  0.99999139842E+01 0.  0.
         12    1    1    2    0    0  0.25567015424E+02 -0.90413637346E+01 -0.35967983017E+02  0.45045691672E+02  0.00000000000E+00 0. -1.
         11    1    3    3    0    0 -0.59707882488E+01  0.63578147202E+01  0.10160105190E+02  0.13390289693E+02  0.51100000000E-03 0. -1.
        -11    1    3    3    0    0 -0.69776035747E+01  0.59242781547E+00  0.62689328838E+01  0.93988000364E+01  0.51100000000E-03 0.  1.
        -12    1    3    3    0    0 -0.12618623601E+02  0.20911211989E+01  0.19538944943E+02  0.23353218599E+02  0.00000000000E+00 0.  1.
</event>
<event>
 7    1  0.2323330E-008  0.4614232E+02  0.7816164E-02  0.1320468E+00
        -11   -1    0    0    0    0  0.00000000000E+00  0.00000000000E+00  0.45593999997E+02  0.45594000000E+02  0.51100000000E-03 0.  1.
         11   -1    0    0    0    0 -0.00000000000E+00 -0.00000000000E+00 -0.45593999997E+02  0.45594000000E+02  0.51100000000E-03 0. -1.
    9900012    2    1    2    0    0  0.17367138659E+02 -0.41469027764E+02  0.27956495808E+01  0.46142318460E+02  0.10000006370E+02 0.  0.
         12    1    1    2    0    0 -0.17367138659E+02  0.41469027764E+02 -0.27956495808E+01  0.45045681540E+02  0.00000000000E+00 0. -1.
         11    1    3    3    0    0  0.39988703289E+01 -0.46477396145E+01  0.26034116925E+01  0.66610960159E+01  0.51100000000E-03 0. -1.
        -11    1    3    3    0    0  0.23198395813E+01 -0.40674482172E+01  0.14178093981E+01  0.48924405395E+01  0.51100000000E-03 0.  1.
        -12    1    3    3    0    0  0.11048428749E+02 -0.32753839932E+02 -0.12255715097E+01  0.34588781904E+02  0.00000000000E+00 0.  1.
</event>
<event>
 7    1  0.2323330E-008  0.4614232E+02  0.7816164E-02  0.1320468E+00
        -11   -1    0    0    0    0  0.00000000000E+00  0.00000000000E+00  0.45593999997E+02  0.45594000000E+02  0.51100000000E-03 0. -1.
         11   -1    0    0    0    0 -0.00000000000E+00 -0.00000000000E+00 -0.45593999997E+02  0.45594000000E+02  0.51100000000E-03 0.  1.
    9900012    2    1    2    0    0 -0.24466584292E+02  0.43521537994E+01 -0.37570713337E+02  0.46142317740E+02  0.99999998069E+01 0.  0.
         12    1    1    2    0    0  0.24466584292E+02 -0.43521537994E+01  0.37570713337E+02  0.45045682260E+02  0.00000000000E+00 0. -1.
         11    1    3    3    0    0 -0.45766627340E+01  0.26345865413E+01 -0.94903080698E+01  0.10860609354E+02  0.51100000000E-03 0. -1.
        -11    1    3    3    0    0 -0.15382319852E+02 -0.19913875753E+01 -0.20940814250E+02  0.26059529739E+02  0.51100000000E-03 0.  1.
        -12    1    3    3    0    0 -0.45076017061E+01  0.37089548334E+01 -0.71395910173E+01  0.92221786466E+01  0.00000000000E+00 0.  1.
</event>
<event>
 7    1  0.2323330E-008  0.4614232E+02  0.7816164E-02  0.1320468E+00
        -11   -1    0    0    0    0  0.00000000000E+00  0.00000000000E+00  0.45593999997E+02  0.45594000000E+02  0.51100000000E-03 0. -1.
         11   -1    0    0    0    0 -0.00000000000E+00 -0.00000000000E+00 -0.45593999997E+02  0.45594000000E+02  0.51100000000E-03 0.  1.
    9900012    2    1    2    0    0 -0.25937462056E+02 -0.32103648284E+02 -0.18047639767E+02  0.46142317941E+02  0.10000001637E+02 0.  0.
         12    1    1    2    0    0  0.25937462056E+02  0.32103648284E+02  0.18047639767E+02  0.45045682059E+02  0.00000000000E+00 0. -1.
         11    1    3    3    0    0 -0.23215299870E+00 -0.20499143792E+01  0.39254341342E+00  0.21000320401E+01  0.51100000000E-03 0. -1.
        -11    1    3    3    0    0 -0.18371703122E+02 -0.18449928935E+02 -0.97871068509E+01  0.27815585812E+02  0.51100000000E-03 0.  1.
         12    1    3    3    0    0 -0.73336059351E+01 -0.11603804970E+02 -0.86530763293E+01  0.16226700088E+02  0.00000000000E+00 0. -1.
</event>
<event>
 7    1  0.2323330E-008  0.4614232E+02  0.7816164E-02  0.1320468E+00
        -11   -1    0    0    0    0  0.00000000000E+00  0.00000000000E+00  0.45593999997E+02  0.45594000000E+02  0.51100000000E-03 0.  1.
         11   -1    0    0    0    0 -0.00000000000E+00 -0.00000000000E+00 -0.45593999997E+02  0.45594000000E+02  0.51100000000E-03 0. -1.
    9900012    2    1    2    0    0  0.30488674679E+02  0.30510539932E+02  0.12986959384E+02  0.46142318246E+02  0.10000004421E+02 0.  0.
         12    1    1    2    0    0 -0.30488674679E+02 -0.30510539932E+02 -0.12986959384E+02  0.45045681754E+02  0.00000000000E+00 0. -1.
         11    1    3    3    0    0 -0.24775406946E+00  0.11989770325E+01 -0.67563103584E-01  0.12261700687E+01  0.51100000000E-03 0. -1.
        -11    1    3    3    0    0  0.23037649467E+02  0.25478176611E+02  0.11079759584E+02  0.36091991482E+02  0.51100000000E-03 0.  1.
        -12    1    3    3    0    0  0.76987792816E+01  0.38333862884E+01  0.19747629037E+01  0.88241566956E+01  0.00000000000E+00 0.  1.
</event>
<event>
 7    1  0.2323330E-008  0.4614232E+02  0.7816164E-02  0.1320468E+00
        -11   -1    0    0    0    0  0.00000000000E+00  0.00000000000E+00  0.45593999997E+02  0.45594000000E+02  0.51100000000E-03 0. -1.
         11   -1    0    0    0    0 -0.00000000000E+00 -0.00000000000E+00 -0.45593999997E+02  0.45594000000E+02  0.51100000000E-03 0.  1.
    9900012    2    1    2    0    0  0.17603456338E+02 -0.54404861748E+01 -0.41105144649E+02  0.46142317837E+02  0.10000000692E+02 0.  0.
         12    1    1    2    0    0 -0.17603456338E+02  0.54404861748E+01  0.41105144649E+02  0.45045682163E+02  0.00000000000E+00 0. -1.
         11    1    3    3    0    0  0.51794055486E+01 -0.51397425052E+01 -0.15523554267E+02  0.17152956952E+02  0.51100000000E-03 0. -1.
        -11    1    3    3    0    0  0.87424738217E+01  0.18790490839E+01 -0.20371285225E+02  0.22247492801E+02  0.51100000000E-03 0.  1.
        -12    1    3    3    0    0  0.36815769680E+01 -0.21797927534E+01 -0.52103051577E+01  0.67418680836E+01  0.00000000000E+00 0.  1.
</event>
<event>
 7    1  0.2323330E-008  0.4614232E+02  0.7816164E-02  0.1320468E+00
        -11   -1    0    0    0    0  0.00000000000E+00  0.00000000000E+00  0.45593999997E+02  0.45594000000E+02  0.51100000000E-03 0. -1.
         11   -1    0    0    0    0 -0.00000000000E+00 -0.00000000000E+00 -0.45593999997E+02  0.45594000000E+02  0.51100000000E-03 0.  1.
    9900012    2    1    2    0    0  0.39824454177E+02 -0.16455718295E+02  0.13127667449E+02  0.46142317990E+02  0.10000002088E+02 0.  0.
         12    1    1    2    0    0 -0.39824454177E+02  0.16455718295E+02 -0.13127667449E+02  0.45045682010E+02  0.00000000000E+00 0. -1.
         11    1    3    3    0    0  0.20477753263E+02 -0.93752424903E+01  0.35413405196E+01  0.22798566696E+02  0.51100000000E-03 0. -1.
        -11    1    3    3    0    0  0.43392144336E+01 -0.38574257208E+01  0.15101533262E+01  0.59990897995E+01  0.51100000000E-03 0.  1.
         12    1    3    3    0    0  0.15007486480E+02 -0.32230500840E+01  0.80761736030E+01  0.17344661494E+02  0.00000000000E+00 0. -1.
</event>
<event>
 7    1  0.2323330E-008  0.4614232E+02  0.7816164E-02  0.1320468E+00
        -11   -1    0    0    0    0  0.00000000000E+00  0.00000000000E+00  0.45593999997E+02  0.45594000000E+02  0.51100000000E-03 0.  1.
         11   -1    0    0    0    0 -0.00000000000E+00 -0.00000000000E+00 -0.45593999997E+02  0.45594000000E+02  0.51100000000E-03 0. -1.
    9900012    2    1    2    0    0 -0.14993280830E+02 -0.23499918145E+02  0.35384585232E+02  0.46142317688E+02  0.99999993356E+01 0.  0.
         12    1    1    2    0    0  0.14993280830E+02  0.23499918145E+02 -0.35384585232E+02  0.45045682312E+02  0.00000000000E+00 0. -1.
         11    1    3    3    0    0 -0.39194292253E+00 -0.10669744381E+01  0.59202412372E+01  0.60283754258E+01  0.51100000000E-03 0. -1.
        -11    1    3    3    0    0 -0.72871307858E+01 -0.82520950894E+01  0.14778055628E+02  0.18427975387E+02  0.51100000000E-03 0.  1.
        -12    1    3    3    0    0 -0.73142071221E+01 -0.14180848617E+02  0.14686288367E+02  0.21685966876E+02  0.00000000000E+00 0.  1.
</event>
<event>
 7    1  0.2323330E-008  0.4614232E+02  0.7816164E-02  0.1320468E+00
        -11   -1    0    0    0    0  0.00000000000E+00  0.00000000000E+00  0.45593999997E+02  0.45594000000E+02  0.51100000000E-03 0.  1.
         11   -1    0    0    0    0 -0.00000000000E+00 -0.00000000000E+00 -0.45593999997E+02  0.45594000000E+02  0.51100000000E-03 0. -1.
    9900012    2    1    2    0    0 -0.74743915140E+01  0.21555742372E+02  0.38840660320E+02  0.46142318167E+02  0.10000003702E+02 0.  0.
         12    1    1    2    0    0  0.74743915140E+01 -0.21555742372E+02 -0.38840660320E+02  0.45045681833E+02  0.00000000000E+00 0. -1.
         11    1    3    3    0    0 -0.52030100799E+01  0.11647242418E+02  0.21570417969E+02  0.25060177602E+02  0.51100000000E-03 0. -1.
        -11    1    3    3    0    0 -0.36895230188E+00  0.50004627187E+01  0.14034528045E+02  0.14903312749E+02  0.51100000000E-03 0.  1.
        -12    1    3    3    0    0 -0.19024291322E+01  0.49080372351E+01  0.32357143062E+01  0.61788278156E+01  0.00000000000E+00 0.  1.
</event>
<event>
 7    1  0.2323330E-008  0.4614232E+02  0.7816164E-02  0.1320468E+00
        -11   -1    0    0    0    0  0.00000000000E+00  0.00000000000E+00  0.45593999997E+02  0.45594000000E+02  0.51100000000E-03 0.  1.
         11   -1    0    0    0    0 -0.00000000000E+00 -0.00000000000E+00 -0.45593999997E+02  0.45594000000E+02  0.51100000000E-03 0. -1.
    9900012    2    1    2    0    0  0.77348137514E+01 -0.38334474231E+02  0.22355181811E+02  0.46142318607E+02  0.10000007710E+02 0.  0.
         12    1    1    2    0    0 -0.77348137514E+01  0.38334474231E+02 -0.22355181811E+02  0.45045681393E+02  0.00000000000E+00 0. -1.
         11    1    3    3    0    0  0.27764626804E+01 -0.58349552269E+01  0.40358934734E+01  0.76186536806E+01  0.51100000000E-03 0. -1.
        -11    1    3    3    0    0  0.60756088806E+01 -0.27385785823E+02  0.12541935757E+02  0.30727747090E+02  0.51100000000E-03 0.  1.
        -12    1    3    3    0    0 -0.11172578097E+01 -0.51137331817E+01  0.57773525808E+01  0.77959178362E+01  0.00000000000E+00 0.  1.
</event>
<event>
 7    1  0.2323330E-008  0.4614232E+02  0.7816164E-02  0.1320468E+00
        -11   -1    0    0    0    0  0.00000000000E+00  0.00000000000E+00  0.45593999997E+02  0.45594000000E+02  0.51100000000E-03 0.  1.
         11   -1    0    0    0    0 -0.00000000000E+00 -0.00000000000E+00 -0.45593999997E+02  0.45594000000E+02  0.51100000000E-03 0. -1.
    9900012    2    1    2    0    0 -0.40381808158E+02 -0.46989207702E+01  0.19399562023E+02  0.46142319928E+02  0.10000019756E+02 0.  0.
         12    1    1    2    0    0  0.40381808158E+02  0.46989207702E+01 -0.19399562023E+02  0.45045680072E+02  0.00000000000E+00 0. -1.
         11    1    3    3    0    0 -0.17970529780E+01 -0.12477749588E+01 -0.66255389214E+00  0.22858958145E+01  0.51100000000E-03 0. -1.
        -11    1    3    3    0    0 -0.15927270272E+02 -0.22759308772E+01  0.60422788738E+01  0.17186242577E+02  0.51100000000E-03 0.  1.
         12    1    3    3    0    0 -0.22657484908E+02 -0.11752149342E+01  0.14019837041E+02  0.26670181536E+02  0.00000000000E+00 0. -1.
</event>
<event>
 7    1  0.2323330E-008  0.4614232E+02  0.7816164E-02  0.1320468E+00
        -11   -1    0    0    0    0  0.00000000000E+00  0.00000000000E+00  0.45593999997E+02  0.45594000000E+02  0.51100000000E-03 0.  1.
         11   -1    0    0    0    0 -0.00000000000E+00 -0.00000000000E+00 -0.45593999997E+02  0.45594000000E+02  0.51100000000E-03 0. -1.
    9900012    2    1    2    0    0 -0.10270831243E+02 -0.35589230532E+02 -0.25632597227E+02  0.46142319353E+02  0.10000014519E+02 0.  0.
         12    1    1    2    0    0  0.10270831243E+02  0.35589230532E+02  0.25632597227E+02  0.45045680647E+02  0.00000000000E+00 0. -1.
         11    1    3    3    0    0  0.11300780220E+01 -0.12547496401E+02 -0.84229742538E+01  0.15154644100E+02  0.51100000000E-03 0. -1.
        -11    1    3    3    0    0 -0.69215937565E+01 -0.12734945212E+02 -0.10513917262E+02  0.17906137108E+02  0.51100000000E-03 0.  1.
         12    1    3    3    0    0 -0.44793155089E+01 -0.10306788920E+02 -0.66957057112E+01  0.13081538145E+02  0.00000000000E+00 0. -1.
</event>
<event>
 7    1  0.2323330E-008  0.4614232E+02  0.7816164E-02  0.1320468E+00
        -11   -1    0    0    0    0  0.00000000000E+00  0.00000000000E+00  0.45593999997E+02  0.45594000000E+02  0.51100000000E-03 0.  1.
         11   -1    0    0    0    0 -0.00000000000E+00 -0.00000000000E+00 -0.45593999997E+02  0.45594000000E+02  0.51100000000E-03 0. -1.
    9900012    2    1    2    0    0 -0.13408884111E+01  0.34205723534E+02  0.29279412503E+02  0.46142317624E+02  0.99999987480E+01 0.  0.
         12    1    1    2    0    0  0.13408884111E+01 -0.34205723534E+02 -0.29279412503E+02  0.45045682376E+02  0.00000000000E+00 0. -1.
         11    1    3    3    0    0  0.12805700543E+01  0.54404790693E+01  0.14755873641E+01  0.57806600400E+01  0.51100000000E-03 0. -1.
        -11    1    3    3    0    0 -0.24463681225E+00  0.46776455526E+01  0.23635764607E+01  0.52465902292E+01  0.51100000000E-03 0.  1.
        -12    1    3    3    0    0 -0.23768216532E+01  0.24087598912E+02  0.25440248678E+02  0.35115067355E+02  0.00000000000E+00 0.  1.
</event>
<event>
 7    1  0.2323330E-008  0.4614232E+02  0.7816164E-02  0.1320468E+00
        -11   -1    0    0    0    0  0.00000000000E+00  0.00000000000E+00  0.45593999997E+02  0.45594000000E+02  0.51100000000E-03 0.  1.
         11   -1    0    0    0    0 -0.00000000000E+00 -0.00000000000E+00 -0.45593999997E+02  0.45594000000E+02  0.51100000000E-03 0. -1.
    9900012    2    1    2    0    0 -0.26854019290E+02  0.36089800820E+02 -0.23455312883E+01  0.46142316607E+02  0.99999894798E+01 0.  0.
         12    1    1    2    0    0  0.26854019290E+02 -0.36089800820E+02  0.23455312883E+01  0.45045683393E+02  0.00000000000E+00 0. -1.
         11    1    3    3    0    0 -0.18973033991E+01  0.92902861817E-01 -0.54235378985E+00  0.19754845037E+01  0.51100000000E-03 0. -1.
        -11    1    3    3    0    0 -0.30675887555E+01  0.38913962915E+01  0.14788462117E+01  0.51710784416E+01  0.51100000000E-03 0.  1.
        -12    1    3    3    0    0 -0.21889127135E+02  0.32105501667E+02 -0.32820237101E+01  0.38995753662E+02  0.00000000000E+00 0.  1.
</event>
<event>
 7    1  0.2323330E-008  0.4614232E+02  0.7816164E-02  0.1320468E+00
        -11   -1    0    0    0    0  0.00000000000E+00  0.00000000000E+00  0.45593999997E+02  0.45594000000E+02  0.51100000000E-03 0.  1.
         11   -1    0    0    0    0 -0.00000000000E+00 -0.00000000000E+00 -0.45593999997E+02  0.45594000000E+02  0.51100000000E-03 0. -1.
    9900012    2    1    2    0    0 -0.15653874535E+02 -0.37807552164E+02  0.18832386276E+02  0.46142316950E+02  0.99999925996E+01 0.  0.
         12    1    1    2    0    0  0.15653874535E+02  0.37807552164E+02 -0.18832386276E+02  0.45045683050E+02  0.00000000000E+00 0. -1.
         11    1    3    3    0    0  0.17906495491E+00 -0.71046079141E+01  0.38514427719E+01  0.80833860206E+01  0.51100000000E-03 0. -1.
        -11    1    3    3    0    0 -0.40275899692E+01 -0.11133286179E+02  0.74819353164E+01  0.14005388194E+02  0.51100000000E-03 0.  1.
         12    1    3    3    0    0 -0.11805349521E+02 -0.19569658071E+02  0.74990081877E+01  0.24053542735E+02  0.00000000000E+00 0. -1.
</event>
<event>
 7    1  0.2323330E-008  0.4614232E+02  0.7816164E-02  0.1320468E+00
        -11   -1    0    0    0    0  0.00000000000E+00  0.00000000000E+00  0.45593999997E+02  0.45594000000E+02  0.51100000000E-03 0. -1.
         11   -1    0    0    0    0 -0.00000000000E+00 -0.00000000000E+00 -0.45593999997E+02  0.45594000000E+02  0.51100000000E-03 0.  1.
    9900012    2    1    2    0    0  0.16419072572E+02  0.41926321545E+02 -0.13080720205E+01  0.46142318355E+02  0.10000005416E+02 0.  0.
         12    1    1    2    0    0 -0.16419072572E+02 -0.41926321545E+02  0.13080720205E+01  0.45045681645E+02  0.00000000000E+00 0. -1.
         11    1    3    3    0    0  0.45693088939E+00  0.13023756962E+01  0.16979892692E+01  0.21881810051E+01  0.51100000000E-03 0. -1.
        -11    1    3    3    0    0  0.33322262051E+01  0.75406209621E+01 -0.22010069690E+01  0.85328264903E+01  0.51100000000E-03 0.  1.
        -12    1    3    3    0    0  0.12629915477E+02  0.33083324887E+02 -0.80505432075E+00  0.35421310860E+02  0.00000000000E+00 0.  1.
</event>
<event>
 7    1  0.2323330E-008  0.4614232E+02  0.7816164E-02  0.1320468E+00
        -11   -1    0    0    0    0  0.00000000000E+00  0.00000000000E+00  0.45593999997E+02  0.45594000000E+02  0.51100000000E-03 0.  1.
         11   -1    0    0    0    0 -0.00000000000E+00 -0.00000000000E+00 -0.45593999997E+02  0.45594000000E+02  0.51100000000E-03 0. -1.
    9900012    2    1    2    0    0 -0.27912893871E+02  0.99643887391E+01  0.33921891861E+02  0.46142318358E+02  0.10000005442E+02 0.  0.
         12    1    1    2    0    0  0.27912893871E+02 -0.99643887391E+01 -0.33921891861E+02  0.45045681642E+02  0.00000000000E+00 0. -1.
         11    1    3    3    0    0 -0.13466926691E+02  0.55006562019E+01  0.10047363214E+02  0.17679503414E+02  0.51100000000E-03 0. -1.
        -11    1    3    3    0    0 -0.13454692807E+02  0.33051481552E+01  0.20306630826E+02  0.24582758564E+02  0.51100000000E-03 0.  1.
        -12    1    3    3    0    0 -0.99127437338E+00  0.11585843819E+01  0.35678978205E+01  0.38800563798E+01  0.00000000000E+00 0.  1.
</event>
<event>
 7    1  0.2323330E-008  0.4614232E+02  0.7816164E-02  0.1320468E+00
        -11   -1    0    0    0    0  0.00000000000E+00  0.00000000000E+00  0.45593999997E+02  0.45594000000E+02  0.51100000000E-03 0.  1.
         11   -1    0    0    0    0 -0.00000000000E+00 -0.00000000000E+00 -0.45593999997E+02  0.45594000000E+02  0.51100000000E-03 0. -1.
    9900012    2    1    2    0    0  0.95181338831E+01 -0.94666404451E+01  0.42998853220E+02  0.46142317275E+02  0.99999955654E+01 0.  0.
         12    1    1    2    0    0 -0.95181338831E+01  0.94666404451E+01 -0.42998853220E+02  0.45045682725E+02  0.00000000000E+00 0. -1.
         11    1    3    3    0    0  0.28184302897E+01 -0.38137549697E+01  0.17418904252E+02  0.18052880708E+02  0.51100000000E-03 0. -1.
        -11    1    3    3    0    0  0.38133578461E+01 -0.33411750222E+01  0.23068967362E+02  0.23619534373E+02  0.51100000000E-03 0.  1.
         12    1    3    3    0    0  0.28863457473E+01 -0.23117104532E+01  0.25109816061E+01  0.44699021934E+01  0.00000000000E+00 0. -1.
</event>
<event>
 7    1  0.2323330E-008  0.4614232E+02  0.7816164E-02  0.1320468E+00
        -11   -1    0    0    0    0  0.00000000000E+00  0.00000000000E+00  0.45593999997E+02  0.45594000000E+02  0.51100000000E-03 0.  1.
         11   -1    0    0    0    0 -0.00000000000E+00 -0.00000000000E+00 -0.45593999997E+02  0.45594000000E+02  0.51100000000E-03 0. -1.
    9900012    2    1    2    0    0 -0.14727333695E+02 -0.11757271959E+02  0.40914368403E+02  0.46142319369E+02  0.10000014666E+02 0.  0.
         12    1    1    2    0    0  0.14727333695E+02  0.11757271959E+02 -0.40914368403E+02  0.45045680631E+02  0.00000000000E+00 0. -1.
         11    1    3    3    0    0 -0.35926138681E+01 -0.33864943724E+01  0.46054779929E+01  0.67517143263E+01  0.51100000000E-03 0. -1.
        -11    1    3    3    0    0 -0.11053865632E+02 -0.91270822848E+01  0.35475560527E+02  0.38262344040E+02  0.51100000000E-03 0.  1.
        -12    1    3    3    0    0 -0.80854194578E-01  0.75630469860E+00  0.83332988311E+00  0.11282610035E+01  0.00000000000E+00 0.  1.
</event>
<event>
 7    1  0.2323330E-008  0.4614232E+02  0.7816164E-02  0.1320468E+00
        -11   -1    0    0    0    0  0.00000000000E+00  0.00000000000E+00  0.45593999997E+02  0.45594000000E+02  0.51100000000E-03 0.  1.
         11   -1    0    0    0    0 -0.00000000000E+00 -0.00000000000E+00 -0.45593999997E+02  0.45594000000E+02  0.51100000000E-03 0. -1.
    9900012    2    1    2    0    0 -0.91870129502E+01  0.12885788444E+02  0.42174266434E+02  0.46142317632E+02  0.99999988199E+01 0.  0.
         12    1    1    2    0    0  0.91870129502E+01 -0.12885788444E+02 -0.42174266434E+02  0.45045682368E+02  0.00000000000E+00 0. -1.
         11    1    3    3    0    0  0.71754071148E+00  0.50246474400E+01  0.18429423154E+02  0.19115584862E+02  0.51100000000E-03 0. -1.
        -11    1    3    3    0    0 -0.51631764095E+01  0.32333467506E+01  0.90757681663E+01  0.10930804633E+02  0.51100000000E-03 0.  1.
        -12    1    3    3    0    0 -0.47413772522E+01  0.46277942536E+01  0.14669075114E+02  0.16095928137E+02  0.00000000000E+00 0.  1.
</event>
<event>
 7    1  0.2323330E-008  0.4614232E+02  0.7816164E-02  0.1320468E+00
        -11   -1    0    0    0    0  0.00000000000E+00  0.00000000000E+00  0.45593999997E+02  0.45594000000E+02  0.51100000000E-03 0.  1.
         11   -1    0    0    0    0 -0.00000000000E+00 -0.00000000000E+00 -0.45593999997E+02  0.45594000000E+02  0.51100000000E-03 0. -1.
    9900012    2    1    2    0    0  0.39768716305E+02 -0.89624380682E+01  0.19163440302E+02  0.46142317222E+02  0.99999950852E+01 0.  0.
         12    1    1    2    0    0 -0.39768716305E+02  0.89624380682E+01 -0.19163440302E+02  0.45045682778E+02  0.00000000000E+00 0. -1.
         11    1    3    3    0    0  0.11504566667E+02 -0.34431326185E+01  0.64193676304E+01  0.13616846091E+02  0.51100000000E-03 0.  1.
        -11    1    3    3    0    0  0.14815266966E+02 -0.50155406698E+01  0.30411656906E+01  0.15934129173E+02  0.51100000000E-03 0. -1.
         12    1    3    3    0    0  0.13448882672E+02 -0.50376477991E+00  0.97029069813E+01  0.16591341958E+02  0.00000000000E+00 0. -1.
</event>
<event>
 7    1  0.2323330E-008  0.4614232E+02  0.7816164E-02  0.1320468E+00
        -11   -1    0    0    0    0  0.00000000000E+00  0.00000000000E+00  0.45593999997E+02  0.45594000000E+02  0.51100000000E-03 0.  1.
         11   -1    0    0    0    0 -0.00000000000E+00 -0.00000000000E+00 -0.45593999997E+02  0.45594000000E+02  0.51100000000E-03 0. -1.
    9900012    2    1    2    0    0  0.33515202116E+02  0.25407068784E+02  0.16134608310E+02  0.46142317606E+02  0.99999985846E+01 0.  0.
         12    1    1    2    0    0 -0.33515202116E+02 -0.25407068784E+02 -0.16134608310E+02  0.45045682394E+02  0.00000000000E+00 0. -1.
         11    1    3    3    0    0  0.95754358868E+01  0.82388044464E+01  0.54353196467E+01  0.13751711568E+02  0.51100000000E-03 0. -1.
        -11    1    3    3    0    0  0.20380551478E+02  0.10328336041E+02  0.75760584405E+01  0.24071519804E+02  0.51100000000E-03 0.  1.
         12    1    3    3    0    0  0.35592147507E+01  0.68399282959E+01  0.31232302229E+01  0.83190862335E+01  0.00000000000E+00 0. -1.
</event>
<event>
 7    1  0.2323330E-008  0.4614233E+02  0.7816164E-02  0.1320468E+00
        -11   -1    0    0    0    0  0.00000000000E+00  0.00000000000E+00  0.45593999997E+02  0.45594000000E+02  0.51100000000E-03 0.  1.
         11   -1    0    0    0    0 -0.00000000000E+00 -0.00000000000E+00 -0.45593999997E+02  0.45594000000E+02  0.51100000000E-03 0. -1.
    9900012    2    1    2    0    0  0.11039425314E+02 -0.24004585014E+02  0.36483197046E+02  0.46142326738E+02  0.10000081860E+02 0.  0.
         12    1    1    2    0    0 -0.11039425314E+02  0.24004585014E+02 -0.36483197046E+02  0.45045673262E+02  0.00000000000E+00 0. -1.
         11    1    3    3    0    0  0.11003938234E+01 -0.15238451831E+01  0.21231847676E+00  0.18915734470E+01  0.51100000000E-03 0. -1.
        -11    1    3    3    0    0  0.81694450253E+01 -0.20291134208E+02  0.28110501424E+02  0.35618397634E+02  0.51100000000E-03 0.  1.
        -12    1    3    3    0    0  0.17695864650E+01 -0.21896056224E+01  0.81603771451E+01  0.86323556570E+01  0.00000000000E+00 0.  1.
</event>
<event>
 7    1  0.2323330E-008  0.4614232E+02  0.7816164E-02  0.1320468E+00
        -11   -1    0    0    0    0  0.00000000000E+00  0.00000000000E+00  0.45593999997E+02  0.45594000000E+02  0.51100000000E-03 0.  1.
         11   -1    0    0    0    0 -0.00000000000E+00 -0.00000000000E+00 -0.45593999997E+02  0.45594000000E+02  0.51100000000E-03 0. -1.
    9900012    2    1    2    0    0 -0.39588248189E+02 -0.11943749834E+02  0.17867037876E+02  0.46142316553E+02  0.99999889835E+01 0.  0.
         12    1    1    2    0    0  0.39588248189E+02  0.11943749834E+02 -0.17867037876E+02  0.45045683447E+02  0.00000000000E+00 0. -1.
         11    1    3    3    0    0 -0.16752491744E+02 -0.21186716772E+01  0.53082037871E+01  0.17700615159E+02  0.51100000000E-03 0. -1.
        -11    1    3    3    0    0 -0.48483785528E+01 -0.98629876204E+00  0.31885992371E+00  0.49579463239E+01  0.51100000000E-03 0.  1.
        -12    1    3    3    0    0 -0.17987377892E+02 -0.88387793945E+01  0.12239974165E+02  0.23483755070E+02  0.00000000000E+00 0.  1.
</event>
<event>
 7    1  0.2323330E-008  0.4614232E+02  0.7816164E-02  0.1320468E+00
        -11   -1    0    0    0    0  0.00000000000E+00  0.00000000000E+00  0.45593999997E+02  0.45594000000E+02  0.51100000000E-03 0.  1.
         11   -1    0    0    0    0 -0.00000000000E+00 -0.00000000000E+00 -0.45593999997E+02  0.45594000000E+02  0.51100000000E-03 0. -1.
    9900012    2    1    2    0    0  0.17796634016E+02 -0.40158529880E+02  0.99842770421E+01  0.46142317716E+02  0.99999995861E+01 0.  0.
         12    1    1    2    0    0 -0.17796634016E+02  0.40158529880E+02 -0.99842770421E+01  0.45045682284E+02  0.00000000000E+00 0. -1.
         11    1    3    3    0    0  0.45982269499E+01 -0.31797894394E+01  0.78623989880E+00  0.56456111628E+01  0.51100000000E-03 0. -1.
        -11    1    3    3    0    0  0.84659218497E+01 -0.22687477811E+02  0.74801792014E+01  0.25344556878E+02  0.51100000000E-03 0.  1.
         12    1    3    3    0    0  0.47324852159E+01 -0.14291262629E+02  0.17178579419E+01  0.15152149675E+02  0.00000000000E+00 0. -1.
</event>
<event>
 7    1  0.2323330E-008  0.4614232E+02  0.7816164E-02  0.1320468E+00
        -11   -1    0    0    0    0  0.00000000000E+00  0.00000000000E+00  0.45593999997E+02  0.45594000000E+02  0.51100000000E-03 0.  1.
         11   -1    0    0    0    0 -0.00000000000E+00 -0.00000000000E+00 -0.45593999997E+02  0.45594000000E+02  0.51100000000E-03 0. -1.
    9900012    2    1    2    0    0  0.66406154539E+01 -0.44368087256E+02 -0.40605968556E+01  0.46142318884E+02  0.10000010243E+02 0.  0.
         12    1    1    2    0    0 -0.66406154539E+01  0.44368087256E+02  0.40605968556E+01  0.45045681116E+02  0.00000000000E+00 0. -1.
         11    1    3    3    0    0  0.30127528459E+00 -0.25828737952E+01 -0.15833805991E+01  0.30445193745E+01  0.51100000000E-03 0. -1.
        -11    1    3    3    0    0  0.34464691338E+01 -0.38066396068E+02 -0.13132835308E+01  0.38244651561E+02  0.51100000000E-03 0.  1.
         12    1    3    3    0    0  0.28928710355E+01 -0.37188173926E+01 -0.11639327258E+01  0.48531479493E+01  0.00000000000E+00 0. -1.
</event>
<event>
 7    1  0.2323330E-008  0.4614232E+02  0.7816164E-02  0.1320468E+00
        -11   -1    0    0    0    0  0.00000000000E+00  0.00000000000E+00  0.45593999997E+02  0.45594000000E+02  0.51100000000E-03 0.  1.
         11   -1    0    0    0    0 -0.00000000000E+00 -0.00000000000E+00 -0.45593999997E+02  0.45594000000E+02  0.51100000000E-03 0. -1.
    9900012    2    1    2    0    0 -0.96503035893E+01  0.13998297707E+02  0.41713702841E+02  0.46142315381E+02  0.99999782994E+01 0.  0.
         12    1    1    2    0    0  0.96503035893E+01 -0.13998297707E+02 -0.41713702841E+02  0.45045684619E+02  0.00000000000E+00 0. -1.
         11    1    3    3    0    0 -0.59047782164E+01  0.79220220267E+01  0.19016829623E+02  0.21430460750E+02  0.51100000000E-03 0. -1.
        -11    1    3    3    0    0 -0.30990402675E+01  0.20334438877E+01  0.35508761874E+01  0.51329978164E+01  0.51100000000E-03 0.  1.
         12    1    3    3    0    0 -0.64648510542E+00  0.40428317927E+01  0.19145997031E+02  0.19578856815E+02  0.00000000000E+00 0. -1.
</event>
<event>
 7    1  0.2323330E-008  0.4614232E+02  0.7816164E-02  0.1320468E+00
        -11   -1    0    0    0    0  0.00000000000E+00  0.00000000000E+00  0.45593999997E+02  0.45594000000E+02  0.51100000000E-03 0. -1.
         11   -1    0    0    0    0 -0.00000000000E+00 -0.00000000000E+00 -0.45593999997E+02  0.45594000000E+02  0.51100000000E-03 0.  1.
    9900012    2    1    2    0    0 -0.40749291753E+02  0.18835874035E+02  0.37173396380E+01  0.46142317154E+02  0.99999944634E+01 0.  0.
         12    1    1    2    0    0  0.40749291753E+02 -0.18835874035E+02 -0.37173396380E+01  0.45045682846E+02  0.00000000000E+00 0. -1.
         11    1    3    3    0    0 -0.97697395720E+01  0.27729472379E+01  0.32339744311E+01  0.10658125472E+02  0.51100000000E-03 0. -1.
        -11    1    3    3    0    0 -0.24085710255E+02  0.11476604359E+02  0.29543578282E+01  0.26843288109E+02  0.51100000000E-03 0.  1.
         12    1    3    3    0    0 -0.68938419268E+01  0.45863224389E+01 -0.24709926212E+01  0.86409035731E+01  0.00000000000E+00 0. -1.
</event>
<event>
 7    1  0.2323330E-008  0.4614232E+02  0.7816164E-02  0.1320468E+00
        -11   -1    0    0    0    0  0.00000000000E+00  0.00000000000E+00  0.45593999997E+02  0.45594000000E+02  0.51100000000E-03 0.  1.
         11   -1    0    0    0    0 -0.00000000000E+00 -0.00000000000E+00 -0.45593999997E+02  0.45594000000E+02  0.51100000000E-03 0. -1.
    9900012    2    1    2    0    0  0.30661488583E+02 -0.27813121239E+02  0.17759973835E+02  0.46142320232E+02  0.10000022531E+02 0.  0.
         12    1    1    2    0    0 -0.30661488583E+02  0.27813121239E+02 -0.17759973835E+02  0.45045679768E+02  0.00000000000E+00 0. -1.
         11    1    3    3    0    0  0.25839623558E+02 -0.23684676818E+02  0.16703367567E+02  0.38828501773E+02  0.51100000000E-03 0.  1.
        -11    1    3    3    0    0  0.21338417010E+01 -0.39907722888E+01  0.92536559166E+00  0.46190741070E+01  0.51100000000E-03 0. -1.
        -12    1    3    3    0    0  0.26880233243E+01 -0.13767213138E+00  0.13124067606E+00  0.26947443520E+01  0.00000000000E+00 0.  1.
</event>
<event>
 7    1  0.2323330E-008  0.4614232E+02  0.7816164E-02  0.1320468E+00
        -11   -1    0    0    0    0  0.00000000000E+00  0.00000000000E+00  0.45593999997E+02  0.45594000000E+02  0.51100000000E-03 0. -1.
         11   -1    0    0    0    0 -0.00000000000E+00 -0.00000000000E+00 -0.45593999997E+02  0.45594000000E+02  0.51100000000E-03 0.  1.
    9900012    2    1    2    0    0  0.18344175022E+02  0.38760794513E+02 -0.13791501491E+02  0.46142318055E+02  0.10000002679E+02 0.  0.
         12    1    1    2    0    0 -0.18344175022E+02 -0.38760794513E+02  0.13791501491E+02  0.45045681945E+02  0.00000000000E+00 0. -1.
         11    1    3    3    0    0  0.33366885171E+01  0.12339364548E+02 -0.61889559535E+01  0.14201992246E+02  0.51100000000E-03 0. -1.
        -11    1    3    3    0    0  0.77449078934E+01  0.19298512461E+02 -0.59949224700E+01  0.21641517441E+02  0.51100000000E-03 0.  1.
         12    1    3    3    0    0  0.72625786111E+01  0.71229175045E+01 -0.16076230670E+01  0.10298808367E+02  0.00000000000E+00 0. -1.
</event>
<event>
 7    1  0.2323330E-008  0.4614232E+02  0.7816164E-02  0.1320468E+00
        -11   -1    0    0    0    0  0.00000000000E+00  0.00000000000E+00  0.45593999997E+02  0.45594000000E+02  0.51100000000E-03 0.  1.
         11   -1    0    0    0    0 -0.00000000000E+00 -0.00000000000E+00 -0.45593999997E+02  0.45594000000E+02  0.51100000000E-03 0. -1.
    9900012    2    1    2    0    0  0.20172078562E+02  0.31209378782E+02  0.25459288848E+02  0.46142318008E+02  0.10000002254E+02 0.  0.
         12    1    1    2    0    0 -0.20172078562E+02 -0.31209378782E+02 -0.25459288848E+02  0.45045681992E+02  0.00000000000E+00 0. -1.
         11    1    3    3    0    0  0.28131458100E+00  0.33542046746E+01  0.14390890209E+01  0.36607109096E+01  0.51100000000E-03 0. -1.
        -11    1    3    3    0    0  0.19466214021E+02  0.28198492182E+02  0.24150127610E+02  0.41920366333E+02  0.51100000000E-03 0.  1.
        -12    1    3    3    0    0  0.42454995933E+00 -0.34331807451E+00 -0.12992778286E+00  0.56124076563E+00  0.00000000000E+00 0.  1.
</event>
<event>
 7    1  0.2323330E-008  0.4614232E+02  0.7816164E-02  0.1320468E+00
        -11   -1    0    0    0    0  0.00000000000E+00  0.00000000000E+00  0.45593999997E+02  0.45594000000E+02  0.51100000000E-03 0.  1.
         11   -1    0    0    0    0 -0.00000000000E+00 -0.00000000000E+00 -0.45593999997E+02  0.45594000000E+02  0.51100000000E-03 0. -1.
    9900012    2    1    2    0    0 -0.13875824371E+02  0.11673088268E+02  0.41234864045E+02  0.46142317582E+02  0.99999983679E+01 0.  0.
         12    1    1    2    0    0  0.13875824371E+02 -0.11673088268E+02 -0.41234864045E+02  0.45045682418E+02  0.00000000000E+00 0. -1.
         11    1    3    3    0    0 -0.94468552471E+01  0.69505583372E+01  0.27941620154E+02  0.30303258444E+02  0.51100000000E-03 0. -1.
        -11    1    3    3    0    0 -0.41193407496E+01  0.10399630319E+01  0.39889416075E+01  0.58277050996E+01  0.51100000000E-03 0.  1.
        -12    1    3    3    0    0 -0.30962837433E+00  0.36825668985E+01  0.93043022837E+01  0.10011354038E+02  0.00000000000E+00 0.  1.
</event>
<event>
 7    1  0.2323330E-008  0.4614232E+02  0.7816164E-02  0.1320468E+00
        -11   -1    0    0    0    0  0.00000000000E+00  0.00000000000E+00  0.45593999997E+02  0.45594000000E+02  0.51100000000E-03 0. -1.
         11   -1    0    0    0    0 -0.00000000000E+00 -0.00000000000E+00 -0.45593999997E+02  0.45594000000E+02  0.51100000000E-03 0.  1.
    9900012    2    1    2    0    0  0.40677049061E+02  0.12575606762E+02 -0.14708677372E+02  0.46142318788E+02  0.10000009368E+02 0.  0.
         12    1    1    2    0    0 -0.40677049061E+02 -0.12575606762E+02  0.14708677372E+02  0.45045681212E+02  0.00000000000E+00 0. -1.
         11    1    3    3    0    0  0.28104613409E+01  0.34541658551E+01 -0.10293948656E+01  0.45705151519E+01  0.51100000000E-03 0. -1.
        -11    1    3    3    0    0  0.17972638127E+02  0.49282144247E+01 -0.90643238057E+01  0.20723536980E+02  0.51100000000E-03 0.  1.
        -12    1    3    3    0    0  0.19893949594E+02  0.41932264827E+01 -0.46149587005E+01  0.20848266656E+02  0.00000000000E+00 0.  1.
</event>
<event>
 7    1  0.2323330E-008  0.4614232E+02  0.7816164E-02  0.1320468E+00
        -11   -1    0    0    0    0  0.00000000000E+00  0.00000000000E+00  0.45593999997E+02  0.45594000000E+02  0.51100000000E-03 0.  1.
         11   -1    0    0    0    0 -0.00000000000E+00 -0.00000000000E+00 -0.45593999997E+02  0.45594000000E+02  0.51100000000E-03 0. -1.
    9900012    2    1    2    0    0 -0.22251850112E+02  0.85252088053E+01  0.38226815366E+02  0.46142318391E+02  0.10000005744E+02 0.  0.
         12    1    1    2    0    0  0.22251850112E+02 -0.85252088053E+01 -0.38226815366E+02  0.45045681609E+02  0.00000000000E+00 0. -1.
         11    1    3    3    0    0 -0.54454681871E+01  0.45989591269E+01  0.62969634162E+01  0.95107989861E+01  0.51100000000E-03 0. -1.
        -11    1    3    3    0    0 -0.78146821254E+01  0.36617874154E+01  0.12158755646E+02  0.14910173806E+02  0.51100000000E-03 0.  1.
         12    1    3    3    0    0 -0.89916997991E+01  0.26446226297E+00  0.19771096304E+02  0.21721345599E+02  0.00000000000E+00 0. -1.
</event>
<event>
 7    1  0.2323330E-008  0.4614232E+02  0.7816164E-02  0.1320468E+00
        -11   -1    0    0    0    0  0.00000000000E+00  0.00000000000E+00  0.45593999997E+02  0.45594000000E+02  0.51100000000E-03 0. -1.
         11   -1    0    0    0    0 -0.00000000000E+00 -0.00000000000E+00 -0.45593999997E+02  0.45594000000E+02  0.51100000000E-03 0.  1.
    9900012    2    1    2    0    0  0.22747993272E+02 -0.37675646861E+02 -0.96014542756E+01  0.46142317759E+02  0.99999999852E+01 0.  0.
         12    1    1    2    0    0 -0.22747993272E+02  0.37675646861E+02  0.96014542756E+01  0.45045682241E+02  0.00000000000E+00 0. -1.
         11    1    3    3    0    0  0.13084185880E+02 -0.21535509147E+02 -0.89981327512E+01  0.26757063883E+02  0.51100000000E-03 0. -1.
        -11    1    3    3    0    0  0.74942106820E+01 -0.98493798133E+01 -0.21292643715E+01  0.12558154461E+02  0.51100000000E-03 0.  1.
         12    1    3    3    0    0  0.21695967098E+01 -0.62907579011E+01  0.15259428471E+01  0.68270994153E+01  0.00000000000E+00 0. -1.
</event>
<event>
 7    1  0.2323330E-008  0.4614232E+02  0.7816164E-02  0.1320468E+00
        -11   -1    0    0    0    0  0.00000000000E+00  0.00000000000E+00  0.45593999997E+02  0.45594000000E+02  0.51100000000E-03 0.  1.
         11   -1    0    0    0    0 -0.00000000000E+00 -0.00000000000E+00 -0.45593999997E+02  0.45594000000E+02  0.51100000000E-03 0. -1.
    9900012    2    1    2    0    0  0.36114361487E+01 -0.44696298234E+02 -0.42792214377E+01  0.46142320041E+02  0.10000020785E+02 0.  0.
         12    1    1    2    0    0 -0.36114361487E+01  0.44696298234E+02  0.42792214377E+01  0.45045679959E+02  0.00000000000E+00 0. -1.
         11    1    3    3    0    0  0.82179953366E+00 -0.65933571851E+00  0.23705194958E+00  0.10799407165E+01  0.51100000000E-03 0. -1.
        -11    1    3    3    0    0 -0.43320732514E+00 -0.32459198267E+02 -0.57996130407E+01  0.32976093347E+02  0.51100000000E-03 0.  1.
        -12    1    3    3    0    0  0.32228439401E+01 -0.11577764248E+02  0.12833396534E+01  0.12086285977E+02  0.00000000000E+00 0.  1.
</event>
<event>
 7    1  0.2323330E-008  0.4614232E+02  0.7816164E-02  0.1320468E+00
        -11   -1    0    0    0    0  0.00000000000E+00  0.00000000000E+00  0.45593999997E+02  0.45594000000E+02  0.51100000000E-03 0.  1.
         11   -1    0    0    0    0 -0.00000000000E+00 -0.00000000000E+00 -0.45593999997E+02  0.45594000000E+02  0.51100000000E-03 0. -1.
    9900012    2    1    2    0    0  0.15072872662E+02 -0.40659415843E+02  0.12195636359E+02  0.46142321704E+02  0.10000035951E+02 0.  0.
         12    1    1    2    0    0 -0.15072872662E+02  0.40659415843E+02 -0.12195636359E+02  0.45045678296E+02  0.00000000000E+00 0. -1.
         11    1    3    3    0    0  0.85880063144E+00 -0.78829331443E+01  0.73842772675E+00  0.79638840555E+01  0.51100000000E-03 0. -1.
        -11    1    3    3    0    0  0.10903988779E+02 -0.19088696118E+02  0.43715564951E+01  0.22413964336E+02  0.51100000000E-03 0.  1.
        -12    1    3    3    0    0  0.33100832515E+01 -0.13687786581E+02  0.70856521373E+01  0.15764473312E+02  0.00000000000E+00 0.  1.
</event>
<event>
 7    1  0.2323330E-008  0.4614232E+02  0.7816164E-02  0.1320468E+00
        -11   -1    0    0    0    0  0.00000000000E+00  0.00000000000E+00  0.45593999997E+02  0.45594000000E+02  0.51100000000E-03 0. -1.
         11   -1    0    0    0    0 -0.00000000000E+00 -0.00000000000E+00 -0.45593999997E+02  0.45594000000E+02  0.51100000000E-03 0.  1.
    9900012    2    1    2    0    0 -0.16702964575E+02 -0.40548210004E+02 -0.10294032477E+02  0.46142318024E+02  0.10000002394E+02 0.  0.
         12    1    1    2    0    0  0.16702964575E+02  0.40548210004E+02  0.10294032477E+02  0.45045681976E+02  0.00000000000E+00 0. -1.
         11    1    3    3    0    0 -0.42788985788E+01 -0.12814053026E+02 -0.37206102488E+01  0.14012561111E+02  0.51100000000E-03 0. -1.
        -11    1    3    3    0    0 -0.64609145007E+01 -0.22103926458E+02 -0.31519831049E+01  0.23243536280E+02  0.51100000000E-03 0.  1.
         12    1    3    3    0    0 -0.59631514951E+01 -0.56302305194E+01 -0.34214391231E+01  0.88862206324E+01  0.00000000000E+00 0. -1.
</event>
<event>
 7    1  0.2323330E-008  0.4614232E+02  0.7816164E-02  0.1320468E+00
        -11   -1    0    0    0    0  0.00000000000E+00  0.00000000000E+00  0.45593999997E+02  0.45594000000E+02  0.51100000000E-03 0.  1.
         11   -1    0    0    0    0 -0.00000000000E+00 -0.00000000000E+00 -0.45593999997E+02  0.45594000000E+02  0.51100000000E-03 0. -1.
    9900012    2    1    2    0    0  0.39777277588E+01  0.44807375880E+02 -0.23643454803E+01  0.46142318954E+02  0.10000010876E+02 0.  0.
         12    1    1    2    0    0 -0.39777277588E+01 -0.44807375880E+02  0.23643454803E+01  0.45045681046E+02  0.00000000000E+00 0. -1.
         11    1    3    3    0    0 -0.93341290317E+00  0.79769930325E+00  0.53941692233E+00  0.13411020481E+01  0.51100000000E-03 0. -1.
        -11    1    3    3    0    0  0.93161961871E+00  0.11151337722E+02 -0.34122203486E+01  0.11698867299E+02  0.51100000000E-03 0.  1.
         12    1    3    3    0    0  0.39795210433E+01  0.32858338854E+02  0.50845794597E+00  0.33102349607E+02  0.00000000000E+00 0. -1.
</event>
<event>
 7    1  0.2323330E-008  0.4614232E+02  0.7816164E-02  0.1320468E+00
        -11   -1    0    0    0    0  0.00000000000E+00  0.00000000000E+00  0.45593999997E+02  0.45594000000E+02  0.51100000000E-03 0. -1.
         11   -1    0    0    0    0 -0.00000000000E+00 -0.00000000000E+00 -0.45593999997E+02  0.45594000000E+02  0.51100000000E-03 0.  1.
    9900012    2    1    2    0    0  0.38609514309E+02  0.69693051688E+01 -0.22132503373E+02  0.46142317462E+02  0.99999972740E+01 0.  0.
         12    1    1    2    0    0 -0.38609514309E+02 -0.69693051688E+01  0.22132503373E+02  0.45045682538E+02  0.00000000000E+00 0. -1.
         11    1    3    3    0    0  0.37908909325E+01 -0.21972841860E+01 -0.34431261257E+01  0.55726142550E+01  0.51100000000E-03 0. -1.
        -11    1    3    3    0    0  0.67282481674E+01  0.15701206171E+01 -0.35993684328E+01  0.77903822455E+01  0.51100000000E-03 0.  1.
         12    1    3    3    0    0  0.28090375209E+02  0.75964687376E+01 -0.15090008815E+02  0.32779320962E+02  0.00000000000E+00 0. -1.
</event>
<event>
 7    1  0.2323330E-008  0.4614232E+02  0.7816164E-02  0.1320468E+00
        -11   -1    0    0    0    0  0.00000000000E+00  0.00000000000E+00  0.45593999997E+02  0.45594000000E+02  0.51100000000E-03 0.  1.
         11   -1    0    0    0    0 -0.00000000000E+00 -0.00000000000E+00 -0.45593999997E+02  0.45594000000E+02  0.51100000000E-03 0. -1.
    9900012    2    1    2    0    0 -0.30356521873E+00 -0.31222492847E+02  0.32468096849E+02  0.46142317361E+02  0.99999963480E+01 0.  0.
         12    1    1    2    0    0  0.30356521873E+00  0.31222492847E+02 -0.32468096849E+02  0.45045682639E+02  0.00000000000E+00 0. -1.
         11    1    3    3    0    0  0.20798810160E+01 -0.11317802228E+02  0.90516065456E+01  0.14640701269E+02  0.51100000000E-03 0. -1.
        -11    1    3    3    0    0 -0.45954789746E+01 -0.14719955782E+02  0.16627556280E+02  0.22677547340E+02  0.51100000000E-03 0.  1.
        -12    1    3    3    0    0  0.22120327399E+01 -0.51847348370E+01  0.67889340232E+01  0.88240687522E+01  0.00000000000E+00 0.  1.
</event>
<event>
 7    1  0.2323330E-008  0.4614232E+02  0.7816164E-02  0.1320468E+00
        -11   -1    0    0    0    0  0.00000000000E+00  0.00000000000E+00  0.45593999997E+02  0.45594000000E+02  0.51100000000E-03 0.  1.
         11   -1    0    0    0    0 -0.00000000000E+00 -0.00000000000E+00 -0.45593999997E+02  0.45594000000E+02  0.51100000000E-03 0. -1.
    9900012    2    1    2    0    0  0.13214040218E+02 -0.11512120387E+02  0.41496670241E+02  0.46142318567E+02  0.10000007350E+02 0.  0.
         12    1    1    2    0    0 -0.13214040218E+02  0.11512120387E+02 -0.41496670241E+02  0.45045681433E+02  0.00000000000E+00 0. -1.
         11    1    3    3    0    0  0.12032128398E+02 -0.47631887075E+01  0.22836202909E+02  0.26247899802E+02  0.51100000000E-03 0. -1.
        -11    1    3    3    0    0  0.89459902827E+00 -0.38513564296E+01  0.97906158937E+01  0.10558854749E+02  0.51100000000E-03 0.  1.
         12    1    3    3    0    0  0.28731279131E+00 -0.28975752503E+01  0.88698514377E+01  0.93355640160E+01  0.00000000000E+00 0. -1.
</event>
<event>
 7    1  0.2323330E-008  0.4614232E+02  0.7816164E-02  0.1320468E+00
        -11   -1    0    0    0    0  0.00000000000E+00  0.00000000000E+00  0.45593999997E+02  0.45594000000E+02  0.51100000000E-03 0.  1.
         11   -1    0    0    0    0 -0.00000000000E+00 -0.00000000000E+00 -0.45593999997E+02  0.45594000000E+02  0.51100000000E-03 0. -1.
    9900012    2    1    2    0    0 -0.37609203606E+02  0.21410879701E+02  0.12499411212E+02  0.46142320450E+02  0.10000024522E+02 0.  0.
         12    1    1    2    0    0  0.37609203606E+02 -0.21410879701E+02 -0.12499411212E+02  0.45045679550E+02  0.00000000000E+00 0. -1.
         11    1    3    3    0    0 -0.44651051338E+00  0.10663131980E+01  0.14856554578E+01  0.18824366856E+01  0.51100000000E-03 0. -1.
        -11    1    3    3    0    0 -0.36616003545E+02  0.19069190685E+02  0.98352252482E+01  0.42439337942E+02  0.51100000000E-03 0.  1.
        -12    1    3    3    0    0 -0.54668954711E+00  0.12753758180E+01  0.11785305060E+01  0.18205458225E+01  0.00000000000E+00 0.  1.
</event>
<event>
 7    1  0.2323330E-008  0.4614232E+02  0.7816164E-02  0.1320468E+00
        -11   -1    0    0    0    0  0.00000000000E+00  0.00000000000E+00  0.45593999997E+02  0.45594000000E+02  0.51100000000E-03 0.  1.
         11   -1    0    0    0    0 -0.00000000000E+00 -0.00000000000E+00 -0.45593999997E+02  0.45594000000E+02  0.51100000000E-03 0. -1.
    9900012    2    1    2    0    0 -0.16902366396E+01 -0.36409677431E+02  0.26468697301E+02  0.46142318216E+02  0.10000004152E+02 0.  0.
         12    1    1    2    0    0  0.16902366396E+01  0.36409677431E+02 -0.26468697301E+02  0.45045681784E+02  0.00000000000E+00 0. -1.
         11    1    3    3    0    0 -0.22599117891E+01 -0.11345151860E+02  0.69741748090E+01  0.13507730621E+02  0.51100000000E-03 0. -1.
        -11    1    3    3    0    0  0.15019040489E+01 -0.30170529871E+01  0.29296196692E+00  0.33829205540E+01  0.51100000000E-03 0.  1.
        -12    1    3    3    0    0 -0.93222889941E+00 -0.22047472584E+02  0.19201560525E+02  0.29251667041E+02  0.00000000000E+00 0.  1.
</event>
<event>
 7    1  0.2323330E-008  0.4614232E+02  0.7816164E-02  0.1320468E+00
        -11   -1    0    0    0    0  0.00000000000E+00  0.00000000000E+00  0.45593999997E+02  0.45594000000E+02  0.51100000000E-03 0.  1.
         11   -1    0    0    0    0 -0.00000000000E+00 -0.00000000000E+00 -0.45593999997E+02  0.45594000000E+02  0.51100000000E-03 0. -1.
    9900012    2    1    2    0    0 -0.67402450110E+00 -0.45035462722E+02  0.68281918087E+00  0.46142318147E+02  0.10000003516E+02 0.  0.
         12    1    1    2    0    0  0.67402450110E+00  0.45035462722E+02 -0.68281918087E+00  0.45045681853E+02  0.00000000000E+00 0. -1.
         11    1    3    3    0    0 -0.16717505665E+01 -0.10439543032E+02  0.11002912065E+00  0.10573122308E+02  0.51100000000E-03 0.  1.
        -11    1    3    3    0    0  0.15837950245E+01 -0.29141695901E+02 -0.24825388272E+01  0.29290098087E+02  0.51100000000E-03 0. -1.
         12    1    3    3    0    0 -0.58606895909E+00 -0.54542237890E+01  0.30553288874E+01  0.62790977517E+01  0.00000000000E+00 0. -1.
</event>
<event>
 7    1  0.2323330E-008  0.4614232E+02  0.7816164E-02  0.1320468E+00
        -11   -1    0    0    0    0  0.00000000000E+00  0.00000000000E+00  0.45593999997E+02  0.45594000000E+02  0.51100000000E-03 0.  1.
         11   -1    0    0    0    0 -0.00000000000E+00 -0.00000000000E+00 -0.45593999997E+02  0.45594000000E+02  0.51100000000E-03 0. -1.
    9900012    2    1    2    0    0  0.30992162407E+01 -0.33789077339E+02  0.29627797348E+02  0.46142320247E+02  0.10000022669E+02 0.  0.
         12    1    1    2    0    0 -0.30992162407E+01  0.33789077339E+02 -0.29627797348E+02  0.45045679753E+02  0.00000000000E+00 0. -1.
         11    1    3    3    0    0  0.24951718249E+01 -0.70403794550E+01  0.48321486610E+01  0.88962062841E+01  0.51100000000E-03 0. -1.
        -11    1    3    3    0    0 -0.67381993528E+00 -0.10295976607E+02  0.14497006110E+02  0.17793941497E+02  0.51100000000E-03 0.  1.
        -12    1    3    3    0    0  0.12778643511E+01 -0.16452721277E+02  0.10298642577E+02  0.19452172466E+02  0.00000000000E+00 0.  1.
</event>
<event>
 7    1  0.2323330E-008  0.4614232E+02  0.7816164E-02  0.1320468E+00
        -11   -1    0    0    0    0  0.00000000000E+00  0.00000000000E+00  0.45593999997E+02  0.45594000000E+02  0.51100000000E-03 0.  1.
         11   -1    0    0    0    0 -0.00000000000E+00 -0.00000000000E+00 -0.45593999997E+02  0.45594000000E+02  0.51100000000E-03 0. -1.
    9900012    2    1    2    0    0 -0.13072442703E+01 -0.41473290589E+02  0.17531992294E+02  0.46142317924E+02  0.10000001489E+02 0.  0.
         12    1    1    2    0    0  0.13072442703E+01  0.41473290589E+02 -0.17531992294E+02  0.45045682076E+02  0.00000000000E+00 0. -1.
         11    1    3    3    0    0 -0.52880247552E+00 -0.20439778656E+02  0.76122406720E+01  0.21817662383E+02  0.51100000000E-03 0. -1.
        -11    1    3    3    0    0 -0.32235491896E+01 -0.79311551269E+01  0.19004836164E+01  0.87696253775E+01  0.51100000000E-03 0.  1.
         12    1    3    3    0    0  0.24451073948E+01 -0.13102356806E+02  0.80192680058E+01  0.15555030164E+02  0.00000000000E+00 0. -1.
</event>
<event>
 7    1  0.2323330E-008  0.4614232E+02  0.7816164E-02  0.1320468E+00
        -11   -1    0    0    0    0  0.00000000000E+00  0.00000000000E+00  0.45593999997E+02  0.45594000000E+02  0.51100000000E-03 0. -1.
         11   -1    0    0    0    0 -0.00000000000E+00 -0.00000000000E+00 -0.45593999997E+02  0.45594000000E+02  0.51100000000E-03 0.  1.
    9900012    2    1    2    0    0  0.33096623511E+02  0.13098190660E+02  0.27607321968E+02  0.46142319712E+02  0.10000017788E+02 0.  0.
         12    1    1    2    0    0 -0.33096623511E+02 -0.13098190660E+02 -0.27607321968E+02  0.45045680288E+02  0.00000000000E+00 0. -1.
         11    1    3    3    0    0  0.70963226556E+01  0.65370162269E+01  0.69648257911E+01  0.11899545157E+02  0.51100000000E-03 0. -1.
        -11    1    3    3    0    0  0.23897050973E+02  0.73432922839E+01  0.18180199878E+02  0.30911367725E+02  0.51100000000E-03 0.  1.
        -12    1    3    3    0    0  0.21032498826E+01 -0.78211785133E+00  0.24622962990E+01  0.33314068298E+01  0.00000000000E+00 0.  1.
</event>
<event>
 7    1  0.2323330E-008  0.4614232E+02  0.7816164E-02  0.1320468E+00
        -11   -1    0    0    0    0  0.00000000000E+00  0.00000000000E+00  0.45593999997E+02  0.45594000000E+02  0.51100000000E-03 0.  1.
         11   -1    0    0    0    0 -0.00000000000E+00 -0.00000000000E+00 -0.45593999997E+02  0.45594000000E+02  0.51100000000E-03 0. -1.
    9900012    2    1    2    0    0  0.77532591264E+01 -0.21526436527E+02  0.38802229000E+02  0.46142317943E+02  0.10000001657E+02 0.  0.
         12    1    1    2    0    0 -0.77532591264E+01  0.21526436527E+02 -0.38802229000E+02  0.45045682057E+02  0.00000000000E+00 0. -1.
         11    1    3    3    0    0  0.33023207679E+00 -0.53231803218E+01  0.12139542572E+02  0.13259479480E+02  0.51100000000E-03 0. -1.
        -11    1    3    3    0    0  0.88582326544E+01 -0.14247475045E+02  0.23979572991E+02  0.29265658236E+02  0.51100000000E-03 0.  1.
        -12    1    3    3    0    0 -0.14352056047E+01 -0.19557811599E+01  0.26831134371E+01  0.36171802263E+01  0.00000000000E+00 0.  1.
</event>
<event>
 7    1  0.2323330E-008  0.4614232E+02  0.7816164E-02  0.1320468E+00
        -11   -1    0    0    0    0  0.00000000000E+00  0.00000000000E+00  0.45593999997E+02  0.45594000000E+02  0.51100000000E-03 0. -1.
         11   -1    0    0    0    0 -0.00000000000E+00 -0.00000000000E+00 -0.45593999997E+02  0.45594000000E+02  0.51100000000E-03 0.  1.
    9900012    2    1    2    0    0 -0.38423414948E+02  0.14643846545E+02  0.18393271699E+02  0.46142317613E+02  0.99999986524E+01 0.  0.
         12    1    1    2    0    0  0.38423414948E+02 -0.14643846545E+02 -0.18393271699E+02  0.45045682387E+02  0.00000000000E+00 0. -1.
         11    1    3    3    0    0 -0.45108232236E+01  0.36060270695E+01 -0.32216222083E+00  0.57840077920E+01  0.51100000000E-03 0. -1.
        -11    1    3    3    0    0 -0.19717203410E+02  0.50769738442E+01  0.10664522690E+02  0.22984251526E+02  0.51100000000E-03 0.  1.
         12    1    3    3    0    0 -0.14195388314E+02  0.59608456314E+01  0.80509112299E+01  0.17374058296E+02  0.00000000000E+00 0. -1.
</event>
<event>
 7    1  0.2323330E-008  0.4614232E+02  0.7816164E-02  0.1320468E+00
        -11   -1    0    0    0    0  0.00000000000E+00  0.00000000000E+00  0.45593999997E+02  0.45594000000E+02  0.51100000000E-03 0.  1.
         11   -1    0    0    0    0 -0.00000000000E+00 -0.00000000000E+00 -0.45593999997E+02  0.45594000000E+02  0.51100000000E-03 0. -1.
    9900012    2    1    2    0    0 -0.26504314833E+02 -0.34837778568E+02  0.10628450054E+02  0.46142317955E+02  0.10000001772E+02 0.  0.
         12    1    1    2    0    0  0.26504314833E+02  0.34837778568E+02 -0.10628450054E+02  0.45045682045E+02  0.00000000000E+00 0. -1.
         11    1    3    3    0    0 -0.14938746279E+01 -0.88547494834E+00  0.20556767140E+01  0.26910099037E+01  0.51100000000E-03 0. -1.
        -11    1    3    3    0    0 -0.76576224475E+01 -0.64257435473E+01  0.30078870517E+01  0.10439192807E+02  0.51100000000E-03 0.  1.
        -12    1    3    3    0    0 -0.17352817758E+02 -0.27526560072E+02  0.55648862883E+01  0.33012115245E+02  0.00000000000E+00 0.  1.
</event>
<event>
 7    1  0.2323330E-008  0.4614232E+02  0.7816164E-02  0.1320468E+00
        -11   -1    0    0    0    0  0.00000000000E+00  0.00000000000E+00  0.45593999997E+02  0.45594000000E+02  0.51100000000E-03 0.  1.
         11   -1    0    0    0    0 -0.00000000000E+00 -0.00000000000E+00 -0.45593999997E+02  0.45594000000E+02  0.51100000000E-03 0. -1.
    9900012    2    1    2    0    0 -0.28082939355E+02 -0.32842485594E+02  0.12721360108E+02  0.46142319344E+02  0.10000014430E+02 0.  0.
         12    1    1    2    0    0  0.28082939355E+02  0.32842485594E+02 -0.12721360108E+02  0.45045680656E+02  0.00000000000E+00 0. -1.
         11    1    3    3    0    0 -0.33291846653E+01 -0.10511147044E+01 -0.71979829150E+00  0.35646069207E+01  0.51100000000E-03 0. -1.
        -11    1    3    3    0    0 -0.69669639949E+01 -0.10211057555E+02  0.53123921699E+01  0.13454582659E+02  0.51100000000E-03 0.  1.
        -12    1    3    3    0    0 -0.17786790695E+02 -0.21580313335E+02  0.81287662292E+01  0.29123129764E+02  0.00000000000E+00 0.  1.
</event>
<event>
 7    1  0.2323330E-008  0.4614232E+02  0.7816164E-02  0.1320468E+00
        -11   -1    0    0    0    0  0.00000000000E+00  0.00000000000E+00  0.45593999997E+02  0.45594000000E+02  0.51100000000E-03 0. -1.
         11   -1    0    0    0    0 -0.00000000000E+00 -0.00000000000E+00 -0.45593999997E+02  0.45594000000E+02  0.51100000000E-03 0.  1.
    9900012    2    1    2    0    0 -0.29863352779E+02  0.32061812958E+02 -0.10456280925E+02  0.46142317630E+02  0.99999988077E+01 0.  0.
         12    1    1    2    0    0  0.29863352779E+02 -0.32061812958E+02  0.10456280925E+02  0.45045682370E+02  0.00000000000E+00 0. -1.
         11    1    3    3    0    0 -0.14293207597E+02  0.15634686653E+02 -0.59446706993E+01  0.22001779931E+02  0.51100000000E-03 0. -1.
        -11    1    3    3    0    0 -0.14012719919E+02  0.10341534101E+02 -0.29004261566E+01  0.17655484112E+02  0.51100000000E-03 0.  1.
         12    1    3    3    0    0 -0.15574252633E+01  0.60855922041E+01 -0.16111840692E+01  0.64850535873E+01  0.00000000000E+00 0. -1.
</event>
<event>
 7    1  0.2323330E-008  0.4614232E+02  0.7816164E-02  0.1320468E+00
        -11   -1    0    0    0    0  0.00000000000E+00  0.00000000000E+00  0.45593999997E+02  0.45594000000E+02  0.51100000000E-03 0.  1.
         11   -1    0    0    0    0 -0.00000000000E+00 -0.00000000000E+00 -0.45593999997E+02  0.45594000000E+02  0.51100000000E-03 0. -1.
    9900012    2    1    2    0    0  0.23090501153E+02 -0.21989491107E+02  0.31818304820E+02  0.46142317807E+02  0.10000000417E+02 0.  0.
         12    1    1    2    0    0 -0.23090501153E+02  0.21989491107E+02 -0.31818304820E+02  0.45045682193E+02  0.00000000000E+00 0. -1.
         11    1    3    3    0    0  0.18925734411E+02 -0.16054819323E+02  0.22298700422E+02  0.33364242645E+02  0.51100000000E-03 0.  1.
        -11    1    3    3    0    0  0.35570800010E+01 -0.64576985257E+01  0.94320137814E+01  0.11971531757E+02  0.51100000000E-03 0. -1.
        -12    1    3    3    0    0  0.60768674075E+00  0.52302674170E+00  0.87590616426E-01  0.80654340460E+00  0.00000000000E+00 0.  1.
</event>
<event>
 7    1  0.2323330E-008  0.4614232E+02  0.7816164E-02  0.1320468E+00
        -11   -1    0    0    0    0  0.00000000000E+00  0.00000000000E+00  0.45593999997E+02  0.45594000000E+02  0.51100000000E-03 0.  1.
         11   -1    0    0    0    0 -0.00000000000E+00 -0.00000000000E+00 -0.45593999997E+02  0.45594000000E+02  0.51100000000E-03 0. -1.
    9900012    2    1    2    0    0 -0.83806195832E+01 -0.67772216327E+01  0.43737262209E+02  0.46142316264E+02  0.99999863513E+01 0.  0.
         12    1    1    2    0    0  0.83806195832E+01  0.67772216327E+01 -0.43737262209E+02  0.45045683736E+02  0.00000000000E+00 0. -1.
         11    1    3    3    0    0 -0.13645236756E+01 -0.71826985073E-01  0.31564383037E+01  0.34395038891E+01  0.51100000000E-03 0. -1.
        -11    1    3    3    0    0 -0.86337327822E+01 -0.32480451466E+01  0.32169262132E+02  0.33465692364E+02  0.51100000000E-03 0.  1.
         12    1    3    3    0    0  0.16176368746E+01 -0.34573495011E+01  0.84115617734E+01  0.92371200111E+01  0.00000000000E+00 0. -1.
</event>
<event>
 7    1  0.2323330E-008  0.4614232E+02  0.7816164E-02  0.1320468E+00
        -11   -1    0    0    0    0  0.00000000000E+00  0.00000000000E+00  0.45593999997E+02  0.45594000000E+02  0.51100000000E-03 0. -1.
         11   -1    0    0    0    0 -0.00000000000E+00 -0.00000000000E+00 -0.45593999997E+02  0.45594000000E+02  0.51100000000E-03 0.  1.
    9900012    2    1    2    0    0  0.36291955001E+02 -0.86110221272E+01 -0.25255846619E+02  0.46142317762E+02  0.10000000008E+02 0.  0.
         12    1    1    2    0    0 -0.36291955001E+02  0.86110221272E+01  0.25255846619E+02  0.45045682238E+02  0.00000000000E+00 0. -1.
         11    1    3    3    0    0  0.16969156554E+01  0.10050052989E+01 -0.29072097856E+01  0.35130367762E+01  0.51100000000E-03 0. -1.
        -11    1    3    3    0    0  0.26781597258E+02 -0.55707210799E+01 -0.15210167476E+02  0.31299138646E+02  0.51100000000E-03 0.  1.
        -12    1    3    3    0    0  0.78134420873E+01 -0.40453063463E+01 -0.71384693570E+01  0.11330142340E+02  0.00000000000E+00 0.  1.
</event>
<event>
 7    1  0.2323330E-008  0.4614232E+02  0.7816164E-02  0.1320468E+00
        -11   -1    0    0    0    0  0.00000000000E+00  0.00000000000E+00  0.45593999997E+02  0.45594000000E+02  0.51100000000E-03 0. -1.
         11   -1    0    0    0    0 -0.00000000000E+00 -0.00000000000E+00 -0.45593999997E+02  0.45594000000E+02  0.51100000000E-03 0.  1.
    9900012    2    1    2    0    0  0.34732928458E+02  0.98764768113E+01 -0.26929392502E+02  0.46142319919E+02  0.10000019675E+02 0.  0.
         12    1    1    2    0    0 -0.34732928458E+02 -0.98764768113E+01  0.26929392502E+02  0.45045680081E+02  0.00000000000E+00 0. -1.
         11    1    3    3    0    0  0.62038117538E+01  0.37660002840E+01 -0.70395008365E+01  0.10110618710E+02  0.51100000000E-03 0.  1.
        -11    1    3    3    0    0  0.14311228470E+02  0.63274178625E+01 -0.84620877238E+01  0.17789165411E+02  0.51100000000E-03 0. -1.
         12    1    3    3    0    0  0.14217888234E+02 -0.21694133518E+00 -0.11427803942E+02  0.18242535797E+02  0.00000000000E+00 0. -1.
</event>
<event>
 7    1  0.2323330E-008  0.4614232E+02  0.7816164E-02  0.1320468E+00
        -11   -1    0    0    0    0  0.00000000000E+00  0.00000000000E+00  0.45593999997E+02  0.45594000000E+02  0.51100000000E-03 0.  1.
         11   -1    0    0    0    0 -0.00000000000E+00 -0.00000000000E+00 -0.45593999997E+02  0.45594000000E+02  0.51100000000E-03 0. -1.
    9900012    2    1    2    0    0 -0.42912636136E+02 -0.13452328967E+02 -0.25795156439E+01  0.46142318789E+02  0.10000009373E+02 0.  0.
         12    1    1    2    0    0  0.42912636136E+02  0.13452328967E+02  0.25795156439E+01  0.45045681211E+02  0.00000000000E+00 0. -1.
         11    1    3    3    0    0 -0.74035680919E+01 -0.37651377377E+01 -0.80486196166E+00  0.83448718213E+01  0.51100000000E-03 0. -1.
        -11    1    3    3    0    0 -0.18756171518E+02 -0.11101863244E+01  0.77330033629E+00  0.18804905673E+02  0.51100000000E-03 0.  1.
        -12    1    3    3    0    0 -0.16752896526E+02 -0.85770049046E+01 -0.25479540185E+01  0.18992541295E+02  0.00000000000E+00 0.  1.
</event>
<event>
 7    1  0.2323330E-008  0.4614232E+02  0.7816164E-02  0.1320468E+00
        -11   -1    0    0    0    0  0.00000000000E+00  0.00000000000E+00  0.45593999997E+02  0.45594000000E+02  0.51100000000E-03 0. -1.
         11   -1    0    0    0    0 -0.00000000000E+00 -0.00000000000E+00 -0.45593999997E+02  0.45594000000E+02  0.51100000000E-03 0.  1.
    9900012    2    1    2    0    0  0.89399709930E+01  0.29129079070E+02 -0.33176601990E+02  0.46142320424E+02  0.10000024285E+02 0.  0.
         12    1    1    2    0    0 -0.89399709930E+01 -0.29129079070E+02  0.33176601990E+02  0.45045679576E+02  0.00000000000E+00 0. -1.
         11    1    3    3    0    0  0.47651484010E+01  0.10432568001E+02 -0.86139148679E+01  0.14343801588E+02  0.51100000000E-03 0. -1.
        -11    1    3    3    0    0  0.28089429961E+01  0.32205934381E+01 -0.29978284539E+01  0.52200918142E+01  0.51100000000E-03 0.  1.
         12    1    3    3    0    0  0.13658795958E+01  0.15475917631E+02 -0.21564858668E+02  0.26578427022E+02  0.00000000000E+00 0. -1.
</event>
<event>
 7    1  0.2323330E-008  0.4614232E+02  0.7816164E-02  0.1320468E+00
        -11   -1    0    0    0    0  0.00000000000E+00  0.00000000000E+00  0.45593999997E+02  0.45594000000E+02  0.51100000000E-03 0.  1.
         11   -1    0    0    0    0 -0.00000000000E+00 -0.00000000000E+00 -0.45593999997E+02  0.45594000000E+02  0.51100000000E-03 0. -1.
    9900012    2    1    2    0    0  0.42010815240E+02 -0.55988726362E+01  0.15259667561E+02  0.46142318454E+02  0.10000006314E+02 0.  0.
         12    1    1    2    0    0 -0.42010815240E+02  0.55988726362E+01 -0.15259667561E+02  0.45045681546E+02  0.00000000000E+00 0. -1.
         11    1    3    3    0    0  0.15473542089E+02  0.26097265892E+00  0.22769827386E+01  0.15642354751E+02  0.51100000000E-03 0. -1.
        -11    1    3    3    0    0  0.11869353946E+02 -0.28769376724E+01  0.32232591764E+01  0.12631220584E+02  0.51100000000E-03 0.  1.
        -12    1    3    3    0    0  0.14667919205E+02 -0.29829076227E+01  0.97594256458E+01  0.17868743118E+02  0.00000000000E+00 0.  1.
</event>
<event>
 7    1  0.2323330E-008  0.4614232E+02  0.7816164E-02  0.1320468E+00
        -11   -1    0    0    0    0  0.00000000000E+00  0.00000000000E+00  0.45593999997E+02  0.45594000000E+02  0.51100000000E-03 0. -1.
         11   -1    0    0    0    0 -0.00000000000E+00 -0.00000000000E+00 -0.45593999997E+02  0.45594000000E+02  0.51100000000E-03 0.  1.
    9900012    2    1    2    0    0 -0.43830012647E+02 -0.96707483687E+01  0.38105388259E+01  0.46142316646E+02  0.99999898356E+01 0.  0.
         12    1    1    2    0    0  0.43830012647E+02  0.96707483687E+01 -0.38105388259E+01  0.45045683354E+02  0.00000000000E+00 0. -1.
         11    1    3    3    0    0 -0.84302632302E+01 -0.29580799929E+01  0.27343258230E+01  0.93432389107E+01  0.51100000000E-03 0. -1.
        -11    1    3    3    0    0 -0.74077873681E+01 -0.19542926802E+01  0.32508187211E+01  0.83224032700E+01  0.51100000000E-03 0.  1.
        -12    1    3    3    0    0 -0.27991962049E+02 -0.47583756956E+01 -0.21746057182E+01  0.28476674466E+02  0.00000000000E+00 0.  1.
</event>
<event>
 7    1  0.2323330E-008  0.4614232E+02  0.7816164E-02  0.1320468E+00
        -11   -1    0    0    0    0  0.00000000000E+00  0.00000000000E+00  0.45593999997E+02  0.45594000000E+02  0.51100000000E-03 0.  1.
         11   -1    0    0    0    0 -0.00000000000E+00 -0.00000000000E+00 -0.45593999997E+02  0.45594000000E+02  0.51100000000E-03 0. -1.
    9900012    2    1    2    0    0  0.19599189574E+02  0.14361408727E+02  0.37930662766E+02  0.46142317960E+02  0.10000001811E+02 0.  0.
         12    1    1    2    0    0 -0.19599189574E+02 -0.14361408727E+02 -0.37930662766E+02  0.45045682040E+02  0.00000000000E+00 0. -1.
         11    1    3    3    0    0  0.82798238065E+01  0.33628710467E+01  0.70354305860E+01  0.11373727082E+02  0.51100000000E-03 0. -1.
        -11    1    3    3    0    0  0.53163737046E+01  0.36006827793E+01  0.12400093722E+02  0.13963920310E+02  0.51100000000E-03 0.  1.
         12    1    3    3    0    0  0.60029920630E+01  0.73978549013E+01  0.18495138458E+02  0.20804670568E+02  0.00000000000E+00 0. -1.
</event>
<event>
 7    1  0.2323330E-008  0.4614232E+02  0.7816164E-02  0.1320468E+00
        -11   -1    0    0    0    0  0.00000000000E+00  0.00000000000E+00  0.45593999997E+02  0.45594000000E+02  0.51100000000E-03 0.  1.
         11   -1    0    0    0    0 -0.00000000000E+00 -0.00000000000E+00 -0.45593999997E+02  0.45594000000E+02  0.51100000000E-03 0. -1.
    9900012    2    1    2    0    0  0.22945394254E+02  0.15156339266E+01  0.38734030644E+02  0.46142318814E+02  0.10000009597E+02 0.  0.
         12    1    1    2    0    0 -0.22945394254E+02 -0.15156339266E+01 -0.38734030644E+02  0.45045681186E+02  0.00000000000E+00 0. -1.
         11    1    3    3    0    0  0.51547611215E+00 -0.10745588019E+01 -0.36915181101E-01  0.11923737806E+01  0.51100000000E-03 0. -1.
        -11    1    3    3    0    0  0.66881565391E+01  0.27729142811E+00  0.13852760815E+02  0.15385295281E+02  0.51100000000E-03 0.  1.
         12    1    3    3    0    0  0.15741761602E+02  0.23129013005E+01  0.24918185010E+02  0.29564649752E+02  0.00000000000E+00 0. -1.
</event>
<event>
 7    1  0.2323330E-008  0.4614232E+02  0.7816164E-02  0.1320468E+00
        -11   -1    0    0    0    0  0.00000000000E+00  0.00000000000E+00  0.45593999997E+02  0.45594000000E+02  0.51100000000E-03 0.  1.
         11   -1    0    0    0    0 -0.00000000000E+00 -0.00000000000E+00 -0.45593999997E+02  0.45594000000E+02  0.51100000000E-03 0. -1.
    9900012    2    1    2    0    0 -0.13133190859E+02 -0.63399439755E+01  0.42619690301E+02  0.46142316599E+02  0.99999894018E+01 0.  0.
         12    1    1    2    0    0  0.13133190859E+02  0.63399439755E+01 -0.42619690301E+02  0.45045683401E+02  0.00000000000E+00 0. -1.
         11    1    3    3    0    0 -0.83127604883E+01 -0.40565097648E+01  0.17011449186E+02  0.19363539502E+02  0.51100000000E-03 0.  1.
        -11    1    3    3    0    0 -0.60967603871E+00  0.12202055086E+01  0.12469355446E+02  0.12543740744E+02  0.51100000000E-03 0. -1.
         12    1    3    3    0    0 -0.42107543325E+01 -0.35036397193E+01  0.13138885669E+02  0.14235036352E+02  0.00000000000E+00 0. -1.
</event>
<event>
 7    1  0.2323330E-008  0.4614232E+02  0.7816164E-02  0.1320468E+00
        -11   -1    0    0    0    0  0.00000000000E+00  0.00000000000E+00  0.45593999997E+02  0.45594000000E+02  0.51100000000E-03 0. -1.
         11   -1    0    0    0    0 -0.00000000000E+00 -0.00000000000E+00 -0.45593999997E+02  0.45594000000E+02  0.51100000000E-03 0.  1.
    9900012    2    1    2    0    0 -0.44908320126E+02 -0.69764622335E+00  0.34452228593E+01  0.46142317773E+02  0.10000000107E+02 0.  0.
         12    1    1    2    0    0  0.44908320126E+02  0.69764622335E+00 -0.34452228593E+01  0.45045682227E+02  0.00000000000E+00 0. -1.
         11    1    3    3    0    0 -0.18999270881E+02  0.19268853353E+01  0.40619222389E+01  0.19523944111E+02  0.51100000000E-03 0. -1.
        -11    1    3    3    0    0 -0.34836287333E+01 -0.34713130298E-01  0.17886154267E+01  0.39161230265E+01  0.51100000000E-03 0.  1.
        -12    1    3    3    0    0 -0.22425420511E+02 -0.25898184284E+01 -0.24053148063E+01  0.22702250636E+02  0.00000000000E+00 0.  1.
</event>
<event>
 7    1  0.2323330E-008  0.4614232E+02  0.7816164E-02  0.1320468E+00
        -11   -1    0    0    0    0  0.00000000000E+00  0.00000000000E+00  0.45593999997E+02  0.45594000000E+02  0.51100000000E-03 0. -1.
         11   -1    0    0    0    0 -0.00000000000E+00 -0.00000000000E+00 -0.45593999997E+02  0.45594000000E+02  0.51100000000E-03 0.  1.
    9900012    2    1    2    0    0  0.37863438821E+01  0.25004430053E+02 -0.37276742798E+02  0.46142317899E+02  0.10000001259E+02 0.  0.
         12    1    1    2    0    0 -0.37863438821E+01 -0.25004430053E+02  0.37276742798E+02  0.45045682101E+02  0.00000000000E+00 0. -1.
         11    1    3    3    0    0  0.32237785503E+01  0.11783736963E+02 -0.25306176641E+02  0.28100743431E+02  0.51100000000E-03 0. -1.
        -11    1    3    3    0    0  0.14588717226E+01  0.10397731264E+02 -0.98712608700E+01  0.14411207915E+02  0.51100000000E-03 0.  1.
         12    1    3    3    0    0 -0.89630639081E+00  0.28229618262E+01 -0.20993052877E+01  0.36303665530E+01  0.00000000000E+00 0. -1.
</event>
<event>
 7    1  0.2323330E-008  0.4614232E+02  0.7816164E-02  0.1320468E+00
        -11   -1    0    0    0    0  0.00000000000E+00  0.00000000000E+00  0.45593999997E+02  0.45594000000E+02  0.51100000000E-03 0. -1.
         11   -1    0    0    0    0 -0.00000000000E+00 -0.00000000000E+00 -0.45593999997E+02  0.45594000000E+02  0.51100000000E-03 0.  1.
    9900012    2    1    2    0    0 -0.18885262316E+02 -0.40301369362E+02  0.69469254624E+01  0.46142320089E+02  0.10000021229E+02 0.  0.
         12    1    1    2    0    0  0.18885262316E+02  0.40301369362E+02 -0.69469254624E+01  0.45045679911E+02  0.00000000000E+00 0. -1.
         11    1    3    3    0    0  0.27623645419E+00 -0.35965264196E+01 -0.10071968395E+01  0.37450974087E+01  0.51100000000E-03 0. -1.
        -11    1    3    3    0    0 -0.34350465543E+01 -0.87805900514E+01  0.34210474215E+01  0.10030048465E+02  0.51100000000E-03 0.  1.
         12    1    3    3    0    0 -0.15726452216E+02 -0.27924252891E+02  0.45330748804E+01  0.32367174216E+02  0.00000000000E+00 0. -1.
</event>
<event>
 7    1  0.2323330E-008  0.4614232E+02  0.7816164E-02  0.1320468E+00
        -11   -1    0    0    0    0  0.00000000000E+00  0.00000000000E+00  0.45593999997E+02  0.45594000000E+02  0.51100000000E-03 0.  1.
         11   -1    0    0    0    0 -0.00000000000E+00 -0.00000000000E+00 -0.45593999997E+02  0.45594000000E+02  0.51100000000E-03 0. -1.
    9900012    2    1    2    0    0  0.42674076639E+01 -0.24357674879E+02  0.37651114654E+02  0.46142317317E+02  0.99999959533E+01 0.  0.
         12    1    1    2    0    0 -0.42674076639E+01  0.24357674879E+02 -0.37651114654E+02  0.45045682683E+02  0.00000000000E+00 0. -1.
         11    1    3    3    0    0  0.54267285484E+01 -0.99924671068E+01  0.11870031043E+02  0.16437652473E+02  0.51100000000E-03 0. -1.
        -11    1    3    3    0    0  0.59976933298E+00 -0.37376701601E+01  0.89994458890E+01  0.97631925131E+01  0.51100000000E-03 0.  1.
         12    1    3    3    0    0 -0.17590902174E+01 -0.10627537612E+02  0.16781637722E+02  0.19941472331E+02  0.00000000000E+00 0. -1.
</event>
<event>
 7    1  0.2323330E-008  0.4614232E+02  0.7816164E-02  0.1320468E+00
        -11   -1    0    0    0    0  0.00000000000E+00  0.00000000000E+00  0.45593999997E+02  0.45594000000E+02  0.51100000000E-03 0.  1.
         11   -1    0    0    0    0 -0.00000000000E+00 -0.00000000000E+00 -0.45593999997E+02  0.45594000000E+02  0.51100000000E-03 0. -1.
    9900012    2    1    2    0    0  0.85807907202E+01  0.24944048456E+02  0.36514077956E+02  0.46142318611E+02  0.10000007753E+02 0.  0.
         12    1    1    2    0    0 -0.85807907202E+01 -0.24944048456E+02 -0.36514077956E+02  0.45045681389E+02  0.00000000000E+00 0. -1.
         11    1    3    3    0    0 -0.15485802235E+01  0.67471446874E+01  0.96790991353E+01  0.11899874893E+02  0.51100000000E-03 0. -1.
        -11    1    3    3    0    0  0.22027640755E+01  0.14408552536E+01  0.23217245750E+01  0.35097918311E+01  0.51100000000E-03 0.  1.
        -12    1    3    3    0    0  0.79266068682E+01  0.16756048515E+02  0.24513254246E+02  0.30732651887E+02  0.00000000000E+00 0.  1.
</event>
<event>
 7    1  0.2323330E-008  0.4614231E+02  0.7816164E-02  0.1320468E+00
        -11   -1    0    0    0    0  0.00000000000E+00  0.00000000000E+00  0.45593999997E+02  0.45594000000E+02  0.51100000000E-03 0.  1.
         11   -1    0    0    0    0 -0.00000000000E+00 -0.00000000000E+00 -0.45593999997E+02  0.45594000000E+02  0.51100000000E-03 0. -1.
    9900012    2    1    2    0    0  0.38270159078E+02 -0.70180679391E+01  0.22699241354E+02  0.46142313064E+02  0.99999571703E+01 0.  0.
         12    1    1    2    0    0 -0.38270159078E+02  0.70180679391E+01 -0.22699241354E+02  0.45045686936E+02  0.00000000000E+00 0. -1.
         11    1    3    3    0    0  0.11195741067E+01 -0.10005104346E+01  0.35595037038E+01  0.38632284671E+01  0.51100000000E-03 0. -1.
        -11    1    3    3    0    0  0.25530123977E+02 -0.31492214019E+01  0.13407301199E+02  0.29007939455E+02  0.51100000000E-03 0.  1.
         12    1    3    3    0    0  0.11620460994E+02 -0.28683361026E+01  0.57324364514E+01  0.13271145142E+02  0.00000000000E+00 0. -1.
</event>
<event>
 7    1  0.2323330E-008  0.4614232E+02  0.7816164E-02  0.1320468E+00
        -11   -1    0    0    0    0  0.00000000000E+00  0.00000000000E+00  0.45593999997E+02  0.45594000000E+02  0.51100000000E-03 0. -1.
         11   -1    0    0    0    0 -0.00000000000E+00 -0.00000000000E+00 -0.45593999997E+02  0.45594000000E+02  0.51100000000E-03 0.  1.
    9900012    2    1    2    0    0  0.34222687795E+02 -0.24938512332E+02  0.15362021458E+02  0.46142318071E+02  0.10000002822E+02 0.  0.
         12    1    1    2    0    0 -0.34222687795E+02  0.24938512332E+02 -0.15362021458E+02  0.45045681929E+02  0.00000000000E+00 0. -1.
         11    1    3    3    0    0  0.11610755252E+02 -0.75717454212E+01  0.88756562803E+01  0.16459594191E+02  0.51100000000E-03 0. -1.
        -11    1    3    3    0    0  0.12644570957E+02 -0.71862485516E+01  0.48997820521E+01  0.15347156327E+02  0.51100000000E-03 0.  1.
        -12    1    3    3    0    0  0.99673615857E+01 -0.10180518359E+02  0.15865831258E+01  0.14335567552E+02  0.00000000000E+00 0.  1.
</event>
<event>
 7    1  0.2323330E-008  0.4614232E+02  0.7816164E-02  0.1320468E+00
        -11   -1    0    0    0    0  0.00000000000E+00  0.00000000000E+00  0.45593999997E+02  0.45594000000E+02  0.51100000000E-03 0.  1.
         11   -1    0    0    0    0 -0.00000000000E+00 -0.00000000000E+00 -0.45593999997E+02  0.45594000000E+02  0.51100000000E-03 0. -1.
    9900012    2    1    2    0    0  0.26907623553E+02  0.31098805627E+02  0.18383622860E+02  0.46142317564E+02  0.99999982021E+01 0.  0.
         12    1    1    2    0    0 -0.26907623553E+02 -0.31098805627E+02 -0.18383622860E+02  0.45045682436E+02  0.00000000000E+00 0. -1.
         11    1    3    3    0    0  0.83899431161E-01  0.19227102189E+00 -0.32514968878E+00  0.38694940450E+00  0.51100000000E-03 0. -1.
        -11    1    3    3    0    0  0.12762430185E+01  0.67584254716E+00 -0.77588818110E+00  0.16393785778E+01  0.51100000000E-03 0.  1.
        -12    1    3    3    0    0  0.25547481103E+02  0.30230692058E+02  0.19484660730E+02  0.44115989582E+02  0.00000000000E+00 0.  1.
</event>
<event>
 7    1  0.2323330E-008  0.4614232E+02  0.7816164E-02  0.1320468E+00
        -11   -1    0    0    0    0  0.00000000000E+00  0.00000000000E+00  0.45593999997E+02  0.45594000000E+02  0.51100000000E-03 0. -1.
         11   -1    0    0    0    0 -0.00000000000E+00 -0.00000000000E+00 -0.45593999997E+02  0.45594000000E+02  0.51100000000E-03 0.  1.
    9900012    2    1    2    0    0 -0.31016132256E+01 -0.31613150807E+02 -0.31939038215E+02  0.46142317958E+02  0.10000001796E+02 0.  0.
         12    1    1    2    0    0  0.31016132256E+01  0.31613150807E+02  0.31939038215E+02  0.45045682042E+02  0.00000000000E+00 0. -1.
         11    1    3    3    0    0 -0.40813682015E+01 -0.59326361137E+01 -0.70561744800E+01  0.10081831987E+02  0.51100000000E-03 0. -1.
        -11    1    3    3    0    0 -0.17908598084E+01 -0.12699865160E+02 -0.12048823888E+02  0.17597383649E+02  0.51100000000E-03 0.  1.
        -12    1    3    3    0    0  0.27706147844E+01 -0.12980649533E+02 -0.12834039847E+02  0.18463102322E+02  0.00000000000E+00 0.  1.
</event>
<event>
 7    1  0.2323330E-008  0.4614232E+02  0.7816164E-02  0.1320468E+00
        -11   -1    0    0    0    0  0.00000000000E+00  0.00000000000E+00  0.45593999997E+02  0.45594000000E+02  0.51100000000E-03 0.  1.
         11   -1    0    0    0    0 -0.00000000000E+00 -0.00000000000E+00 -0.45593999997E+02  0.45594000000E+02  0.51100000000E-03 0. -1.
    9900012    2    1    2    0    0  0.63216514398E+01  0.34126478110E+01  0.44469135901E+02  0.46142317746E+02  0.99999998587E+01 0.  0.
         12    1    1    2    0    0 -0.63216514398E+01 -0.34126478110E+01 -0.44469135901E+02  0.45045682254E+02  0.00000000000E+00 0. -1.
         11    1    3    3    0    0  0.28963460855E+01  0.36047994330E+00  0.10110715415E+02  0.10523560847E+02  0.51100000000E-03 0. -1.
        -11    1    3    3    0    0 -0.13929204026E+01 -0.18723797866E+01  0.60621601970E+01  0.64958309575E+01  0.51100000000E-03 0.  1.
        -12    1    3    3    0    0  0.48182257569E+01  0.49245476543E+01  0.28296260288E+02  0.29122925941E+02  0.00000000000E+00 0.  1.
</event>
<event>
 7    1  0.2323330E-008  0.4614232E+02  0.7816164E-02  0.1320468E+00
        -11   -1    0    0    0    0  0.00000000000E+00  0.00000000000E+00  0.45593999997E+02  0.45594000000E+02  0.51100000000E-03 0. -1.
         11   -1    0    0    0    0 -0.00000000000E+00 -0.00000000000E+00 -0.45593999997E+02  0.45594000000E+02  0.51100000000E-03 0.  1.
    9900012    2    1    2    0    0 -0.25794210375E+02  0.29120782918E+02  0.22710172894E+02  0.46142320523E+02  0.10000025187E+02 0.  0.
         12    1    1    2    0    0  0.25794210375E+02 -0.29120782918E+02 -0.22710172894E+02  0.45045679477E+02  0.00000000000E+00 0. -1.
         11    1    3    3    0    0 -0.15362085158E+00  0.39280536997E+01  0.13372103368E+01  0.41522688954E+01  0.51100000000E-03 0. -1.
        -11    1    3    3    0    0 -0.21784570175E+02  0.21032779228E+02  0.16348393060E+02  0.34412428796E+02  0.51100000000E-03 0.  1.
        -12    1    3    3    0    0 -0.38560193488E+01  0.41599499904E+01  0.50245694974E+01  0.75776228314E+01  0.00000000000E+00 0.  1.
</event>
<event>
 7    1  0.2323330E-008  0.4614232E+02  0.7816164E-02  0.1320468E+00
        -11   -1    0    0    0    0  0.00000000000E+00  0.00000000000E+00  0.45593999997E+02  0.45594000000E+02  0.51100000000E-03 0.  1.
         11   -1    0    0    0    0 -0.00000000000E+00 -0.00000000000E+00 -0.45593999997E+02  0.45594000000E+02  0.51100000000E-03 0. -1.
    9900012    2    1    2    0    0 -0.16091758183E+02 -0.25970652683E+02  0.33101268811E+02  0.46142317864E+02  0.10000000937E+02 0.  0.
         12    1    1    2    0    0  0.16091758183E+02  0.25970652683E+02 -0.33101268811E+02  0.45045682136E+02  0.00000000000E+00 0. -1.
         11    1    3    3    0    0 -0.14601771292E+01 -0.82870921633E+01  0.11325976605E+02  0.14109775338E+02  0.51100000000E-03 0. -1.
        -11    1    3    3    0    0 -0.10171529140E+02 -0.85451918885E+01  0.11406432130E+02  0.17509626028E+02  0.51100000000E-03 0.  1.
         12    1    3    3    0    0 -0.44600519137E+01 -0.91383686315E+01  0.10368860076E+02  0.14522916498E+02  0.00000000000E+00 0. -1.
</event>
<event>
 7    1  0.2323330E-008  0.4614232E+02  0.7816164E-02  0.1320468E+00
        -11   -1    0    0    0    0  0.00000000000E+00  0.00000000000E+00  0.45593999997E+02  0.45594000000E+02  0.51100000000E-03 0.  1.
         11   -1    0    0    0    0 -0.00000000000E+00 -0.00000000000E+00 -0.45593999997E+02  0.45594000000E+02  0.51100000000E-03 0. -1.
    9900012    2    1    2    0    0  0.12591734389E-01  0.16604083396E+02  0.41873831375E+02  0.46142317654E+02  0.99999990221E+01 0.  0.
         12    1    1    2    0    0 -0.12591734389E-01 -0.16604083396E+02 -0.41873831375E+02  0.45045682346E+02  0.00000000000E+00 0. -1.
         11    1    3    3    0    0  0.25537141926E+00  0.83725216964E+01  0.20506519696E+02  0.22151335951E+02  0.51100000000E-03 0.  1.
        -11    1    3    3    0    0 -0.20953142732E+01  0.41148781835E+00  0.89404574490E+01  0.91919227470E+01  0.51100000000E-03 0. -1.
         12    1    3    3    0    0  0.18525345883E+01  0.78200738816E+01  0.12426854230E+02  0.14799058956E+02  0.00000000000E+00 0. -1.
</event>
<event>
 7    1  0.2323330E-008  0.4614232E+02  0.7816164E-02  0.1320468E+00
        -11   -1    0    0    0    0  0.00000000000E+00  0.00000000000E+00  0.45593999997E+02  0.45594000000E+02  0.51100000000E-03 0.  1.
         11   -1    0    0    0    0 -0.00000000000E+00 -0.00000000000E+00 -0.45593999997E+02  0.45594000000E+02  0.51100000000E-03 0. -1.
    9900012    2    1    2    0    0  0.62880251098E+01 -0.19072400808E+02  0.40321430138E+02  0.46142318068E+02  0.10000002798E+02 0.  0.
         12    1    1    2    0    0 -0.62880251098E+01  0.19072400808E+02 -0.40321430138E+02  0.45045681932E+02  0.00000000000E+00 0. -1.
         11    1    3    3    0    0 -0.17825586369E+01 -0.48123936899E+01  0.13996679557E+02  0.14907839790E+02  0.51100000000E-03 0. -1.
        -11    1    3    3    0    0  0.26604429512E+01 -0.32910297871E+01  0.98105740787E+01  0.10684390379E+02  0.51100000000E-03 0.  1.
         12    1    3    3    0    0  0.54101407955E+01 -0.10968977331E+02  0.16514176502E+02  0.20550087899E+02  0.00000000000E+00 0. -1.
</event>
<event>
 7    1  0.2323330E-008  0.4614232E+02  0.7816164E-02  0.1320468E+00
        -11   -1    0    0    0    0  0.00000000000E+00  0.00000000000E+00  0.45593999997E+02  0.45594000000E+02  0.51100000000E-03 0.  1.
         11   -1    0    0    0    0 -0.00000000000E+00 -0.00000000000E+00 -0.45593999997E+02  0.45594000000E+02  0.51100000000E-03 0. -1.
    9900012    2    1    2    0    0 -0.33296644465E+02 -0.86402092992E+01  0.29082532159E+02  0.46142318452E+02  0.10000006299E+02 0.  0.
         12    1    1    2    0    0  0.33296644465E+02  0.86402092992E+01 -0.29082532159E+02  0.45045681548E+02  0.00000000000E+00 0. -1.
         11    1    3    3    0    0 -0.14019848333E+02 -0.38570226225E+01  0.15766027698E+02  0.21447619924E+02  0.51100000000E-03 0. -1.
        -11    1    3    3    0    0 -0.46760805772E+01 -0.35982599983E+01  0.56141342703E+01  0.81444280613E+01  0.51100000000E-03 0.  1.
         12    1    3    3    0    0 -0.14600715555E+02 -0.11849266783E+01  0.77023701906E+01  0.16550270466E+02  0.00000000000E+00 0. -1.
</event>
<event>
 7    1  0.2323330E-008  0.4614232E+02  0.7816164E-02  0.1320468E+00
        -11   -1    0    0    0    0  0.00000000000E+00  0.00000000000E+00  0.45593999997E+02  0.45594000000E+02  0.51100000000E-03 0.  1.
         11   -1    0    0    0    0 -0.00000000000E+00 -0.00000000000E+00 -0.45593999997E+02  0.45594000000E+02  0.51100000000E-03 0. -1.
    9900012    2    1    2    0    0 -0.28176658124E+01 -0.15992306874E+02  0.42016905580E+02  0.46142317917E+02  0.10000001420E+02 0.  0.
         12    1    1    2    0    0  0.28176658124E+01  0.15992306874E+02 -0.42016905580E+02  0.45045682083E+02  0.00000000000E+00 0. -1.
         11    1    3    3    0    0  0.11117934772E+01 -0.12239959490E+02  0.33321354957E+02  0.35515706237E+02  0.51100000000E-03 0.  1.
        -11    1    3    3    0    0 -0.61665664008E-01  0.41378777804E+00  0.49084782975E+00  0.64494560426E+00  0.51100000000E-03 0. -1.
         12    1    3    3    0    0 -0.38677936255E+01 -0.41661351625E+01  0.82047027935E+01  0.99816660759E+01  0.00000000000E+00 0. -1.
</event>
<event>
 7    1  0.2323330E-008  0.4614232E+02  0.7816164E-02  0.1320468E+00
        -11   -1    0    0    0    0  0.00000000000E+00  0.00000000000E+00  0.45593999997E+02  0.45594000000E+02  0.51100000000E-03 0.  1.
         11   -1    0    0    0    0 -0.00000000000E+00 -0.00000000000E+00 -0.45593999997E+02  0.45594000000E+02  0.51100000000E-03 0. -1.
    9900012    2    1    2    0    0  0.38514273782E+02  0.14073435656E+02  0.18646785864E+02  0.46142317641E+02  0.99999989022E+01 0.  0.
         12    1    1    2    0    0 -0.38514273782E+02 -0.14073435656E+02 -0.18646785864E+02  0.45045682359E+02  0.00000000000E+00 0. -1.
         11    1    3    3    0    0  0.69461318875E+01  0.52900838018E+00  0.14489185203E+01  0.71153329651E+01  0.51100000000E-03 0. -1.
        -11    1    3    3    0    0  0.46086562189E+01 -0.46374428530E+00  0.27275963270E+01  0.53753653728E+01  0.51100000000E-03 0.  1.
        -12    1    3    3    0    0  0.26959485676E+02  0.14008171562E+02  0.14470271017E+02  0.33651619303E+02  0.00000000000E+00 0.  1.
</event>
<event>
 7    1  0.2323330E-008  0.4614232E+02  0.7816164E-02  0.1320468E+00
        -11   -1    0    0    0    0  0.00000000000E+00  0.00000000000E+00  0.45593999997E+02  0.45594000000E+02  0.51100000000E-03 0.  1.
         11   -1    0    0    0    0 -0.00000000000E+00 -0.00000000000E+00 -0.45593999997E+02  0.45594000000E+02  0.51100000000E-03 0. -1.
    9900012    2    1    2    0    0 -0.23661959130E+02  0.35700701976E+02 -0.13952950596E+02  0.46142320276E+02  0.10000022933E+02 0.  0.
         12    1    1    2    0    0  0.23661959130E+02 -0.35700701976E+02  0.13952950596E+02  0.45045679724E+02  0.00000000000E+00 0. -1.
         11    1    3    3    0    0 -0.53449671117E+01  0.11188098697E+02 -0.75519028162E+01  0.14518039202E+02  0.51100000000E-03 0. -1.
        -11    1    3    3    0    0 -0.44502291089E+01  0.49987382686E+01  0.49729901313E+00  0.67111273247E+01  0.51100000000E-03 0.  1.
        -12    1    3    3    0    0 -0.13866762910E+02  0.19513865011E+02 -0.68983467931E+01  0.24913153749E+02  0.00000000000E+00 0.  1.
</event>
<event>
 7    1  0.2323330E-008  0.4614232E+02  0.7816164E-02  0.1320468E+00
        -11   -1    0    0    0    0  0.00000000000E+00  0.00000000000E+00  0.45593999997E+02  0.45594000000E+02  0.51100000000E-03 0. -1.
         11   -1    0    0    0    0 -0.00000000000E+00 -0.00000000000E+00 -0.45593999997E+02  0.45594000000E+02  0.51100000000E-03 0.  1.
    9900012    2    1    2    0    0 -0.37907336493E+02  0.22511073477E+02 -0.92411549751E+01  0.46142317251E+02  0.99999953461E+01 0.  0.
         12    1    1    2    0    0  0.37907336493E+02 -0.22511073477E+02  0.92411549751E+01  0.45045682749E+02  0.00000000000E+00 0. -1.
         11    1    3    3    0    0 -0.11162815524E+02  0.79354255540E+01 -0.30063921123E+01  0.14022047744E+02  0.51100000000E-03 0. -1.
        -11    1    3    3    0    0 -0.15960632587E+02  0.12786580936E+02 -0.26812059898E+01  0.20625889324E+02  0.51100000000E-03 0.  1.
         12    1    3    3    0    0 -0.10783888383E+02  0.17890669872E+01 -0.35535568730E+01  0.11494380183E+02  0.00000000000E+00 0. -1.
</event>
<event>
 7    1  0.2323330E-008  0.4614232E+02  0.7816164E-02  0.1320468E+00
        -11   -1    0    0    0    0  0.00000000000E+00  0.00000000000E+00  0.45593999997E+02  0.45594000000E+02  0.51100000000E-03 0. -1.
         11   -1    0    0    0    0 -0.00000000000E+00 -0.00000000000E+00 -0.45593999997E+02  0.45594000000E+02  0.51100000000E-03 0.  1.
    9900012    2    1    2    0    0  0.18173104410E+01 -0.41443683584E+02 -0.17556534260E+02  0.46142318503E+02  0.10000006768E+02 0.  0.
         12    1    1    2    0    0 -0.18173104410E+01  0.41443683584E+02  0.17556534260E+02  0.45045681497E+02  0.00000000000E+00 0. -1.
         11    1    3    3    0    0  0.21031202083E+01 -0.56194703138E+01 -0.56444995689E+00  0.60266213780E+01  0.51100000000E-03 0. -1.
        -11    1    3    3    0    0 -0.27586512706E+01 -0.27894363300E+02 -0.13296613813E+02  0.31024274365E+02  0.51100000000E-03 0.  1.
         12    1    3    3    0    0  0.24728415032E+01 -0.79298499707E+01 -0.36954704899E+01  0.90914227599E+01  0.00000000000E+00 0. -1.
</event>
<event>
 7    1  0.2323330E-008  0.4614232E+02  0.7816164E-02  0.1320468E+00
        -11   -1    0    0    0    0  0.00000000000E+00  0.00000000000E+00  0.45593999997E+02  0.45594000000E+02  0.51100000000E-03 0.  1.
         11   -1    0    0    0    0 -0.00000000000E+00 -0.00000000000E+00 -0.45593999997E+02  0.45594000000E+02  0.51100000000E-03 0. -1.
    9900012    2    1    2    0    0 -0.44567233820E+02 -0.64698254729E+01  0.10082149266E+01  0.46142317973E+02  0.10000001928E+02 0.  0.
         12    1    1    2    0    0  0.44567233820E+02  0.64698254729E+01 -0.10082149266E+01  0.45045682027E+02  0.00000000000E+00 0. -1.
         11    1    3    3    0    0 -0.31554438560E+02 -0.42058139538E+01 -0.31290344987E+01  0.31986908587E+02  0.51100000000E-03 0. -1.
        -11    1    3    3    0    0  0.29067677935E-01 -0.51022628338E-01 -0.22022126786E+00  0.22791644619E+00  0.51100000000E-03 0.  1.
        -12    1    3    3    0    0 -0.13041862938E+02 -0.22129888908E+01  0.43574706931E+01  0.13927492939E+02  0.00000000000E+00 0.  1.
</event>
<event>
 7    1  0.2323330E-008  0.4614231E+02  0.7816164E-02  0.1320468E+00
        -11   -1    0    0    0    0  0.00000000000E+00  0.00000000000E+00  0.45593999997E+02  0.45594000000E+02  0.51100000000E-03 0. -1.
         11   -1    0    0    0    0 -0.00000000000E+00 -0.00000000000E+00 -0.45593999997E+02  0.45594000000E+02  0.51100000000E-03 0.  1.
    9900012    2    1    2    0    0 -0.58754651799E-01  0.17750348458E+02 -0.41400912000E+02  0.46142313892E+02  0.99999647203E+01 0.  0.
         12    1    1    2    0    0  0.58754651799E-01 -0.17750348458E+02  0.41400912000E+02  0.45045686108E+02  0.00000000000E+00 0. -1.
         11    1    3    3    0    0 -0.25287211536E+01  0.43148032091E+01 -0.72569079330E+01  0.88133234602E+01  0.51100000000E-03 0.  1.
        -11    1    3    3    0    0 -0.14736750540E+00  0.48597344499E+01 -0.19999433004E+02  0.20581935207E+02  0.51100000000E-03 0. -1.
        -12    1    3    3    0    0  0.26173340072E+01  0.85758107989E+01 -0.14144571063E+02  0.16747055225E+02  0.00000000000E+00 0.  1.
</event>
<event>
 7    1  0.2323330E-008  0.4614232E+02  0.7816164E-02  0.1320468E+00
        -11   -1    0    0    0    0  0.00000000000E+00  0.00000000000E+00  0.45593999997E+02  0.45594000000E+02  0.51100000000E-03 0.  1.
         11   -1    0    0    0    0 -0.00000000000E+00 -0.00000000000E+00 -0.45593999997E+02  0.45594000000E+02  0.51100000000E-03 0. -1.
    9900012    2    1    2    0    0 -0.10742720941E+02  0.88163075092E+01  0.42848339075E+02  0.46142317712E+02  0.99999995487E+01 0.  0.
         12    1    1    2    0    0  0.10742720941E+02 -0.88163075092E+01 -0.42848339075E+02  0.45045682288E+02  0.00000000000E+00 0. -1.
         11    1    3    3    0    0 -0.17699095340E+01 -0.42341201507E+00  0.44772425123E+01  0.48329657839E+01  0.51100000000E-03 0. -1.
        -11    1    3    3    0    0 -0.97197242050E+01  0.52090905790E+01  0.30544828098E+02  0.32474515963E+02  0.51100000000E-03 0.  1.
         12    1    3    3    0    0  0.74691279843E+00  0.40306289453E+01  0.78262684655E+01  0.88348359644E+01  0.00000000000E+00 0. -1.
</event>
<event>
 7    1  0.2323330E-008  0.4614232E+02  0.7816164E-02  0.1320468E+00
        -11   -1    0    0    0    0  0.00000000000E+00  0.00000000000E+00  0.45593999997E+02  0.45594000000E+02  0.51100000000E-03 0. -1.
         11   -1    0    0    0    0 -0.00000000000E+00 -0.00000000000E+00 -0.45593999997E+02  0.45594000000E+02  0.51100000000E-03 0.  1.
    9900012    2    1    2    0    0  0.18675329067E+02 -0.12318768300E+02 -0.39097232184E+02  0.46142317270E+02  0.99999955216E+01 0.  0.
         12    1    1    2    0    0 -0.18675329067E+02  0.12318768300E+02  0.39097232184E+02  0.45045682730E+02  0.00000000000E+00 0. -1.
         11    1    3    3    0    0  0.54072509712E+01 -0.51303739613E+01 -0.20712434297E+02  0.22012815241E+02  0.51100000000E-03 0. -1.
        -11    1    3    3    0    0  0.18280284060E+01 -0.18027205576E+01 -0.55368642316E+01  0.61031430462E+01  0.51100000000E-03 0.  1.
         12    1    3    3    0    0  0.11440049690E+02 -0.53856737812E+01 -0.12847933655E+02  0.18026358983E+02  0.00000000000E+00 0. -1.
</event>
<event>
 7    1  0.2323330E-008  0.4614232E+02  0.7816164E-02  0.1320468E+00
        -11   -1    0    0    0    0  0.00000000000E+00  0.00000000000E+00  0.45593999997E+02  0.45594000000E+02  0.51100000000E-03 0.  1.
         11   -1    0    0    0    0 -0.00000000000E+00 -0.00000000000E+00 -0.45593999997E+02  0.45594000000E+02  0.51100000000E-03 0. -1.
    9900012    2    1    2    0    0 -0.82356022617E+01  0.14265986712E+02  0.41925769766E+02  0.46142315502E+02  0.99999793979E+01 0.  0.
         12    1    1    2    0    0  0.82356022617E+01 -0.14265986712E+02 -0.41925769766E+02  0.45045684498E+02  0.00000000000E+00 0. -1.
         11    1    3    3    0    0  0.61184725398E+00  0.64737725500E+00  0.59290808414E+01  0.59956195891E+01  0.51100000000E-03 0. -1.
        -11    1    3    3    0    0 -0.76665126469E+01  0.12451949246E+02  0.24509524919E+02  0.28540204418E+02  0.51100000000E-03 0.  1.
        -12    1    3    3    0    0 -0.11809368688E+01  0.11666602103E+01  0.11487164006E+02  0.11606491495E+02  0.00000000000E+00 0.  1.
</event>
<event>
 7    1  0.2323330E-008  0.4614232E+02  0.7816164E-02  0.1320468E+00
        -11   -1    0    0    0    0  0.00000000000E+00  0.00000000000E+00  0.45593999997E+02  0.45594000000E+02  0.51100000000E-03 0.  1.
         11   -1    0    0    0    0 -0.00000000000E+00 -0.00000000000E+00 -0.45593999997E+02  0.45594000000E+02  0.51100000000E-03 0. -1.
    9900012    2    1    2    0    0 -0.17360399905E+02 -0.40723700131E+02  0.83252823667E+01  0.46142316925E+02  0.99999923714E+01 0.  0.
         12    1    1    2    0    0  0.17360399905E+02  0.40723700131E+02 -0.83252823667E+01  0.45045683075E+02  0.00000000000E+00 0. -1.
         11    1    3    3    0    0 -0.66303042001E+01 -0.73893541448E+01  0.11936476081E+01  0.99994141496E+01  0.51100000000E-03 0.  1.
        -11    1    3    3    0    0 -0.10502842482E+02 -0.25958663130E+02  0.48560989063E+01  0.28420830187E+02  0.51100000000E-03 0. -1.
         12    1    3    3    0    0 -0.22725322270E+00 -0.73756828568E+01  0.22755358523E+01  0.77220725875E+01  0.00000000000E+00 0. -1.
</event>
<event>
 7    1  0.2323330E-008  0.4614232E+02  0.7816164E-02  0.1320468E+00
        -11   -1    0    0    0    0  0.00000000000E+00  0.00000000000E+00  0.45593999997E+02  0.45594000000E+02  0.51100000000E-03 0. -1.
         11   -1    0    0    0    0 -0.00000000000E+00 -0.00000000000E+00 -0.45593999997E+02  0.45594000000E+02  0.51100000000E-03 0.  1.
    9900012    2    1    2    0    0 -0.40303992995E+02 -0.12113432910E+02  0.16061332888E+02  0.46142317383E+02  0.99999965556E+01 0.  0.
         12    1    1    2    0    0  0.40303992995E+02  0.12113432910E+02 -0.16061332888E+02  0.45045682617E+02  0.00000000000E+00 0. -1.
         11    1    3    3    0    0 -0.14530176627E+02  0.10801122170E+00  0.58145580786E+01  0.15650775864E+02  0.51100000000E-03 0. -1.
        -11    1    3    3    0    0 -0.16743369922E+02 -0.70569836128E+01  0.79777961503E+01  0.19844059205E+02  0.51100000000E-03 0.  1.
        -12    1    3    3    0    0 -0.90304464459E+01 -0.51644605192E+01  0.22689786593E+01  0.10647482314E+02  0.00000000000E+00 0.  1.
</event>
<event>
 7    1  0.2323330E-008  0.4614232E+02  0.7816164E-02  0.1320468E+00
        -11   -1    0    0    0    0  0.00000000000E+00  0.00000000000E+00  0.45593999997E+02  0.45594000000E+02  0.51100000000E-03 0. -1.
         11   -1    0    0    0    0 -0.00000000000E+00 -0.00000000000E+00 -0.45593999997E+02  0.45594000000E+02  0.51100000000E-03 0.  1.
    9900012    2    1    2    0    0  0.38867548010E+02 -0.72969541013E+01 -0.21568071283E+02  0.46142317340E+02  0.99999961556E+01 0.  0.
         12    1    1    2    0    0 -0.38867548010E+02  0.72969541013E+01  0.21568071283E+02  0.45045682660E+02  0.00000000000E+00 0. -1.
         11    1    3    3    0    0  0.19289164517E+02 -0.42984683297E+01 -0.87413991776E+01  0.21609274805E+02  0.51100000000E-03 0. -1.
        -11    1    3    3    0    0  0.18188986613E+02 -0.44799641588E+01 -0.10618378942E+02  0.21532749116E+02  0.51100000000E-03 0.  1.
         12    1    3    3    0    0  0.13893968798E+01  0.14814783871E+01 -0.22082931636E+01  0.30002934186E+01  0.00000000000E+00 0. -1.
</event>
<event>
 7    1  0.2323330E-008  0.4614232E+02  0.7816164E-02  0.1320468E+00
        -11   -1    0    0    0    0  0.00000000000E+00  0.00000000000E+00  0.45593999997E+02  0.45594000000E+02  0.51100000000E-03 0.  1.
         11   -1    0    0    0    0 -0.00000000000E+00 -0.00000000000E+00 -0.45593999997E+02  0.45594000000E+02  0.51100000000E-03 0. -1.
    9900012    2    1    2    0    0  0.36785241416E+02 -0.16293465382E+02  0.20260365551E+02  0.46142318604E+02  0.10000007685E+02 0.  0.
         12    1    1    2    0    0 -0.36785241416E+02  0.16293465382E+02 -0.20260365551E+02  0.45045681396E+02  0.00000000000E+00 0. -1.
         11    1    3    3    0    0  0.24938421995E+02 -0.77185539281E+01  0.95833401847E+01  0.27809016087E+02  0.51100000000E-03 0. -1.
        -11    1    3    3    0    0  0.98055484053E+00 -0.94839760930E+00  0.21790810145E+01  0.25708636972E+01  0.51100000000E-03 0.  1.
         12    1    3    3    0    0  0.10866264581E+02 -0.76265138446E+01  0.84979443514E+01  0.15762438820E+02  0.00000000000E+00 0. -1.
</event>
<event>
 7    1  0.2323330E-008  0.4614232E+02  0.7816164E-02  0.1320468E+00
        -11   -1    0    0    0    0  0.00000000000E+00  0.00000000000E+00  0.45593999997E+02  0.45594000000E+02  0.51100000000E-03 0.  1.
         11   -1    0    0    0    0 -0.00000000000E+00 -0.00000000000E+00 -0.45593999997E+02  0.45594000000E+02  0.51100000000E-03 0. -1.
    9900012    2    1    2    0    0 -0.25556184955E+02  0.28209987261E+02  0.24087166769E+02  0.46142316814E+02  0.99999913645E+01 0.  0.
         12    1    1    2    0    0  0.25556184955E+02 -0.28209987261E+02 -0.24087166769E+02  0.45045683186E+02  0.00000000000E+00 0. -1.
         11    1    3    3    0    0 -0.12606540146E+02  0.10694766959E+02  0.67832885228E+01  0.17869412363E+02  0.51100000000E-03 0. -1.
        -11    1    3    3    0    0 -0.13229007130E+02  0.16665710223E+02  0.15723854303E+02  0.26457364217E+02  0.51100000000E-03 0.  1.
         12    1    3    3    0    0  0.27936232132E+00  0.84951007887E+00  0.15800239432E+01  0.18155402341E+01  0.00000000000E+00 0. -1.
</event>
<event>
 7    1  0.2323330E-008  0.4614232E+02  0.7816164E-02  0.1320468E+00
        -11   -1    0    0    0    0  0.00000000000E+00  0.00000000000E+00  0.45593999997E+02  0.45594000000E+02  0.51100000000E-03 0.  1.
         11   -1    0    0    0    0 -0.00000000000E+00 -0.00000000000E+00 -0.45593999997E+02  0.45594000000E+02  0.51100000000E-03 0. -1.
    9900012    2    1    2    0    0 -0.34493947905E+02  0.27178597603E+02  0.10030199411E+02  0.46142317521E+02  0.99999978116E+01 0.  0.
         12    1    1    2    0    0  0.34493947905E+02 -0.27178597603E+02 -0.10030199411E+02  0.45045682479E+02  0.00000000000E+00 0. -1.
         11    1    3    3    0    0 -0.17163952394E+01  0.39399414209E+01 -0.50684832197E-01  0.42978739199E+01  0.51100000000E-03 0. -1.
        -11    1    3    3    0    0 -0.17572427632E+02  0.96748826083E+01  0.30531400439E+01  0.20290767131E+02  0.51100000000E-03 0.  1.
        -12    1    3    3    0    0 -0.15205125033E+02  0.13563773574E+02  0.70277441994E+01  0.21553676470E+02  0.00000000000E+00 0.  1.
</event>
<event>
 7    1  0.2323330E-008  0.4614232E+02  0.7816164E-02  0.1320468E+00
        -11   -1    0    0    0    0  0.00000000000E+00  0.00000000000E+00  0.45593999997E+02  0.45594000000E+02  0.51100000000E-03 0.  1.
         11   -1    0    0    0    0 -0.00000000000E+00 -0.00000000000E+00 -0.45593999997E+02  0.45594000000E+02  0.51100000000E-03 0. -1.
    9900012    2    1    2    0    0 -0.32753996990E+02 -0.84079292374E+01  0.29758961360E+02  0.46142319030E+02  0.10000011570E+02 0.  0.
         12    1    1    2    0    0  0.32753996990E+02  0.84079292374E+01 -0.29758961360E+02  0.45045680970E+02  0.00000000000E+00 0. -1.
         11    1    3    3    0    0 -0.42140108002E+01 -0.15511129409E+00  0.59365178781E+01  0.72817711661E+01  0.51100000000E-03 0. -1.
        -11    1    3    3    0    0 -0.17084389115E+01 -0.12428096098E+01 -0.26349184612E+00  0.21290296979E+01  0.51100000000E-03 0.  1.
        -12    1    3    3    0    0 -0.26831547278E+02 -0.70100083335E+01  0.24085935328E+02  0.36731518166E+02  0.00000000000E+00 0.  1.
</event>
<event>
 7    1  0.2323330E-008  0.4614232E+02  0.7816164E-02  0.1320468E+00
        -11   -1    0    0    0    0  0.00000000000E+00  0.00000000000E+00  0.45593999997E+02  0.45594000000E+02  0.51100000000E-03 0.  1.
         11   -1    0    0    0    0 -0.00000000000E+00 -0.00000000000E+00 -0.45593999997E+02  0.45594000000E+02  0.51100000000E-03 0. -1.
    9900012    2    1    2    0    0 -0.16969210763E+02  0.27262935344E+02  0.31589424502E+02  0.46142317656E+02  0.99999990372E+01 0.  0.
         12    1    1    2    0    0  0.16969210763E+02 -0.27262935344E+02 -0.31589424502E+02  0.45045682344E+02  0.00000000000E+00 0. -1.
         11    1    3    3    0    0 -0.12463299804E+01  0.48066066635E+01  0.55369716895E+01  0.74373961700E+01  0.51100000000E-03 0. -1.
        -11    1    3    3    0    0 -0.84106276862E+01  0.16527474780E+02  0.21017786578E+02  0.28029331665E+02  0.51100000000E-03 0.  1.
        -12    1    3    3    0    0 -0.73122530968E+01  0.59288539006E+01  0.50346662346E+01  0.10675589821E+02  0.00000000000E+00 0.  1.
</event>
<event>
 7    1  0.2323330E-008  0.4614232E+02  0.7816164E-02  0.1320468E+00
        -11   -1    0    0    0    0  0.00000000000E+00  0.00000000000E+00  0.45593999997E+02  0.45594000000E+02  0.51100000000E-03 0.  1.
         11   -1    0    0    0    0 -0.00000000000E+00 -0.00000000000E+00 -0.45593999997E+02  0.45594000000E+02  0.51100000000E-03 0. -1.
    9900012    2    1    2    0    0 -0.10075005230E+02 -0.39095477135E+02  0.19978773873E+02  0.46142317984E+02  0.10000002033E+02 0.  0.
         12    1    1    2    0    0  0.10075005230E+02  0.39095477135E+02 -0.19978773873E+02  0.45045682016E+02  0.00000000000E+00 0. -1.
         11    1    3    3    0    0 -0.14687970093E+01 -0.47021514605E+01 -0.44567075844E+00  0.49463335611E+01  0.51100000000E-03 0. -1.
        -11    1    3    3    0    0 -0.12078593754E+01 -0.54592163773E+01  0.53652131277E+01  0.77490309002E+01  0.51100000000E-03 0.  1.
        -12    1    3    3    0    0 -0.73983488454E+01 -0.28934109297E+02  0.15059231504E+02  0.33446953523E+02  0.00000000000E+00 0.  1.
</event>
<event>
 7    1  0.2323330E-008  0.4614232E+02  0.7816164E-02  0.1320468E+00
        -11   -1    0    0    0    0  0.00000000000E+00  0.00000000000E+00  0.45593999997E+02  0.45594000000E+02  0.51100000000E-03 0.  1.
         11   -1    0    0    0    0 -0.00000000000E+00 -0.00000000000E+00 -0.45593999997E+02  0.45594000000E+02  0.51100000000E-03 0. -1.
    9900012    2    1    2    0    0  0.15534792904E+02  0.18306682880E+02  0.38113635915E+02  0.46142315731E+02  0.99999814844E+01 0.  0.
         12    1    1    2    0    0 -0.15534792904E+02 -0.18306682880E+02 -0.38113635915E+02  0.45045684269E+02  0.00000000000E+00 0. -1.
         11    1    3    3    0    0  0.37986790630E-01  0.56967053153E+01  0.76049722737E+01  0.95020786142E+01  0.51100000000E-03 0.  1.
        -11    1    3    3    0    0  0.31639111546E+00 -0.13756001583E+00  0.12654262737E+01  0.13116135144E+01  0.51100000000E-03 0. -1.
         12    1    3    3    0    0  0.15180414998E+02  0.12747537581E+02  0.29243237367E+02  0.35328623602E+02  0.00000000000E+00 0. -1.
</event>
<event>
 7    1  0.2323330E-008  0.4614232E+02  0.7816164E-02  0.1320468E+00
        -11   -1    0    0    0    0  0.00000000000E+00  0.00000000000E+00  0.45593999997E+02  0.45594000000E+02  0.51100000000E-03 0.  1.
         11   -1    0    0    0    0 -0.00000000000E+00 -0.00000000000E+00 -0.45593999997E+02  0.45594000000E+02  0.51100000000E-03 0. -1.
    9900012    2    1    2    0    0 -0.43180541849E+01 -0.20921847275E+01  0.44789403219E+02  0.46142317969E+02  0.10000001897E+02 0.  0.
         12    1    1    2    0    0  0.43180541849E+01  0.20921847275E+01 -0.44789403219E+02  0.45045682031E+02  0.00000000000E+00 0. -1.
         11    1    3    3    0    0  0.18016861785E+01 -0.98540349298E+00  0.35271089632E+01  0.40813712192E+01  0.51100000000E-03 0. -1.
        -11    1    3    3    0    0 -0.28065893423E+00 -0.13478425273E+01  0.24430726320E+01  0.28042919002E+01  0.51100000000E-03 0.  1.
        -12    1    3    3    0    0 -0.58390814291E+01  0.24106129273E+00  0.38819221624E+02  0.39256654850E+02  0.00000000000E+00 0.  1.
</event>
<event>
 7    1  0.2323330E-008  0.4614232E+02  0.7816164E-02  0.1320468E+00
        -11   -1    0    0    0    0  0.00000000000E+00  0.00000000000E+00  0.45593999997E+02  0.45594000000E+02  0.51100000000E-03 0. -1.
         11   -1    0    0    0    0 -0.00000000000E+00 -0.00000000000E+00 -0.45593999997E+02  0.45594000000E+02  0.51100000000E-03 0.  1.
    9900012    2    1    2    0    0  0.22020243687E+02 -0.38574624878E+02  0.74980477984E+01  0.46142317218E+02  0.99999950476E+01 0.  0.
         12    1    1    2    0    0 -0.22020243687E+02  0.38574624878E+02 -0.74980477984E+01  0.45045682782E+02  0.00000000000E+00 0. -1.
         11    1    3    3    0    0  0.51572271605E+00 -0.66455261578E+01 -0.50307952603E+00  0.66844653567E+01  0.51100000000E-03 0. -1.
        -11    1    3    3    0    0  0.14133129714E+02 -0.18113942357E+02  0.44733388097E+01  0.23406644860E+02  0.51100000000E-03 0.  1.
        -12    1    3    3    0    0  0.73713912572E+01 -0.13815156363E+02  0.35277885147E+01  0.16051207002E+02  0.00000000000E+00 0.  1.
</event>
<event>
 7    1  0.2323330E-008  0.4614231E+02  0.7816164E-02  0.1320468E+00
        -11   -1    0    0    0    0  0.00000000000E+00  0.00000000000E+00  0.45593999997E+02  0.45594000000E+02  0.51100000000E-03 0.  1.
         11   -1    0    0    0    0 -0.00000000000E+00 -0.00000000000E+00 -0.45593999997E+02  0.45594000000E+02  0.51100000000E-03 0. -1.
    9900012    2    1    2    0    0  0.27684472912E+02 -0.13917136594E+02  0.32695527059E+02  0.46142309628E+02  0.99999258394E+01 0.  0.
         12    1    1    2    0    0 -0.27684472912E+02  0.13917136594E+02 -0.32695527059E+02  0.45045690372E+02  0.00000000000E+00 0. -1.
         11    1    3    3    0    0  0.43038004968E+00  0.68861168157E+00  0.15166574246E+01  0.17203671235E+01  0.51100000000E-03 0. -1.
        -11    1    3    3    0    0  0.95541952830E+01 -0.84880898525E+01  0.10664998937E+02  0.16645495470E+02  0.51100000000E-03 0.  1.
        -12    1    3    3    0    0  0.17699897580E+02 -0.61176584227E+01  0.20513870697E+02  0.27776447035E+02  0.00000000000E+00 0.  1.
</event>
<event>
 7    1  0.2323330E-008  0.4614232E+02  0.7816164E-02  0.1320468E+00
        -11   -1    0    0    0    0  0.00000000000E+00  0.00000000000E+00  0.45593999997E+02  0.45594000000E+02  0.51100000000E-03 0.  1.
         11   -1    0    0    0    0 -0.00000000000E+00 -0.00000000000E+00 -0.45593999997E+02  0.45594000000E+02  0.51100000000E-03 0. -1.
    9900012    2    1    2    0    0  0.21424578559E+02 -0.15619550704E+02  0.36416072868E+02  0.46142319921E+02  0.10000019694E+02 0.  0.
         12    1    1    2    0    0 -0.21424578559E+02  0.15619550704E+02 -0.36416072868E+02  0.45045680079E+02  0.00000000000E+00 0. -1.
         11    1    3    3    0    0  0.10929620695E+02 -0.85895642446E+01  0.22537635622E+02  0.26479845961E+02  0.51100000000E-03 0.  1.
        -11    1    3    3    0    0  0.41595430235E+01 -0.11990227861E+01  0.84203968438E+01  0.94679742857E+01  0.51100000000E-03 0. -1.
        -12    1    3    3    0    0  0.63354148407E+01 -0.58309636734E+01  0.54580404028E+01  0.10194499674E+02  0.00000000000E+00 0.  1.
</event>
<event>
 7    1  0.2323330E-008  0.4614232E+02  0.7816164E-02  0.1320468E+00
        -11   -1    0    0    0    0  0.00000000000E+00  0.00000000000E+00  0.45593999997E+02  0.45594000000E+02  0.51100000000E-03 0. -1.
         11   -1    0    0    0    0 -0.00000000000E+00 -0.00000000000E+00 -0.45593999997E+02  0.45594000000E+02  0.51100000000E-03 0.  1.
    9900012    2    1    2    0    0 -0.30152653500E+02  0.12509027098E+02 -0.31039575346E+02  0.46142317524E+02  0.99999978407E+01 0.  0.
         12    1    1    2    0    0  0.30152653500E+02 -0.12509027098E+02  0.31039575346E+02  0.45045682476E+02  0.00000000000E+00 0. -1.
         11    1    3    3    0    0 -0.55277352298E+01  0.29347187231E+01 -0.70490411536E+01  0.94264209645E+01  0.51100000000E-03 0. -1.
        -11    1    3    3    0    0 -0.21720092281E+02  0.55959567023E+01 -0.21953822983E+02  0.31385466126E+02  0.51100000000E-03 0.  1.
         12    1    3    3    0    0 -0.29048259885E+01  0.39783516727E+01 -0.20367112098E+01  0.53304304336E+01  0.00000000000E+00 0. -1.
</event>
<event>
 7    1  0.2323330E-008  0.4614232E+02  0.7816164E-02  0.1320468E+00
        -11   -1    0    0    0    0  0.00000000000E+00  0.00000000000E+00  0.45593999997E+02  0.45594000000E+02  0.51100000000E-03 0. -1.
         11   -1    0    0    0    0 -0.00000000000E+00 -0.00000000000E+00 -0.45593999997E+02  0.45594000000E+02  0.51100000000E-03 0.  1.
    9900012    2    1    2    0    0 -0.42190925901E+02 -0.89827859039E+01 -0.12974930302E+02  0.46142317772E+02  0.10000000102E+02 0.  0.
         12    1    1    2    0    0  0.42190925901E+02  0.89827859039E+01  0.12974930302E+02  0.45045682228E+02  0.00000000000E+00 0. -1.
         11    1    3    3    0    0 -0.27534994130E+02 -0.42707984963E+01 -0.54616343428E+01  0.28394454943E+02  0.51100000000E-03 0. -1.
        -11    1    3    3    0    0 -0.89088405254E+01 -0.78331250577E+00 -0.55077469230E+01  0.10503156403E+02  0.51100000000E-03 0.  1.
         12    1    3    3    0    0 -0.57470912455E+01 -0.39286749018E+01 -0.20055490366E+01  0.72447064266E+01  0.00000000000E+00 0. -1.
</event>
<event>
 7    1  0.2323330E-008  0.4614232E+02  0.7816164E-02  0.1320468E+00
        -11   -1    0    0    0    0  0.00000000000E+00  0.00000000000E+00  0.45593999997E+02  0.45594000000E+02  0.51100000000E-03 0. -1.
         11   -1    0    0    0    0 -0.00000000000E+00 -0.00000000000E+00 -0.45593999997E+02  0.45594000000E+02  0.51100000000E-03 0.  1.
    9900012    2    1    2    0    0 -0.41136099558E+02 -0.95259597110E+01 -0.15690471283E+02  0.46142317806E+02  0.10000000409E+02 0.  0.
         12    1    1    2    0    0  0.41136099558E+02  0.95259597110E+01  0.15690471283E+02  0.45045682194E+02  0.00000000000E+00 0. -1.
         11    1    3    3    0    0 -0.75225916266E+01 -0.19524150234E+01 -0.36910460683E+01  0.86037858263E+01  0.51100000000E-03 0. -1.
        -11    1    3    3    0    0 -0.26661575214E+02 -0.22263158219E+01 -0.82230919907E+01  0.27989557288E+02  0.51100000000E-03 0.  1.
         12    1    3    3    0    0 -0.69519327177E+01 -0.53472288658E+01 -0.37763332238E+01  0.95489746922E+01  0.00000000000E+00 0. -1.
</event>
<event>
 7    1  0.2323330E-008  0.4614232E+02  0.7816164E-02  0.1320468E+00
        -11   -1    0    0    0    0  0.00000000000E+00  0.00000000000E+00  0.45593999997E+02  0.45594000000E+02  0.51100000000E-03 0.  1.
         11   -1    0    0    0    0 -0.00000000000E+00 -0.00000000000E+00 -0.45593999997E+02  0.45594000000E+02  0.51100000000E-03 0. -1.
    9900012    2    1    2    0    0 -0.37408871313E+02  0.47903081104E+01  0.24632150615E+02  0.46142317092E+02  0.99999938987E+01 0.  0.
         12    1    1    2    0    0  0.37408871313E+02 -0.47903081104E+01 -0.24632150615E+02  0.45045682908E+02  0.00000000000E+00 0. -1.
         11    1    3    3    0    0 -0.17656330477E+02  0.12631817959E+01  0.75940613908E+01  0.19261656285E+02  0.51100000000E-03 0. -1.
        -11    1    3    3    0    0 -0.16335202934E+02  0.23682673785E+01  0.16299350059E+02  0.23197335146E+02  0.51100000000E-03 0.  1.
        -12    1    3    3    0    0 -0.34173379022E+01  0.11588589360E+01  0.73873916514E+00  0.36833256611E+01  0.00000000000E+00 0.  1.
</event>
<event>
 7    1  0.2323330E-008  0.4614232E+02  0.7816164E-02  0.1320468E+00
        -11   -1    0    0    0    0  0.00000000000E+00  0.00000000000E+00  0.45593999997E+02  0.45594000000E+02  0.51100000000E-03 0.  1.
         11   -1    0    0    0    0 -0.00000000000E+00 -0.00000000000E+00 -0.45593999997E+02  0.45594000000E+02  0.51100000000E-03 0. -1.
    9900012    2    1    2    0    0  0.19963008212E+02  0.37834506163E+02  0.14111765344E+02  0.46142317914E+02  0.10000001391E+02 0.  0.
         12    1    1    2    0    0 -0.19963008212E+02 -0.37834506163E+02 -0.14111765344E+02  0.45045682086E+02  0.00000000000E+00 0. -1.
         11    1    3    3    0    0  0.13704174551E+02  0.21127775632E+02  0.67349097371E+01  0.26068109112E+02  0.51100000000E-03 0. -1.
        -11    1    3    3    0    0  0.30139530952E+01  0.86140260394E+01  0.81602902266E+00  0.91624921007E+01  0.51100000000E-03 0.  1.
        -12    1    3    3    0    0  0.32448805662E+01  0.80927044923E+01  0.65608265843E+01  0.10911716701E+02  0.00000000000E+00 0.  1.
</event>
<event>
 7    1  0.2323330E-008  0.4614230E+02  0.7816164E-02  0.1320468E+00
        -11   -1    0    0    0    0  0.00000000000E+00  0.00000000000E+00  0.45593999997E+02  0.45594000000E+02  0.51100000000E-03 0. -1.
         11   -1    0    0    0    0 -0.00000000000E+00 -0.00000000000E+00 -0.45593999997E+02  0.45594000000E+02  0.51100000000E-03 0.  1.
    9900012    2    1    2    0    0 -0.32825546689E+02 -0.25365921846E+02 -0.17554718287E+02  0.46142304971E+02  0.99998833677E+01 0.  0.
         12    1    1    2    0    0  0.32825546689E+02  0.25365921846E+02  0.17554718287E+02  0.45045695029E+02  0.00000000000E+00 0. -1.
         11    1    3    3    0    0 -0.38494237324E+01 -0.46857573301E+00 -0.12731851230E+01  0.40814981205E+01  0.51100000000E-03 0. -1.
        -11    1    3    3    0    0 -0.20992103419E+01 -0.47319850334E+01 -0.19624111022E+01  0.55361921942E+01  0.51100000000E-03 0.  1.
        -12    1    3    3    0    0 -0.26876912614E+02 -0.20165361080E+02 -0.14319122062E+02  0.36524614656E+02  0.00000000000E+00 0.  1.
</event>
<event>
 7    1  0.2323330E-008  0.4614232E+02  0.7816164E-02  0.1320468E+00
        -11   -1    0    0    0    0  0.00000000000E+00  0.00000000000E+00  0.45593999997E+02  0.45594000000E+02  0.51100000000E-03 0.  1.
         11   -1    0    0    0    0 -0.00000000000E+00 -0.00000000000E+00 -0.45593999997E+02  0.45594000000E+02  0.51100000000E-03 0. -1.
    9900012    2    1    2    0    0  0.33652139053E+02 -0.87975086693E+01  0.28622558016E+02  0.46142318198E+02  0.10000003981E+02 0.  0.
         12    1    1    2    0    0 -0.33652139053E+02  0.87975086693E+01 -0.28622558016E+02  0.45045681802E+02  0.00000000000E+00 0. -1.
         11    1    3    3    0    0  0.12325538043E+02  0.16435055276E+00  0.14455881257E+02  0.18997852572E+02  0.51100000000E-03 0. -1.
        -11    1    3    3    0    0  0.70421722449E+01 -0.26790100030E+01  0.50705165171E+01  0.90818182395E+01  0.51100000000E-03 0.  1.
         12    1    3    3    0    0  0.14284428766E+02 -0.62828492191E+01  0.90961602419E+01  0.18062647387E+02  0.00000000000E+00 0. -1.
</event>
<event>
 7    1  0.2323330E-008  0.4614232E+02  0.7816164E-02  0.1320468E+00
        -11   -1    0    0    0    0  0.00000000000E+00  0.00000000000E+00  0.45593999997E+02  0.45594000000E+02  0.51100000000E-03 0.  1.
         11   -1    0    0    0    0 -0.00000000000E+00 -0.00000000000E+00 -0.45593999997E+02  0.45594000000E+02  0.51100000000E-03 0. -1.
    9900012    2    1    2    0    0  0.31727161679E+02 -0.21908289815E+02  0.23292224163E+02  0.46142315886E+02  0.99999829011E+01 0.  0.
         12    1    1    2    0    0 -0.31727161679E+02  0.21908289815E+02 -0.23292224163E+02  0.45045684114E+02  0.00000000000E+00 0. -1.
         11    1    3    3    0    0  0.97929414353E-01 -0.94213890295E+00 -0.36231610859E+00  0.10141445194E+01  0.51100000000E-03 0. -1.
        -11    1    3    3    0    0  0.25415469060E+02 -0.18635625676E+02  0.17356024627E+02  0.35978663163E+02  0.51100000000E-03 0.  1.
        -12    1    3    3    0    0  0.62137632045E+01 -0.23305252360E+01  0.62985156446E+01  0.91495082033E+01  0.00000000000E+00 0.  1.
</event>
<event>
 7    1  0.2323330E-008  0.4614232E+02  0.7816164E-02  0.1320468E+00
        -11   -1    0    0    0    0  0.00000000000E+00  0.00000000000E+00  0.45593999997E+02  0.45594000000E+02  0.51100000000E-03 0. -1.
         11   -1    0    0    0    0 -0.00000000000E+00 -0.00000000000E+00 -0.45593999997E+02  0.45594000000E+02  0.51100000000E-03 0.  1.
    9900012    2    1    2    0    0 -0.32886918131E+02 -0.18694039081E+01 -0.30725713701E+02  0.46142317215E+02  0.99999950241E+01 0.  0.
         12    1    1    2    0    0  0.32886918131E+02  0.18694039081E+01  0.30725713701E+02  0.45045682785E+02  0.00000000000E+00 0. -1.
         11    1    3    3    0    0 -0.13741320963E+02 -0.36290949575E+01 -0.14457747069E+02  0.20273645024E+02  0.51100000000E-03 0. -1.
        -11    1    3    3    0    0 -0.25502843318E+01  0.20256176413E+01 -0.43565438986E+01  0.54393521676E+01  0.51100000000E-03 0.  1.
        -12    1    3    3    0    0 -0.16595312836E+02 -0.26592659183E+00 -0.11911422733E+02  0.20429320023E+02  0.00000000000E+00 0.  1.
</event>
<event>
 7    1  0.2323330E-008  0.4614232E+02  0.7816164E-02  0.1320468E+00
        -11   -1    0    0    0    0  0.00000000000E+00  0.00000000000E+00  0.45593999997E+02  0.45594000000E+02  0.51100000000E-03 0. -1.
         11   -1    0    0    0    0 -0.00000000000E+00 -0.00000000000E+00 -0.45593999997E+02  0.45594000000E+02  0.51100000000E-03 0.  1.
    9900012    2    1    2    0    0  0.43392891690E+02  0.11777187368E+02 -0.27328490896E+01  0.46142315904E+02  0.99999830630E+01 0.  0.
         12    1    1    2    0    0 -0.43392891690E+02 -0.11777187368E+02  0.27328490896E+01  0.45045684096E+02  0.00000000000E+00 0. -1.
         11    1    3    3    0    0  0.12906441017E+02  0.19666071295E+01 -0.98887072765E+00  0.13092808289E+02  0.51100000000E-03 0. -1.
        -11    1    3    3    0    0  0.52130608043E+01 -0.98080813672E+00 -0.16944685386E+01  0.55685915131E+01  0.51100000000E-03 0.  1.
         12    1    3    3    0    0  0.25273389869E+02  0.10791388375E+02 -0.49509823436E-01  0.27480916101E+02  0.00000000000E+00 0. -1.
</event>
<event>
 7    1  0.2323330E-008  0.4614233E+02  0.7816164E-02  0.1320468E+00
        -11   -1    0    0    0    0  0.00000000000E+00  0.00000000000E+00  0.45593999997E+02  0.45594000000E+02  0.51100000000E-03 0.  1.
         11   -1    0    0    0    0 -0.00000000000E+00 -0.00000000000E+00 -0.45593999997E+02  0.45594000000E+02  0.51100000000E-03 0. -1.
    9900012    2    1    2    0    0 -0.33431269964E+02  0.28018669314E+02  0.11243535615E+02  0.46142326127E+02  0.10000076288E+02 0.  0.
         12    1    1    2    0    0  0.33431269964E+02 -0.28018669314E+02 -0.11243535615E+02  0.45045673873E+02  0.00000000000E+00 0. -1.
         11    1    3    3    0    0 -0.62309715396E+00  0.27680556989E+01  0.11480110323E+00  0.28396411692E+01  0.51100000000E-03 0. -1.
        -11    1    3    3    0    0 -0.77789288311E+01  0.29313231918E+01  0.22390743492E+01  0.86091720634E+01  0.51100000000E-03 0.  1.
         12    1    3    3    0    0 -0.25029243979E+02  0.22319290424E+02  0.88896601622E+01  0.34693512895E+02  0.00000000000E+00 0. -1.
</event>
<event>
 7    1  0.2323330E-008  0.4614232E+02  0.7816164E-02  0.1320468E+00
        -11   -1    0    0    0    0  0.00000000000E+00  0.00000000000E+00  0.45593999997E+02  0.45594000000E+02  0.51100000000E-03 0. -1.
         11   -1    0    0    0    0 -0.00000000000E+00 -0.00000000000E+00 -0.45593999997E+02  0.45594000000E+02  0.51100000000E-03 0.  1.
    9900012    2    1    2    0    0  0.35531595455E+01  0.32228709503E+02 -0.31269775374E+02  0.46142317511E+02  0.99999977148E+01 0.  0.
         12    1    1    2    0    0 -0.35531595455E+01 -0.32228709503E+02  0.31269775374E+02  0.45045682489E+02  0.00000000000E+00 0. -1.
         11    1    3    3    0    0 -0.10324798884E+01  0.48008121897E+01 -0.65096792053E+01  0.81541238657E+01  0.51100000000E-03 0. -1.
        -11    1    3    3    0    0  0.56012830415E+01  0.15088214025E+02 -0.11094458620E+02  0.19547777022E+02  0.51100000000E-03 0.  1.
        -12    1    3    3    0    0 -0.10156436076E+01  0.12339683288E+02 -0.13665637549E+02  0.18440416623E+02  0.00000000000E+00 0.  1.
</event>
<event>
 7    1  0.2323330E-008  0.4614232E+02  0.7816164E-02  0.1320468E+00
        -11   -1    0    0    0    0  0.00000000000E+00  0.00000000000E+00  0.45593999997E+02  0.45594000000E+02  0.51100000000E-03 0.  1.
         11   -1    0    0    0    0 -0.00000000000E+00 -0.00000000000E+00 -0.45593999997E+02  0.45594000000E+02  0.51100000000E-03 0. -1.
    9900012    2    1    2    0    0 -0.74958801284E+01 -0.34394775855E+02  0.28105597054E+02  0.46142318622E+02  0.10000007854E+02 0.  0.
         12    1    1    2    0    0  0.74958801284E+01  0.34394775855E+02 -0.28105597054E+02  0.45045681378E+02  0.00000000000E+00 0. -1.
         11    1    3    3    0    0 -0.18403401717E+01 -0.10695054773E+02  0.63762695619E+01  0.12586813033E+02  0.51100000000E-03 0. -1.
        -11    1    3    3    0    0  0.10514661063E+01 -0.12787083586E+00  0.10049352193E+01  0.14600777307E+01  0.51100000000E-03 0.  1.
         12    1    3    3    0    0 -0.67070060630E+01 -0.23571850246E+02  0.20724392272E+02  0.32095427858E+02  0.00000000000E+00 0. -1.
</event>
<event>
 7    1  0.2323330E-008  0.4614232E+02  0.7816164E-02  0.1320468E+00
        -11   -1    0    0    0    0  0.00000000000E+00  0.00000000000E+00  0.45593999997E+02  0.45594000000E+02  0.51100000000E-03 0. -1.
         11   -1    0    0    0    0 -0.00000000000E+00 -0.00000000000E+00 -0.45593999997E+02  0.45594000000E+02  0.51100000000E-03 0.  1.
    9900012    2    1    2    0    0  0.35148673840E+02 -0.27248321344E+01 -0.28040320394E+02  0.46142317069E+02  0.99999936896E+01 0.  0.
         12    1    1    2    0    0 -0.35148673840E+02  0.27248321344E+01  0.28040320394E+02  0.45045682931E+02  0.00000000000E+00 0. -1.
         11    1    3    3    0    0  0.28624212477E+02 -0.85107154597E+00 -0.19989418077E+02  0.34923440524E+02  0.51100000000E-03 0.  1.
        -11    1    3    3    0    0  0.28653977140E+01  0.11270855607E+01 -0.30531179173E+01  0.43361682622E+01  0.51100000000E-03 0. -1.
        -12    1    3    3    0    0  0.36590636498E+01 -0.30008461492E+01 -0.49977844001E+01  0.68827082834E+01  0.00000000000E+00 0.  1.
</event>
<event>
 7    1  0.2323330E-008  0.4614232E+02  0.7816164E-02  0.1320468E+00
        -11   -1    0    0    0    0  0.00000000000E+00  0.00000000000E+00  0.45593999997E+02  0.45594000000E+02  0.51100000000E-03 0. -1.
         11   -1    0    0    0    0 -0.00000000000E+00 -0.00000000000E+00 -0.45593999997E+02  0.45594000000E+02  0.51100000000E-03 0.  1.
    9900012    2    1    2    0    0 -0.12315757208E+02  0.43319896128E+02 -0.90674863444E+00  0.46142317973E+02  0.10000001935E+02 0.  0.
         12    1    1    2    0    0  0.12315757208E+02 -0.43319896128E+02  0.90674863444E+00  0.45045682027E+02  0.00000000000E+00 0. -1.
         11    1    3    3    0    0 -0.68766838550E+01  0.19697559938E+02  0.13617882003E+01  0.20907824270E+02  0.51100000000E-03 0. -1.
        -11    1    3    3    0    0 -0.18173006460E+01  0.58381949003E+01 -0.34968408476E+01  0.70437914156E+01  0.51100000000E-03 0.  1.
         12    1    3    3    0    0 -0.36217727066E+01  0.17784141290E+02  0.12283040129E+01  0.18190702287E+02  0.00000000000E+00 0. -1.
</event>
<event>
 7    1  0.2323330E-008  0.4614232E+02  0.7816164E-02  0.1320468E+00
        -11   -1    0    0    0    0  0.00000000000E+00  0.00000000000E+00  0.45593999997E+02  0.45594000000E+02  0.51100000000E-03 0.  1.
         11   -1    0    0    0    0 -0.00000000000E+00 -0.00000000000E+00 -0.45593999997E+02  0.45594000000E+02  0.51100000000E-03 0. -1.
    9900012    2    1    2    0    0  0.40847879785E+01  0.31688088649E+02  0.31753631531E+02  0.46142316849E+02  0.99999916859E+01 0.  0.
         12    1    1    2    0    0 -0.40847879785E+01 -0.31688088649E+02 -0.31753631531E+02  0.45045683151E+02  0.00000000000E+00 0. -1.
         11    1    3    3    0    0 -0.54670261751E+00  0.18921849709E+02  0.18563179979E+02  0.26512769213E+02  0.51100000000E-03 0. -1.
        -11    1    3    3    0    0  0.42478465838E+01  0.13041871237E+02  0.11578576011E+02  0.17949875450E+02  0.51100000000E-03 0.  1.
         12    1    3    3    0    0  0.38364401223E+00 -0.27563229708E+00  0.16118755414E+01  0.16796721860E+01  0.00000000000E+00 0. -1.
</event>
<event>
 7    1  0.2323330E-008  0.4614232E+02  0.7816164E-02  0.1320468E+00
        -11   -1    0    0    0    0  0.00000000000E+00  0.00000000000E+00  0.45593999997E+02  0.45594000000E+02  0.51100000000E-03 0.  1.
         11   -1    0    0    0    0 -0.00000000000E+00 -0.00000000000E+00 -0.45593999997E+02  0.45594000000E+02  0.51100000000E-03 0. -1.
    9900012    2    1    2    0    0 -0.54219010962E+01 -0.25242250167E+02  0.36912671356E+02  0.46142317503E+02  0.99999976495E+01 0.  0.
         12    1    1    2    0    0  0.54219010962E+01  0.25242250167E+02 -0.36912671356E+02  0.45045682497E+02  0.00000000000E+00 0. -1.
         11    1    3    3    0    0  0.68529210479E+00 -0.10625625861E+02  0.93501754138E+01  0.14170368052E+02  0.51100000000E-03 0. -1.
        -11    1    3    3    0    0 -0.31112766095E+01 -0.69898617513E+01  0.99932527982E+01  0.12585837723E+02  0.51100000000E-03 0.  1.
        -12    1    3    3    0    0 -0.29959165915E+01 -0.76267625542E+01  0.17569243144E+02  0.19386111728E+02  0.00000000000E+00 0.  1.
</event>
<event>
 7    1  0.2323330E-008  0.4614232E+02  0.7816164E-02  0.1320468E+00
        -11   -1    0    0    0    0  0.00000000000E+00  0.00000000000E+00  0.45593999997E+02  0.45594000000E+02  0.51100000000E-03 0.  1.
         11   -1    0    0    0    0 -0.00000000000E+00 -0.00000000000E+00 -0.45593999997E+02  0.45594000000E+02  0.51100000000E-03 0. -1.
    9900012    2    1    2    0    0  0.15600689163E+02  0.15710744859E+02  0.39228872822E+02  0.46142317974E+02  0.10000001938E+02 0.  0.
         12    1    1    2    0    0 -0.15600689163E+02 -0.15710744859E+02 -0.39228872822E+02  0.45045682026E+02  0.00000000000E+00 0. -1.
         11    1    3    3    0    0  0.51880817638E+01  0.58544654456E+01  0.15015865173E+02  0.16931248188E+02  0.51100000000E-03 0.  1.
        -11    1    3    3    0    0  0.47752619210E+01  0.69248690669E+01  0.72777381096E+01  0.11123057595E+02  0.51100000000E-03 0. -1.
         12    1    3    3    0    0  0.56373454780E+01  0.29314103460E+01  0.16935269539E+02  0.18088012191E+02  0.00000000000E+00 0. -1.
</event>
<event>
 7    1  0.2323330E-008  0.4614232E+02  0.7816164E-02  0.1320468E+00
        -11   -1    0    0    0    0  0.00000000000E+00  0.00000000000E+00  0.45593999997E+02  0.45594000000E+02  0.51100000000E-03 0. -1.
         11   -1    0    0    0    0 -0.00000000000E+00 -0.00000000000E+00 -0.45593999997E+02  0.45594000000E+02  0.51100000000E-03 0.  1.
    9900012    2    1    2    0    0 -0.42544530132E+02  0.27668374388E+01 -0.14540305266E+02  0.46142324172E+02  0.10000058457E+02 0.  0.
         12    1    1    2    0    0  0.42544530132E+02 -0.27668374388E+01  0.14540305266E+02  0.45045675828E+02  0.00000000000E+00 0. -1.
         11    1    3    3    0    0 -0.11454808307E+02 -0.23163322377E+01 -0.61354329739E+01  0.13199301740E+02  0.51100000000E-03 0. -1.
        -11    1    3    3    0    0 -0.19818018120E+02  0.25331943855E+01 -0.30670980712E+01  0.20213312614E+02  0.51100000000E-03 0.  1.
         12    1    3    3    0    0 -0.11271703705E+02  0.25499752910E+01 -0.53377742207E+01  0.12729709817E+02  0.00000000000E+00 0. -1.
</event>
<event>
 7    1  0.2323330E-008  0.4614232E+02  0.7816164E-02  0.1320468E+00
        -11   -1    0    0    0    0  0.00000000000E+00  0.00000000000E+00  0.45593999997E+02  0.45594000000E+02  0.51100000000E-03 0.  1.
         11   -1    0    0    0    0 -0.00000000000E+00 -0.00000000000E+00 -0.45593999997E+02  0.45594000000E+02  0.51100000000E-03 0. -1.
    9900012    2    1    2    0    0  0.15212331795E+02  0.36707011812E+02  0.21220123195E+02  0.46142318928E+02  0.10000010640E+02 0.  0.
         12    1    1    2    0    0 -0.15212331795E+02 -0.36707011812E+02 -0.21220123195E+02  0.45045681072E+02  0.00000000000E+00 0. -1.
         11    1    3    3    0    0  0.11697987283E+01  0.21619813982E+01  0.23974057799E+01  0.34336784016E+01  0.51100000000E-03 0. -1.
        -11    1    3    3    0    0  0.33223803342E+01  0.18180861351E+01  0.28878307689E+01  0.47626899008E+01  0.51100000000E-03 0.  1.
        -12    1    3    3    0    0  0.10720152732E+02  0.32726944279E+02  0.15934886646E+02  0.37945950626E+02  0.00000000000E+00 0.  1.
</event>
<event>
 7    1  0.2323330E-008  0.4614232E+02  0.7816164E-02  0.1320468E+00
        -11   -1    0    0    0    0  0.00000000000E+00  0.00000000000E+00  0.45593999997E+02  0.45594000000E+02  0.51100000000E-03 0.  1.
         11   -1    0    0    0    0 -0.00000000000E+00 -0.00000000000E+00 -0.45593999997E+02  0.45594000000E+02  0.51100000000E-03 0. -1.
    9900012    2    1    2    0    0  0.42386594078E+02  0.23147207670E+01  0.15070905848E+02  0.46142317711E+02  0.99999995469E+01 0.  0.
         12    1    1    2    0    0 -0.42386594078E+02 -0.23147207670E+01 -0.15070905848E+02  0.45045682289E+02  0.00000000000E+00 0. -1.
         11    1    3    3    0    0  0.44867684035E+01 -0.14505706452E+01  0.28460302279E+01  0.55077340370E+01  0.51100000000E-03 0. -1.
        -11    1    3    3    0    0  0.23220450818E+02 -0.33844240415E+00  0.97768978842E+01  0.25197055620E+02  0.51100000000E-03 0.  1.
        -12    1    3    3    0    0  0.14679374857E+02  0.41037338164E+01  0.24479777360E+01  0.15437528054E+02  0.00000000000E+00 0.  1.
</event>
<event>
 7    1  0.2323330E-008  0.4614232E+02  0.7816164E-02  0.1320468E+00
        -11   -1    0    0    0    0  0.00000000000E+00  0.00000000000E+00  0.45593999997E+02  0.45594000000E+02  0.51100000000E-03 0.  1.
         11   -1    0    0    0    0 -0.00000000000E+00 -0.00000000000E+00 -0.45593999997E+02  0.45594000000E+02  0.51100000000E-03 0. -1.
    9900012    2    1    2    0    0 -0.27582117697E+02 -0.22927683923E+02  0.27251818854E+02  0.46142317216E+02  0.99999950251E+01 0.  0.
         12    1    1    2    0    0  0.27582117697E+02  0.22927683923E+02 -0.27251818854E+02  0.45045682784E+02  0.00000000000E+00 0. -1.
         11    1    3    3    0    0 -0.22669233388E+02 -0.16004936613E+02  0.20670185692E+02  0.34602148996E+02  0.51100000000E-03 0. -1.
        -11    1    3    3    0    0 -0.54948583545E+01 -0.48642387016E+01  0.51836528990E+01  0.89846838632E+01  0.51100000000E-03 0.  1.
         12    1    3    3    0    0  0.58197404538E+00 -0.20585086083E+01  0.13979802631E+01  0.25554843564E+01  0.00000000000E+00 0. -1.
</event>
<event>
 7    1  0.2323330E-008  0.4614232E+02  0.7816164E-02  0.1320468E+00
        -11   -1    0    0    0    0  0.00000000000E+00  0.00000000000E+00  0.45593999997E+02  0.45594000000E+02  0.51100000000E-03 0.  1.
         11   -1    0    0    0    0 -0.00000000000E+00 -0.00000000000E+00 -0.45593999997E+02  0.45594000000E+02  0.51100000000E-03 0. -1.
    9900012    2    1    2    0    0  0.39100029699E+01 -0.25906716000E+02  0.36642426781E+02  0.46142317659E+02  0.99999990710E+01 0.  0.
         12    1    1    2    0    0 -0.39100029699E+01  0.25906716000E+02 -0.36642426781E+02  0.45045682341E+02  0.00000000000E+00 0. -1.
         11    1    3    3    0    0  0.45803713953E+00 -0.10492896397E+02  0.12102656541E+02  0.16024511488E+02  0.51100000000E-03 0.  1.
        -11    1    3    3    0    0  0.44129824818E+01 -0.15747992674E+02  0.23717559523E+02  0.28809656673E+02  0.51100000000E-03 0. -1.
         12    1    3    3    0    0 -0.96101665141E+00  0.33417307077E+00  0.82221071686E+00  0.13081494977E+01  0.00000000000E+00 0. -1.
</event>
<event>
 7    1  0.2323330E-008  0.4614232E+02  0.7816164E-02  0.1320468E+00
        -11   -1    0    0    0    0  0.00000000000E+00  0.00000000000E+00  0.45593999997E+02  0.45594000000E+02  0.51100000000E-03 0.  1.
         11   -1    0    0    0    0 -0.00000000000E+00 -0.00000000000E+00 -0.45593999997E+02  0.45594000000E+02  0.51100000000E-03 0. -1.
    9900012    2    1    2    0    0  0.27533310476E+02  0.18726502048E+01  0.35602295952E+02  0.46142317836E+02  0.10000000687E+02 0.  0.
         12    1    1    2    0    0 -0.27533310476E+02 -0.18726502048E+01 -0.35602295952E+02  0.45045682164E+02  0.00000000000E+00 0. -1.
         11    1    3    3    0    0  0.34966839397E+01 -0.14054931601E+00  0.11514187408E+01  0.36840627115E+01  0.51100000000E-03 0. -1.
        -11    1    3    3    0    0  0.30621857911E+01 -0.16045721139E+01  0.60348650150E+01  0.69549428106E+01  0.51100000000E-03 0.  1.
         12    1    3    3    0    0  0.20974440745E+02  0.36177716348E+01  0.28416012196E+02  0.35503312314E+02  0.00000000000E+00 0. -1.
</event>
<event>
 7    1  0.2323330E-008  0.4614232E+02  0.7816164E-02  0.1320468E+00
        -11   -1    0    0    0    0  0.00000000000E+00  0.00000000000E+00  0.45593999997E+02  0.45594000000E+02  0.51100000000E-03 0. -1.
         11   -1    0    0    0    0 -0.00000000000E+00 -0.00000000000E+00 -0.45593999997E+02  0.45594000000E+02  0.51100000000E-03 0.  1.
    9900012    2    1    2    0    0 -0.18599351474E+02 -0.30380172079E+02 -0.27572136371E+02  0.46142318354E+02  0.10000005410E+02 0.  0.
         12    1    1    2    0    0  0.18599351474E+02  0.30380172079E+02  0.27572136371E+02  0.45045681646E+02  0.00000000000E+00 0. -1.
         11    1    3    3    0    0 -0.67346001039E+01 -0.50293021306E+01 -0.56960376310E+01  0.10153500058E+02  0.51100000000E-03 0. -1.
        -11    1    3    3    0    0 -0.99543831487E+00 -0.79883992874E+01 -0.70692754961E+01  0.10713546421E+02  0.51100000000E-03 0.  1.
         12    1    3    3    0    0 -0.10869313056E+02 -0.17362470661E+02 -0.14806823244E+02  0.25275271875E+02  0.00000000000E+00 0. -1.
</event>
<event>
 7    1  0.2323330E-008  0.4614232E+02  0.7816164E-02  0.1320468E+00
        -11   -1    0    0    0    0  0.00000000000E+00  0.00000000000E+00  0.45593999997E+02  0.45594000000E+02  0.51100000000E-03 0.  1.
         11   -1    0    0    0    0 -0.00000000000E+00 -0.00000000000E+00 -0.45593999997E+02  0.45594000000E+02  0.51100000000E-03 0. -1.
    9900012    2    1    2    0    0  0.35677565844E+02  0.12609712615E+01  0.27470617477E+02  0.46142316770E+02  0.99999909633E+01 0.  0.
         12    1    1    2    0    0 -0.35677565844E+02 -0.12609712615E+01 -0.27470617477E+02  0.45045683230E+02  0.00000000000E+00 0. -1.
         11    1    3    3    0    0  0.47638253234E+01  0.18625587067E+01  0.36586947069E+01  0.62888157762E+01  0.51100000000E-03 0. -1.
        -11    1    3    3    0    0  0.30681906115E+02  0.78512252838E-01  0.21586164569E+02  0.37514637517E+02  0.51100000000E-03 0.  1.
         12    1    3    3    0    0  0.23183440587E+00 -0.68009969804E+00  0.22257582012E+01  0.23388634764E+01  0.00000000000E+00 0. -1.
</event>
<event>
 7    1  0.2323330E-008  0.4614232E+02  0.7816164E-02  0.1320468E+00
        -11   -1    0    0    0    0  0.00000000000E+00  0.00000000000E+00  0.45593999997E+02  0.45594000000E+02  0.51100000000E-03 0. -1.
         11   -1    0    0    0    0 -0.00000000000E+00 -0.00000000000E+00 -0.45593999997E+02  0.45594000000E+02  0.51100000000E-03 0.  1.
    9900012    2    1    2    0    0 -0.41005037203E+02  0.46410181170E+01 -0.18059937283E+02  0.46142318078E+02  0.10000002887E+02 0.  0.
         12    1    1    2    0    0  0.41005037203E+02 -0.46410181170E+01  0.18059937283E+02  0.45045681922E+02  0.00000000000E+00 0. -1.
         11    1    3    3    0    0 -0.19854826307E+02  0.14830283593E+01 -0.96412022460E+01  0.22121624755E+02  0.51100000000E-03 0. -1.
        -11    1    3    3    0    0 -0.14890940804E+01  0.39738972712E+00  0.12058204131E+01  0.19568655818E+01  0.51100000000E-03 0.  1.
        -12    1    3    3    0    0 -0.19661116816E+02  0.27606000305E+01 -0.96245554496E+01  0.22063827741E+02  0.00000000000E+00 0.  1.
</event>
<event>
 7    1  0.2323330E-008  0.4614232E+02  0.7816164E-02  0.1320468E+00
        -11   -1    0    0    0    0  0.00000000000E+00  0.00000000000E+00  0.45593999997E+02  0.45594000000E+02  0.51100000000E-03 0. -1.
         11   -1    0    0    0    0 -0.00000000000E+00 -0.00000000000E+00 -0.45593999997E+02  0.45594000000E+02  0.51100000000E-03 0.  1.
    9900012    2    1    2    0    0 -0.30142665778E+02  0.15969250527E+02 -0.29419656819E+02  0.46142317966E+02  0.10000001869E+02 0.  0.
         12    1    1    2    0    0  0.30142665778E+02 -0.15969250527E+02  0.29419656819E+02  0.45045682034E+02  0.00000000000E+00 0. -1.
         11    1    3    3    0    0 -0.51951171772E+01 -0.34444434365E+00 -0.39420236559E+01  0.65305003756E+01  0.51100000000E-03 0. -1.
        -11    1    3    3    0    0 -0.10825723336E+02  0.62542863403E+01 -0.14242599457E+02  0.18951623226E+02  0.51100000000E-03 0.  1.
         12    1    3    3    0    0 -0.14121825265E+02  0.10059408530E+02 -0.11235033706E+02  0.20660194364E+02  0.00000000000E+00 0. -1.
</event>
<event>
 7    1  0.2323330E-008  0.4614232E+02  0.7816164E-02  0.1320468E+00
        -11   -1    0    0    0    0  0.00000000000E+00  0.00000000000E+00  0.45593999997E+02  0.45594000000E+02  0.51100000000E-03 0.  1.
         11   -1    0    0    0    0 -0.00000000000E+00 -0.00000000000E+00 -0.45593999997E+02  0.45594000000E+02  0.51100000000E-03 0. -1.
    9900012    2    1    2    0    0  0.43504469083E+02 -0.10287990687E+02 -0.55346069344E+01  0.46142318115E+02  0.10000003224E+02 0.  0.
         12    1    1    2    0    0 -0.43504469083E+02  0.10287990687E+02  0.55346069344E+01  0.45045681885E+02  0.00000000000E+00 0. -1.
         11    1    3    3    0    0  0.85769960527E+01 -0.44883009818E+00 -0.20560915551E+01  0.88314111268E+01  0.51100000000E-03 0. -1.
        -11    1    3    3    0    0  0.32211690574E+02 -0.67060871409E+01 -0.22169605926E+01  0.32976954513E+02  0.51100000000E-03 0.  1.
         12    1    3    3    0    0  0.27157824563E+01 -0.31330734475E+01 -0.12615547867E+01  0.43339524752E+01  0.00000000000E+00 0. -1.
</event>
<event>
 7    1  0.2323330E-008  0.4614232E+02  0.7816164E-02  0.1320468E+00
        -11   -1    0    0    0    0  0.00000000000E+00  0.00000000000E+00  0.45593999997E+02  0.45594000000E+02  0.51100000000E-03 0. -1.
         11   -1    0    0    0    0 -0.00000000000E+00 -0.00000000000E+00 -0.45593999997E+02  0.45594000000E+02  0.51100000000E-03 0.  1.
    9900012    2    1    2    0    0  0.39112070958E+02 -0.22146631262E+02 -0.29809491224E+01  0.46142318425E+02  0.10000006053E+02 0.  0.
         12    1    1    2    0    0 -0.39112070958E+02  0.22146631262E+02  0.29809491224E+01  0.45045681575E+02  0.00000000000E+00 0. -1.
         11    1    3    3    0    0  0.86556804011E+01 -0.48714948314E+01 -0.37329880301E+01  0.10610724056E+02  0.51100000000E-03 0. -1.
        -11    1    3    3    0    0  0.17685558534E+02 -0.69216093691E+01  0.16730446637E+01  0.19065328102E+02  0.51100000000E-03 0.  1.
        -12    1    3    3    0    0  0.12770832023E+02 -0.10353527062E+02 -0.92100575601E+00  0.16466266267E+02  0.00000000000E+00 0.  1.
</event>
<event>
 7    1  0.2323330E-008  0.4614232E+02  0.7816164E-02  0.1320468E+00
        -11   -1    0    0    0    0  0.00000000000E+00  0.00000000000E+00  0.45593999997E+02  0.45594000000E+02  0.51100000000E-03 0.  1.
         11   -1    0    0    0    0 -0.00000000000E+00 -0.00000000000E+00 -0.45593999997E+02  0.45594000000E+02  0.51100000000E-03 0. -1.
    9900012    2    1    2    0    0 -0.18088252003E+02  0.41082773975E+02 -0.37595743217E+01  0.46142316776E+02  0.99999910188E+01 0.  0.
         12    1    1    2    0    0  0.18088252003E+02 -0.41082773975E+02  0.37595743217E+01  0.45045683224E+02  0.00000000000E+00 0. -1.
         11    1    3    3    0    0 -0.80427742980E+01  0.91957977096E+01 -0.40268115249E+00  0.12223381950E+02  0.51100000000E-03 0.  1.
        -11    1    3    3    0    0 -0.43255271090E+00  0.76080286929E+01 -0.27904094463E+00  0.76254223850E+01  0.51100000000E-03 0. -1.
         12    1    3    3    0    0 -0.96129249941E+01  0.24278947573E+02 -0.30778522246E+01  0.26293512441E+02  0.00000000000E+00 0. -1.
</event>
<event>
 7    1  0.2323330E-008  0.4614232E+02  0.7816164E-02  0.1320468E+00
        -11   -1    0    0    0    0  0.00000000000E+00  0.00000000000E+00  0.45593999997E+02  0.45594000000E+02  0.51100000000E-03 0.  1.
         11   -1    0    0    0    0 -0.00000000000E+00 -0.00000000000E+00 -0.45593999997E+02  0.45594000000E+02  0.51100000000E-03 0. -1.
    9900012    2    1    2    0    0  0.41313945048E+01 -0.89629371760E+01  0.43951231548E+02  0.46142318542E+02  0.10000007123E+02 0.  0.
         12    1    1    2    0    0 -0.41313945048E+01  0.89629371760E+01 -0.43951231548E+02  0.45045681458E+02  0.00000000000E+00 0. -1.
         11    1    3    3    0    0  0.49794786874E+01 -0.13241061418E+01  0.10664148866E+02  0.11843670731E+02  0.51100000000E-03 0. -1.
        -11    1    3    3    0    0 -0.25968286959E+00 -0.35640532390E+01  0.93407599768E+01  0.10000985346E+02  0.51100000000E-03 0.  1.
         12    1    3    3    0    0 -0.58840131308E+00 -0.40747777953E+01  0.23946322705E+02  0.24297662466E+02  0.00000000000E+00 0. -1.
</event>
<event>
 7    1  0.2323330E-008  0.4614232E+02  0.7816164E-02  0.1320468E+00
        -11   -1    0    0    0    0  0.00000000000E+00  0.00000000000E+00  0.45593999997E+02  0.45594000000E+02  0.51100000000E-03 0.  1.
         11   -1    0    0    0    0 -0.00000000000E+00 -0.00000000000E+00 -0.45593999997E+02  0.45594000000E+02  0.51100000000E-03 0. -1.
    9900012    2    1    2    0    0 -0.25087841135E+02 -0.81271797253E+01  0.36519345962E+02  0.46142318158E+02  0.10000003623E+02 0.  0.
         12    1    1    2    0    0  0.25087841135E+02  0.81271797253E+01 -0.36519345962E+02  0.45045681842E+02  0.00000000000E+00 0. -1.
         11    1    3    3    0    0 -0.94650238611E+01 -0.19547343986E+01  0.65290878000E+01  0.11663475083E+02  0.51100000000E-03 0. -1.
        -11    1    3    3    0    0 -0.47861529298E+01 -0.20937335525E+01  0.11955804601E+02  0.13047307921E+02  0.51100000000E-03 0.  1.
         12    1    3    3    0    0 -0.10836664344E+02 -0.40787117742E+01  0.18034453561E+02  0.21431535154E+02  0.00000000000E+00 0. -1.
</event>
<event>
 7    1  0.2323330E-008  0.4614231E+02  0.7816164E-02  0.1320468E+00
        -11   -1    0    0    0    0  0.00000000000E+00  0.00000000000E+00  0.45593999997E+02  0.45594000000E+02  0.51100000000E-03 0. -1.
         11   -1    0    0    0    0 -0.00000000000E+00 -0.00000000000E+00 -0.45593999997E+02  0.45594000000E+02  0.51100000000E-03 0.  1.
    9900012    2    1    2    0    0 -0.35055287446E+02 -0.26354605784E+02 -0.10279853962E+02  0.46142314064E+02  0.99999662899E+01 0.  0.
         12    1    1    2    0    0  0.35055287446E+02  0.26354605784E+02  0.10279853962E+02  0.45045685936E+02  0.00000000000E+00 0. -1.
         11    1    3    3    0    0 -0.67679724148E+01 -0.17430509508E+01 -0.41645080443E+00  0.70012219475E+01  0.51100000000E-03 0. -1.
        -11    1    3    3    0    0 -0.46061378809E+01 -0.17541238650E+01 -0.71532274481E+00  0.49804762425E+01  0.51100000000E-03 0.  1.
        -12    1    3    3    0    0 -0.23681177150E+02 -0.22857430968E+02 -0.91480804131E+01  0.34160615874E+02  0.00000000000E+00 0.  1.
</event>
<event>
 7    1  0.2323330E-008  0.4614232E+02  0.7816164E-02  0.1320468E+00
        -11   -1    0    0    0    0  0.00000000000E+00  0.00000000000E+00  0.45593999997E+02  0.45594000000E+02  0.51100000000E-03 0.  1.
         11   -1    0    0    0    0 -0.00000000000E+00 -0.00000000000E+00 -0.45593999997E+02  0.45594000000E+02  0.51100000000E-03 0. -1.
    9900012    2    1    2    0    0 -0.41835765807E+02  0.12835422334E+02  0.10683355502E+02  0.46142318165E+02  0.10000003685E+02 0.  0.
         12    1    1    2    0    0  0.41835765807E+02 -0.12835422334E+02 -0.10683355502E+02  0.45045681835E+02  0.00000000000E+00 0. -1.
         11    1    3    3    0    0 -0.10862985293E+02  0.31003677437E+01  0.47103467793E+01  0.12239448381E+02  0.51100000000E-03 0. -1.
        -11    1    3    3    0    0 -0.28963479596E+02  0.79334049154E+01  0.34843561517E+01  0.30231817707E+02  0.51100000000E-03 0.  1.
         12    1    3    3    0    0 -0.20093009187E+01  0.18016496753E+01  0.24886525711E+01  0.36710520773E+01  0.00000000000E+00 0. -1.
</event>
<event>
 7    1  0.2323330E-008  0.4614232E+02  0.7816164E-02  0.1320468E+00
        -11   -1    0    0    0    0  0.00000000000E+00  0.00000000000E+00  0.45593999997E+02  0.45594000000E+02  0.51100000000E-03 0. -1.
         11   -1    0    0    0    0 -0.00000000000E+00 -0.00000000000E+00 -0.45593999997E+02  0.45594000000E+02  0.51100000000E-03 0.  1.
    9900012    2    1    2    0    0  0.33635398833E+02 -0.13780277492E+02 -0.26605964466E+02  0.46142318214E+02  0.10000004128E+02 0.  0.
         12    1    1    2    0    0 -0.33635398833E+02  0.13780277492E+02  0.26605964466E+02  0.45045681786E+02  0.00000000000E+00 0. -1.
         11    1    3    3    0    0  0.17701982271E+02 -0.10012586904E+02 -0.12201561288E+02  0.23716875236E+02  0.51100000000E-03 0. -1.
        -11    1    3    3    0    0  0.15301534450E+02 -0.44609684984E+01 -0.14410780079E+02  0.21487386514E+02  0.51100000000E-03 0.  1.
         12    1    3    3    0    0  0.63188211233E+00  0.69327790990E+00  0.63769011471E-02  0.93805646371E+00  0.00000000000E+00 0. -1.
</event>
<event>
 7    1  0.2323330E-008  0.4614232E+02  0.7816164E-02  0.1320468E+00
        -11   -1    0    0    0    0  0.00000000000E+00  0.00000000000E+00  0.45593999997E+02  0.45594000000E+02  0.51100000000E-03 0. -1.
         11   -1    0    0    0    0 -0.00000000000E+00 -0.00000000000E+00 -0.45593999997E+02  0.45594000000E+02  0.51100000000E-03 0.  1.
    9900012    2    1    2    0    0  0.31330833513E+02  0.23168671449E+02 -0.22598783003E+02  0.46142318092E+02  0.10000003017E+02 0.  0.
         12    1    1    2    0    0 -0.31330833513E+02 -0.23168671449E+02  0.22598783003E+02  0.45045681908E+02  0.00000000000E+00 0. -1.
         11    1    3    3    0    0  0.46791231721E+01  0.30384849730E+01 -0.11570955798E+01  0.56978465259E+01  0.51100000000E-03 0. -1.
        -11    1    3    3    0    0  0.25382354797E+02  0.20826413804E+02 -0.20747142268E+02  0.38838735298E+02  0.51100000000E-03 0.  1.
        -12    1    3    3    0    0  0.12693555447E+01 -0.69622732834E+00 -0.69454515471E+00  0.16057362684E+01  0.00000000000E+00 0.  1.
</event>
<event>
 7    1  0.2323330E-008  0.4614232E+02  0.7816164E-02  0.1320468E+00
        -11   -1    0    0    0    0  0.00000000000E+00  0.00000000000E+00  0.45593999997E+02  0.45594000000E+02  0.51100000000E-03 0.  1.
         11   -1    0    0    0    0 -0.00000000000E+00 -0.00000000000E+00 -0.45593999997E+02  0.45594000000E+02  0.51100000000E-03 0. -1.
    9900012    2    1    2    0    0  0.36648548293E+02  0.40663205442E+01  0.25873970444E+02  0.46142318728E+02  0.10000008815E+02 0.  0.
         12    1    1    2    0    0 -0.36648548293E+02 -0.40663205442E+01 -0.25873970444E+02  0.45045681272E+02  0.00000000000E+00 0. -1.
         11    1    3    3    0    0  0.15744676065E+02  0.15691800483E+01  0.14534813173E+02  0.21485296010E+02  0.51100000000E-03 0. -1.
        -11    1    3    3    0    0  0.21058742481E+02  0.18365989136E+01  0.11318712483E+02  0.23978260633E+02  0.51100000000E-03 0.  1.
         12    1    3    3    0    0 -0.15487025353E+00  0.66054158223E+00  0.20444787669E-01  0.67876208396E+00  0.00000000000E+00 0. -1.
</event>
<event>
 7    1  0.2323330E-008  0.4614232E+02  0.7816164E-02  0.1320468E+00
        -11   -1    0    0    0    0  0.00000000000E+00  0.00000000000E+00  0.45593999997E+02  0.45594000000E+02  0.51100000000E-03 0. -1.
         11   -1    0    0    0    0 -0.00000000000E+00 -0.00000000000E+00 -0.45593999997E+02  0.45594000000E+02  0.51100000000E-03 0.  1.
    9900012    2    1    2    0    0  0.23996711609E+02 -0.35398174635E+02 -0.14150637915E+02  0.46142317755E+02  0.99999999455E+01 0.  0.
         12    1    1    2    0    0 -0.23996711609E+02  0.35398174635E+02  0.14150637915E+02  0.45045682245E+02  0.00000000000E+00 0. -1.
         11    1    3    3    0    0  0.75378366404E+01 -0.69472984049E+01 -0.26868666829E+01  0.10597319905E+02  0.51100000000E-03 0. -1.
        -11    1    3    3    0    0  0.21902608720E+01 -0.10419075468E+02 -0.33580946376E+01  0.11163833398E+02  0.51100000000E-03 0.  1.
        -12    1    3    3    0    0  0.14268614096E+02 -0.18031800762E+02 -0.81056765943E+01  0.24381164452E+02  0.00000000000E+00 0.  1.
</event>
<event>
 7    1  0.2323330E-008  0.4614232E+02  0.7816164E-02  0.1320468E+00
        -11   -1    0    0    0    0  0.00000000000E+00  0.00000000000E+00  0.45593999997E+02  0.45594000000E+02  0.51100000000E-03 0.  1.
         11   -1    0    0    0    0 -0.00000000000E+00 -0.00000000000E+00 -0.45593999997E+02  0.45594000000E+02  0.51100000000E-03 0. -1.
    9900012    2    1    2    0    0  0.38455093123E+02  0.88150426929E+00  0.23442318374E+02  0.46142317325E+02  0.99999960247E+01 0.  0.
         12    1    1    2    0    0 -0.38455093123E+02 -0.88150426929E+00 -0.23442318374E+02  0.45045682675E+02  0.00000000000E+00 0. -1.
         11    1    3    3    0    0  0.71345231327E+01  0.73385224958E+00  0.80482373402E+01  0.10780263633E+02  0.51100000000E-03 0. -1.
        -11    1    3    3    0    0  0.22320113963E+01 -0.11508133383E+01  0.20142010157E+00  0.25192888940E+01  0.51100000000E-03 0.  1.
        -12    1    3    3    0    0  0.29088558594E+02  0.12984653580E+01  0.15192660932E+02  0.32842764798E+02  0.00000000000E+00 0.  1.
</event>
<event>
 7    1  0.2323330E-008  0.4614232E+02  0.7816164E-02  0.1320468E+00
        -11   -1    0    0    0    0  0.00000000000E+00  0.00000000000E+00  0.45593999997E+02  0.45594000000E+02  0.51100000000E-03 0.  1.
         11   -1    0    0    0    0 -0.00000000000E+00 -0.00000000000E+00 -0.45593999997E+02  0.45594000000E+02  0.51100000000E-03 0. -1.
    9900012    2    1    2    0    0  0.64696979381E+01 -0.28216020185E+02  0.34512500866E+02  0.46142317605E+02  0.99999985724E+01 0.  0.
         12    1    1    2    0    0 -0.64696979381E+01  0.28216020185E+02 -0.34512500866E+02  0.45045682395E+02  0.00000000000E+00 0. -1.
         11    1    3    3    0    0  0.18467303748E+01 -0.81424280040E+01  0.15643669529E+02  0.17732285342E+02  0.51100000000E-03 0.  1.
        -11    1    3    3    0    0  0.49642238139E+01 -0.14721317673E+02  0.16103409946E+02  0.22375891585E+02  0.51100000000E-03 0. -1.
        -12    1    3    3    0    0 -0.34125625059E+00 -0.53522745080E+01  0.27654213909E+01  0.60341406768E+01  0.00000000000E+00 0.  1.
</event>
<event>
 7    1  0.2323330E-008  0.4614231E+02  0.7816164E-02  0.1320468E+00
        -11   -1    0    0    0    0  0.00000000000E+00  0.00000000000E+00  0.45593999997E+02  0.45594000000E+02  0.51100000000E-03 0.  1.
         11   -1    0    0    0    0 -0.00000000000E+00 -0.00000000000E+00 -0.45593999997E+02  0.45594000000E+02  0.51100000000E-03 0. -1.
    9900012    2    1    2    0    0  0.36038605924E+02 -0.26919245251E+02  0.23847380693E+01  0.46142313664E+02  0.99999626366E+01 0.  0.
         12    1    1    2    0    0 -0.36038605924E+02  0.26919245251E+02 -0.23847380693E+01  0.45045686336E+02  0.00000000000E+00 0. -1.
         11    1    3    3    0    0  0.90607851334E+01 -0.71753906910E+01  0.22018134056E+01  0.11765714655E+02  0.51100000000E-03 0.  1.
        -11    1    3    3    0    0  0.23126265405E+02 -0.19820877755E+02 -0.51080111434E+00  0.30462308918E+02  0.51100000000E-03 0. -1.
         12    1    3    3    0    0  0.38515553858E+01  0.77023195098E-01  0.69372577805E+00  0.39142900911E+01  0.00000000000E+00 0. -1.
</event>
<event>
 7    1  0.2323330E-008  0.4614232E+02  0.7816164E-02  0.1320468E+00
        -11   -1    0    0    0    0  0.00000000000E+00  0.00000000000E+00  0.45593999997E+02  0.45594000000E+02  0.51100000000E-03 0.  1.
         11   -1    0    0    0    0 -0.00000000000E+00 -0.00000000000E+00 -0.45593999997E+02  0.45594000000E+02  0.51100000000E-03 0. -1.
    9900012    2    1    2    0    0  0.23746933547E+02  0.33021453173E+02  0.19359240208E+02  0.46142318697E+02  0.10000008536E+02 0.  0.
         12    1    1    2    0    0 -0.23746933547E+02 -0.33021453173E+02 -0.19359240208E+02  0.45045681303E+02  0.00000000000E+00 0. -1.
         11    1    3    3    0    0  0.18621174980E+01  0.36347538712E+01 -0.81967440799E+00  0.41654271902E+01  0.51100000000E-03 0. -1.
        -11    1    3    3    0    0  0.35225670364E+01  0.28534251586E+01  0.22035289725E+01  0.50404418314E+01  0.51100000000E-03 0.  1.
        -12    1    3    3    0    0  0.18362249013E+02  0.26533274144E+02  0.17975385644E+02  0.36936449676E+02  0.00000000000E+00 0.  1.
</event>
<event>
 7    1  0.2323330E-008  0.4614232E+02  0.7816164E-02  0.1320468E+00
        -11   -1    0    0    0    0  0.00000000000E+00  0.00000000000E+00  0.45593999997E+02  0.45594000000E+02  0.51100000000E-03 0. -1.
         11   -1    0    0    0    0 -0.00000000000E+00 -0.00000000000E+00 -0.45593999997E+02  0.45594000000E+02  0.51100000000E-03 0.  1.
    9900012    2    1    2    0    0 -0.34891080060E+02 -0.24125419128E+02 -0.15155531645E+02  0.46142318128E+02  0.10000003343E+02 0.  0.
         12    1    1    2    0    0  0.34891080060E+02  0.24125419128E+02  0.15155531645E+02  0.45045681872E+02  0.00000000000E+00 0. -1.
         11    1    3    3    0    0 -0.73352551326E+01 -0.64970628970E+01 -0.25387078553E+01  0.10122392602E+02  0.51100000000E-03 0. -1.
        -11    1    3    3    0    0 -0.23196297732E+02 -0.15417023881E+02 -0.72909936215E+01  0.28790822185E+02  0.51100000000E-03 0.  1.
         12    1    3    3    0    0 -0.43595271962E+01 -0.22113323498E+01 -0.53258301687E+01  0.72291033414E+01  0.00000000000E+00 0. -1.
</event>
<event>
 7    1  0.2323330E-008  0.4614232E+02  0.7816164E-02  0.1320468E+00
        -11   -1    0    0    0    0  0.00000000000E+00  0.00000000000E+00  0.45593999997E+02  0.45594000000E+02  0.51100000000E-03 0.  1.
         11   -1    0    0    0    0 -0.00000000000E+00 -0.00000000000E+00 -0.45593999997E+02  0.45594000000E+02  0.51100000000E-03 0. -1.
    9900012    2    1    2    0    0 -0.25042329941E+02 -0.31810885427E+01  0.37307848183E+02  0.46142321525E+02  0.10000034325E+02 0.  0.
         12    1    1    2    0    0  0.25042329941E+02  0.31810885427E+01 -0.37307848183E+02  0.45045678475E+02  0.00000000000E+00 0. -1.
         11    1    3    3    0    0 -0.14468478388E+02  0.28530240027E+01  0.19623090700E+02  0.24546737089E+02  0.51100000000E-03 0. -1.
        -11    1    3    3    0    0 -0.56311488049E+01 -0.39811385506E+01  0.82922363744E+01  0.10785197512E+02  0.51100000000E-03 0.  1.
         12    1    3    3    0    0 -0.49427027476E+01 -0.20529739948E+01  0.93925211084E+01  0.10810386924E+02  0.00000000000E+00 0. -1.
</event>
<event>
 7    1  0.2323330E-008  0.4614232E+02  0.7816164E-02  0.1320468E+00
        -11   -1    0    0    0    0  0.00000000000E+00  0.00000000000E+00  0.45593999997E+02  0.45594000000E+02  0.51100000000E-03 0. -1.
         11   -1    0    0    0    0 -0.00000000000E+00 -0.00000000000E+00 -0.45593999997E+02  0.45594000000E+02  0.51100000000E-03 0.  1.
    9900012    2    1    2    0    0 -0.43975548300E+02 -0.75342021525E+01 -0.62048663271E+01  0.46142318558E+02  0.10000007271E+02 0.  0.
         12    1    1    2    0    0  0.43975548300E+02  0.75342021525E+01  0.62048663271E+01  0.45045681442E+02  0.00000000000E+00 0. -1.
         11    1    3    3    0    0 -0.16981757290E+02 -0.56972759269E+01 -0.17341739455E+01  0.17995732638E+02  0.51100000000E-03 0.  1.
        -11    1    3    3    0    0 -0.25014412416E+02 -0.32668700794E+01 -0.48098794242E+01  0.25681281295E+02  0.51100000000E-03 0. -1.
         12    1    3    3    0    0 -0.19793785952E+01  0.14299438539E+01  0.33918704258E+00  0.24653046259E+01  0.00000000000E+00 0. -1.
</event>
<event>
 7    1  0.2323330E-008  0.4614232E+02  0.7816164E-02  0.1320468E+00
        -11   -1    0    0    0    0  0.00000000000E+00  0.00000000000E+00  0.45593999997E+02  0.45594000000E+02  0.51100000000E-03 0. -1.
         11   -1    0    0    0    0 -0.00000000000E+00 -0.00000000000E+00 -0.45593999997E+02  0.45594000000E+02  0.51100000000E-03 0.  1.
    9900012    2    1    2    0    0  0.20886844648E+02  0.38488329847E+02 -0.10559435968E+02  0.46142317613E+02  0.99999986507E+01 0.  0.
         12    1    1    2    0    0 -0.20886844648E+02 -0.38488329847E+02  0.10559435968E+02  0.45045682387E+02  0.00000000000E+00 0. -1.
         11    1    3    3    0    0  0.44244477750E+01  0.52447501767E+01  0.10586398249E+01  0.69429000475E+01  0.51100000000E-03 0. -1.
        -11    1    3    3    0    0  0.14281160563E+02  0.28557100740E+02 -0.11766461174E+02  0.34028064279E+02  0.51100000000E-03 0.  1.
        -12    1    3    3    0    0  0.21812363097E+01  0.46864789297E+01  0.14838538141E+00  0.51713532870E+01  0.00000000000E+00 0.  1.
</event>
<event>
 7    1  0.2323330E-008  0.4614232E+02  0.7816164E-02  0.1320468E+00
        -11   -1    0    0    0    0  0.00000000000E+00  0.00000000000E+00  0.45593999997E+02  0.45594000000E+02  0.51100000000E-03 0.  1.
         11   -1    0    0    0    0 -0.00000000000E+00 -0.00000000000E+00 -0.45593999997E+02  0.45594000000E+02  0.51100000000E-03 0. -1.
    9900012    2    1    2    0    0  0.12415597444E+02  0.43242523569E+02  0.22473397522E+01  0.46142318292E+02  0.10000004845E+02 0.  0.
         12    1    1    2    0    0 -0.12415597444E+02 -0.43242523569E+02 -0.22473397522E+01  0.45045681708E+02  0.00000000000E+00 0. -1.
         11    1    3    3    0    0  0.59924008308E+01  0.10802963479E+02  0.56699650187E+00  0.12366663776E+02  0.51100000000E-03 0. -1.
        -11    1    3    3    0    0  0.30644107262E+01  0.22910256451E+02 -0.15545989575E+01  0.23166511216E+02  0.51100000000E-03 0.  1.
        -12    1    3    3    0    0  0.33587858865E+01  0.95293036396E+01  0.32349422078E+01  0.10609143301E+02  0.00000000000E+00 0.  1.
</event>
<event>
 7    1  0.2323330E-008  0.4614232E+02  0.7816164E-02  0.1320468E+00
        -11   -1    0    0    0    0  0.00000000000E+00  0.00000000000E+00  0.45593999997E+02  0.45594000000E+02  0.51100000000E-03 0.  1.
         11   -1    0    0    0    0 -0.00000000000E+00 -0.00000000000E+00 -0.45593999997E+02  0.45594000000E+02  0.51100000000E-03 0. -1.
    9900012    2    1    2    0    0  0.50624167653E+01  0.31052396784E+02  0.32237153840E+02  0.46142317663E+02  0.99999991013E+01 0.  0.
         12    1    1    2    0    0 -0.50624167653E+01 -0.31052396784E+02 -0.32237153840E+02  0.45045682337E+02  0.00000000000E+00 0. -1.
         11    1    3    3    0    0  0.58182388170E+01  0.11795521548E+02  0.91638448918E+01  0.16030043200E+02  0.51100000000E-03 0. -1.
        -11    1    3    3    0    0  0.59467163442E-02  0.53945772278E+01  0.76509491424E+01  0.93615448442E+01  0.51100000000E-03 0.  1.
         12    1    3    3    0    0 -0.76176876802E+00  0.13862298008E+02  0.15422359806E+02  0.20750729619E+02  0.00000000000E+00 0. -1.
</event>
<event>
 7    1  0.2323330E-008  0.4614232E+02  0.7816164E-02  0.1320468E+00
        -11   -1    0    0    0    0  0.00000000000E+00  0.00000000000E+00  0.45593999997E+02  0.45594000000E+02  0.51100000000E-03 0. -1.
         11   -1    0    0    0    0 -0.00000000000E+00 -0.00000000000E+00 -0.45593999997E+02  0.45594000000E+02  0.51100000000E-03 0.  1.
    9900012    2    1    2    0    0  0.28336971147E+02 -0.14618297452E+02 -0.31818783231E+02  0.46142317404E+02  0.99999967480E+01 0.  0.
         12    1    1    2    0    0 -0.28336971147E+02  0.14618297452E+02  0.31818783231E+02  0.45045682596E+02  0.00000000000E+00 0. -1.
         11    1    3    3    0    0  0.31908338140E+01 -0.35857252783E+01 -0.21550306404E+01  0.52614640094E+01  0.51100000000E-03 0. -1.
        -11    1    3    3    0    0  0.13379940123E+02 -0.85425154546E+01 -0.19422134024E+02  0.25084191402E+02  0.51100000000E-03 0.  1.
         12    1    3    3    0    0  0.11766197210E+02 -0.24900567186E+01 -0.10241618567E+02  0.15796661993E+02  0.00000000000E+00 0. -1.
</event>
<event>
 7    1  0.2323330E-008  0.4614232E+02  0.7816164E-02  0.1320468E+00
        -11   -1    0    0    0    0  0.00000000000E+00  0.00000000000E+00  0.45593999997E+02  0.45594000000E+02  0.51100000000E-03 0.  1.
         11   -1    0    0    0    0 -0.00000000000E+00 -0.00000000000E+00 -0.45593999997E+02  0.45594000000E+02  0.51100000000E-03 0. -1.
    9900012    2    1    2    0    0  0.64912608097E+00 -0.42019858511E+02 -0.16217986703E+02  0.46142323552E+02  0.10000052808E+02 0.  0.
         12    1    1    2    0    0 -0.64912608097E+00  0.42019858511E+02  0.16217986703E+02  0.45045676448E+02  0.00000000000E+00 0. -1.
         11    1    3    3    0    0  0.22772839862E+01 -0.22613108280E+01 -0.24510402049E+00  0.32186371738E+01  0.51100000000E-03 0. -1.
        -11    1    3    3    0    0 -0.60290776686E+00 -0.15209911731E+02 -0.50787083563E+01  0.16046750184E+02  0.51100000000E-03 0.  1.
         12    1    3    3    0    0 -0.10252501384E+01 -0.24548635952E+02 -0.10894174327E+02  0.26876936195E+02  0.00000000000E+00 0. -1.
</event>
<event>
 7    1  0.2323330E-008  0.4614232E+02  0.7816164E-02  0.1320468E+00
        -11   -1    0    0    0    0  0.00000000000E+00  0.00000000000E+00  0.45593999997E+02  0.45594000000E+02  0.51100000000E-03 0. -1.
         11   -1    0    0    0    0 -0.00000000000E+00 -0.00000000000E+00 -0.45593999997E+02  0.45594000000E+02  0.51100000000E-03 0.  1.
    9900012    2    1    2    0    0 -0.41843848323E+02 -0.46413550656E+01 -0.16020729518E+02  0.46142316593E+02  0.99999893476E+01 0.  0.
         12    1    1    2    0    0  0.41843848323E+02  0.46413550656E+01  0.16020729518E+02  0.45045683407E+02  0.00000000000E+00 0. -1.
         11    1    3    3    0    0  0.25006665965E+00  0.24813395832E+00  0.24667876274E+00  0.43006333097E+00  0.51100000000E-03 0. -1.
        -11    1    3    3    0    0 -0.25495387807E+02 -0.35978449472E+00 -0.10332660840E+02  0.27511963300E+02  0.51100000000E-03 0.  1.
        -12    1    3    3    0    0 -0.16598527176E+02 -0.45297045292E+01 -0.59347474402E+01  0.18200289962E+02  0.00000000000E+00 0.  1.
</event>
<event>
 7    1  0.2323330E-008  0.4614232E+02  0.7816164E-02  0.1320468E+00
        -11   -1    0    0    0    0  0.00000000000E+00  0.00000000000E+00  0.45593999997E+02  0.45594000000E+02  0.51100000000E-03 0.  1.
         11   -1    0    0    0    0 -0.00000000000E+00 -0.00000000000E+00 -0.45593999997E+02  0.45594000000E+02  0.51100000000E-03 0. -1.
    9900012    2    1    2    0    0  0.72276824621E+01 -0.11695457812E+02  0.42896275749E+02  0.46142316518E+02  0.99999886629E+01 0.  0.
         12    1    1    2    0    0 -0.72276824621E+01  0.11695457812E+02 -0.42896275749E+02  0.45045683482E+02  0.00000000000E+00 0. -1.
         11    1    3    3    0    0  0.10770207041E+01 -0.48308859177E+01  0.62553959861E+01  0.79766792308E+01  0.51100000000E-03 0. -1.
        -11    1    3    3    0    0  0.43982937642E+01 -0.73801402092E+01  0.32890611250E+02  0.33994172533E+02  0.51100000000E-03 0.  1.
         12    1    3    3    0    0  0.17523679938E+01  0.51556831469E+00  0.37502685136E+01  0.41714647543E+01  0.00000000000E+00 0. -1.
</event>
<event>
 7    1  0.2323330E-008  0.4614233E+02  0.7816164E-02  0.1320468E+00
        -11   -1    0    0    0    0  0.00000000000E+00  0.00000000000E+00  0.45593999997E+02  0.45594000000E+02  0.51100000000E-03 0.  1.
         11   -1    0    0    0    0 -0.00000000000E+00 -0.00000000000E+00 -0.45593999997E+02  0.45594000000E+02  0.51100000000E-03 0. -1.
    9900012    2    1    2    0    0  0.11577495418E+02 -0.12595857741E+01  0.43514224040E+02  0.46142327063E+02  0.10000084824E+02 0.  0.
         12    1    1    2    0    0 -0.11577495418E+02  0.12595857741E+01 -0.43514224040E+02  0.45045672937E+02  0.00000000000E+00 0. -1.
         11    1    3    3    0    0  0.30479334731E+01 -0.25217372238E+01  0.20097618815E+02  0.20483245333E+02  0.51100000000E-03 0. -1.
        -11    1    3    3    0    0  0.75190692656E+01  0.31946654603E+01  0.20019204109E+02  0.21621998599E+02  0.51100000000E-03 0.  1.
        -12    1    3    3    0    0  0.10104926793E+01 -0.19325140106E+01  0.33974011165E+01  0.40370831305E+01  0.00000000000E+00 0.  1.
</event>
<event>
 7    1  0.2323330E-008  0.4614232E+02  0.7816164E-02  0.1320468E+00
        -11   -1    0    0    0    0  0.00000000000E+00  0.00000000000E+00  0.45593999997E+02  0.45594000000E+02  0.51100000000E-03 0. -1.
         11   -1    0    0    0    0 -0.00000000000E+00 -0.00000000000E+00 -0.45593999997E+02  0.45594000000E+02  0.51100000000E-03 0.  1.
    9900012    2    1    2    0    0 -0.72592538105E+01 -0.43091214267E+02  0.10934531409E+02  0.46142317743E+02  0.99999998362E+01 0.  0.
         12    1    1    2    0    0  0.72592538105E+01  0.43091214267E+02 -0.10934531409E+02  0.45045682257E+02  0.00000000000E+00 0. -1.
         11    1    3    3    0    0 -0.15013848510E+01 -0.38102881429E+01  0.25393437219E+01  0.48187881258E+01  0.51100000000E-03 0. -1.
        -11    1    3    3    0    0  0.62049941132E+00 -0.11683905741E+02 -0.26905947235E+00  0.11703463853E+02  0.51100000000E-03 0.  1.
        -12    1    3    3    0    0 -0.63783683708E+01 -0.27597020382E+02  0.86642471595E+01  0.29620065765E+02  0.00000000000E+00 0.  1.
</event>
<event>
 7    1  0.2323330E-008  0.4614230E+02  0.7816164E-02  0.1320468E+00
        -11   -1    0    0    0    0  0.00000000000E+00  0.00000000000E+00  0.45593999997E+02  0.45594000000E+02  0.51100000000E-03 0.  1.
         11   -1    0    0    0    0 -0.00000000000E+00 -0.00000000000E+00 -0.45593999997E+02  0.45594000000E+02  0.51100000000E-03 0. -1.
    9900012    2    1    2    0    0  0.27483401469E+02  0.10069669991E+02  0.34240023383E+02  0.46142303077E+02  0.99998660958E+01 0.  0.
         12    1    1    2    0    0 -0.27483401469E+02 -0.10069669991E+02 -0.34240023383E+02  0.45045696923E+02  0.00000000000E+00 0. -1.
         11    1    3    3    0    0  0.12966867663E+02  0.22149564658E+01  0.12930429771E+02  0.18445641855E+02  0.51100000000E-03 0. -1.
        -11    1    3    3    0    0  0.34610109758E+01  0.48843217153E+01  0.96555583134E+01  0.11360677893E+02  0.51100000000E-03 0.  1.
        -12    1    3    3    0    0  0.11055522831E+02  0.29703918103E+01  0.11654035299E+02  0.16335983329E+02  0.00000000000E+00 0.  1.
</event>
<event>
 7    1  0.2323330E-008  0.4614232E+02  0.7816164E-02  0.1320468E+00
        -11   -1    0    0    0    0  0.00000000000E+00  0.00000000000E+00  0.45593999997E+02  0.45594000000E+02  0.51100000000E-03 0.  1.
         11   -1    0    0    0    0 -0.00000000000E+00 -0.00000000000E+00 -0.45593999997E+02  0.45594000000E+02  0.51100000000E-03 0. -1.
    9900012    2    1    2    0    0  0.23465125824E+02 -0.25797506806E+02  0.28512981051E+02  0.46142316791E+02  0.99999911549E+01 0.  0.
         12    1    1    2    0    0 -0.23465125824E+02  0.25797506806E+02 -0.28512981051E+02  0.45045683209E+02  0.00000000000E+00 0. -1.
         11    1    3    3    0    0  0.49597826332E+01 -0.43784081259E+01  0.70738357119E+01  0.96855073913E+01  0.51100000000E-03 0. -1.
        -11    1    3    3    0    0  0.12126552909E+02 -0.16258826838E+02  0.10670279088E+02  0.22918498897E+02  0.51100000000E-03 0.  1.
         12    1    3    3    0    0  0.63787902816E+01 -0.51602718415E+01  0.10768866251E+02  0.13538310503E+02  0.00000000000E+00 0. -1.
</event>
<event>
 7    1  0.2323330E-008  0.4614232E+02  0.7816164E-02  0.1320468E+00
        -11   -1    0    0    0    0  0.00000000000E+00  0.00000000000E+00  0.45593999997E+02  0.45594000000E+02  0.51100000000E-03 0.  1.
         11   -1    0    0    0    0 -0.00000000000E+00 -0.00000000000E+00 -0.45593999997E+02  0.45594000000E+02  0.51100000000E-03 0. -1.
    9900012    2    1    2    0    0  0.26050674500E+02 -0.36009644551E+02  0.73335757318E+01  0.46142317903E+02  0.10000001292E+02 0.  0.
         12    1    1    2    0    0 -0.26050674500E+02  0.36009644551E+02 -0.73335757318E+01  0.45045682097E+02  0.00000000000E+00 0. -1.
         11    1    3    3    0    0  0.59240528421E-01 -0.62984884705E+00 -0.50226613179E+00  0.80776886459E+00  0.51100000000E-03 0. -1.
        -11    1    3    3    0    0  0.17440938442E+02 -0.22635470110E+02  0.11611132085E+01  0.28598933984E+02  0.51100000000E-03 0.  1.
        -12    1    3    3    0    0  0.85504955289E+01 -0.12744325594E+02  0.66747286551E+01  0.16735615055E+02  0.00000000000E+00 0.  1.
</event>
<event>
 7    1  0.2323330E-008  0.4614232E+02  0.7816164E-02  0.1320468E+00
        -11   -1    0    0    0    0  0.00000000000E+00  0.00000000000E+00  0.45593999997E+02  0.45594000000E+02  0.51100000000E-03 0.  1.
         11   -1    0    0    0    0 -0.00000000000E+00 -0.00000000000E+00 -0.45593999997E+02  0.45594000000E+02  0.51100000000E-03 0. -1.
    9900012    2    1    2    0    0 -0.34609045830E+02 -0.20937870715E+02  0.19822539024E+02  0.46142317225E+02  0.99999951093E+01 0.  0.
         12    1    1    2    0    0  0.34609045830E+02  0.20937870715E+02 -0.19822539024E+02  0.45045682775E+02  0.00000000000E+00 0. -1.
         11    1    3    3    0    0 -0.95954140399E+01 -0.87052882249E+01  0.41582208204E+01  0.13606792948E+02  0.51100000000E-03 0. -1.
        -11    1    3    3    0    0 -0.23193500152E+02 -0.12127289101E+02  0.12787238948E+02  0.29129419328E+02  0.51100000000E-03 0.  1.
        -12    1    3    3    0    0 -0.18201316378E+01 -0.10529338965E+00  0.28770792558E+01  0.34061049486E+01  0.00000000000E+00 0.  1.
</event>
<event>
 7    1  0.2323330E-008  0.4614232E+02  0.7816164E-02  0.1320468E+00
        -11   -1    0    0    0    0  0.00000000000E+00  0.00000000000E+00  0.45593999997E+02  0.45594000000E+02  0.51100000000E-03 0. -1.
         11   -1    0    0    0    0 -0.00000000000E+00 -0.00000000000E+00 -0.45593999997E+02  0.45594000000E+02  0.51100000000E-03 0.  1.
    9900012    2    1    2    0    0  0.87513508046E+01 -0.43910807189E+02  0.49364306522E+01  0.46142317893E+02  0.10000001203E+02 0.  0.
         12    1    1    2    0    0 -0.87513508046E+01  0.43910807189E+02 -0.49364306522E+01  0.45045682107E+02  0.00000000000E+00 0. -1.
         11    1    3    3    0    0  0.21896991054E+01 -0.12867791501E+02  0.59526729599E+01  0.14346050185E+02  0.51100000000E-03 0. -1.
        -11    1    3    3    0    0  0.36011230395E+00 -0.41200515073E+01  0.21004409575E+00  0.41410897210E+01  0.51100000000E-03 0.  1.
        -12    1    3    3    0    0  0.62015393953E+01 -0.26922964181E+02 -0.12262864035E+01  0.27655177987E+02  0.00000000000E+00 0.  1.
</event>
<event>
 7    1  0.2323330E-008  0.4614232E+02  0.7816164E-02  0.1320468E+00
        -11   -1    0    0    0    0  0.00000000000E+00  0.00000000000E+00  0.45593999997E+02  0.45594000000E+02  0.51100000000E-03 0. -1.
         11   -1    0    0    0    0 -0.00000000000E+00 -0.00000000000E+00 -0.45593999997E+02  0.45594000000E+02  0.51100000000E-03 0.  1.
    9900012    2    1    2    0    0  0.14427854091E+02 -0.37616448412E+02 -0.20148283505E+02  0.46142317709E+02  0.99999995293E+01 0.  0.
         12    1    1    2    0    0 -0.14427854091E+02  0.37616448412E+02  0.20148283505E+02  0.45045682291E+02  0.00000000000E+00 0. -1.
         11    1    3    3    0    0  0.35505563732E+01 -0.13462904251E+02 -0.10494732784E+02  0.17435471255E+02  0.51100000000E-03 0. -1.
        -11    1    3    3    0    0  0.23542359742E+01 -0.17602380970E+01 -0.19934927902E+01  0.35517430856E+01  0.51100000000E-03 0.  1.
        -12    1    3    3    0    0  0.85230617437E+01 -0.22393306064E+02 -0.76600579306E+01  0.25155103369E+02  0.00000000000E+00 0.  1.
</event>
<event>
 7    1  0.2323330E-008  0.4614232E+02  0.7816164E-02  0.1320468E+00
        -11   -1    0    0    0    0  0.00000000000E+00  0.00000000000E+00  0.45593999997E+02  0.45594000000E+02  0.51100000000E-03 0.  1.
         11   -1    0    0    0    0 -0.00000000000E+00 -0.00000000000E+00 -0.45593999997E+02  0.45594000000E+02  0.51100000000E-03 0. -1.
    9900012    2    1    2    0    0  0.37852386262E+01  0.22398172007E+02  0.38898679192E+02  0.46142318924E+02  0.10000010607E+02 0.  0.
         12    1    1    2    0    0 -0.37852386262E+01 -0.22398172007E+02 -0.38898679192E+02  0.45045681076E+02  0.00000000000E+00 0. -1.
         11    1    3    3    0    0 -0.26633448355E+00 -0.29411450917E+00  0.13829546369E+00  0.42019435745E+00  0.51100000000E-03 0. -1.
        -11    1    3    3    0    0  0.36524229800E+00  0.16564350401E+02  0.31129255635E+02  0.35263886099E+02  0.51100000000E-03 0.  1.
        -12    1    3    3    0    0  0.36863308118E+01  0.61279361143E+01  0.76311280935E+01  0.10458238468E+02  0.00000000000E+00 0.  1.
</event>
<event>
 7    1  0.2323330E-008  0.4614232E+02  0.7816164E-02  0.1320468E+00
        -11   -1    0    0    0    0  0.00000000000E+00  0.00000000000E+00  0.45593999997E+02  0.45594000000E+02  0.51100000000E-03 0.  1.
         11   -1    0    0    0    0 -0.00000000000E+00 -0.00000000000E+00 -0.45593999997E+02  0.45594000000E+02  0.51100000000E-03 0. -1.
    9900012    2    1    2    0    0  0.38587546629E+02  0.22146092148E+02 -0.70473647835E+01  0.46142317603E+02  0.99999985566E+01 0.  0.
         12    1    1    2    0    0 -0.38587546629E+02 -0.22146092148E+02  0.70473647835E+01  0.45045682397E+02  0.00000000000E+00 0. -1.
         11    1    3    3    0    0  0.99694619547E+00 -0.89551934274E+00 -0.35802303663E+00  0.13870967399E+01  0.51100000000E-03 0. -1.
        -11    1    3    3    0    0  0.36655470274E+01  0.34574880617E+01 -0.15008015162E+00  0.50411291413E+01  0.51100000000E-03 0.  1.
        -12    1    3    3    0    0  0.33925053406E+02  0.19584123429E+02 -0.65392615952E+01  0.39714091722E+02  0.00000000000E+00 0.  1.
</event>
<event>
 7    1  0.2323330E-008  0.4614231E+02  0.7816164E-02  0.1320468E+00
        -11   -1    0    0    0    0  0.00000000000E+00  0.00000000000E+00  0.45593999997E+02  0.45594000000E+02  0.51100000000E-03 0. -1.
         11   -1    0    0    0    0 -0.00000000000E+00 -0.00000000000E+00 -0.45593999997E+02  0.45594000000E+02  0.51100000000E-03 0.  1.
    9900012    2    1    2    0    0 -0.16933090675E+02  0.18712576282E+02 -0.37312513545E+02  0.46142314991E+02  0.99999747376E+01 0.  0.
         12    1    1    2    0    0  0.16933090675E+02 -0.18712576282E+02  0.37312513545E+02  0.45045685009E+02  0.00000000000E+00 0. -1.
         11    1    3    3    0    0  0.33364293411E+00  0.14894725097E+01 -0.27181611814E+01  0.31174102126E+01  0.51100000000E-03 0. -1.
        -11    1    3    3    0    0 -0.14598751076E+02  0.14866392394E+02 -0.23664793986E+02  0.31530233593E+02  0.51100000000E-03 0.  1.
        -12    1    3    3    0    0 -0.26679825328E+01  0.23567113783E+01 -0.10929558378E+02  0.11494671185E+02  0.00000000000E+00 0.  1.
</event>
<event>
 7    1  0.2323330E-008  0.4614232E+02  0.7816164E-02  0.1320468E+00
        -11   -1    0    0    0    0  0.00000000000E+00  0.00000000000E+00  0.45593999997E+02  0.45594000000E+02  0.51100000000E-03 0.  1.
         11   -1    0    0    0    0 -0.00000000000E+00 -0.00000000000E+00 -0.45593999997E+02  0.45594000000E+02  0.51100000000E-03 0. -1.
    9900012    2    1    2    0    0 -0.10901909192E+01  0.31387264583E+02  0.32291866389E+02  0.46142317309E+02  0.99999958764E+01 0.  0.
         12    1    1    2    0    0  0.10901909192E+01 -0.31387264583E+02 -0.32291866389E+02  0.45045682691E+02  0.00000000000E+00 0. -1.
         11    1    3    3    0    0 -0.26114203022E+00  0.90473275030E+01  0.10131235426E+02  0.13585443004E+02  0.51100000000E-03 0. -1.
        -11    1    3    3    0    0  0.21872604856E+01  0.49519683069E+01  0.91505408994E+01  0.10631956431E+02  0.51100000000E-03 0.  1.
         12    1    3    3    0    0 -0.30163093746E+01  0.17387968773E+02  0.13010090064E+02  0.21924917873E+02  0.00000000000E+00 0. -1.
</event>
<event>
 7    1  0.2323330E-008  0.4614232E+02  0.7816164E-02  0.1320468E+00
        -11   -1    0    0    0    0  0.00000000000E+00  0.00000000000E+00  0.45593999997E+02  0.45594000000E+02  0.51100000000E-03 0.  1.
         11   -1    0    0    0    0 -0.00000000000E+00 -0.00000000000E+00 -0.45593999997E+02  0.45594000000E+02  0.51100000000E-03 0. -1.
    9900012    2    1    2    0    0  0.24639181188E+02  0.30743477468E+02  0.21837189443E+02  0.46142317641E+02  0.99999989038E+01 0.  0.
         12    1    1    2    0    0 -0.24639181188E+02 -0.30743477468E+02 -0.21837189443E+02  0.45045682359E+02  0.00000000000E+00 0. -1.
         11    1    3    3    0    0  0.96870924364E+01  0.15604373745E+02  0.60249237414E+01  0.19329664927E+02  0.51100000000E-03 0. -1.
        -11    1    3    3    0    0  0.80852370792E+00  0.25643785728E+01  0.25267138745E+01  0.36897196798E+01  0.51100000000E-03 0.  1.
        -12    1    3    3    0    0  0.14143565043E+02  0.12574725150E+02  0.13285551827E+02  0.23122933034E+02  0.00000000000E+00 0.  1.
</event>
<event>
 7    1  0.2323330E-008  0.4614231E+02  0.7816164E-02  0.1320468E+00
        -11   -1    0    0    0    0  0.00000000000E+00  0.00000000000E+00  0.45593999997E+02  0.45594000000E+02  0.51100000000E-03 0.  1.
         11   -1    0    0    0    0 -0.00000000000E+00 -0.00000000000E+00 -0.45593999997E+02  0.45594000000E+02  0.51100000000E-03 0. -1.
    9900012    2    1    2    0    0 -0.29487623633E+02  0.19617858074E+02  0.27834034799E+02  0.46142314346E+02  0.99999688559E+01 0.  0.
         12    1    1    2    0    0  0.29487623633E+02 -0.19617858074E+02 -0.27834034799E+02  0.45045685654E+02  0.00000000000E+00 0. -1.
         11    1    3    3    0    0 -0.52650349481E+01  0.46444678177E+01  0.34783640889E+01  0.78352212036E+01  0.51100000000E-03 0. -1.
        -11    1    3    3    0    0 -0.13548120634E+02  0.45034262722E+01  0.14791745121E+02  0.20557921707E+02  0.51100000000E-03 0.  1.
        -12    1    3    3    0    0 -0.10674468050E+02  0.10469963984E+02  0.95639255884E+01  0.17749171435E+02  0.00000000000E+00 0.  1.
</event>
<event>
 7    1  0.2323330E-008  0.4614232E+02  0.7816164E-02  0.1320468E+00
        -11   -1    0    0    0    0  0.00000000000E+00  0.00000000000E+00  0.45593999997E+02  0.45594000000E+02  0.51100000000E-03 0.  1.
         11   -1    0    0    0    0 -0.00000000000E+00 -0.00000000000E+00 -0.45593999997E+02  0.45594000000E+02  0.51100000000E-03 0. -1.
    9900012    2    1    2    0    0  0.75449389599E+01  0.37556923962E+02  0.23699470303E+02  0.46142317254E+02  0.99999953742E+01 0.  0.
         12    1    1    2    0    0 -0.75449389599E+01 -0.37556923962E+02 -0.23699470303E+02  0.45045682746E+02  0.00000000000E+00 0. -1.
         11    1    3    3    0    0 -0.74076982958E+00  0.81324456597E+01  0.63248000772E+01  0.10329012955E+02  0.51100000000E-03 0. -1.
        -11    1    3    3    0    0  0.45378015268E+01  0.67643483342E+01  0.28092981260E+01  0.86162757213E+01  0.51100000000E-03 0.  1.
        -12    1    3    3    0    0  0.37479072627E+01  0.22660129968E+02  0.14565372100E+02  0.27197028578E+02  0.00000000000E+00 0.  1.
</event>
<event>
 7    1  0.2323330E-008  0.4614232E+02  0.7816164E-02  0.1320468E+00
        -11   -1    0    0    0    0  0.00000000000E+00  0.00000000000E+00  0.45593999997E+02  0.45594000000E+02  0.51100000000E-03 0.  1.
         11   -1    0    0    0    0 -0.00000000000E+00 -0.00000000000E+00 -0.45593999997E+02  0.45594000000E+02  0.51100000000E-03 0. -1.
    9900012    2    1    2    0    0 -0.14561846363E+01 -0.40401615456E+02  0.19867119667E+02  0.46142318198E+02  0.10000003982E+02 0.  0.
         12    1    1    2    0    0  0.14561846363E+01  0.40401615456E+02 -0.19867119667E+02  0.45045681802E+02  0.00000000000E+00 0. -1.
         11    1    3    3    0    0 -0.37815110275E+01 -0.71869594368E+01  0.24139020328E+01  0.84722567763E+01  0.51100000000E-03 0. -1.
        -11    1    3    3    0    0 -0.23572909527E+00 -0.22229047530E+01  0.17117467581E+01  0.28154841452E+01  0.51100000000E-03 0.  1.
         12    1    3    3    0    0  0.25610554865E+01 -0.30991751266E+02  0.15741470876E+02  0.34854577276E+02  0.00000000000E+00 0. -1.
</event>
<event>
 7    1  0.2323330E-008  0.4614232E+02  0.7816164E-02  0.1320468E+00
        -11   -1    0    0    0    0  0.00000000000E+00  0.00000000000E+00  0.45593999997E+02  0.45594000000E+02  0.51100000000E-03 0.  1.
         11   -1    0    0    0    0 -0.00000000000E+00 -0.00000000000E+00 -0.45593999997E+02  0.45594000000E+02  0.51100000000E-03 0. -1.
    9900012    2    1    2    0    0  0.32978714135E+02  0.84098526609E+01  0.29509191017E+02  0.46142316941E+02  0.99999925215E+01 0.  0.
         12    1    1    2    0    0 -0.32978714135E+02 -0.84098526609E+01 -0.29509191017E+02  0.45045683059E+02  0.00000000000E+00 0. -1.
         11    1    3    3    0    0  0.17230428358E+02  0.65128107283E+01  0.10729957152E+02  0.21317512653E+02  0.51100000000E-03 0. -1.
        -11    1    3    3    0    0  0.12447410844E+02  0.29059302419E+01  0.14610796488E+02  0.19412826728E+02  0.51100000000E-03 0.  1.
         12    1    3    3    0    0  0.33008749339E+01 -0.10088883092E+01  0.41684373761E+01  0.54119775598E+01  0.00000000000E+00 0. -1.
</event>
<event>
 7    1  0.2323330E-008  0.4614232E+02  0.7816164E-02  0.1320468E+00
        -11   -1    0    0    0    0  0.00000000000E+00  0.00000000000E+00  0.45593999997E+02  0.45594000000E+02  0.51100000000E-03 0.  1.
         11   -1    0    0    0    0 -0.00000000000E+00 -0.00000000000E+00 -0.45593999997E+02  0.45594000000E+02  0.51100000000E-03 0. -1.
    9900012    2    1    2    0    0  0.76692305021E+01  0.12022687042E+02  0.42728811819E+02  0.46142318079E+02  0.10000002903E+02 0.  0.
         12    1    1    2    0    0 -0.76692305021E+01 -0.12022687042E+02 -0.42728811819E+02  0.45045681921E+02  0.00000000000E+00 0. -1.
         11    1    3    3    0    0  0.12067725082E+01 -0.86526156706E+00  0.49790917328E+01  0.51957994776E+01  0.51100000000E-03 0. -1.
        -11    1    3    3    0    0  0.39970292679E+01  0.39531325271E+01  0.21663877819E+02  0.22381400809E+02  0.51100000000E-03 0.  1.
         12    1    3    3    0    0  0.24654287260E+01  0.89348160817E+01  0.16085842267E+02  0.18565117793E+02  0.00000000000E+00 0. -1.
</event>
<event>
 7    1  0.2323330E-008  0.4614232E+02  0.7816164E-02  0.1320468E+00
        -11   -1    0    0    0    0  0.00000000000E+00  0.00000000000E+00  0.45593999997E+02  0.45594000000E+02  0.51100000000E-03 0.  1.
         11   -1    0    0    0    0 -0.00000000000E+00 -0.00000000000E+00 -0.45593999997E+02  0.45594000000E+02  0.51100000000E-03 0. -1.
    9900012    2    1    2    0    0  0.14336008671E+02  0.29746289196E+02  0.30639038539E+02  0.46142317098E+02  0.99999939506E+01 0.  0.
         12    1    1    2    0    0 -0.14336008671E+02 -0.29746289196E+02 -0.30639038539E+02  0.45045682902E+02  0.00000000000E+00 0. -1.
         11    1    3    3    0    0  0.57955682526E+00 -0.24570301673E+00 -0.16749182041E+00  0.65139071007E+00  0.51100000000E-03 0. -1.
        -11    1    3    3    0    0  0.12707734739E+02  0.27568468666E+02  0.30117557439E+02  0.42761831733E+02  0.51100000000E-03 0.  1.
        -12    1    3    3    0    0  0.10487171062E+01  0.24235235464E+01  0.68897292039E+00  0.27290946546E+01  0.00000000000E+00 0.  1.
</event>
<event>
 7    1  0.2323330E-008  0.4614232E+02  0.7816164E-02  0.1320468E+00
        -11   -1    0    0    0    0  0.00000000000E+00  0.00000000000E+00  0.45593999997E+02  0.45594000000E+02  0.51100000000E-03 0.  1.
         11   -1    0    0    0    0 -0.00000000000E+00 -0.00000000000E+00 -0.45593999997E+02  0.45594000000E+02  0.51100000000E-03 0. -1.
    9900012    2    1    2    0    0 -0.16566940546E+01 -0.25054813682E+02  0.37398197715E+02  0.46142317453E+02  0.99999971897E+01 0.  0.
         12    1    1    2    0    0  0.16566940546E+01  0.25054813682E+02 -0.37398197715E+02  0.45045682547E+02  0.00000000000E+00 0. -1.
         11    1    3    3    0    0 -0.24448011639E+00 -0.94633858695E+01  0.10573062371E+02  0.14191726139E+02  0.51100000000E-03 0. -1.
        -11    1    3    3    0    0 -0.41463922471E+01 -0.63325410243E+01  0.13774955655E+02  0.15717603126E+02  0.51100000000E-03 0.  1.
        -12    1    3    3    0    0  0.27341783089E+01 -0.92588867882E+01  0.13050179689E+02  0.16232988187E+02  0.00000000000E+00 0.  1.
</event>
<event>
 7    1  0.2323330E-008  0.4614231E+02  0.7816164E-02  0.1320468E+00
        -11   -1    0    0    0    0  0.00000000000E+00  0.00000000000E+00  0.45593999997E+02  0.45594000000E+02  0.51100000000E-03 0.  1.
         11   -1    0    0    0    0 -0.00000000000E+00 -0.00000000000E+00 -0.45593999997E+02  0.45594000000E+02  0.51100000000E-03 0. -1.
    9900012    2    1    2    0    0  0.21388035922E+02  0.34141902404E+02  0.20149347268E+02  0.46142314572E+02  0.99999709154E+01 0.  0.
         12    1    1    2    0    0 -0.21388035922E+02 -0.34141902404E+02 -0.20149347268E+02  0.45045685428E+02  0.00000000000E+00 0. -1.
         11    1    3    3    0    0  0.14372900628E+02  0.20655041797E+02  0.16077000991E+02  0.29861027866E+02  0.51100000000E-03 0.  1.
        -11    1    3    3    0    0  0.19155313416E+01  0.81749941773E+01  0.23478743762E+01  0.87185035681E+01  0.51100000000E-03 0. -1.
         12    1    3    3    0    0  0.50996039530E+01  0.53118664298E+01  0.17244719004E+01  0.75627831373E+01  0.00000000000E+00 0. -1.
</event>
<event>
 7    1  0.2323330E-008  0.4614232E+02  0.7816164E-02  0.1320468E+00
        -11   -1    0    0    0    0  0.00000000000E+00  0.00000000000E+00  0.45593999997E+02  0.45594000000E+02  0.51100000000E-03 0. -1.
         11   -1    0    0    0    0 -0.00000000000E+00 -0.00000000000E+00 -0.45593999997E+02  0.45594000000E+02  0.51100000000E-03 0.  1.
    9900012    2    1    2    0    0 -0.14673002565E+02  0.10225118661E+02 -0.41343238638E+02  0.46142318332E+02  0.10000005205E+02 0.  0.
         12    1    1    2    0    0  0.14673002565E+02 -0.10225118661E+02  0.41343238638E+02  0.45045681668E+02  0.00000000000E+00 0. -1.
         11    1    3    3    0    0 -0.29777567166E+01  0.24805457427E+01 -0.92992291377E+01  0.10074512646E+02  0.51100000000E-03 0. -1.
        -11    1    3    3    0    0 -0.21992252551E+01  0.66016984836E+01 -0.14612711979E+02  0.16184880792E+02  0.51100000000E-03 0.  1.
         12    1    3    3    0    0 -0.94960205931E+01  0.11428744344E+01 -0.17431297521E+02  0.19882924894E+02  0.00000000000E+00 0. -1.
</event>
<event>
 7    1  0.2323330E-008  0.4614232E+02  0.7816164E-02  0.1320468E+00
        -11   -1    0    0    0    0  0.00000000000E+00  0.00000000000E+00  0.45593999997E+02  0.45594000000E+02  0.51100000000E-03 0. -1.
         11   -1    0    0    0    0 -0.00000000000E+00 -0.00000000000E+00 -0.45593999997E+02  0.45594000000E+02  0.51100000000E-03 0.  1.
    9900012    2    1    2    0    0  0.38373905714E+02  0.23070735615E+02  0.49293077863E+01  0.46142317001E+02  0.99999930732E+01 0.  0.
         12    1    1    2    0    0 -0.38373905714E+02 -0.23070735615E+02 -0.49293077863E+01  0.45045682999E+02  0.00000000000E+00 0. -1.
         11    1    3    3    0    0  0.87344981344E+01  0.67039378277E+01  0.49298915995E+01  0.12063916093E+02  0.51100000000E-03 0. -1.
        -11    1    3    3    0    0  0.42541013139E+01  0.22143526388E+01  0.13529201355E+01  0.49830842610E+01  0.51100000000E-03 0.  1.
         12    1    3    3    0    0  0.25385306265E+02  0.14152445149E+02 -0.13535039487E+01  0.29095316647E+02  0.00000000000E+00 0. -1.
</event>
<event>
 7    1  0.2323330E-008  0.4614232E+02  0.7816164E-02  0.1320468E+00
        -11   -1    0    0    0    0  0.00000000000E+00  0.00000000000E+00  0.45593999997E+02  0.45594000000E+02  0.51100000000E-03 0.  1.
         11   -1    0    0    0    0 -0.00000000000E+00 -0.00000000000E+00 -0.45593999997E+02  0.45594000000E+02  0.51100000000E-03 0. -1.
    9900012    2    1    2    0    0  0.43849301352E+02  0.80008051801E+01  0.65068242076E+01  0.46142324582E+02  0.10000062199E+02 0.  0.
         12    1    1    2    0    0 -0.43849301352E+02 -0.80008051801E+01 -0.65068242076E+01  0.45045675418E+02  0.00000000000E+00 0. -1.
         11    1    3    3    0    0  0.20732198791E+01  0.46460663663E+00  0.10352202449E+01  0.23634257362E+01  0.51100000000E-03 0. -1.
        -11    1    3    3    0    0  0.14030629517E+02  0.26719625158E+00 -0.19096065687E+01  0.14162505286E+02  0.51100000000E-03 0.  1.
        -12    1    3    3    0    0  0.27745451956E+02  0.72690022919E+01  0.73812105315E+01  0.29616393560E+02  0.00000000000E+00 0.  1.
</event>
<event>
 7    1  0.2323330E-008  0.4614232E+02  0.7816164E-02  0.1320468E+00
        -11   -1    0    0    0    0  0.00000000000E+00  0.00000000000E+00  0.45593999997E+02  0.45594000000E+02  0.51100000000E-03 0. -1.
         11   -1    0    0    0    0 -0.00000000000E+00 -0.00000000000E+00 -0.45593999997E+02  0.45594000000E+02  0.51100000000E-03 0.  1.
    9900012    2    1    2    0    0 -0.38203036607E+02 -0.19930826595E+02 -0.13130254502E+02  0.46142318320E+02  0.10000005092E+02 0.  0.
         12    1    1    2    0    0  0.38203036607E+02  0.19930826595E+02  0.13130254502E+02  0.45045681680E+02  0.00000000000E+00 0. -1.
         11    1    3    3    0    0 -0.16944207173E+02 -0.83839062475E+01 -0.95342793436E+01  0.21173061270E+02  0.51100000000E-03 0. -1.
        -11    1    3    3    0    0 -0.20076905437E+02 -0.11770658475E+02 -0.41580762637E+01  0.23641491732E+02  0.51100000000E-03 0.  1.
         12    1    3    3    0    0 -0.11819239972E+01  0.22373812671E+00  0.56210110563E+00  0.13277653172E+01  0.00000000000E+00 0. -1.
</event>
<event>
 7    1  0.2323330E-008  0.4614232E+02  0.7816164E-02  0.1320468E+00
        -11   -1    0    0    0    0  0.00000000000E+00  0.00000000000E+00  0.45593999997E+02  0.45594000000E+02  0.51100000000E-03 0. -1.
         11   -1    0    0    0    0 -0.00000000000E+00 -0.00000000000E+00 -0.45593999997E+02  0.45594000000E+02  0.51100000000E-03 0.  1.
    9900012    2    1    2    0    0 -0.13454554543E+00 -0.41986751428E+02  0.16315868849E+02  0.46142323467E+02  0.10000052031E+02 0.  0.
         12    1    1    2    0    0  0.13454554543E+00  0.41986751428E+02 -0.16315868849E+02  0.45045676533E+02  0.00000000000E+00 0. -1.
         11    1    3    3    0    0  0.22513206551E+01 -0.49740880994E+01  0.20815921944E+01  0.58432031830E+01  0.51100000000E-03 0. -1.
        -11    1    3    3    0    0  0.21383735406E+01 -0.16539176798E+02  0.52054784791E+01  0.17470375411E+02  0.51100000000E-03 0.  1.
        -12    1    3    3    0    0 -0.45242397411E+01 -0.20473486531E+02  0.90287981759E+01  0.22828744873E+02  0.00000000000E+00 0.  1.
</event>
<event>
 7    1  0.2323330E-008  0.4614232E+02  0.7816164E-02  0.1320468E+00
        -11   -1    0    0    0    0  0.00000000000E+00  0.00000000000E+00  0.45593999997E+02  0.45594000000E+02  0.51100000000E-03 0. -1.
         11   -1    0    0    0    0 -0.00000000000E+00 -0.00000000000E+00 -0.45593999997E+02  0.45594000000E+02  0.51100000000E-03 0.  1.
    9900012    2    1    2    0    0  0.41640687892E+02  0.54581700008E+01 -0.16290328276E+02  0.46142319816E+02  0.10000018741E+02 0.  0.
         12    1    1    2    0    0 -0.41640687892E+02 -0.54581700008E+01  0.16290328276E+02  0.45045680184E+02  0.00000000000E+00 0. -1.
         11    1    3    3    0    0  0.88477526986E+01 -0.17510216565E+01 -0.34202212605E+01  0.96460726925E+01  0.51100000000E-03 0. -1.
        -11    1    3    3    0    0  0.25175619060E+02  0.29106370472E+01 -0.85971565017E+01  0.26761814274E+02  0.51100000000E-03 0.  1.
         12    1    3    3    0    0  0.76173161334E+01  0.42985546101E+01 -0.42729505135E+01  0.97344328496E+01  0.00000000000E+00 0. -1.
</event>
<event>
 7    1  0.2323330E-008  0.4614232E+02  0.7816164E-02  0.1320468E+00
        -11   -1    0    0    0    0  0.00000000000E+00  0.00000000000E+00  0.45593999997E+02  0.45594000000E+02  0.51100000000E-03 0.  1.
         11   -1    0    0    0    0 -0.00000000000E+00 -0.00000000000E+00 -0.45593999997E+02  0.45594000000E+02  0.51100000000E-03 0. -1.
    9900012    2    1    2    0    0  0.21322184412E+01  0.42271013747E+02 -0.15418448707E+02  0.46142317418E+02  0.99999968746E+01 0.  0.
         12    1    1    2    0    0 -0.21322184412E+01 -0.42271013747E+02  0.15418448707E+02  0.45045682582E+02  0.00000000000E+00 0. -1.
         11    1    3    3    0    0 -0.16337105639E+01  0.32043595234E+01 -0.20230592101E+01  0.41267055856E+01  0.51100000000E-03 0. -1.
        -11    1    3    3    0    0  0.19995320599E+01  0.29120840616E+01 -0.20368792157E+01  0.40776511917E+01  0.51100000000E-03 0.  1.
        -12    1    3    3    0    0  0.17663969451E+01  0.36154570162E+02 -0.11358510281E+02  0.37937960641E+02  0.00000000000E+00 0.  1.
</event>
<event>
 7    1  0.2323330E-008  0.4614232E+02  0.7816164E-02  0.1320468E+00
        -11   -1    0    0    0    0  0.00000000000E+00  0.00000000000E+00  0.45593999997E+02  0.45594000000E+02  0.51100000000E-03 0. -1.
         11   -1    0    0    0    0 -0.00000000000E+00 -0.00000000000E+00 -0.45593999997E+02  0.45594000000E+02  0.51100000000E-03 0.  1.
    9900012    2    1    2    0    0 -0.17110635284E+02 -0.13983220502E+01 -0.41645940067E+02  0.46142317982E+02  0.10000002019E+02 0.  0.
         12    1    1    2    0    0  0.17110635284E+02  0.13983220502E+01  0.41645940067E+02  0.45045682018E+02  0.00000000000E+00 0. -1.
         11    1    3    3    0    0 -0.64045032986E+01  0.24870012376E+01 -0.20127960834E+02  0.21268230891E+02  0.51100000000E-03 0. -1.
        -11    1    3    3    0    0 -0.50919669340E+01  0.79762457102E+00 -0.94585101341E+01  0.10771617633E+02  0.51100000000E-03 0.  1.
        -12    1    3    3    0    0 -0.56141650515E+01 -0.46829478588E+01 -0.12059469099E+02  0.14102469458E+02  0.00000000000E+00 0.  1.
</event>
<event>
 7    1  0.2323330E-008  0.4614232E+02  0.7816164E-02  0.1320468E+00
        -11   -1    0    0    0    0  0.00000000000E+00  0.00000000000E+00  0.45593999997E+02  0.45594000000E+02  0.51100000000E-03 0.  1.
         11   -1    0    0    0    0 -0.00000000000E+00 -0.00000000000E+00 -0.45593999997E+02  0.45594000000E+02  0.51100000000E-03 0. -1.
    9900012    2    1    2    0    0 -0.94614714365E+01  0.78754398151E+01  0.43330953475E+02  0.46142317376E+02  0.99999964893E+01 0.  0.
         12    1    1    2    0    0  0.94614714365E+01 -0.78754398151E+01 -0.43330953475E+02  0.45045682624E+02  0.00000000000E+00 0. -1.
         11    1    3    3    0    0 -0.62930294401E+01  0.64469646102E+01  0.31656408537E+02  0.32913428474E+02  0.51100000000E-03 0. -1.
        -11    1    3    3    0    0 -0.18673465907E+01  0.28708355488E+01  0.10285999978E+02  0.10841147350E+02  0.51100000000E-03 0.  1.
         12    1    3    3    0    0 -0.13010954057E+01 -0.14423603439E+01  0.13885449596E+01  0.23877415524E+01  0.00000000000E+00 0. -1.
</event>
<event>
 7    1  0.2323330E-008  0.4614232E+02  0.7816164E-02  0.1320468E+00
        -11   -1    0    0    0    0  0.00000000000E+00  0.00000000000E+00  0.45593999997E+02  0.45594000000E+02  0.51100000000E-03 0.  1.
         11   -1    0    0    0    0 -0.00000000000E+00 -0.00000000000E+00 -0.45593999997E+02  0.45594000000E+02  0.51100000000E-03 0. -1.
    9900012    2    1    2    0    0 -0.21334794186E+02  0.33277448008E+02  0.21599792608E+02  0.46142322854E+02  0.10000046438E+02 0.  0.
         12    1    1    2    0    0  0.21334794186E+02 -0.33277448008E+02 -0.21599792608E+02  0.45045677146E+02  0.00000000000E+00 0. -1.
         11    1    3    3    0    0 -0.41103746064E+01  0.48628498993E+01  0.22972396346E+01  0.67690323347E+01  0.51100000000E-03 0. -1.
        -11    1    3    3    0    0 -0.18130153210E+02  0.27688381082E+02  0.18190278528E+02  0.37765528403E+02  0.51100000000E-03 0.  1.
         12    1    3    3    0    0  0.90573363086E+00  0.72621702644E+00  0.11122744454E+01  0.16077621160E+01  0.00000000000E+00 0. -1.
</event>
<event>
 7    1  0.2323330E-008  0.4614232E+02  0.7816164E-02  0.1320468E+00
        -11   -1    0    0    0    0  0.00000000000E+00  0.00000000000E+00  0.45593999997E+02  0.45594000000E+02  0.51100000000E-03 0.  1.
         11   -1    0    0    0    0 -0.00000000000E+00 -0.00000000000E+00 -0.45593999997E+02  0.45594000000E+02  0.51100000000E-03 0. -1.
    9900012    2    1    2    0    0 -0.11637794123E+02 -0.25690479475E+02  0.35123701660E+02  0.46142318675E+02  0.10000008334E+02 0.  0.
         12    1    1    2    0    0  0.11637794123E+02  0.25690479475E+02 -0.35123701660E+02  0.45045681325E+02  0.00000000000E+00 0. -1.
         11    1    3    3    0    0 -0.62208275821E+01 -0.16644041901E+02  0.23696508156E+02  0.29618361293E+02  0.51100000000E-03 0. -1.
        -11    1    3    3    0    0 -0.53540913719E+01 -0.82656975449E+01  0.12021738421E+02  0.15540599900E+02  0.51100000000E-03 0.  1.
         12    1    3    3    0    0 -0.62875168611E-01 -0.78074002956E+00 -0.59454491689E+00  0.98335748270E+00  0.00000000000E+00 0. -1.
</event>
<event>
 7    1  0.2323330E-008  0.4614231E+02  0.7816164E-02  0.1320468E+00
        -11   -1    0    0    0    0  0.00000000000E+00  0.00000000000E+00  0.45593999997E+02  0.45594000000E+02  0.51100000000E-03 0.  1.
         11   -1    0    0    0    0 -0.00000000000E+00 -0.00000000000E+00 -0.45593999997E+02  0.45594000000E+02  0.51100000000E-03 0. -1.
    9900012    2    1    2    0    0  0.29548575405E+02 -0.22573243738E+02  0.25425270670E+02  0.46142311749E+02  0.99999451764E+01 0.  0.
         12    1    1    2    0    0 -0.29548575405E+02  0.22573243738E+02 -0.25425270670E+02  0.45045688251E+02  0.00000000000E+00 0. -1.
         11    1    3    3    0    0  0.54112696211E+01 -0.41328111411E+01  0.95909767523E+01  0.11762176761E+02  0.51100000000E-03 0.  1.
        -11    1    3    3    0    0  0.96594237861E+01 -0.75887885381E+01  0.80286515217E+01  0.14674925038E+02  0.51100000000E-03 0. -1.
         12    1    3    3    0    0  0.14477881998E+02 -0.10851644059E+02  0.78056423962E+01  0.19705209950E+02  0.00000000000E+00 0. -1.
</event>
<event>
 7    1  0.2323330E-008  0.4614230E+02  0.7816164E-02  0.1320468E+00
        -11   -1    0    0    0    0  0.00000000000E+00  0.00000000000E+00  0.45593999997E+02  0.45594000000E+02  0.51100000000E-03 0. -1.
         11   -1    0    0    0    0 -0.00000000000E+00 -0.00000000000E+00 -0.45593999997E+02  0.45594000000E+02  0.51100000000E-03 0.  1.
    9900012    2    1    2    0    0 -0.15034595951E+02 -0.10165019906E+02 -0.41228000705E+02  0.46142303788E+02  0.99998725780E+01 0.  0.
         12    1    1    2    0    0  0.15034595951E+02  0.10165019906E+02  0.41228000705E+02  0.45045696212E+02  0.00000000000E+00 0. -1.
         11    1    3    3    0    0  0.85174914771E-01 -0.21234721947E+01 -0.28663563739E+01  0.35682471959E+01  0.51100000000E-03 0. -1.
        -11    1    3    3    0    0 -0.32675368699E+01 -0.26999644950E+01 -0.39708817413E+01  0.58081414872E+01  0.51100000000E-03 0.  1.
        -12    1    3    3    0    0 -0.11852233996E+02 -0.53415832161E+01 -0.34390762590E+02  0.36765915105E+02  0.00000000000E+00 0.  1.
</event>
<event>
 7    1  0.3311527E-008  0.4614232E+02  0.7816164E-02  0.1320468E+00
        -11   -1    0    0    0    0  0.00000000000E+00  0.00000000000E+00  0.45593999997E+02  0.45594000000E+02  0.51100000000E-03 0.  1.
         11   -1    0    0    0    0 -0.00000000000E+00 -0.00000000000E+00 -0.45593999997E+02  0.45594000000E+02  0.51100000000E-03 0. -1.
    9900012    2    1    2    0    0  0.38830256041E+02  0.13771407727E+02  0.18211892888E+02  0.46142317659E+02  0.99999990730E+01 0.  0.
         12    1    1    2    0    0 -0.38830256041E+02 -0.13771407727E+02 -0.18211892888E+02  0.45045682341E+02  0.00000000000E+00 0. -1.
         11    1    3    3    0    0  0.13970545112E+02  0.52019823808E+01  0.43953787000E+01  0.15542075331E+02  0.51100000000E-03 0. -1.
        -11    1    3    3    0    0  0.19463150800E+02  0.82408427013E+01  0.78450445209E+01  0.22544854208E+02  0.51100000000E-03 0.  1.
         12    1    3    3    0    0  0.53965601287E+01  0.32858264457E+00  0.59714696669E+01  0.80553881197E+01  0.00000000000E+00 0. -1.
</event>
<event>
 7    1  0.2323330E-008  0.4614232E+02  0.7816164E-02  0.1320468E+00
        -11   -1    0    0    0    0  0.00000000000E+00  0.00000000000E+00  0.45593999997E+02  0.45594000000E+02  0.51100000000E-03 0. -1.
         11   -1    0    0    0    0 -0.00000000000E+00 -0.00000000000E+00 -0.45593999997E+02  0.45594000000E+02  0.51100000000E-03 0.  1.
    9900012    2    1    2    0    0 -0.28520625266E+02 -0.31574618706E+02  0.14789553477E+02  0.46142317587E+02  0.99999984148E+01 0.  0.
         12    1    1    2    0    0  0.28520625266E+02  0.31574618706E+02 -0.14789553477E+02  0.45045682413E+02  0.00000000000E+00 0. -1.
         11    1    3    3    0    0 -0.45539974031E+01 -0.42070948698E+01  0.45948840540E+01  0.77169617934E+01  0.51100000000E-03 0. -1.
        -11    1    3    3    0    0 -0.20840099171E+02 -0.21377528709E+02  0.59383550894E+01  0.30439653884E+02  0.51100000000E-03 0.  1.
        -12    1    3    3    0    0 -0.31265286919E+01 -0.59899951268E+01  0.42563143336E+01  0.79857019095E+01  0.00000000000E+00 0.  1.
</event>
<event>
 7    1  0.2323330E-008  0.4614232E+02  0.7816164E-02  0.1320468E+00
        -11   -1    0    0    0    0  0.00000000000E+00  0.00000000000E+00  0.45593999997E+02  0.45594000000E+02  0.51100000000E-03 0. -1.
         11   -1    0    0    0    0 -0.00000000000E+00 -0.00000000000E+00 -0.45593999997E+02  0.45594000000E+02  0.51100000000E-03 0.  1.
    9900012    2    1    2    0    0 -0.34857373306E+02 -0.24962075940E+02 -0.13819258479E+02  0.46142316367E+02  0.99999872871E+01 0.  0.
         12    1    1    2    0    0  0.34857373306E+02  0.24962075940E+02  0.13819258479E+02  0.45045683633E+02  0.00000000000E+00 0. -1.
         11    1    3    3    0    0 -0.14365344252E+01 -0.35375383625E-01  0.40542729384E+00  0.14930686937E+01  0.51100000000E-03 0. -1.
        -11    1    3    3    0    0 -0.71523274386E+01 -0.90860205663E+01 -0.51632805000E+01  0.12663768132E+02  0.51100000000E-03 0.  1.
         12    1    3    3    0    0 -0.26268511443E+02 -0.15840679990E+02 -0.90614052729E+01  0.31985479541E+02  0.00000000000E+00 0. -1.
</event>
<event>
 7    1  0.2323330E-008  0.4614232E+02  0.7816164E-02  0.1320468E+00
        -11   -1    0    0    0    0  0.00000000000E+00  0.00000000000E+00  0.45593999997E+02  0.45594000000E+02  0.51100000000E-03 0.  1.
         11   -1    0    0    0    0 -0.00000000000E+00 -0.00000000000E+00 -0.45593999997E+02  0.45594000000E+02  0.51100000000E-03 0. -1.
    9900012    2    1    2    0    0 -0.42484861219E+02 -0.99828286935E+01  0.11157652048E+02  0.46142317624E+02  0.99999987453E+01 0.  0.
         12    1    1    2    0    0  0.42484861219E+02  0.99828286935E+01 -0.11157652048E+02  0.45045682376E+02  0.00000000000E+00 0. -1.
         11    1    3    3    0    0 -0.27141260979E+01 -0.12171704078E+01 -0.11984357714E+01  0.32069039331E+01  0.51100000000E-03 0. -1.
        -11    1    3    3    0    0 -0.11964137419E+02 -0.12670417834E+01  0.59924129669E+01  0.13440795828E+02  0.51100000000E-03 0.  1.
        -12    1    3    3    0    0 -0.27806597702E+02 -0.74986165023E+01  0.63636748525E+01  0.29494617862E+02  0.00000000000E+00 0.  1.
</event>
<event>
 7    1  0.2323330E-008  0.4614232E+02  0.7816164E-02  0.1320468E+00
        -11   -1    0    0    0    0  0.00000000000E+00  0.00000000000E+00  0.45593999997E+02  0.45594000000E+02  0.51100000000E-03 0.  1.
         11   -1    0    0    0    0 -0.00000000000E+00 -0.00000000000E+00 -0.45593999997E+02  0.45594000000E+02  0.51100000000E-03 0. -1.
    9900012    2    1    2    0    0  0.73940048228E+01  0.38110338463E+02  0.22848284178E+02  0.46142319908E+02  0.10000019575E+02 0.  0.
         12    1    1    2    0    0 -0.73940048228E+01 -0.38110338463E+02 -0.22848284178E+02  0.45045680092E+02  0.00000000000E+00 0. -1.
         11    1    3    3    0    0  0.36337079186E+00  0.18267335521E+00  0.87417468722E-01  0.41599274277E+00  0.51100000000E-03 0. -1.
        -11    1    3    3    0    0  0.77895490930E+01  0.34320648030E+02  0.22983498825E+02  0.42033619577E+02  0.51100000000E-03 0.  1.
        -12    1    3    3    0    0 -0.75891506206E+00  0.36070170776E+01 -0.22263211513E+00  0.36927075877E+01  0.00000000000E+00 0.  1.
</event>
<event>
 7    1  0.2323330E-008  0.4614232E+02  0.7816164E-02  0.1320468E+00
        -11   -1    0    0    0    0  0.00000000000E+00  0.00000000000E+00  0.45593999997E+02  0.45594000000E+02  0.51100000000E-03 0.  1.
         11   -1    0    0    0    0 -0.00000000000E+00 -0.00000000000E+00 -0.45593999997E+02  0.45594000000E+02  0.51100000000E-03 0. -1.
    9900012    2    1    2    0    0 -0.22322403536E+02  0.25210340989E+02  0.29920939845E+02  0.46142316149E+02  0.99999852974E+01 0.  0.
         12    1    1    2    0    0  0.22322403536E+02 -0.25210340989E+02 -0.29920939845E+02  0.45045683851E+02  0.00000000000E+00 0. -1.
         11    1    3    3    0    0 -0.60065012670E+01  0.99447734938E+01  0.59886351177E+01  0.13070590199E+02  0.51100000000E-03 0. -1.
        -11    1    3    3    0    0 -0.34850890812E+01  0.11519651791E+01  0.28960398553E+01  0.46754589916E+01  0.51100000000E-03 0.  1.
         12    1    3    3    0    0 -0.12830813188E+02  0.14113602316E+02  0.21036264872E+02  0.28396266958E+02  0.00000000000E+00 0. -1.
</event>
<event>
 7    1  0.2323330E-008  0.4614232E+02  0.7816164E-02  0.1320468E+00
        -11   -1    0    0    0    0  0.00000000000E+00  0.00000000000E+00  0.45593999997E+02  0.45594000000E+02  0.51100000000E-03 0. -1.
         11   -1    0    0    0    0 -0.00000000000E+00 -0.00000000000E+00 -0.45593999997E+02  0.45594000000E+02  0.51100000000E-03 0.  1.
    9900012    2    1    2    0    0 -0.35147676574E+02 -0.17313599958E+02 -0.22225965384E+02  0.46142318195E+02  0.10000003953E+02 0.  0.
         12    1    1    2    0    0  0.35147676574E+02  0.17313599958E+02  0.22225965384E+02  0.45045681805E+02  0.00000000000E+00 0. -1.
         11    1    3    3    0    0 -0.56446624060E+01 -0.26668485581E+01 -0.67162971786E+01  0.91696751830E+01  0.51100000000E-03 0. -1.
        -11    1    3    3    0    0 -0.15636553034E+02 -0.11182325485E+02 -0.79355124904E+01  0.20797080391E+02  0.51100000000E-03 0.  1.
         12    1    3    3    0    0 -0.13866461134E+02 -0.34644259148E+01 -0.75741557152E+01  0.16175562621E+02  0.00000000000E+00 0. -1.
</event>
<event>
 7    1  0.2323330E-008  0.4614232E+02  0.7816164E-02  0.1320468E+00
        -11   -1    0    0    0    0  0.00000000000E+00  0.00000000000E+00  0.45593999997E+02  0.45594000000E+02  0.51100000000E-03 0.  1.
         11   -1    0    0    0    0 -0.00000000000E+00 -0.00000000000E+00 -0.45593999997E+02  0.45594000000E+02  0.51100000000E-03 0. -1.
    9900012    2    1    2    0    0  0.10833113096E+02 -0.40810742877E+02  0.15692051735E+02  0.46142316953E+02  0.99999926324E+01 0.  0.
         12    1    1    2    0    0 -0.10833113096E+02  0.40810742877E+02 -0.15692051735E+02  0.45045683047E+02  0.00000000000E+00 0. -1.
         11    1    3    3    0    0  0.25240883464E+01 -0.35526350534E+01  0.30412552117E+01  0.53142705357E+01  0.51100000000E-03 0. -1.
        -11    1    3    3    0    0  0.21725094147E+01 -0.56709513472E+01  0.47092397567E+01  0.76848178695E+01  0.51100000000E-03 0.  1.
         12    1    3    3    0    0  0.61365153351E+01 -0.31587156476E+02  0.79415567662E+01  0.33143228548E+02  0.00000000000E+00 0. -1.
</event>
<event>
 7    1  0.2323330E-008  0.4614232E+02  0.7816164E-02  0.1320468E+00
        -11   -1    0    0    0    0  0.00000000000E+00  0.00000000000E+00  0.45593999997E+02  0.45594000000E+02  0.51100000000E-03 0.  1.
         11   -1    0    0    0    0 -0.00000000000E+00 -0.00000000000E+00 -0.45593999997E+02  0.45594000000E+02  0.51100000000E-03 0. -1.
    9900012    2    1    2    0    0  0.38475747867E+02 -0.55419541604E+01  0.22759988163E+02  0.46142317731E+02  0.99999997290E+01 0.  0.
         12    1    1    2    0    0 -0.38475747867E+02  0.55419541604E+01 -0.22759988163E+02  0.45045682269E+02  0.00000000000E+00 0. -1.
         11    1    3    3    0    0  0.15692345805E+02 -0.31266556441E+01  0.12486672887E+02  0.20296371410E+02  0.51100000000E-03 0.  1.
        -11    1    3    3    0    0  0.15046735141E+02 -0.37692841072E+01  0.88658259136E+01  0.17866578029E+02  0.51100000000E-03 0. -1.
         12    1    3    3    0    0  0.77366669215E+01  0.13539855908E+01  0.14074893626E+01  0.79793682921E+01  0.00000000000E+00 0. -1.
</event>
<event>
 7    1  0.2323330E-008  0.4614232E+02  0.7816164E-02  0.1320468E+00
        -11   -1    0    0    0    0  0.00000000000E+00  0.00000000000E+00  0.45593999997E+02  0.45594000000E+02  0.51100000000E-03 0.  1.
         11   -1    0    0    0    0 -0.00000000000E+00 -0.00000000000E+00 -0.45593999997E+02  0.45594000000E+02  0.51100000000E-03 0. -1.
    9900012    2    1    2    0    0  0.12746796938E+02 -0.11479188435E+02  0.41651661068E+02  0.46142317976E+02  0.10000001958E+02 0.  0.
         12    1    1    2    0    0 -0.12746796938E+02  0.11479188435E+02 -0.41651661068E+02  0.45045682024E+02  0.00000000000E+00 0. -1.
         11    1    3    3    0    0  0.24904094569E+01 -0.20027455695E+01  0.19123470948E+02  0.19388663452E+02  0.51100000000E-03 0. -1.
        -11    1    3    3    0    0  0.31688928914E+01 -0.95560095096E+00  0.44008703032E+01  0.55066064887E+01  0.51100000000E-03 0.  1.
        -12    1    3    3    0    0  0.70874945892E+01 -0.85208419146E+01  0.18127319817E+02  0.21247048035E+02  0.00000000000E+00 0.  1.
</event>
<event>
 7    1  0.2323330E-008  0.4614232E+02  0.7816164E-02  0.1320468E+00
        -11   -1    0    0    0    0  0.00000000000E+00  0.00000000000E+00  0.45593999997E+02  0.45594000000E+02  0.51100000000E-03 0.  1.
         11   -1    0    0    0    0 -0.00000000000E+00 -0.00000000000E+00 -0.45593999997E+02  0.45594000000E+02  0.51100000000E-03 0. -1.
    9900012    2    1    2    0    0  0.16173485477E+02  0.17166795090E+02  0.38377505968E+02  0.46142318182E+02  0.10000003837E+02 0.  0.
         12    1    1    2    0    0 -0.16173485477E+02 -0.17166795090E+02 -0.38377505968E+02  0.45045681818E+02  0.00000000000E+00 0. -1.
         11    1    3    3    0    0  0.15616843836E+01  0.25125772676E+01  0.14773864132E+01  0.33067466662E+01  0.51100000000E-03 0. -1.
        -11    1    3    3    0    0  0.39557459525E+01  0.86684226066E+01  0.16583260654E+02  0.19125742095E+02  0.51100000000E-03 0.  1.
        -12    1    3    3    0    0  0.10656055141E+02  0.59857952159E+01  0.20316858901E+02  0.23709829420E+02  0.00000000000E+00 0.  1.
</event>
<event>
 7    1  0.2323330E-008  0.4614231E+02  0.7816164E-02  0.1320468E+00
        -11   -1    0    0    0    0  0.00000000000E+00  0.00000000000E+00  0.45593999997E+02  0.45594000000E+02  0.51100000000E-03 0. -1.
         11   -1    0    0    0    0 -0.00000000000E+00 -0.00000000000E+00 -0.45593999997E+02  0.45594000000E+02  0.51100000000E-03 0.  1.
    9900012    2    1    2    0    0  0.17460444335E+02  0.30657042060E+02 -0.28007006262E+02  0.46142314924E+02  0.99999741270E+01 0.  0.
         12    1    1    2    0    0 -0.17460444335E+02 -0.30657042060E+02  0.28007006262E+02  0.45045685076E+02  0.00000000000E+00 0. -1.
         11    1    3    3    0    0  0.68535071478E+01  0.68278247731E+01 -0.11413679549E+02  0.14962012982E+02  0.51100000000E-03 0. -1.
        -11    1    3    3    0    0  0.58922575473E+01  0.15820407798E+02 -0.12597358835E+02  0.21064127131E+02  0.51100000000E-03 0.  1.
         12    1    3    3    0    0  0.47146796399E+01  0.80088094884E+01 -0.39959678779E+01  0.10116174811E+02  0.00000000000E+00 0. -1.
</event>
<event>
 7    1  0.2323330E-008  0.4614232E+02  0.7816164E-02  0.1320468E+00
        -11   -1    0    0    0    0  0.00000000000E+00  0.00000000000E+00  0.45593999997E+02  0.45594000000E+02  0.51100000000E-03 0.  1.
         11   -1    0    0    0    0 -0.00000000000E+00 -0.00000000000E+00 -0.45593999997E+02  0.45594000000E+02  0.51100000000E-03 0. -1.
    9900012    2    1    2    0    0  0.18988090865E+02 -0.23476070365E+02  0.33428131730E+02  0.46142318016E+02  0.10000002323E+02 0.  0.
         12    1    1    2    0    0 -0.18988090865E+02  0.23476070365E+02 -0.33428131730E+02  0.45045681984E+02  0.00000000000E+00 0. -1.
         11    1    3    3    0    0  0.31178928086E+01 -0.27670519358E+01  0.39272831478E+01  0.57272493542E+01  0.51100000000E-03 0. -1.
        -11    1    3    3    0    0  0.57908326370E+01 -0.13615682692E+02  0.19868174812E+02  0.24772261270E+02  0.51100000000E-03 0.  1.
        -12    1    3    3    0    0  0.10079365419E+02 -0.70933357366E+01  0.96326737696E+01  0.15642807391E+02  0.00000000000E+00 0.  1.
</event>
<event>
 7    1  0.2323330E-008  0.4614232E+02  0.7816164E-02  0.1320468E+00
        -11   -1    0    0    0    0  0.00000000000E+00  0.00000000000E+00  0.45593999997E+02  0.45594000000E+02  0.51100000000E-03 0.  1.
         11   -1    0    0    0    0 -0.00000000000E+00 -0.00000000000E+00 -0.45593999997E+02  0.45594000000E+02  0.51100000000E-03 0. -1.
    9900012    2    1    2    0    0  0.36003961734E+02 -0.13161394862E+02  0.23655987999E+02  0.46142319369E+02  0.10000014663E+02 0.  0.
         12    1    1    2    0    0 -0.36003961734E+02  0.13161394862E+02 -0.23655987999E+02  0.45045680631E+02  0.00000000000E+00 0. -1.
         11    1    3    3    0    0  0.67418601643E+01 -0.41619148570E+01  0.23583768562E+01  0.82665685389E+01  0.51100000000E-03 0. -1.
        -11    1    3    3    0    0  0.21994248340E+02 -0.66534790388E+01  0.12264136603E+02  0.26046588841E+02  0.51100000000E-03 0.  1.
         12    1    3    3    0    0  0.72678532301E+01 -0.23460009665E+01  0.90334745403E+01  0.11829161990E+02  0.00000000000E+00 0. -1.
</event>
<event>
 7    1  0.2323330E-008  0.4614232E+02  0.7816164E-02  0.1320468E+00
        -11   -1    0    0    0    0  0.00000000000E+00  0.00000000000E+00  0.45593999997E+02  0.45594000000E+02  0.51100000000E-03 0. -1.
         11   -1    0    0    0    0 -0.00000000000E+00 -0.00000000000E+00 -0.45593999997E+02  0.45594000000E+02  0.51100000000E-03 0.  1.
    9900012    2    1    2    0    0  0.19192823264E+02 -0.33862829232E+02  0.22672844213E+02  0.46142317264E+02  0.99999954712E+01 0.  0.
         12    1    1    2    0    0 -0.19192823264E+02  0.33862829232E+02 -0.22672844213E+02  0.45045682736E+02  0.00000000000E+00 0. -1.
         11    1    3    3    0    0  0.26795360556E+01 -0.69140170172E+01  0.54506570253E+01  0.92028912335E+01  0.51100000000E-03 0. -1.
        -11    1    3    3    0    0  0.12409923994E+02 -0.23219995353E+02  0.10806038120E+02  0.28459530176E+02  0.51100000000E-03 0.  1.
        -12    1    3    3    0    0  0.41033632138E+01 -0.37288168614E+01  0.64161490671E+01  0.84798958545E+01  0.00000000000E+00 0.  1.
</event>
<event>
 7    1  0.2323330E-008  0.4614232E+02  0.7816164E-02  0.1320468E+00
        -11   -1    0    0    0    0  0.00000000000E+00  0.00000000000E+00  0.45593999997E+02  0.45594000000E+02  0.51100000000E-03 0.  1.
         11   -1    0    0    0    0 -0.00000000000E+00 -0.00000000000E+00 -0.45593999997E+02  0.45594000000E+02  0.51100000000E-03 0. -1.
    9900012    2    1    2    0    0  0.15094224391E+02 -0.18157019911E+02  0.38361447298E+02  0.46142316291E+02  0.99999865966E+01 0.  0.
         12    1    1    2    0    0 -0.15094224391E+02  0.18157019911E+02 -0.38361447298E+02  0.45045683709E+02  0.00000000000E+00 0. -1.
         11    1    3    3    0    0  0.41136829919E+01 -0.48607637054E+01  0.14383574762E+02  0.15730118714E+02  0.51100000000E-03 0. -1.
        -11    1    3    3    0    0  0.11463383123E+02 -0.13278099100E+02  0.24192897749E+02  0.29883329301E+02  0.51100000000E-03 0.  1.
         12    1    3    3    0    0 -0.48284172360E+00 -0.18157105148E-01 -0.21502521417E+00  0.52886827589E+00  0.00000000000E+00 0. -1.
</event>
<event>
 7    1  0.2323330E-008  0.4614232E+02  0.7816164E-02  0.1320468E+00
        -11   -1    0    0    0    0  0.00000000000E+00  0.00000000000E+00  0.45593999997E+02  0.45594000000E+02  0.51100000000E-03 0. -1.
         11   -1    0    0    0    0 -0.00000000000E+00 -0.00000000000E+00 -0.45593999997E+02  0.45594000000E+02  0.51100000000E-03 0.  1.
    9900012    2    1    2    0    0 -0.15182157477E+02 -0.13782562643E+02 -0.40108061506E+02  0.46142317227E+02  0.99999951312E+01 0.  0.
         12    1    1    2    0    0  0.15182157477E+02  0.13782562643E+02  0.40108061506E+02  0.45045682773E+02  0.00000000000E+00 0. -1.
         11    1    3    3    0    0 -0.55140016862E+00  0.20096191628E+00  0.10464914072E+00  0.59613718347E+00  0.51100000000E-03 0. -1.
        -11    1    3    3    0    0 -0.11360193718E+02 -0.13020442713E+02 -0.37112260123E+02  0.40937828245E+02  0.51100000000E-03 0.  1.
        -12    1    3    3    0    0 -0.32705635911E+01 -0.96308184590E+00 -0.31004505244E+01  0.46083517986E+01  0.00000000000E+00 0.  1.
</event>
<event>
 7    1  0.2323330E-008  0.4614232E+02  0.7816164E-02  0.1320468E+00
        -11   -1    0    0    0    0  0.00000000000E+00  0.00000000000E+00  0.45593999997E+02  0.45594000000E+02  0.51100000000E-03 0.  1.
         11   -1    0    0    0    0 -0.00000000000E+00 -0.00000000000E+00 -0.45593999997E+02  0.45594000000E+02  0.51100000000E-03 0. -1.
    9900012    2    1    2    0    0  0.32366854272E+02  0.17730586473E+02  0.25828791472E+02  0.46142318508E+02  0.10000006814E+02 0.  0.
         12    1    1    2    0    0 -0.32366854272E+02 -0.17730586473E+02 -0.25828791472E+02  0.45045681492E+02  0.00000000000E+00 0. -1.
         11    1    3    3    0    0  0.22097914141E+01 -0.59141818792E+00  0.12924551114E+01  0.26274310729E+01  0.51100000000E-03 0. -1.
        -11    1    3    3    0    0  0.18110049769E+02  0.14712058277E+02  0.16765300130E+02  0.28731408773E+02  0.51100000000E-03 0.  1.
        -12    1    3    3    0    0  0.12047013089E+02  0.36099463843E+01  0.77710362303E+01  0.14783478662E+02  0.00000000000E+00 0.  1.
</event>
<event>
 7    1  0.2323330E-008  0.4614232E+02  0.7816164E-02  0.1320468E+00
        -11   -1    0    0    0    0  0.00000000000E+00  0.00000000000E+00  0.45593999997E+02  0.45594000000E+02  0.51100000000E-03 0.  1.
         11   -1    0    0    0    0 -0.00000000000E+00 -0.00000000000E+00 -0.45593999997E+02  0.45594000000E+02  0.51100000000E-03 0. -1.
    9900012    2    1    2    0    0 -0.22746021469E+02  0.27734407403E+02  0.27249489082E+02  0.46142317611E+02  0.99999986318E+01 0.  0.
         12    1    1    2    0    0  0.22746021469E+02 -0.27734407403E+02 -0.27249489082E+02  0.45045682389E+02  0.00000000000E+00 0. -1.
         11    1    3    3    0    0 -0.24464403171E+01  0.52589093018E+01  0.31568828525E+01  0.66035677384E+01  0.51100000000E-03 0. -1.
        -11    1    3    3    0    0 -0.36390386897E+00  0.13988789450E+01  0.39887519180E+01  0.42425735648E+01  0.51100000000E-03 0.  1.
         12    1    3    3    0    0 -0.19935677283E+02  0.21076619156E+02  0.20103854311E+02  0.35296176308E+02  0.00000000000E+00 0. -1.
</event>
<event>
 7    1  0.2323330E-008  0.4614232E+02  0.7816164E-02  0.1320468E+00
        -11   -1    0    0    0    0  0.00000000000E+00  0.00000000000E+00  0.45593999997E+02  0.45594000000E+02  0.51100000000E-03 0. -1.
         11   -1    0    0    0    0 -0.00000000000E+00 -0.00000000000E+00 -0.45593999997E+02  0.45594000000E+02  0.51100000000E-03 0.  1.
    9900012    2    1    2    0    0  0.17237826333E+01 -0.27326098403E+02 -0.35769072853E+02  0.46142315931E+02  0.99999833130E+01 0.  0.
         12    1    1    2    0    0 -0.17237826333E+01  0.27326098403E+02  0.35769072853E+02  0.45045684069E+02  0.00000000000E+00 0. -1.
         11    1    3    3    0    0  0.26781948338E+01 -0.51466082530E+01 -0.11575385046E+02  0.12947966763E+02  0.51100000000E-03 0. -1.
        -11    1    3    3    0    0  0.60027046769E+00 -0.17890295955E+02 -0.21158438204E+02  0.27714662572E+02  0.51100000000E-03 0.  1.
        -12    1    3    3    0    0 -0.15546826681E+01 -0.42891941946E+01 -0.30352496032E+01  0.54796865961E+01  0.00000000000E+00 0.  1.
</event>
<event>
 7    1  0.2323330E-008  0.4614232E+02  0.7816164E-02  0.1320468E+00
        -11   -1    0    0    0    0  0.00000000000E+00  0.00000000000E+00  0.45593999997E+02  0.45594000000E+02  0.51100000000E-03 0.  1.
         11   -1    0    0    0    0 -0.00000000000E+00 -0.00000000000E+00 -0.45593999997E+02  0.45594000000E+02  0.51100000000E-03 0. -1.
    9900012    2    1    2    0    0 -0.17635462543E+02  0.44328085771E+01  0.41212305979E+02  0.46142317687E+02  0.99999993238E+01 0.  0.
         12    1    1    2    0    0  0.17635462543E+02 -0.44328085771E+01 -0.41212305979E+02  0.45045682313E+02  0.00000000000E+00 0. -1.
         11    1    3    3    0    0 -0.91889282596E+00  0.64548151456E+00  0.78042515905E+00  0.13675065269E+01  0.51100000000E-03 0. -1.
        -11    1    3    3    0    0 -0.13287898074E+02  0.61237611708E+01  0.26905199192E+02  0.30626106999E+02  0.51100000000E-03 0.  1.
        -12    1    3    3    0    0 -0.34286716424E+01 -0.23364341083E+01  0.13526681628E+02  0.14148704161E+02  0.00000000000E+00 0.  1.
</event>
<event>
 7    1  0.2323330E-008  0.4614232E+02  0.7816164E-02  0.1320468E+00
        -11   -1    0    0    0    0  0.00000000000E+00  0.00000000000E+00  0.45593999997E+02  0.45594000000E+02  0.51100000000E-03 0.  1.
         11   -1    0    0    0    0 -0.00000000000E+00 -0.00000000000E+00 -0.45593999997E+02  0.45594000000E+02  0.51100000000E-03 0. -1.
    9900012    2    1    2    0    0  0.97515301153E+01 -0.35567653309E+02  0.25864322059E+02  0.46142318109E+02  0.10000003169E+02 0.  0.
         12    1    1    2    0    0 -0.97515301153E+01  0.35567653309E+02 -0.25864322059E+02  0.45045681891E+02  0.00000000000E+00 0. -1.
         11    1    3    3    0    0  0.44316457623E+01 -0.42993710033E+01  0.46655528087E+01  0.77389571945E+01  0.51100000000E-03 0. -1.
        -11    1    3    3    0    0  0.35313327710E+01 -0.13637392355E+02  0.72037567433E+01  0.15822227810E+02  0.51100000000E-03 0.  1.
        -12    1    3    3    0    0  0.17885515820E+01 -0.17630889950E+02  0.13995012507E+02  0.22581133104E+02  0.00000000000E+00 0.  1.
</event>
<event>
 7    1  0.2323330E-008  0.4614232E+02  0.7816164E-02  0.1320468E+00
        -11   -1    0    0    0    0  0.00000000000E+00  0.00000000000E+00  0.45593999997E+02  0.45594000000E+02  0.51100000000E-03 0.  1.
         11   -1    0    0    0    0 -0.00000000000E+00 -0.00000000000E+00 -0.45593999997E+02  0.45594000000E+02  0.51100000000E-03 0. -1.
    9900012    2    1    2    0    0 -0.48179878285E+01  0.31872979312E+02  0.31464482950E+02  0.46142317585E+02  0.99999983945E+01 0.  0.
         12    1    1    2    0    0  0.48179878285E+01 -0.31872979312E+02 -0.31464482950E+02  0.45045682415E+02  0.00000000000E+00 0. -1.
         11    1    3    3    0    0  0.12655323829E+01  0.36195377068E+01  0.79316013066E+01  0.88098198035E+01  0.51100000000E-03 0. -1.
        -11    1    3    3    0    0 -0.16706216643E+01  0.60239994171E+01  0.40748749019E+01  0.74621814136E+01  0.51100000000E-03 0.  1.
         12    1    3    3    0    0 -0.44128985470E+01  0.22229442188E+02  0.19458006742E+02  0.29870316368E+02  0.00000000000E+00 0. -1.
</event>
<event>
 7    1  0.2323330E-008  0.4614232E+02  0.7816164E-02  0.1320468E+00
        -11   -1    0    0    0    0  0.00000000000E+00  0.00000000000E+00  0.45593999997E+02  0.45594000000E+02  0.51100000000E-03 0.  1.
         11   -1    0    0    0    0 -0.00000000000E+00 -0.00000000000E+00 -0.45593999997E+02  0.45594000000E+02  0.51100000000E-03 0. -1.
    9900012    2    1    2    0    0 -0.44970125361E+01  0.22671245660E+02  0.38664000963E+02  0.46142317942E+02  0.10000001654E+02 0.  0.
         12    1    1    2    0    0  0.44970125361E+01 -0.22671245660E+02 -0.38664000963E+02  0.45045682058E+02  0.00000000000E+00 0. -1.
         11    1    3    3    0    0 -0.63521240121E+00  0.59495142962E+01  0.39973601140E+01  0.71957698197E+01  0.51100000000E-03 0. -1.
        -11    1    3    3    0    0 -0.48823003455E+01  0.14287157447E+02  0.28987431610E+02  0.32683802046E+02  0.51100000000E-03 0.  1.
         12    1    3    3    0    0  0.10205002106E+01  0.24345739168E+01  0.56792092395E+01  0.62627460768E+01  0.00000000000E+00 0. -1.
</event>
<event>
 7    1  0.2323330E-008  0.4614232E+02  0.7816164E-02  0.1320468E+00
        -11   -1    0    0    0    0  0.00000000000E+00  0.00000000000E+00  0.45593999997E+02  0.45594000000E+02  0.51100000000E-03 0.  1.
         11   -1    0    0    0    0 -0.00000000000E+00 -0.00000000000E+00 -0.45593999997E+02  0.45594000000E+02  0.51100000000E-03 0. -1.
    9900012    2    1    2    0    0  0.33542572514E+02 -0.28449740643E+02  0.97273624395E+01  0.46142317703E+02  0.99999994726E+01 0.  0.
         12    1    1    2    0    0 -0.33542572514E+02  0.28449740643E+02 -0.97273624395E+01  0.45045682297E+02  0.00000000000E+00 0. -1.
         11    1    3    3    0    0  0.51635666831E+01 -0.97712598744E+00  0.62175691310E+00  0.52918595982E+01  0.51100000000E-03 0. -1.
        -11    1    3    3    0    0  0.24145480476E+02 -0.20646629514E+02  0.67302804103E+01  0.32474362386E+02  0.51100000000E-03 0.  1.
         12    1    3    3    0    0  0.42335253551E+01 -0.68259851422E+01  0.23753251161E+01  0.83760957194E+01  0.00000000000E+00 0. -1.
</event>
<event>
 7    1  0.2323330E-008  0.4614232E+02  0.7816164E-02  0.1320468E+00
        -11   -1    0    0    0    0  0.00000000000E+00  0.00000000000E+00  0.45593999997E+02  0.45594000000E+02  0.51100000000E-03 0.  1.
         11   -1    0    0    0    0 -0.00000000000E+00 -0.00000000000E+00 -0.45593999997E+02  0.45594000000E+02  0.51100000000E-03 0. -1.
    9900012    2    1    2    0    0  0.42301851498E+02 -0.70556476360E+01 -0.13779864646E+02  0.46142317928E+02  0.10000001519E+02 0.  0.
         12    1    1    2    0    0 -0.42301851498E+02  0.70556476360E+01  0.13779864646E+02  0.45045682072E+02  0.00000000000E+00 0. -1.
         11    1    3    3    0    0  0.27912254610E+01  0.13819711334E+01 -0.25470932250E+01  0.40234895235E+01  0.51100000000E-03 0. -1.
        -11    1    3    3    0    0  0.10031747708E+02 -0.38279640721E+01 -0.35429242678E+01  0.11306705252E+02  0.51100000000E-03 0.  1.
         12    1    3    3    0    0  0.29478878328E+02 -0.46096546973E+01 -0.76898471534E+01  0.30812123153E+02  0.00000000000E+00 0. -1.
</event>
<event>
 7    1  0.2323330E-008  0.4614232E+02  0.7816164E-02  0.1320468E+00
        -11   -1    0    0    0    0  0.00000000000E+00  0.00000000000E+00  0.45593999997E+02  0.45594000000E+02  0.51100000000E-03 0.  1.
         11   -1    0    0    0    0 -0.00000000000E+00 -0.00000000000E+00 -0.45593999997E+02  0.45594000000E+02  0.51100000000E-03 0. -1.
    9900012    2    1    2    0    0  0.38108503752E+02 -0.20868193736E+02  0.11890078007E+02  0.46142317377E+02  0.99999964954E+01 0.  0.
         12    1    1    2    0    0 -0.38108503752E+02  0.20868193736E+02 -0.11890078007E+02  0.45045682623E+02  0.00000000000E+00 0. -1.
         11    1    3    3    0    0  0.42475007883E+01 -0.39788438270E+01  0.15420077415E+01  0.60208179911E+01  0.51100000000E-03 0. -1.
        -11    1    3    3    0    0  0.11263923586E+02 -0.87137703409E+01  0.69682778496E+01  0.15854420978E+02  0.51100000000E-03 0.  1.
         12    1    3    3    0    0  0.22597079378E+02 -0.81755795677E+01  0.33797924161E+01  0.24267078408E+02  0.00000000000E+00 0. -1.
</event>
<event>
 7    1  0.2323330E-008  0.4614232E+02  0.7816164E-02  0.1320468E+00
        -11   -1    0    0    0    0  0.00000000000E+00  0.00000000000E+00  0.45593999997E+02  0.45594000000E+02  0.51100000000E-03 0.  1.
         11   -1    0    0    0    0 -0.00000000000E+00 -0.00000000000E+00 -0.45593999997E+02  0.45594000000E+02  0.51100000000E-03 0. -1.
    9900012    2    1    2    0    0 -0.10160854683E+02 -0.21816355878E+02  0.38077777810E+02  0.46142317469E+02  0.99999973405E+01 0.  0.
         12    1    1    2    0    0  0.10160854683E+02  0.21816355878E+02 -0.38077777810E+02  0.45045682531E+02  0.00000000000E+00 0. -1.
         11    1    3    3    0    0 -0.29119012538E+01 -0.56670618624E+01  0.85647989637E+01  0.10674761853E+02  0.51100000000E-03 0. -1.
        -11    1    3    3    0    0 -0.89817498605E+01 -0.11350042695E+02  0.23276695552E+02  0.27409849614E+02  0.51100000000E-03 0.  1.
         12    1    3    3    0    0  0.17327964310E+01 -0.47992513210E+01  0.62362832937E+01  0.80577060031E+01  0.00000000000E+00 0. -1.
</event>
<event>
 7    1  0.2323330E-008  0.4614232E+02  0.7816164E-02  0.1320468E+00
        -11   -1    0    0    0    0  0.00000000000E+00  0.00000000000E+00  0.45593999997E+02  0.45594000000E+02  0.51100000000E-03 0.  1.
         11   -1    0    0    0    0 -0.00000000000E+00 -0.00000000000E+00 -0.45593999997E+02  0.45594000000E+02  0.51100000000E-03 0. -1.
    9900012    2    1    2    0    0 -0.22266806555E+02  0.12355695669E+02  0.37156959944E+02  0.46142316944E+02  0.99999925533E+01 0.  0.
         12    1    1    2    0    0  0.22266806555E+02 -0.12355695669E+02 -0.37156959944E+02  0.45045683056E+02  0.00000000000E+00 0. -1.
         11    1    3    3    0    0 -0.86139448066E+00  0.16034187652E+01  0.28127913944E+01  0.33503354873E+01  0.51100000000E-03 0. -1.
        -11    1    3    3    0    0 -0.12471705086E+02  0.10906486356E+02  0.21413866196E+02  0.27074869124E+02  0.51100000000E-03 0.  1.
        -12    1    3    3    0    0 -0.89337069891E+01 -0.15420945218E+00  0.12930302354E+02  0.15717112333E+02  0.00000000000E+00 0.  1.
</event>
<event>
 7    1  0.2323330E-008  0.4614232E+02  0.7816164E-02  0.1320468E+00
        -11   -1    0    0    0    0  0.00000000000E+00  0.00000000000E+00  0.45593999997E+02  0.45594000000E+02  0.51100000000E-03 0.  1.
         11   -1    0    0    0    0 -0.00000000000E+00 -0.00000000000E+00 -0.45593999997E+02  0.45594000000E+02  0.51100000000E-03 0. -1.
    9900012    2    1    2    0    0  0.55081594375E+00 -0.53335236858E+01  0.44725424955E+02  0.46142317516E+02  0.99999977623E+01 0.  0.
         12    1    1    2    0    0 -0.55081594375E+00  0.53335236858E+01 -0.44725424955E+02  0.45045682484E+02  0.00000000000E+00 0. -1.
         11    1    3    3    0    0  0.11339963620E+00 -0.69806637153E+01  0.30678084475E+02  0.31462475947E+02  0.51100000000E-03 0.  1.
        -11    1    3    3    0    0 -0.85496278125E+00  0.38592396566E-01  0.53159167090E+00  0.10074922809E+01  0.51100000000E-03 0. -1.
        -12    1    3    3    0    0  0.12923790888E+01  0.16085476329E+01  0.13515748808E+02  0.13672349288E+02  0.00000000000E+00 0.  1.
</event>
<event>
 7    1  0.2323330E-008  0.4614231E+02  0.7816164E-02  0.1320468E+00
        -11   -1    0    0    0    0  0.00000000000E+00  0.00000000000E+00  0.45593999997E+02  0.45594000000E+02  0.51100000000E-03 0.  1.
         11   -1    0    0    0    0 -0.00000000000E+00 -0.00000000000E+00 -0.45593999997E+02  0.45594000000E+02  0.51100000000E-03 0. -1.
    9900012    2    1    2    0    0  0.19081632223E+02  0.15760881745E+02  0.37637743462E+02  0.46142314140E+02  0.99999669777E+01 0.  0.
         12    1    1    2    0    0 -0.19081632223E+02 -0.15760881745E+02 -0.37637743462E+02  0.45045685860E+02  0.00000000000E+00 0. -1.
         11    1    3    3    0    0  0.12845541982E+02  0.92380571854E+01  0.21377965229E+02  0.26596372816E+02  0.51100000000E-03 0. -1.
        -11    1    3    3    0    0  0.56701505133E+01  0.18680009984E+01  0.72730519872E+01  0.94094271899E+01  0.51100000000E-03 0.  1.
         12    1    3    3    0    0  0.56593972787E+00  0.46548235614E+01  0.89867262464E+01  0.10136514134E+02  0.00000000000E+00 0. -1.
</event>
<event>
 7    1  0.2323330E-008  0.4614232E+02  0.7816164E-02  0.1320468E+00
        -11   -1    0    0    0    0  0.00000000000E+00  0.00000000000E+00  0.45593999997E+02  0.45594000000E+02  0.51100000000E-03 0. -1.
         11   -1    0    0    0    0 -0.00000000000E+00 -0.00000000000E+00 -0.45593999997E+02  0.45594000000E+02  0.51100000000E-03 0.  1.
    9900012    2    1    2    0    0 -0.23865920704E+02  0.29243677884E+02 -0.24583298602E+02  0.46142318327E+02  0.10000005160E+02 0.  0.
         12    1    1    2    0    0  0.23865920704E+02 -0.29243677884E+02  0.24583298602E+02  0.45045681673E+02  0.00000000000E+00 0. -1.
         11    1    3    3    0    0 -0.49533380925E+01  0.34095502940E+01 -0.68012951911E+01  0.90784474445E+01  0.51100000000E-03 0. -1.
        -11    1    3    3    0    0 -0.15969496758E+02  0.22070043265E+02 -0.12597740343E+02  0.30013575236E+02  0.51100000000E-03 0.  1.
        -12    1    3    3    0    0 -0.29430858534E+01  0.37640843251E+01 -0.51842630682E+01  0.70502956468E+01  0.00000000000E+00 0.  1.
</event>
<event>
 7    1  0.2323330E-008  0.4614232E+02  0.7816164E-02  0.1320468E+00
        -11   -1    0    0    0    0  0.00000000000E+00  0.00000000000E+00  0.45593999997E+02  0.45594000000E+02  0.51100000000E-03 0. -1.
         11   -1    0    0    0    0 -0.00000000000E+00 -0.00000000000E+00 -0.45593999997E+02  0.45594000000E+02  0.51100000000E-03 0.  1.
    9900012    2    1    2    0    0 -0.23234094917E+02 -0.38131956664E+02 -0.59366834459E+01  0.46142317677E+02  0.99999992296E+01 0.  0.
         12    1    1    2    0    0  0.23234094917E+02  0.38131956664E+02  0.59366834459E+01  0.45045682323E+02  0.00000000000E+00 0. -1.
         11    1    3    3    0    0  0.81492317975E+00 -0.20983509959E+01 -0.86039032168E+00  0.24098648215E+01  0.51100000000E-03 0. -1.
        -11    1    3    3    0    0 -0.45079754969E+01 -0.54769686106E+01 -0.17721952484E+01  0.73116143567E+01  0.51100000000E-03 0.  1.
         12    1    3    3    0    0 -0.19541042599E+02 -0.30556637058E+02 -0.33040978758E+01  0.36420838498E+02  0.00000000000E+00 0. -1.
</event>
<event>
 7    1  0.2323330E-008  0.4614232E+02  0.7816164E-02  0.1320468E+00
        -11   -1    0    0    0    0  0.00000000000E+00  0.00000000000E+00  0.45593999997E+02  0.45594000000E+02  0.51100000000E-03 0.  1.
         11   -1    0    0    0    0 -0.00000000000E+00 -0.00000000000E+00 -0.45593999997E+02  0.45594000000E+02  0.51100000000E-03 0. -1.
    9900012    2    1    2    0    0 -0.15070098270E+02  0.40968659547E+01  0.42251877019E+02  0.46142320028E+02  0.10000020673E+02 0.  0.
         12    1    1    2    0    0  0.15070098270E+02 -0.40968659547E+01 -0.42251877019E+02  0.45045679972E+02  0.00000000000E+00 0. -1.
         11    1    3    3    0    0 -0.50413045694E+00 -0.16650194194E+01  0.14868020655E+01  0.22884531517E+01  0.51100000000E-03 0. -1.
        -11    1    3    3    0    0 -0.21962194512E+01  0.23721966640E+01  0.63286243617E+01  0.71064888281E+01  0.51100000000E-03 0.  1.
        -12    1    3    3    0    0 -0.12369748362E+02  0.33896887100E+01  0.34436450592E+02  0.36747378048E+02  0.00000000000E+00 0.  1.
</event>
<event>
 7    1  0.2323330E-008  0.4614232E+02  0.7816164E-02  0.1320468E+00
        -11   -1    0    0    0    0  0.00000000000E+00  0.00000000000E+00  0.45593999997E+02  0.45594000000E+02  0.51100000000E-03 0. -1.
         11   -1    0    0    0    0 -0.00000000000E+00 -0.00000000000E+00 -0.45593999997E+02  0.45594000000E+02  0.51100000000E-03 0.  1.
    9900012    2    1    2    0    0 -0.40139374627E+02  0.10170013341E+02  0.17734569239E+02  0.46142317488E+02  0.99999975135E+01 0.  0.
         12    1    1    2    0    0  0.40139374627E+02 -0.10170013341E+02 -0.17734569239E+02  0.45045682512E+02  0.00000000000E+00 0. -1.
         11    1    3    3    0    0 -0.13779200140E+02 -0.56614851145E+00  0.41047301812E+01  0.14388734856E+02  0.51100000000E-03 0. -1.
        -11    1    3    3    0    0 -0.16259069202E+02  0.53283025655E+01  0.95273711210E+01  0.19583639608E+02  0.51100000000E-03 0.  1.
         12    1    3    3    0    0 -0.10101105285E+02  0.54078592864E+01  0.41024679371E+01  0.12169943025E+02  0.00000000000E+00 0. -1.
</event>
<event>
 7    1  0.2323330E-008  0.4614232E+02  0.7816164E-02  0.1320468E+00
        -11   -1    0    0    0    0  0.00000000000E+00  0.00000000000E+00  0.45593999997E+02  0.45594000000E+02  0.51100000000E-03 0. -1.
         11   -1    0    0    0    0 -0.00000000000E+00 -0.00000000000E+00 -0.45593999997E+02  0.45594000000E+02  0.51100000000E-03 0.  1.
    9900012    2    1    2    0    0 -0.35176029024E+02 -0.26095224904E+02 -0.10526139388E+02  0.46142318840E+02  0.10000009842E+02 0.  0.
         12    1    1    2    0    0  0.35176029024E+02  0.26095224904E+02  0.10526139388E+02  0.45045681160E+02  0.00000000000E+00 0. -1.
         11    1    3    3    0    0 -0.23000603006E+01 -0.25606143878E+01  0.48948246963E+00  0.34765811912E+01  0.51100000000E-03 0. -1.
        -11    1    3    3    0    0 -0.14153368791E+01 -0.18003030219E+00  0.93048765032E+00  0.17033487369E+01  0.51100000000E-03 0.  1.
        -12    1    3    3    0    0 -0.31460631844E+02 -0.23354580214E+02 -0.11946109508E+02  0.40962388912E+02  0.00000000000E+00 0.  1.
</event>
<event>
 7    1  0.2323330E-008  0.4614233E+02  0.7816164E-02  0.1320468E+00
        -11   -1    0    0    0    0  0.00000000000E+00  0.00000000000E+00  0.45593999997E+02  0.45594000000E+02  0.51100000000E-03 0.  1.
         11   -1    0    0    0    0 -0.00000000000E+00 -0.00000000000E+00 -0.45593999997E+02  0.45594000000E+02  0.51100000000E-03 0. -1.
    9900012    2    1    2    0    0  0.31957349062E+02 -0.74948408658E+01  0.30849107911E+02  0.46142331422E+02  0.10000124574E+02 0.  0.
         12    1    1    2    0    0 -0.31957349062E+02  0.74948408658E+01 -0.30849107911E+02  0.45045668578E+02  0.00000000000E+00 0. -1.
         11    1    3    3    0    0  0.80143335555E+00  0.90281498235E+00  0.73752162750E+00  0.14146761919E+01  0.51100000000E-03 0. -1.
        -11    1    3    3    0    0  0.22661155442E+02 -0.90952905577E+01  0.20513228076E+02  0.31891139877E+02  0.51100000000E-03 0.  1.
        -12    1    3    3    0    0  0.84947602643E+01  0.69763470953E+00  0.95983582077E+01  0.12836515353E+02  0.00000000000E+00 0.  1.
</event>
<event>
 7    1  0.2323330E-008  0.4614232E+02  0.7816164E-02  0.1320468E+00
        -11   -1    0    0    0    0  0.00000000000E+00  0.00000000000E+00  0.45593999997E+02  0.45594000000E+02  0.51100000000E-03 0.  1.
         11   -1    0    0    0    0 -0.00000000000E+00 -0.00000000000E+00 -0.45593999997E+02  0.45594000000E+02  0.51100000000E-03 0. -1.
    9900012    2    1    2    0    0  0.19160125745E-01 -0.42540059219E+02  0.14814064006E+02  0.46142317656E+02  0.99999990440E+01 0.  0.
         12    1    1    2    0    0 -0.19160125745E-01  0.42540059219E+02 -0.14814064006E+02  0.45045682344E+02  0.00000000000E+00 0. -1.
         11    1    3    3    0    0  0.23588722082E+01 -0.54572603902E+01  0.35237671516E+01  0.69110711370E+01  0.51100000000E-03 0. -1.
        -11    1    3    3    0    0  0.12950120528E+01 -0.21567758592E+02  0.72690218329E+01  0.22796577497E+02  0.51100000000E-03 0.  1.
         12    1    3    3    0    0 -0.36347241352E+01 -0.15515040237E+02  0.40212750211E+01  0.16434669022E+02  0.00000000000E+00 0. -1.
</event>
<event>
 7    1  0.2323330E-008  0.4614232E+02  0.7816164E-02  0.1320468E+00
        -11   -1    0    0    0    0  0.00000000000E+00  0.00000000000E+00  0.45593999997E+02  0.45594000000E+02  0.51100000000E-03 0.  1.
         11   -1    0    0    0    0 -0.00000000000E+00 -0.00000000000E+00 -0.45593999997E+02  0.45594000000E+02  0.51100000000E-03 0. -1.
    9900012    2    1    2    0    0  0.31052325912E+02  0.78789537575E+00  0.32622780479E+02  0.46142317301E+02  0.99999958051E+01 0.  0.
         12    1    1    2    0    0 -0.31052325912E+02 -0.78789537575E+00 -0.32622780479E+02  0.45045682699E+02  0.00000000000E+00 0. -1.
         11    1    3    3    0    0  0.76032806572E+01  0.36168992790E+01  0.57923570622E+01  0.10219747440E+02  0.51100000000E-03 0. -1.
        -11    1    3    3    0    0  0.15251411206E+02 -0.36707507968E+00  0.15834550485E+02  0.21988025769E+02  0.51100000000E-03 0.  1.
         12    1    3    3    0    0  0.81976340490E+01 -0.24619288236E+01  0.10995872931E+02  0.13934544092E+02  0.00000000000E+00 0. -1.
</event>
<event>
 7    1  0.2323330E-008  0.4614232E+02  0.7816164E-02  0.1320468E+00
        -11   -1    0    0    0    0  0.00000000000E+00  0.00000000000E+00  0.45593999997E+02  0.45594000000E+02  0.51100000000E-03 0.  1.
         11   -1    0    0    0    0 -0.00000000000E+00 -0.00000000000E+00 -0.45593999997E+02  0.45594000000E+02  0.51100000000E-03 0. -1.
    9900012    2    1    2    0    0  0.43393802968E+02  0.80123305439E+01  0.90495254577E+01  0.46142317767E+02  0.10000000056E+02 0.  0.
         12    1    1    2    0    0 -0.43393802968E+02 -0.80123305439E+01 -0.90495254577E+01  0.45045682233E+02  0.00000000000E+00 0. -1.
         11    1    3    3    0    0  0.14588996157E+01  0.73395152081E+00 -0.91202998450E+00  0.18705271656E+01  0.51100000000E-03 0. -1.
        -11    1    3    3    0    0  0.20599685397E+02  0.69935389493E+01  0.60389534997E+01  0.22577103116E+02  0.51100000000E-03 0.  1.
        -12    1    3    3    0    0  0.21335217956E+02  0.28484007385E+00  0.39226019426E+01  0.21694687485E+02  0.00000000000E+00 0.  1.
</event>
<event>
 7    1  0.2323330E-008  0.4614232E+02  0.7816164E-02  0.1320468E+00
        -11   -1    0    0    0    0  0.00000000000E+00  0.00000000000E+00  0.45593999997E+02  0.45594000000E+02  0.51100000000E-03 0. -1.
         11   -1    0    0    0    0 -0.00000000000E+00 -0.00000000000E+00 -0.45593999997E+02  0.45594000000E+02  0.51100000000E-03 0.  1.
    9900012    2    1    2    0    0  0.20147667902E+01 -0.12238245050E+02 -0.43304498235E+02  0.46142317693E+02  0.99999993804E+01 0.  0.
         12    1    1    2    0    0 -0.20147667902E+01  0.12238245050E+02  0.43304498235E+02  0.45045682307E+02  0.00000000000E+00 0. -1.
         11    1    3    3    0    0  0.39648423785E+01 -0.87940108617E+01 -0.34199021398E+02  0.35533472487E+02  0.51100000000E-03 0. -1.
        -11    1    3    3    0    0 -0.62278787038E+00 -0.58936053510E+00 -0.64016669131E+01  0.64588350419E+01  0.51100000000E-03 0.  1.
         12    1    3    3    0    0 -0.13272877179E+01 -0.28548736534E+01 -0.27038099238E+01  0.41500101647E+01  0.00000000000E+00 0. -1.
</event>
<event>
 7    1  0.2323330E-008  0.4614232E+02  0.7816164E-02  0.1320468E+00
        -11   -1    0    0    0    0  0.00000000000E+00  0.00000000000E+00  0.45593999997E+02  0.45594000000E+02  0.51100000000E-03 0.  1.
         11   -1    0    0    0    0 -0.00000000000E+00 -0.00000000000E+00 -0.45593999997E+02  0.45594000000E+02  0.51100000000E-03 0. -1.
    9900012    2    1    2    0    0 -0.12213497365E+02 -0.39295682740E+02  0.18324663882E+02  0.46142317562E+02  0.99999981888E+01 0.  0.
         12    1    1    2    0    0  0.12213497365E+02  0.39295682740E+02 -0.18324663882E+02  0.45045682438E+02  0.00000000000E+00 0. -1.
         11    1    3    3    0    0 -0.36076821223E+00 -0.20295119378E+01 -0.53832189278E+00  0.21304607788E+01  0.51100000000E-03 0.  1.
        -11    1    3    3    0    0 -0.70543103448E+01 -0.12252909960E+02  0.86262731210E+01  0.16562297097E+02  0.51100000000E-03 0. -1.
        -12    1    3    3    0    0 -0.47984188079E+01 -0.25013260842E+02  0.10236712654E+02  0.27449559686E+02  0.00000000000E+00 0.  1.
</event>
<event>
 7    1  0.2323330E-008  0.4614232E+02  0.7816164E-02  0.1320468E+00
        -11   -1    0    0    0    0  0.00000000000E+00  0.00000000000E+00  0.45593999997E+02  0.45594000000E+02  0.51100000000E-03 0.  1.
         11   -1    0    0    0    0 -0.00000000000E+00 -0.00000000000E+00 -0.45593999997E+02  0.45594000000E+02  0.51100000000E-03 0. -1.
    9900012    2    1    2    0    0  0.65554086584E+01 -0.42002404475E+02  0.14897585258E+02  0.46142318621E+02  0.10000007842E+02 0.  0.
         12    1    1    2    0    0 -0.65554086584E+01  0.42002404475E+02 -0.14897585258E+02  0.45045681379E+02  0.00000000000E+00 0. -1.
         11    1    3    3    0    0  0.17773707599E+01 -0.60233890352E+01 -0.85467235809E+00  0.63380381340E+01  0.51100000000E-03 0. -1.
        -11    1    3    3    0    0  0.26043849797E+01 -0.18789707007E+02  0.58642910908E+01  0.19855120770E+02  0.51100000000E-03 0.  1.
         12    1    3    3    0    0  0.21736529188E+01 -0.17189308433E+02  0.98879665254E+01  0.19949159717E+02  0.00000000000E+00 0. -1.
</event>
<event>
 7    1  0.2323330E-008  0.4614232E+02  0.7816164E-02  0.1320468E+00
        -11   -1    0    0    0    0  0.00000000000E+00  0.00000000000E+00  0.45593999997E+02  0.45594000000E+02  0.51100000000E-03 0.  1.
         11   -1    0    0    0    0 -0.00000000000E+00 -0.00000000000E+00 -0.45593999997E+02  0.45594000000E+02  0.51100000000E-03 0. -1.
    9900012    2    1    2    0    0  0.37488942591E+02  0.17892609148E+02  0.17422608534E+02  0.46142316890E+02  0.99999920563E+01 0.  0.
         12    1    1    2    0    0 -0.37488942591E+02 -0.17892609148E+02 -0.17422608534E+02  0.45045683110E+02  0.00000000000E+00 0. -1.
         11    1    3    3    0    0  0.53505206419E+01  0.50562116572E+01  0.65168931285E+01  0.98317467304E+01  0.51100000000E-03 0. -1.
        -11    1    3    3    0    0  0.10651025816E+02  0.47192263213E+01  0.41756656384E+01  0.12375444711E+02  0.51100000000E-03 0.  1.
         12    1    3    3    0    0  0.21487396133E+02  0.81171711699E+01  0.67300497666E+01  0.23935125449E+02  0.00000000000E+00 0. -1.
</event>
<event>
 7    1  0.2323330E-008  0.4614232E+02  0.7816164E-02  0.1320468E+00
        -11   -1    0    0    0    0  0.00000000000E+00  0.00000000000E+00  0.45593999997E+02  0.45594000000E+02  0.51100000000E-03 0.  1.
         11   -1    0    0    0    0 -0.00000000000E+00 -0.00000000000E+00 -0.45593999997E+02  0.45594000000E+02  0.51100000000E-03 0. -1.
    9900012    2    1    2    0    0 -0.11769014677E+02  0.37845199804E+02  0.21408985199E+02  0.46142317611E+02  0.99999986309E+01 0.  0.
         12    1    1    2    0    0  0.11769014677E+02 -0.37845199804E+02 -0.21408985199E+02  0.45045682389E+02  0.00000000000E+00 0. -1.
         11    1    3    3    0    0 -0.14082724264E+01  0.17291874876E+01  0.30908466637E+01  0.38113847817E+01  0.51100000000E-03 0. -1.
        -11    1    3    3    0    0 -0.43479881570E+01  0.13530919747E+02  0.10556842771E+02  0.17704172383E+02  0.51100000000E-03 0.  1.
        -12    1    3    3    0    0 -0.60127540936E+01  0.22585092569E+02  0.77612957645E+01  0.24626760447E+02  0.00000000000E+00 0.  1.
</event>
<event>
 7    1  0.2323330E-008  0.4614232E+02  0.7816164E-02  0.1320468E+00
        -11   -1    0    0    0    0  0.00000000000E+00  0.00000000000E+00  0.45593999997E+02  0.45594000000E+02  0.51100000000E-03 0. -1.
         11   -1    0    0    0    0 -0.00000000000E+00 -0.00000000000E+00 -0.45593999997E+02  0.45594000000E+02  0.51100000000E-03 0.  1.
    9900012    2    1    2    0    0  0.34586949200E+02 -0.28153669641E+02  0.63424935279E+01  0.46142318816E+02  0.10000009615E+02 0.  0.
         12    1    1    2    0    0 -0.34586949200E+02  0.28153669641E+02 -0.63424935279E+01  0.45045681184E+02  0.00000000000E+00 0. -1.
         11    1    3    3    0    0  0.12256052506E+02 -0.57058209086E+01  0.19122506879E+01  0.13653714448E+02  0.51100000000E-03 0. -1.
        -11    1    3    3    0    0  0.20082895276E+02 -0.22150238806E+02  0.43975108676E+01  0.30220752206E+02  0.51100000000E-03 0.  1.
        -12    1    3    3    0    0  0.22480014175E+01 -0.29760992658E+00  0.32731972461E-01  0.22678521609E+01  0.00000000000E+00 0.  1.
</event>
<event>
 7    1  0.2323330E-008  0.4614232E+02  0.7816164E-02  0.1320468E+00
        -11   -1    0    0    0    0  0.00000000000E+00  0.00000000000E+00  0.45593999997E+02  0.45594000000E+02  0.51100000000E-03 0.  1.
         11   -1    0    0    0    0 -0.00000000000E+00 -0.00000000000E+00 -0.45593999997E+02  0.45594000000E+02  0.51100000000E-03 0. -1.
    9900012    2    1    2    0    0 -0.36130145043E+02  0.19597101616E+02  0.18430401448E+02  0.46142317963E+02  0.10000001845E+02 0.  0.
         12    1    1    2    0    0  0.36130145043E+02 -0.19597101616E+02 -0.18430401448E+02  0.45045682037E+02  0.00000000000E+00 0. -1.
         11    1    3    3    0    0 -0.85628132277E+01  0.33116957191E+01  0.25677046162E+01  0.95332159403E+01  0.51100000000E-03 0. -1.
        -11    1    3    3    0    0 -0.25338092202E+00 -0.71653980100E+00  0.73323678164E+00  0.10560623169E+01  0.51100000000E-03 0.  1.
        -12    1    3    3    0    0 -0.27313950894E+02  0.17001945698E+02  0.15129460051E+02  0.35553039706E+02  0.00000000000E+00 0.  1.
</event>
<event>
 7    1  0.2323330E-008  0.4614232E+02  0.7816164E-02  0.1320468E+00
        -11   -1    0    0    0    0  0.00000000000E+00  0.00000000000E+00  0.45593999997E+02  0.45594000000E+02  0.51100000000E-03 0.  1.
         11   -1    0    0    0    0 -0.00000000000E+00 -0.00000000000E+00 -0.45593999997E+02  0.45594000000E+02  0.51100000000E-03 0. -1.
    9900012    2    1    2    0    0  0.38083351367E+02  0.81344049938E+01  0.22640744401E+02  0.46142317599E+02  0.99999985210E+01 0.  0.
         12    1    1    2    0    0 -0.38083351367E+02 -0.81344049938E+01 -0.22640744401E+02  0.45045682401E+02  0.00000000000E+00 0. -1.
         11    1    3    3    0    0  0.44643384597E+01  0.29803833237E+01  0.65479106694E+01  0.84668847302E+01  0.51100000000E-03 0. -1.
        -11    1    3    3    0    0  0.17367377162E+02  0.26896884594E+01  0.93710383095E+01  0.19916741018E+02  0.51100000000E-03 0.  1.
         12    1    3    3    0    0  0.16251635745E+02  0.24643332106E+01  0.67217954222E+01  0.17758691851E+02  0.00000000000E+00 0. -1.
</event>
<event>
 7    1  0.2323330E-008  0.4614232E+02  0.7816164E-02  0.1320468E+00
        -11   -1    0    0    0    0  0.00000000000E+00  0.00000000000E+00  0.45593999997E+02  0.45594000000E+02  0.51100000000E-03 0.  1.
         11   -1    0    0    0    0 -0.00000000000E+00 -0.00000000000E+00 -0.45593999997E+02  0.45594000000E+02  0.51100000000E-03 0. -1.
    9900012    2    1    2    0    0  0.16713419627E+02  0.33433762828E+02  0.25138786980E+02  0.46142317595E+02  0.99999984885E+01 0.  0.
         12    1    1    2    0    0 -0.16713419627E+02 -0.33433762828E+02 -0.25138786980E+02  0.45045682405E+02  0.00000000000E+00 0. -1.
         11    1    3    3    0    0  0.24559230806E+01  0.17183654574E+01  0.11872542786E+01  0.32239589027E+01  0.51100000000E-03 0. -1.
        -11    1    3    3    0    0  0.12358011261E+02  0.19367100624E+02  0.17339455712E+02  0.28783011545E+02  0.51100000000E-03 0.  1.
        -12    1    3    3    0    0  0.18994852852E+01  0.12348296746E+02  0.66120769893E+01  0.14135347148E+02  0.00000000000E+00 0.  1.
</event>
<event>
 7    1  0.2323330E-008  0.4614232E+02  0.7816164E-02  0.1320468E+00
        -11   -1    0    0    0    0  0.00000000000E+00  0.00000000000E+00  0.45593999997E+02  0.45594000000E+02  0.51100000000E-03 0. -1.
         11   -1    0    0    0    0 -0.00000000000E+00 -0.00000000000E+00 -0.45593999997E+02  0.45594000000E+02  0.51100000000E-03 0.  1.
    9900012    2    1    2    0    0 -0.52359806604E+01 -0.43290158986E+02 -0.11298674777E+02  0.46142318628E+02  0.10000007910E+02 0.  0.
         12    1    1    2    0    0  0.52359806604E+01  0.43290158986E+02  0.11298674777E+02  0.45045681372E+02  0.00000000000E+00 0. -1.
         11    1    3    3    0    0  0.15978921074E+01 -0.73823056745E+01 -0.55699587000E+00  0.75737666270E+01  0.51100000000E-03 0. -1.
        -11    1    3    3    0    0 -0.23473198602E+01 -0.26581890629E+02 -0.81022428867E+01  0.27888226190E+02  0.51100000000E-03 0.  1.
         12    1    3    3    0    0 -0.44865529076E+01 -0.93259626821E+01 -0.26394360201E+01  0.10680325812E+02  0.00000000000E+00 0. -1.
</event>
<event>
 7    1  0.2323330E-008  0.4614232E+02  0.7816164E-02  0.1320468E+00
        -11   -1    0    0    0    0  0.00000000000E+00  0.00000000000E+00  0.45593999997E+02  0.45594000000E+02  0.51100000000E-03 0. -1.
         11   -1    0    0    0    0 -0.00000000000E+00 -0.00000000000E+00 -0.45593999997E+02  0.45594000000E+02  0.51100000000E-03 0.  1.
    9900012    2    1    2    0    0  0.33542501789E+02 -0.28721889767E+02 -0.88919731385E+01  0.46142316918E+02  0.99999923107E+01 0.  0.
         12    1    1    2    0    0 -0.33542501789E+02  0.28721889767E+02  0.88919731385E+01  0.45045683082E+02  0.00000000000E+00 0. -1.
         11    1    3    3    0    0  0.20801857620E+00 -0.88078442894E+00 -0.90668977718E+00  0.12810696903E+01  0.51100000000E-03 0. -1.
        -11    1    3    3    0    0  0.39103137792E+01 -0.11510997255E+01  0.85214184510E+00  0.41643403337E+01  0.51100000000E-03 0.  1.
         12    1    3    3    0    0  0.29424169433E+02 -0.26690005613E+02 -0.88374252064E+01  0.40696906894E+02  0.00000000000E+00 0. -1.
</event>
<event>
 7    1  0.2323330E-008  0.4614232E+02  0.7816164E-02  0.1320468E+00
        -11   -1    0    0    0    0  0.00000000000E+00  0.00000000000E+00  0.45593999997E+02  0.45594000000E+02  0.51100000000E-03 0. -1.
         11   -1    0    0    0    0 -0.00000000000E+00 -0.00000000000E+00 -0.45593999997E+02  0.45594000000E+02  0.51100000000E-03 0.  1.
    9900012    2    1    2    0    0  0.60381603888E+01  0.14772882968E+02 -0.42123816805E+02  0.46142318805E+02  0.10000009519E+02 0.  0.
         12    1    1    2    0    0 -0.60381603888E+01 -0.14772882968E+02  0.42123816805E+02  0.45045681195E+02  0.00000000000E+00 0. -1.
         11    1    3    3    0    0  0.51721824033E+01  0.29311822122E+01 -0.98338020297E+01  0.11491168896E+02  0.51100000000E-03 0. -1.
        -11    1    3    3    0    0  0.22662445499E+01  0.99390174763E+01 -0.26864137115E+02  0.28733287245E+02  0.51100000000E-03 0.  1.
         12    1    3    3    0    0 -0.14002665645E+01  0.19026832795E+01 -0.54258776611E+01  0.59178626637E+01  0.00000000000E+00 0. -1.
</event>
<event>
 7    1  0.2323330E-008  0.4614232E+02  0.7816164E-02  0.1320468E+00
        -11   -1    0    0    0    0  0.00000000000E+00  0.00000000000E+00  0.45593999997E+02  0.45594000000E+02  0.51100000000E-03 0.  1.
         11   -1    0    0    0    0 -0.00000000000E+00 -0.00000000000E+00 -0.45593999997E+02  0.45594000000E+02  0.51100000000E-03 0. -1.
    9900012    2    1    2    0    0  0.23331800181E+02  0.80431706273E+01  0.37683524368E+02  0.46142317607E+02  0.99999985934E+01 0.  0.
         12    1    1    2    0    0 -0.23331800181E+02 -0.80431706273E+01 -0.37683524368E+02  0.45045682393E+02  0.00000000000E+00 0. -1.
         11    1    3    3    0    0  0.78337401074E+01  0.13979650633E+01  0.10391512452E+02  0.13088365891E+02  0.51100000000E-03 0.  1.
        -11    1    3    3    0    0  0.34460235461E+01  0.29145126814E+01  0.14080408645E+02  0.14786053236E+02  0.51100000000E-03 0. -1.
         12    1    3    3    0    0  0.12052036528E+02  0.37306928826E+01  0.13211603271E+02  0.18267898479E+02  0.00000000000E+00 0. -1.
</event>
<event>
 7    1  0.2323330E-008  0.4614232E+02  0.7816164E-02  0.1320468E+00
        -11   -1    0    0    0    0  0.00000000000E+00  0.00000000000E+00  0.45593999997E+02  0.45594000000E+02  0.51100000000E-03 0. -1.
         11   -1    0    0    0    0 -0.00000000000E+00 -0.00000000000E+00 -0.45593999997E+02  0.45594000000E+02  0.51100000000E-03 0.  1.
    9900012    2    1    2    0    0 -0.11122878938E+02  0.43432137196E+02  0.43639962393E+01  0.46142318293E+02  0.10000004851E+02 0.  0.
         12    1    1    2    0    0  0.11122878938E+02 -0.43432137196E+02 -0.43639962393E+01  0.45045681707E+02  0.00000000000E+00 0. -1.
         11    1    3    3    0    0 -0.38658614351E+01  0.10924917989E+02  0.48282111210E+01  0.12554295703E+02  0.51100000000E-03 0. -1.
        -11    1    3    3    0    0 -0.42829980765E+01  0.22898304856E+02 -0.21292188529E+01  0.23392520407E+02  0.51100000000E-03 0.  1.
        -12    1    3    3    0    0 -0.29740194259E+01  0.96089143513E+01  0.16650039711E+01  0.10195502184E+02  0.00000000000E+00 0.  1.
</event>
<event>
 7    1  0.2323330E-008  0.4614232E+02  0.7816164E-02  0.1320468E+00
        -11   -1    0    0    0    0  0.00000000000E+00  0.00000000000E+00  0.45593999997E+02  0.45594000000E+02  0.51100000000E-03 0.  1.
         11   -1    0    0    0    0 -0.00000000000E+00 -0.00000000000E+00 -0.45593999997E+02  0.45594000000E+02  0.51100000000E-03 0. -1.
    9900012    2    1    2    0    0 -0.36578276236E+02  0.76303218861E+01 -0.25157930288E+02  0.46142316957E+02  0.99999926629E+01 0.  0.
         12    1    1    2    0    0  0.36578276236E+02 -0.76303218861E+01  0.25157930288E+02  0.45045683043E+02  0.00000000000E+00 0. -1.
         11    1    3    3    0    0 -0.24379442824E+02  0.33278322362E+01 -0.11285879192E+02  0.27070330053E+02  0.51100000000E-03 0.  1.
        -11    1    3    3    0    0 -0.74687512679E+01  0.16264841236E+01 -0.84739945812E+01  0.11412111134E+02  0.51100000000E-03 0. -1.
        -12    1    3    3    0    0 -0.47300821444E+01  0.26760055263E+01 -0.53980565150E+01  0.76598757698E+01  0.00000000000E+00 0.  1.
</event>
<event>
 7    1  0.2323330E-008  0.4614232E+02  0.7816164E-02  0.1320468E+00
        -11   -1    0    0    0    0  0.00000000000E+00  0.00000000000E+00  0.45593999997E+02  0.45594000000E+02  0.51100000000E-03 0. -1.
         11   -1    0    0    0    0 -0.00000000000E+00 -0.00000000000E+00 -0.45593999997E+02  0.45594000000E+02  0.51100000000E-03 0.  1.
    9900012    2    1    2    0    0  0.89188320691E+01  0.42403437937E+02 -0.12309206784E+02  0.46142315568E+02  0.99999799994E+01 0.  0.
         12    1    1    2    0    0 -0.89188320691E+01 -0.42403437937E+02  0.12309206784E+02  0.45045684432E+02  0.00000000000E+00 0. -1.
         11    1    3    3    0    0  0.51890601915E+01  0.20773438744E+02 -0.10038809181E+02  0.23648251372E+02  0.51100000000E-03 0. -1.
        -11    1    3    3    0    0 -0.35230372573E+00  0.10559597586E+02 -0.14794610907E+01  0.10668553064E+02  0.51100000000E-03 0.  1.
         12    1    3    3    0    0  0.40820756034E+01  0.11070401607E+02 -0.79093651181E+00  0.11825511132E+02  0.00000000000E+00 0. -1.
</event>
<event>
 7    1  0.2323330E-008  0.4614232E+02  0.7816164E-02  0.1320468E+00
        -11   -1    0    0    0    0  0.00000000000E+00  0.00000000000E+00  0.45593999997E+02  0.45594000000E+02  0.51100000000E-03 0. -1.
         11   -1    0    0    0    0 -0.00000000000E+00 -0.00000000000E+00 -0.45593999997E+02  0.45594000000E+02  0.51100000000E-03 0.  1.
    9900012    2    1    2    0    0  0.13943325827E+02 -0.40534727556E+02 -0.13843158381E+02  0.46142317553E+02  0.99999981062E+01 0.  0.
         12    1    1    2    0    0 -0.13943325827E+02  0.40534727556E+02  0.13843158381E+02  0.45045682447E+02  0.00000000000E+00 0. -1.
         11    1    3    3    0    0  0.10236548498E+02 -0.23932903995E+02 -0.10941132297E+02  0.28236132791E+02  0.51100000000E-03 0. -1.
        -11    1    3    3    0    0  0.21529821622E+01 -0.15169104071E+02 -0.34875598648E+01  0.15713055864E+02  0.51100000000E-03 0.  1.
         12    1    3    3    0    0  0.15537951669E+01 -0.14327194893E+01  0.58553378136E+00  0.21931288984E+01  0.00000000000E+00 0. -1.
</event>
<event>
 7    1  0.2323330E-008  0.4614232E+02  0.7816164E-02  0.1320468E+00
        -11   -1    0    0    0    0  0.00000000000E+00  0.00000000000E+00  0.45593999997E+02  0.45594000000E+02  0.51100000000E-03 0.  1.
         11   -1    0    0    0    0 -0.00000000000E+00 -0.00000000000E+00 -0.45593999997E+02  0.45594000000E+02  0.51100000000E-03 0. -1.
    9900012    2    1    2    0    0  0.32083834609E+02  0.31367797847E+02  0.39752160060E+01  0.46142317329E+02  0.99999960576E+01 0.  0.
         12    1    1    2    0    0 -0.32083834609E+02 -0.31367797847E+02 -0.39752160060E+01  0.45045682671E+02  0.00000000000E+00 0. -1.
         11    1    3    3    0    0  0.55523783168E+01  0.82849868733E+01 -0.27175309406E+01  0.10337063758E+02  0.51100000000E-03 0. -1.
        -11    1    3    3    0    0  0.69642156711E+01  0.57043670378E+01  0.15637263124E+01  0.91370314357E+01  0.51100000000E-03 0.  1.
         12    1    3    3    0    0  0.19567240621E+02  0.17378443936E+02  0.51290206342E+01  0.26668222135E+02  0.00000000000E+00 0. -1.
</event>
<event>
 7    1  0.2323330E-008  0.4614232E+02  0.7816164E-02  0.1320468E+00
        -11   -1    0    0    0    0  0.00000000000E+00  0.00000000000E+00  0.45593999997E+02  0.45594000000E+02  0.51100000000E-03 0.  1.
         11   -1    0    0    0    0 -0.00000000000E+00 -0.00000000000E+00 -0.45593999997E+02  0.45594000000E+02  0.51100000000E-03 0. -1.
    9900012    2    1    2    0    0 -0.27015105859E+02  0.32274806749E+02  0.16050994206E+02  0.46142317518E+02  0.99999977805E+01 0.  0.
         12    1    1    2    0    0  0.27015105859E+02 -0.32274806749E+02 -0.16050994206E+02  0.45045682482E+02  0.00000000000E+00 0. -1.
         11    1    3    3    0    0 -0.42002890714E+01  0.90606191445E+01  0.18068306324E+01  0.10148984420E+02  0.51100000000E-03 0. -1.
        -11    1    3    3    0    0 -0.40183794752E+01  0.41356182413E+01  0.24177824060E+00  0.57714096046E+01  0.51100000000E-03 0.  1.
         12    1    3    3    0    0 -0.18796437313E+02  0.19078569364E+02  0.14002385333E+02  0.30221923493E+02  0.00000000000E+00 0. -1.
</event>
<event>
 7    1  0.2323330E-008  0.4614232E+02  0.7816164E-02  0.1320468E+00
        -11   -1    0    0    0    0  0.00000000000E+00  0.00000000000E+00  0.45593999997E+02  0.45594000000E+02  0.51100000000E-03 0.  1.
         11   -1    0    0    0    0 -0.00000000000E+00 -0.00000000000E+00 -0.45593999997E+02  0.45594000000E+02  0.51100000000E-03 0. -1.
    9900012    2    1    2    0    0  0.47341774479E+01  0.17312971242E+02  0.41315397588E+02  0.46142317774E+02  0.10000000120E+02 0.  0.
         12    1    1    2    0    0 -0.47341774479E+01 -0.17312971242E+02 -0.41315397588E+02  0.45045682226E+02  0.00000000000E+00 0. -1.
         11    1    3    3    0    0  0.25194507830E+01  0.33768446145E+01  0.32802019684E+01  0.53395165524E+01  0.51100000000E-03 0. -1.
        -11    1    3    3    0    0 -0.10412751967E+01  0.14182126749E+01  0.60702594407E+01  0.63200974015E+01  0.51100000000E-03 0.  1.
         12    1    3    3    0    0  0.32560018616E+01  0.12517913953E+02  0.31964936179E+02  0.34482703820E+02  0.00000000000E+00 0. -1.
</event>
<event>
 7    1  0.2323330E-008  0.4614232E+02  0.7816164E-02  0.1320468E+00
        -11   -1    0    0    0    0  0.00000000000E+00  0.00000000000E+00  0.45593999997E+02  0.45594000000E+02  0.51100000000E-03 0. -1.
         11   -1    0    0    0    0 -0.00000000000E+00 -0.00000000000E+00 -0.45593999997E+02  0.45594000000E+02  0.51100000000E-03 0.  1.
    9900012    2    1    2    0    0 -0.44101372305E+02 -0.33655783574E+01 -0.85355292627E+01  0.46142318557E+02  0.10000007260E+02 0.  0.
         12    1    1    2    0    0  0.44101372305E+02  0.33655783574E+01  0.85355292627E+01  0.45045681443E+02  0.00000000000E+00 0. -1.
         11    1    3    3    0    0 -0.15335707651E+02 -0.12167704470E+00 -0.17731347066E+01  0.15438352937E+02  0.51100000000E-03 0. -1.
        -11    1    3    3    0    0 -0.12072861955E+02 -0.44423817005E+01 -0.62870986766E+00  0.12879597328E+02  0.51100000000E-03 0.  1.
         12    1    3    3    0    0 -0.16692802698E+02  0.11984803878E+01 -0.61336846884E+01  0.17824368292E+02  0.00000000000E+00 0. -1.
</event>
<event>
 7    1  0.2323330E-008  0.4614232E+02  0.7816164E-02  0.1320468E+00
        -11   -1    0    0    0    0  0.00000000000E+00  0.00000000000E+00  0.45593999997E+02  0.45594000000E+02  0.51100000000E-03 0.  1.
         11   -1    0    0    0    0 -0.00000000000E+00 -0.00000000000E+00 -0.45593999997E+02  0.45594000000E+02  0.51100000000E-03 0. -1.
    9900012    2    1    2    0    0 -0.43326609834E+02 -0.91587214576E+01  0.82484008689E+01  0.46142318571E+02  0.10000007389E+02 0.  0.
         12    1    1    2    0    0  0.43326609834E+02  0.91587214576E+01 -0.82484008689E+01  0.45045681429E+02  0.00000000000E+00 0. -1.
         11    1    3    3    0    0 -0.61073712443E+01 -0.11432321908E+01  0.12404028601E+01  0.63360526255E+01  0.51100000000E-03 0. -1.
        -11    1    3    3    0    0 -0.22797736554E+02 -0.37082207244E+01  0.86544153027E+01  0.24665494064E+02  0.51100000000E-03 0.  1.
         12    1    3    3    0    0 -0.14421502036E+02 -0.43072685424E+01 -0.16464172939E+01  0.15140771882E+02  0.00000000000E+00 0. -1.
</event>
<event>
 7    1  0.2323330E-008  0.4614232E+02  0.7816164E-02  0.1320468E+00
        -11   -1    0    0    0    0  0.00000000000E+00  0.00000000000E+00  0.45593999997E+02  0.45594000000E+02  0.51100000000E-03 0.  1.
         11   -1    0    0    0    0 -0.00000000000E+00 -0.00000000000E+00 -0.45593999997E+02  0.45594000000E+02  0.51100000000E-03 0. -1.
    9900012    2    1    2    0    0  0.13300352568E+02 -0.77629980108E+00  0.43030355288E+02  0.46142317676E+02  0.99999992267E+01 0.  0.
         12    1    1    2    0    0 -0.13300352568E+02  0.77629980108E+00 -0.43030355288E+02  0.45045682324E+02  0.00000000000E+00 0. -1.
         11    1    3    3    0    0  0.19794741280E+01 -0.12844148111E+01  0.30051315456E+01  0.38208448147E+01  0.51100000000E-03 0. -1.
        -11    1    3    3    0    0  0.17416462374E+01  0.18009823226E+01  0.23818900588E+01  0.34569161772E+01  0.51100000000E-03 0.  1.
        -12    1    3    3    0    0  0.95792322024E+01 -0.12928673126E+01  0.37643333683E+02  0.38864556684E+02  0.00000000000E+00 0.  1.
</event>
<event>
 7    1  0.2323330E-008  0.4614232E+02  0.7816164E-02  0.1320468E+00
        -11   -1    0    0    0    0  0.00000000000E+00  0.00000000000E+00  0.45593999997E+02  0.45594000000E+02  0.51100000000E-03 0.  1.
         11   -1    0    0    0    0 -0.00000000000E+00 -0.00000000000E+00 -0.45593999997E+02  0.45594000000E+02  0.51100000000E-03 0. -1.
    9900012    2    1    2    0    0  0.37379417515E+02 -0.19534177978E+02 -0.15821139625E+02  0.46142318497E+02  0.10000006712E+02 0.  0.
         12    1    1    2    0    0 -0.37379417515E+02  0.19534177978E+02  0.15821139625E+02  0.45045681503E+02  0.00000000000E+00 0. -1.
         11    1    3    3    0    0  0.27494472169E+02 -0.10481404327E+02 -0.10021665561E+02  0.31084395078E+02  0.51100000000E-03 0. -1.
        -11    1    3    3    0    0  0.38892584562E+01 -0.18162918831E+01 -0.64832621358E+00  0.43411490051E+01  0.51100000000E-03 0.  1.
        -12    1    3    3    0    0  0.59956868898E+01 -0.72364817684E+01 -0.51511478505E+01  0.10716774414E+02  0.00000000000E+00 0.  1.
</event>
<event>
 7    1  0.2323330E-008  0.4614232E+02  0.7816164E-02  0.1320468E+00
        -11   -1    0    0    0    0  0.00000000000E+00  0.00000000000E+00  0.45593999997E+02  0.45594000000E+02  0.51100000000E-03 0.  1.
         11   -1    0    0    0    0 -0.00000000000E+00 -0.00000000000E+00 -0.45593999997E+02  0.45594000000E+02  0.51100000000E-03 0. -1.
    9900012    2    1    2    0    0  0.96976438459E+01 -0.24771719003E+02  0.36351493938E+02  0.46142317965E+02  0.10000001855E+02 0.  0.
         12    1    1    2    0    0 -0.96976438459E+01  0.24771719003E+02 -0.36351493938E+02  0.45045682035E+02  0.00000000000E+00 0. -1.
         11    1    3    3    0    0  0.16863115960E+01 -0.97835510777E+01  0.11499473841E+02  0.15192084037E+02  0.51100000000E-03 0. -1.
        -11    1    3    3    0    0  0.61644565200E+01 -0.14635053309E+02  0.18782320095E+02  0.24595952064E+02  0.51100000000E-03 0.  1.
        -12    1    3    3    0    0  0.18468757299E+01 -0.35311461671E+00  0.60697000015E+01  0.63542818636E+01  0.00000000000E+00 0.  1.
</event>
<event>
 7    1  0.2323330E-008  0.4614232E+02  0.7816164E-02  0.1320468E+00
        -11   -1    0    0    0    0  0.00000000000E+00  0.00000000000E+00  0.45593999997E+02  0.45594000000E+02  0.51100000000E-03 0. -1.
         11   -1    0    0    0    0 -0.00000000000E+00 -0.00000000000E+00 -0.45593999997E+02  0.45594000000E+02  0.51100000000E-03 0.  1.
    9900012    2    1    2    0    0  0.34261626582E+02 -0.12010874216E+02 -0.26664456597E+02  0.46142318730E+02  0.10000008835E+02 0.  0.
         12    1    1    2    0    0 -0.34261626582E+02  0.12010874216E+02  0.26664456597E+02  0.45045681270E+02  0.00000000000E+00 0. -1.
         11    1    3    3    0    0  0.32774665646E+01 -0.23797131821E+01 -0.25928146856E+01  0.48091070030E+01  0.51100000000E-03 0. -1.
        -11    1    3    3    0    0  0.39675201349E+01 -0.31136842319E+01 -0.73007671927E+01  0.88734123865E+01  0.51100000000E-03 0.  1.
         12    1    3    3    0    0  0.27016639882E+02 -0.65174768023E+01 -0.16770874719E+02  0.32459799340E+02  0.00000000000E+00 0. -1.
</event>
<event>
 7    1  0.2323330E-008  0.4614232E+02  0.7816164E-02  0.1320468E+00
        -11   -1    0    0    0    0  0.00000000000E+00  0.00000000000E+00  0.45593999997E+02  0.45594000000E+02  0.51100000000E-03 0.  1.
         11   -1    0    0    0    0 -0.00000000000E+00 -0.00000000000E+00 -0.45593999997E+02  0.45594000000E+02  0.51100000000E-03 0. -1.
    9900012    2    1    2    0    0 -0.13924136717E+02  0.10821995194E+02  0.41450166200E+02  0.46142318283E+02  0.10000004763E+02 0.  0.
         12    1    1    2    0    0  0.13924136717E+02 -0.10821995194E+02 -0.41450166200E+02  0.45045681717E+02  0.00000000000E+00 0. -1.
         11    1    3    3    0    0 -0.34168156299E+01  0.10776193043E+01  0.92610902243E+01  0.99299388124E+01  0.51100000000E-03 0. -1.
        -11    1    3    3    0    0 -0.86222285859E+01  0.85937460147E+01  0.31690568372E+02  0.33948305117E+02  0.51100000000E-03 0.  1.
         12    1    3    3    0    0 -0.18850925013E+01  0.11506298751E+01  0.49850760407E+00  0.22640743538E+01  0.00000000000E+00 0. -1.
</event>
<event>
 7    1  0.2323330E-008  0.4614232E+02  0.7816164E-02  0.1320468E+00
        -11   -1    0    0    0    0  0.00000000000E+00  0.00000000000E+00  0.45593999997E+02  0.45594000000E+02  0.51100000000E-03 0.  1.
         11   -1    0    0    0    0 -0.00000000000E+00 -0.00000000000E+00 -0.45593999997E+02  0.45594000000E+02  0.51100000000E-03 0. -1.
    9900012    2    1    2    0    0 -0.28736704023E+02 -0.22424798342E+02  0.26465895075E+02  0.46142319398E+02  0.10000014929E+02 0.  0.
         12    1    1    2    0    0  0.28736704023E+02  0.22424798342E+02 -0.26465895075E+02  0.45045680602E+02  0.00000000000E+00 0. -1.
         11    1    3    3    0    0 -0.11513542715E+02 -0.12688202236E+02  0.91098701387E+01  0.19404686961E+02  0.51100000000E-03 0. -1.
        -11    1    3    3    0    0 -0.59307568519E+01 -0.46104444709E+01  0.39952047110E+01  0.85083333268E+01  0.51100000000E-03 0.  1.
         12    1    3    3    0    0 -0.11292404456E+02 -0.51261516346E+01  0.13360820225E+02  0.18229299111E+02  0.00000000000E+00 0. -1.
</event>
<event>
 7    1  0.2323330E-008  0.4614232E+02  0.7816164E-02  0.1320468E+00
        -11   -1    0    0    0    0  0.00000000000E+00  0.00000000000E+00  0.45593999997E+02  0.45594000000E+02  0.51100000000E-03 0. -1.
         11   -1    0    0    0    0 -0.00000000000E+00 -0.00000000000E+00 -0.45593999997E+02  0.45594000000E+02  0.51100000000E-03 0.  1.
    9900012    2    1    2    0    0 -0.15266824989E+02 -0.22006714011E+02 -0.36217979871E+02  0.46142317934E+02  0.10000001577E+02 0.  0.
         12    1    1    2    0    0  0.15266824989E+02  0.22006714011E+02  0.36217979871E+02  0.45045682066E+02  0.00000000000E+00 0. -1.
         11    1    3    3    0    0 -0.26784641333E+01  0.76167997984E-01 -0.32188842779E+01  0.41882201391E+01  0.51100000000E-03 0. -1.
        -11    1    3    3    0    0 -0.86562766796E+01 -0.18240124441E+02 -0.23531509868E+02  0.31005890126E+02  0.51100000000E-03 0.  1.
        -12    1    3    3    0    0 -0.39320841761E+01 -0.38427575687E+01 -0.94675857252E+01  0.10948207669E+02  0.00000000000E+00 0.  1.
</event>
<event>
 7    1  0.2323330E-008  0.4614232E+02  0.7816164E-02  0.1320468E+00
        -11   -1    0    0    0    0  0.00000000000E+00  0.00000000000E+00  0.45593999997E+02  0.45594000000E+02  0.51100000000E-03 0.  1.
         11   -1    0    0    0    0 -0.00000000000E+00 -0.00000000000E+00 -0.45593999997E+02  0.45594000000E+02  0.51100000000E-03 0. -1.
    9900012    2    1    2    0    0  0.80860729711E+01  0.29601269914E+02  0.32977169620E+02  0.46142317934E+02  0.10000001580E+02 0.  0.
         12    1    1    2    0    0 -0.80860729711E+01 -0.29601269914E+02 -0.32977169620E+02  0.45045682066E+02  0.00000000000E+00 0. -1.
         11    1    3    3    0    0  0.31787169448E+01  0.23946879626E+01  0.63293160711E+01  0.74765643208E+01  0.51100000000E-03 0.  1.
        -11    1    3    3    0    0  0.11056429170E+01  0.11840974644E+02  0.14243072907E+02  0.18555221715E+02  0.51100000000E-03 0. -1.
         12    1    3    3    0    0  0.38017131093E+01  0.15365607307E+02  0.12404780642E+02  0.20110531899E+02  0.00000000000E+00 0. -1.
</event>
<event>
 7    1  0.2323330E-008  0.4614231E+02  0.7816164E-02  0.1320468E+00
        -11   -1    0    0    0    0  0.00000000000E+00  0.00000000000E+00  0.45593999997E+02  0.45594000000E+02  0.51100000000E-03 0.  1.
         11   -1    0    0    0    0 -0.00000000000E+00 -0.00000000000E+00 -0.45593999997E+02  0.45594000000E+02  0.51100000000E-03 0. -1.
    9900012    2    1    2    0    0 -0.18279880857E+02 -0.39479552127E+02  0.11675832466E+02  0.46142310483E+02  0.99999336351E+01 0.  0.
         12    1    1    2    0    0  0.18279880857E+02  0.39479552127E+02 -0.11675832466E+02  0.45045689517E+02  0.00000000000E+00 0. -1.
         11    1    3    3    0    0  0.35442807254E+00 -0.23397487635E+01 -0.44880451674E+00  0.24086239413E+01  0.51100000000E-03 0. -1.
        -11    1    3    3    0    0 -0.13756520340E+01 -0.50043020723E+01 -0.30100632545E+00  0.51986597137E+01  0.51100000000E-03 0.  1.
        -12    1    3    3    0    0 -0.17258656895E+02 -0.32135501291E+02  0.12425643308E+02  0.38535026828E+02  0.00000000000E+00 0.  1.
</event>
<event>
 7    1  0.2323330E-008  0.4614232E+02  0.7816164E-02  0.1320468E+00
        -11   -1    0    0    0    0  0.00000000000E+00  0.00000000000E+00  0.45593999997E+02  0.45594000000E+02  0.51100000000E-03 0.  1.
         11   -1    0    0    0    0 -0.00000000000E+00 -0.00000000000E+00 -0.45593999997E+02  0.45594000000E+02  0.51100000000E-03 0. -1.
    9900012    2    1    2    0    0  0.85516202515E+01  0.26828111005E+02  0.35160143093E+02  0.46142318616E+02  0.10000007795E+02 0.  0.
         12    1    1    2    0    0 -0.85516202515E+01 -0.26828111005E+02 -0.35160143093E+02  0.45045681384E+02  0.00000000000E+00 0. -1.
         11    1    3    3    0    0  0.22934766952E+01  0.26325645770E+00  0.45003425071E+01  0.50579069047E+01  0.51100000000E-03 0. -1.
        -11    1    3    3    0    0  0.31673214412E+00  0.40172370315E+01  0.44017298996E+01  0.59677247749E+01  0.51100000000E-03 0.  1.
         12    1    3    3    0    0  0.59414114122E+01  0.22547617516E+02  0.26258070687E+02  0.35116686936E+02  0.00000000000E+00 0. -1.
</event>
<event>
 7    1  0.2323330E-008  0.4614232E+02  0.7816164E-02  0.1320468E+00
        -11   -1    0    0    0    0  0.00000000000E+00  0.00000000000E+00  0.45593999997E+02  0.45594000000E+02  0.51100000000E-03 0. -1.
         11   -1    0    0    0    0 -0.00000000000E+00 -0.00000000000E+00 -0.45593999997E+02  0.45594000000E+02  0.51100000000E-03 0.  1.
    9900012    2    1    2    0    0 -0.33536055195E+02 -0.14222515211E+01 -0.30040368296E+02  0.46142317357E+02  0.99999963160E+01 0.  0.
         12    1    1    2    0    0  0.33536055195E+02  0.14222515211E+01  0.30040368296E+02  0.45045682643E+02  0.00000000000E+00 0. -1.
         11    1    3    3    0    0 -0.65559280180E+01 -0.10862370482E-01 -0.26700539445E+01  0.70788062903E+01  0.51100000000E-03 0. -1.
        -11    1    3    3    0    0 -0.25970017166E+02 -0.28365806726E+01 -0.25693584238E+02  0.36642164957E+02  0.51100000000E-03 0.  1.
         12    1    3    3    0    0 -0.10101100107E+01  0.14251915220E+01 -0.16767301134E+01  0.24213461093E+01  0.00000000000E+00 0. -1.
</event>
<event>
 7    1  0.2323330E-008  0.4614232E+02  0.7816164E-02  0.1320468E+00
        -11   -1    0    0    0    0  0.00000000000E+00  0.00000000000E+00  0.45593999997E+02  0.45594000000E+02  0.51100000000E-03 0. -1.
         11   -1    0    0    0    0 -0.00000000000E+00 -0.00000000000E+00 -0.45593999997E+02  0.45594000000E+02  0.51100000000E-03 0.  1.
    9900012    2    1    2    0    0 -0.34836300548E+02 -0.59235488150E+01 -0.27936665176E+02  0.46142317326E+02  0.99999960299E+01 0.  0.
         12    1    1    2    0    0  0.34836300548E+02  0.59235488150E+01  0.27936665176E+02  0.45045682674E+02  0.00000000000E+00 0. -1.
         11    1    3    3    0    0 -0.11807137107E+02  0.21881268367E-01 -0.13263115331E+02  0.17757229345E+02  0.51100000000E-03 0. -1.
        -11    1    3    3    0    0 -0.16298217604E+02 -0.38792553484E+01 -0.12843839867E+02  0.21110299428E+02  0.51100000000E-03 0.  1.
        -12    1    3    3    0    0 -0.67309458370E+01 -0.20661747349E+01 -0.18297099779E+01  0.72747885535E+01  0.00000000000E+00 0.  1.
</event>
<event>
 7    1  0.2323330E-008  0.4614232E+02  0.7816164E-02  0.1320468E+00
        -11   -1    0    0    0    0  0.00000000000E+00  0.00000000000E+00  0.45593999997E+02  0.45594000000E+02  0.51100000000E-03 0. -1.
         11   -1    0    0    0    0 -0.00000000000E+00 -0.00000000000E+00 -0.45593999997E+02  0.45594000000E+02  0.51100000000E-03 0.  1.
    9900012    2    1    2    0    0 -0.14198537546E+02  0.28404116109E+02 -0.31948728074E+02  0.46142317566E+02  0.99999982201E+01 0.  0.
         12    1    1    2    0    0  0.14198537546E+02 -0.28404116109E+02  0.31948728074E+02  0.45045682434E+02  0.00000000000E+00 0. -1.
         11    1    3    3    0    0 -0.70920546878E+01  0.57661651784E+01 -0.95076762980E+01  0.13188700065E+02  0.51100000000E-03 0. -1.
        -11    1    3    3    0    0 -0.15992558305E+01  0.61274511360E+01 -0.87919559179E+01  0.10835209539E+02  0.51100000000E-03 0.  1.
         12    1    3    3    0    0 -0.55072270280E+01  0.16510499794E+02 -0.13649095859E+02  0.22118407962E+02  0.00000000000E+00 0. -1.
</event>
<event>
 7    1  0.2323330E-008  0.4614232E+02  0.7816164E-02  0.1320468E+00
        -11   -1    0    0    0    0  0.00000000000E+00  0.00000000000E+00  0.45593999997E+02  0.45594000000E+02  0.51100000000E-03 0.  1.
         11   -1    0    0    0    0 -0.00000000000E+00 -0.00000000000E+00 -0.45593999997E+02  0.45594000000E+02  0.51100000000E-03 0. -1.
    9900012    2    1    2    0    0 -0.27205070672E+02  0.35902553776E+02  0.62126808026E-01  0.46142322098E+02  0.10000039546E+02 0.  0.
         12    1    1    2    0    0  0.27205070672E+02 -0.35902553776E+02 -0.62126808026E-01  0.45045677902E+02  0.00000000000E+00 0. -1.
         11    1    3    3    0    0 -0.35348020817E+00 -0.29095162995E+00  0.32252092536E-02  0.45783378166E+00  0.51100000000E-03 0. -1.
        -11    1    3    3    0    0 -0.20287647927E+02  0.22515148172E+02 -0.20031082214E+01  0.30373228318E+02  0.51100000000E-03 0.  1.
         12    1    3    3    0    0 -0.65639425365E+01  0.13678357234E+02  0.20620098202E+01  0.15311259998E+02  0.00000000000E+00 0. -1.
</event>
<event>
 7    1  0.2323330E-008  0.4614232E+02  0.7816164E-02  0.1320468E+00
        -11   -1    0    0    0    0  0.00000000000E+00  0.00000000000E+00  0.45593999997E+02  0.45594000000E+02  0.51100000000E-03 0. -1.
         11   -1    0    0    0    0 -0.00000000000E+00 -0.00000000000E+00 -0.45593999997E+02  0.45594000000E+02  0.51100000000E-03 0.  1.
    9900012    2    1    2    0    0 -0.21860985408E+02  0.28528182089E+02 -0.27154255733E+02  0.46142318068E+02  0.10000002796E+02 0.  0.
         12    1    1    2    0    0  0.21860985408E+02 -0.28528182089E+02  0.27154255733E+02  0.45045681932E+02  0.00000000000E+00 0. -1.
         11    1    3    3    0    0 -0.50537525941E+01  0.12042364639E+02 -0.60415882150E+01  0.14389570870E+02  0.51100000000E-03 0. -1.
        -11    1    3    3    0    0 -0.90282100612E+01  0.10742357162E+02 -0.11941991608E+02  0.18426013626E+02  0.51100000000E-03 0.  1.
         12    1    3    3    0    0 -0.77790227529E+01  0.57434602880E+01 -0.91706759098E+01  0.13326733572E+02  0.00000000000E+00 0. -1.
</event>
<event>
 7    1  0.2323330E-008  0.4614232E+02  0.7816164E-02  0.1320468E+00
        -11   -1    0    0    0    0  0.00000000000E+00  0.00000000000E+00  0.45593999997E+02  0.45594000000E+02  0.51100000000E-03 0.  1.
         11   -1    0    0    0    0 -0.00000000000E+00 -0.00000000000E+00 -0.45593999997E+02  0.45594000000E+02  0.51100000000E-03 0. -1.
    9900012    2    1    2    0    0 -0.16846963915E+02  0.17896763900E+02  0.37749160645E+02  0.46142317847E+02  0.10000000781E+02 0.  0.
         12    1    1    2    0    0  0.16846963915E+02 -0.17896763900E+02 -0.37749160645E+02  0.45045682153E+02  0.00000000000E+00 0. -1.
         11    1    3    3    0    0 -0.41790863338E+00  0.27167880674E+01  0.16447494671E+01  0.32032461815E+01  0.51100000000E-03 0. -1.
        -11    1    3    3    0    0 -0.44692644885E+01  0.29695358680E+01  0.14030276828E+02  0.15021356013E+02  0.51100000000E-03 0.  1.
        -12    1    3    3    0    0 -0.11959790793E+02  0.12210439965E+02  0.22074134350E+02  0.27917715653E+02  0.00000000000E+00 0.  1.
</event>
<event>
 7    1  0.2323330E-008  0.4614232E+02  0.7816164E-02  0.1320468E+00
        -11   -1    0    0    0    0  0.00000000000E+00  0.00000000000E+00  0.45593999997E+02  0.45594000000E+02  0.51100000000E-03 0.  1.
         11   -1    0    0    0    0 -0.00000000000E+00 -0.00000000000E+00 -0.45593999997E+02  0.45594000000E+02  0.51100000000E-03 0. -1.
    9900012    2    1    2    0    0 -0.31511716036E+02  0.13121008471E+02  0.29393271695E+02  0.46142317280E+02  0.99999956115E+01 0.  0.
         12    1    1    2    0    0  0.31511716036E+02 -0.13121008471E+02 -0.29393271695E+02  0.45045682720E+02  0.00000000000E+00 0. -1.
         11    1    3    3    0    0 -0.13165693437E+01  0.12110434576E+01  0.38618966441E+01  0.42560811839E+01  0.51100000000E-03 0. -1.
        -11    1    3    3    0    0 -0.27913582035E+02  0.10712213331E+02  0.20556054968E+02  0.36283205104E+02  0.51100000000E-03 0.  1.
        -12    1    3    3    0    0 -0.22815646569E+01  0.11977516818E+01  0.49753200830E+01  0.56030309925E+01  0.00000000000E+00 0.  1.
</event>
<event>
 7    1  0.2323330E-008  0.4614232E+02  0.7816164E-02  0.1320468E+00
        -11   -1    0    0    0    0  0.00000000000E+00  0.00000000000E+00  0.45593999997E+02  0.45594000000E+02  0.51100000000E-03 0.  1.
         11   -1    0    0    0    0 -0.00000000000E+00 -0.00000000000E+00 -0.45593999997E+02  0.45594000000E+02  0.51100000000E-03 0. -1.
    9900012    2    1    2    0    0  0.85529071869E+01  0.33511724794E+02  0.28860448371E+02  0.46142318740E+02  0.10000008927E+02 0.  0.
         12    1    1    2    0    0 -0.85529071869E+01 -0.33511724794E+02 -0.28860448371E+02  0.45045681260E+02  0.00000000000E+00 0. -1.
         11    1    3    3    0    0  0.20765419991E+01  0.41712592552E+01  0.12872583968E+01  0.48340940091E+01  0.51100000000E-03 0. -1.
        -11    1    3    3    0    0  0.11505614582E+01  0.53072791634E+01  0.19333307951E+01  0.57644403034E+01  0.51100000000E-03 0.  1.
         12    1    3    3    0    0  0.53258037297E+01  0.24033186375E+02  0.25639859179E+02  0.35543784427E+02  0.00000000000E+00 0. -1.
</event>
<event>
 7    1  0.2323330E-008  0.4614232E+02  0.7816164E-02  0.1320468E+00
        -11   -1    0    0    0    0  0.00000000000E+00  0.00000000000E+00  0.45593999997E+02  0.45594000000E+02  0.51100000000E-03 0.  1.
         11   -1    0    0    0    0 -0.00000000000E+00 -0.00000000000E+00 -0.45593999997E+02  0.45594000000E+02  0.51100000000E-03 0. -1.
    9900012    2    1    2    0    0 -0.31530280076E+02  0.25151651369E+02  0.20058649013E+02  0.46142317316E+02  0.99999959382E+01 0.  0.
         12    1    1    2    0    0  0.31530280076E+02 -0.25151651369E+02 -0.20058649013E+02  0.45045682684E+02  0.00000000000E+00 0. -1.
         11    1    3    3    0    0 -0.89411895960E+01  0.90170166683E+01  0.27021388622E+01  0.12982796913E+02  0.51100000000E-03 0. -1.
        -11    1    3    3    0    0 -0.18036852557E+02  0.14510601908E+02  0.15996815336E+02  0.28138651692E+02  0.51100000000E-03 0.  1.
        -12    1    3    3    0    0 -0.45522379233E+01  0.16240327921E+01  0.13596948153E+01  0.50208687108E+01  0.00000000000E+00 0.  1.
</event>
<event>
 7    1  0.2323330E-008  0.4614232E+02  0.7816164E-02  0.1320468E+00
        -11   -1    0    0    0    0  0.00000000000E+00  0.00000000000E+00  0.45593999997E+02  0.45594000000E+02  0.51100000000E-03 0.  1.
         11   -1    0    0    0    0 -0.00000000000E+00 -0.00000000000E+00 -0.45593999997E+02  0.45594000000E+02  0.51100000000E-03 0. -1.
    9900012    2    1    2    0    0 -0.13482368471E+02  0.32300889849E+02  0.28354748323E+02  0.46142317664E+02  0.99999991164E+01 0.  0.
         12    1    1    2    0    0  0.13482368471E+02 -0.32300889849E+02 -0.28354748323E+02  0.45045682336E+02  0.00000000000E+00 0. -1.
         11    1    3    3    0    0 -0.93381445562E+00  0.35098388501E+01  0.12795305133E+01  0.38507371744E+01  0.51100000000E-03 0. -1.
        -11    1    3    3    0    0 -0.80082762682E+01  0.18358833997E+02  0.11806999825E+02  0.23250473536E+02  0.51100000000E-03 0.  1.
         12    1    3    3    0    0 -0.45402777472E+01  0.10432217002E+02  0.15268217985E+02  0.19041106954E+02  0.00000000000E+00 0. -1.
</event>
<event>
 7    1  0.2323330E-008  0.4614232E+02  0.7816164E-02  0.1320468E+00
        -11   -1    0    0    0    0  0.00000000000E+00  0.00000000000E+00  0.45593999997E+02  0.45594000000E+02  0.51100000000E-03 0.  1.
         11   -1    0    0    0    0 -0.00000000000E+00 -0.00000000000E+00 -0.45593999997E+02  0.45594000000E+02  0.51100000000E-03 0. -1.
    9900012    2    1    2    0    0 -0.39534875501E+02  0.17267489240E+02  0.12959200025E+02  0.46142318400E+02  0.10000005825E+02 0.  0.
         12    1    1    2    0    0  0.39534875501E+02 -0.17267489240E+02 -0.12959200025E+02  0.45045681600E+02  0.00000000000E+00 0. -1.
         11    1    3    3    0    0 -0.77822932589E+01  0.42168322050E-04  0.22981801820E+01  0.81145376195E+01  0.51100000000E-03 0. -1.
        -11    1    3    3    0    0 -0.16456242572E+02  0.73026200311E+01  0.74849951861E+01  0.19497726332E+02  0.51100000000E-03 0.  1.
         12    1    3    3    0    0 -0.15296339670E+02  0.99648270406E+01  0.31760246570E+01  0.18530054449E+02  0.00000000000E+00 0. -1.
</event>
<event>
 7    1  0.2323330E-008  0.4614232E+02  0.7816164E-02  0.1320468E+00
        -11   -1    0    0    0    0  0.00000000000E+00  0.00000000000E+00  0.45593999997E+02  0.45594000000E+02  0.51100000000E-03 0.  1.
         11   -1    0    0    0    0 -0.00000000000E+00 -0.00000000000E+00 -0.45593999997E+02  0.45594000000E+02  0.51100000000E-03 0. -1.
    9900012    2    1    2    0    0 -0.37402631281E+02 -0.11852953553E+02  0.22128358081E+02  0.46142316899E+02  0.99999921411E+01 0.  0.
         12    1    1    2    0    0  0.37402631281E+02  0.11852953553E+02 -0.22128358081E+02  0.45045683101E+02  0.00000000000E+00 0. -1.
         11    1    3    3    0    0  0.51566493782E+00  0.15573529971E+00  0.26040167643E+00  0.59830853736E+00  0.51100000000E-03 0. -1.
        -11    1    3    3    0    0 -0.24862226257E+02 -0.62859257825E+01  0.12946528720E+02  0.28727265159E+02  0.51100000000E-03 0.  1.
         12    1    3    3    0    0 -0.13056069962E+02 -0.57227630704E+01  0.89214276846E+01  0.16816743202E+02  0.00000000000E+00 0. -1.
</event>
<event>
 7    1  0.2323330E-008  0.4614232E+02  0.7816164E-02  0.1320468E+00
        -11   -1    0    0    0    0  0.00000000000E+00  0.00000000000E+00  0.45593999997E+02  0.45594000000E+02  0.51100000000E-03 0.  1.
         11   -1    0    0    0    0 -0.00000000000E+00 -0.00000000000E+00 -0.45593999997E+02  0.45594000000E+02  0.51100000000E-03 0. -1.
    9900012    2    1    2    0    0 -0.38347500540E+02  0.15630131435E+02  0.17727991698E+02  0.46142317677E+02  0.99999992316E+01 0.  0.
         12    1    1    2    0    0  0.38347500540E+02 -0.15630131435E+02 -0.17727991698E+02  0.45045682323E+02  0.00000000000E+00 0. -1.
         11    1    3    3    0    0 -0.43273904773E+01  0.11170271808E+00 -0.24138005756E+00  0.43355565310E+01  0.51100000000E-03 0. -1.
        -11    1    3    3    0    0 -0.10395146675E+02  0.71177024465E+01  0.72673974664E+01  0.14544271336E+02  0.51100000000E-03 0.  1.
         12    1    3    3    0    0 -0.23624963387E+02  0.84007262708E+01  0.10701974289E+02  0.27262489809E+02  0.00000000000E+00 0. -1.
</event>
<event>
 7    1  0.2323330E-008  0.4614232E+02  0.7816164E-02  0.1320468E+00
        -11   -1    0    0    0    0  0.00000000000E+00  0.00000000000E+00  0.45593999997E+02  0.45594000000E+02  0.51100000000E-03 0. -1.
         11   -1    0    0    0    0 -0.00000000000E+00 -0.00000000000E+00 -0.45593999997E+02  0.45594000000E+02  0.51100000000E-03 0.  1.
    9900012    2    1    2    0    0  0.27661122729E+02  0.35534518413E+02  0.11286460575E+01  0.46142317061E+02  0.99999936170E+01 0.  0.
         12    1    1    2    0    0 -0.27661122729E+02 -0.35534518413E+02 -0.11286460575E+01  0.45045682939E+02  0.00000000000E+00 0. -1.
         11    1    3    3    0    0  0.13008032718E+02  0.21919371022E+02 -0.24132592465E+01  0.25602569434E+02  0.51100000000E-03 0. -1.
        -11    1    3    3    0    0  0.10993259049E+02  0.93996045021E+01  0.12942689617E+01  0.14521688666E+02  0.51100000000E-03 0.  1.
        -12    1    3    3    0    0  0.36598309627E+01  0.42155428891E+01  0.22476363423E+01  0.60180589605E+01  0.00000000000E+00 0.  1.
</event>
<event>
 7    1  0.2323330E-008  0.4614232E+02  0.7816164E-02  0.1320468E+00
        -11   -1    0    0    0    0  0.00000000000E+00  0.00000000000E+00  0.45593999997E+02  0.45594000000E+02  0.51100000000E-03 0.  1.
         11   -1    0    0    0    0 -0.00000000000E+00 -0.00000000000E+00 -0.45593999997E+02  0.45594000000E+02  0.51100000000E-03 0. -1.
    9900012    2    1    2    0    0 -0.85805661233E+01  0.94293513276E+01  0.43203873475E+02  0.46142318024E+02  0.10000002395E+02 0.  0.
         12    1    1    2    0    0  0.85805661233E+01 -0.94293513276E+01 -0.43203873475E+02  0.45045681976E+02  0.00000000000E+00 0. -1.
         11    1    3    3    0    0 -0.53643166629E+01  0.78616202079E+01  0.15803988044E+02  0.18448495979E+02  0.51100000000E-03 0.  1.
        -11    1    3    3    0    0 -0.33493222943E+01  0.15625929200E+01  0.23260354702E+02  0.23552149745E+02  0.51100000000E-03 0. -1.
        -12    1    3    3    0    0  0.13307283382E+00  0.51381996259E-02  0.41395307294E+01  0.41416722999E+01  0.00000000000E+00 0.  1.
</event>
<event>
 7    1  0.2323330E-008  0.4614232E+02  0.7816164E-02  0.1320468E+00
        -11   -1    0    0    0    0  0.00000000000E+00  0.00000000000E+00  0.45593999997E+02  0.45594000000E+02  0.51100000000E-03 0.  1.
         11   -1    0    0    0    0 -0.00000000000E+00 -0.00000000000E+00 -0.45593999997E+02  0.45594000000E+02  0.51100000000E-03 0. -1.
    9900012    2    1    2    0    0 -0.17011786021E+02  0.29969944597E+02  0.29008877449E+02  0.46142318591E+02  0.10000007570E+02 0.  0.
         12    1    1    2    0    0  0.17011786021E+02 -0.29969944597E+02 -0.29008877449E+02  0.45045681409E+02  0.00000000000E+00 0. -1.
         11    1    3    3    0    0 -0.25963877242E+01  0.74503736019E+00  0.34264104859E+01  0.43630951125E+01  0.51100000000E-03 0. -1.
        -11    1    3    3    0    0 -0.10119168159E+02  0.16526391505E+02  0.12579033539E+02  0.23103057491E+02  0.51100000000E-03 0.  1.
         12    1    3    3    0    0 -0.42962301374E+01  0.12698515731E+02  0.13003433424E+02  0.18676165988E+02  0.00000000000E+00 0. -1.
</event>
<event>
 7    1  0.2323330E-008  0.4614232E+02  0.7816164E-02  0.1320468E+00
        -11   -1    0    0    0    0  0.00000000000E+00  0.00000000000E+00  0.45593999997E+02  0.45594000000E+02  0.51100000000E-03 0.  1.
         11   -1    0    0    0    0 -0.00000000000E+00 -0.00000000000E+00 -0.45593999997E+02  0.45594000000E+02  0.51100000000E-03 0. -1.
    9900012    2    1    2    0    0 -0.20335300548E+02  0.28627014119E+02 -0.28214934466E+02  0.46142324151E+02  0.10000058272E+02 0.  0.
         12    1    1    2    0    0  0.20335300548E+02 -0.28627014119E+02  0.28214934466E+02  0.45045675849E+02  0.00000000000E+00 0. -1.
         11    1    3    3    0    0 -0.68480481607E+00  0.51583108568E+01 -0.32517446394E+01  0.61360387867E+01  0.51100000000E-03 0. -1.
        -11    1    3    3    0    0 -0.14848150442E+01 -0.59344145526E-01 -0.17193255300E+01  0.22725047816E+01  0.51100000000E-03 0.  1.
        -12    1    3    3    0    0 -0.18165680688E+02  0.23528047408E+02 -0.23243864296E+02  0.37733780583E+02  0.00000000000E+00 0.  1.
</event>
<event>
 7    1  0.2323330E-008  0.4614231E+02  0.7816164E-02  0.1320468E+00
        -11   -1    0    0    0    0  0.00000000000E+00  0.00000000000E+00  0.45593999997E+02  0.45594000000E+02  0.51100000000E-03 0.  1.
         11   -1    0    0    0    0 -0.00000000000E+00 -0.00000000000E+00 -0.45593999997E+02  0.45594000000E+02  0.51100000000E-03 0. -1.
    9900012    2    1    2    0    0  0.23408899177E+02 -0.15992013020E+02  0.35005611161E+02  0.46142313704E+02  0.99999630018E+01 0.  0.
         12    1    1    2    0    0 -0.23408899177E+02  0.15992013020E+02 -0.35005611161E+02  0.45045686296E+02  0.00000000000E+00 0. -1.
         11    1    3    3    0    0  0.58043689582E+01 -0.28681740238E+01  0.11373478670E+02  0.13087136377E+02  0.51100000000E-03 0. -1.
        -11    1    3    3    0    0  0.36755693080E+01 -0.15944010319E+01  0.87977931998E+01  0.96671138318E+01  0.51100000000E-03 0.  1.
         12    1    3    3    0    0  0.13928960911E+02 -0.11529437964E+02  0.14834339292E+02  0.23388063495E+02  0.00000000000E+00 0. -1.
</event>
<event>
 7    1  0.2323330E-008  0.4614231E+02  0.7816164E-02  0.1320468E+00
        -11   -1    0    0    0    0  0.00000000000E+00  0.00000000000E+00  0.45593999997E+02  0.45594000000E+02  0.51100000000E-03 0. -1.
         11   -1    0    0    0    0 -0.00000000000E+00 -0.00000000000E+00 -0.45593999997E+02  0.45594000000E+02  0.51100000000E-03 0.  1.
    9900012    2    1    2    0    0 -0.42683696479E+02 -0.14385181606E+02  0.53144594631E+00  0.46142313972E+02  0.99999654457E+01 0.  0.
         12    1    1    2    0    0  0.42683696479E+02  0.14385181606E+02 -0.53144594631E+00  0.45045686028E+02  0.00000000000E+00 0. -1.
         11    1    3    3    0    0 -0.19627807898E+02 -0.51637465902E+01  0.46407177074E+01  0.20819495259E+02  0.51100000000E-03 0. -1.
        -11    1    3    3    0    0 -0.12217858573E+01 -0.88440591825E+00  0.30273970873E+00  0.15383712496E+01  0.51100000000E-03 0.  1.
        -12    1    3    3    0    0 -0.21834102724E+02 -0.83370290979E+01 -0.44120114698E+01  0.23784447463E+02  0.00000000000E+00 0.  1.
</event>
<event>
 7    1  0.2323330E-008  0.4614232E+02  0.7816164E-02  0.1320468E+00
        -11   -1    0    0    0    0  0.00000000000E+00  0.00000000000E+00  0.45593999997E+02  0.45594000000E+02  0.51100000000E-03 0.  1.
         11   -1    0    0    0    0 -0.00000000000E+00 -0.00000000000E+00 -0.45593999997E+02  0.45594000000E+02  0.51100000000E-03 0. -1.
    9900012    2    1    2    0    0  0.16471888182E+02  0.18579494340E+02  0.37584477504E+02  0.46142315862E+02  0.99999826827E+01 0.  0.
         12    1    1    2    0    0 -0.16471888182E+02 -0.18579494340E+02 -0.37584477504E+02  0.45045684138E+02  0.00000000000E+00 0. -1.
         11    1    3    3    0    0  0.78946502265E-01  0.76255059049E+00  0.50922117450E+01  0.51495957774E+01  0.51100000000E-03 0. -1.
        -11    1    3    3    0    0  0.72481805346E+00  0.74436754255E+00  0.46711434096E+01  0.47852925995E+01  0.51100000000E-03 0.  1.
        -12    1    3    3    0    0  0.15668123626E+02  0.17072576207E+02  0.27821122349E+02  0.36207427485E+02  0.00000000000E+00 0.  1.
</event>
<event>
 7    1  0.2323330E-008  0.4614232E+02  0.7816164E-02  0.1320468E+00
        -11   -1    0    0    0    0  0.00000000000E+00  0.00000000000E+00  0.45593999997E+02  0.45594000000E+02  0.51100000000E-03 0.  1.
         11   -1    0    0    0    0 -0.00000000000E+00 -0.00000000000E+00 -0.45593999997E+02  0.45594000000E+02  0.51100000000E-03 0. -1.
    9900012    2    1    2    0    0  0.32020652734E+01  0.11174898755E+02  0.43519902916E+02  0.46142317254E+02  0.99999953795E+01 0.  0.
         12    1    1    2    0    0 -0.32020652734E+01 -0.11174898755E+02 -0.43519902916E+02  0.45045682746E+02  0.00000000000E+00 0. -1.
         11    1    3    3    0    0  0.51195473092E+01  0.63735779824E+01  0.18385599290E+02  0.20121195851E+02  0.51100000000E-03 0. -1.
        -11    1    3    3    0    0 -0.17894340318E+01  0.51196017839E+01  0.16268026953E+02  0.17148209754E+02  0.51100000000E-03 0.  1.
         12    1    3    3    0    0 -0.12804800409E+00 -0.31828101107E+00  0.88662766729E+01  0.88729116491E+01  0.00000000000E+00 0. -1.
</event>
<event>
 7    1  0.2323330E-008  0.4614232E+02  0.7816164E-02  0.1320468E+00
        -11   -1    0    0    0    0  0.00000000000E+00  0.00000000000E+00  0.45593999997E+02  0.45594000000E+02  0.51100000000E-03 0.  1.
         11   -1    0    0    0    0 -0.00000000000E+00 -0.00000000000E+00 -0.45593999997E+02  0.45594000000E+02  0.51100000000E-03 0. -1.
    9900012    2    1    2    0    0 -0.16982965372E+02 -0.37434665668E+02  0.18421138896E+02  0.46142315804E+02  0.99999821519E+01 0.  0.
         12    1    1    2    0    0  0.16982965372E+02  0.37434665668E+02 -0.18421138896E+02  0.45045684196E+02  0.00000000000E+00 0. -1.
         11    1    3    3    0    0 -0.96662086436E+01 -0.11955031896E+02  0.46417782831E+01  0.16059404817E+02  0.51100000000E-03 0. -1.
        -11    1    3    3    0    0 -0.75928307353E+01 -0.24545000513E+02  0.12812346422E+02  0.28710004352E+02  0.51100000000E-03 0.  1.
        -12    1    3    3    0    0  0.27607400709E+00 -0.93463325855E+00  0.96701419008E+00  0.13729066353E+01  0.00000000000E+00 0.  1.
</event>
<event>
 7    1  0.2323330E-008  0.4614233E+02  0.7816164E-02  0.1320468E+00
        -11   -1    0    0    0    0  0.00000000000E+00  0.00000000000E+00  0.45593999997E+02  0.45594000000E+02  0.51100000000E-03 0. -1.
         11   -1    0    0    0    0 -0.00000000000E+00 -0.00000000000E+00 -0.45593999997E+02  0.45594000000E+02  0.51100000000E-03 0.  1.
    9900012    2    1    2    0    0 -0.44356069011E+02  0.87592886752E+00  0.78028393811E+01  0.46142329710E+02  0.10000108956E+02 0.  0.
         12    1    1    2    0    0  0.44356069011E+02 -0.87592886752E+00 -0.78028393811E+01  0.45045670290E+02  0.00000000000E+00 0. -1.
         11    1    3    3    0    0 -0.57462864947E+01  0.24967639593E+01 -0.85730017311E-01  0.62658589710E+01  0.51100000000E-03 0. -1.
        -11    1    3    3    0    0 -0.85654588851E+01 -0.27874978874E+01  0.13734228178E+01  0.91117243638E+01  0.51100000000E-03 0.  1.
        -12    1    3    3    0    0 -0.30044323631E+02  0.11666627956E+01  0.65151465806E+01  0.30764746375E+02  0.00000000000E+00 0.  1.
</event>
<event>
 7    1  0.2323330E-008  0.4614232E+02  0.7816164E-02  0.1320468E+00
        -11   -1    0    0    0    0  0.00000000000E+00  0.00000000000E+00  0.45593999997E+02  0.45594000000E+02  0.51100000000E-03 0. -1.
         11   -1    0    0    0    0 -0.00000000000E+00 -0.00000000000E+00 -0.45593999997E+02  0.45594000000E+02  0.51100000000E-03 0.  1.
    9900012    2    1    2    0    0 -0.46901559806E+01 -0.28591466484E+02 -0.34491215860E+02  0.46142317739E+02  0.99999997991E+01 0.  0.
         12    1    1    2    0    0  0.46901559806E+01  0.28591466484E+02  0.34491215860E+02  0.45045682261E+02  0.00000000000E+00 0. -1.
         11    1    3    3    0    0  0.12674661145E+01 -0.40728393727E+01 -0.85840167961E+01  0.95853969935E+01  0.51100000000E-03 0. -1.
        -11    1    3    3    0    0 -0.18871097395E+01 -0.66522799280E+01 -0.10722689243E+02  0.12758921438E+02  0.51100000000E-03 0.  1.
        -12    1    3    3    0    0 -0.40705123556E+01 -0.17866347183E+02 -0.15184509821E+02  0.23797999307E+02  0.00000000000E+00 0.  1.
</event>
<event>
 7    1  0.2323330E-008  0.4614232E+02  0.7816164E-02  0.1320468E+00
        -11   -1    0    0    0    0  0.00000000000E+00  0.00000000000E+00  0.45593999997E+02  0.45594000000E+02  0.51100000000E-03 0. -1.
         11   -1    0    0    0    0 -0.00000000000E+00 -0.00000000000E+00 -0.45593999997E+02  0.45594000000E+02  0.51100000000E-03 0.  1.
    9900012    2    1    2    0    0 -0.15279676453E+02  0.41282419209E+02 -0.95606938352E+01  0.46142317467E+02  0.99999973190E+01 0.  0.
         12    1    1    2    0    0  0.15279676453E+02 -0.41282419209E+02  0.95606938352E+01  0.45045682533E+02  0.00000000000E+00 0. -1.
         11    1    3    3    0    0 -0.96146527474E+01  0.21871098221E+02 -0.28859561748E+01  0.24064813072E+02  0.51100000000E-03 0. -1.
        -11    1    3    3    0    0 -0.67799103172E+01  0.17137972828E+02 -0.64866193267E+01  0.19538513943E+02  0.51100000000E-03 0.  1.
        -12    1    3    3    0    0  0.11148866112E+01  0.22733481593E+01 -0.18811833369E+00  0.25389904523E+01  0.00000000000E+00 0.  1.
</event>
<event>
 7    1  0.2323330E-008  0.4614232E+02  0.7816164E-02  0.1320468E+00
        -11   -1    0    0    0    0  0.00000000000E+00  0.00000000000E+00  0.45593999997E+02  0.45594000000E+02  0.51100000000E-03 0. -1.
         11   -1    0    0    0    0 -0.00000000000E+00 -0.00000000000E+00 -0.45593999997E+02  0.45594000000E+02  0.51100000000E-03 0.  1.
    9900012    2    1    2    0    0  0.81115728587E+01  0.35195011652E+02 -0.26918896612E+02  0.46142318140E+02  0.10000003456E+02 0.  0.
         12    1    1    2    0    0 -0.81115728587E+01 -0.35195011652E+02  0.26918896612E+02  0.45045681860E+02  0.00000000000E+00 0. -1.
         11    1    3    3    0    0  0.95301483736E+00  0.13561091766E+02 -0.81082314044E+01  0.15828924914E+02  0.51100000000E-03 0. -1.
        -11    1    3    3    0    0  0.40359838031E+01  0.19357373708E+02 -0.16854557220E+02  0.25982170453E+02  0.51100000000E-03 0.  1.
         12    1    3    3    0    0  0.31225742182E+01  0.22765461787E+01 -0.19561079876E+01  0.43312227732E+01  0.00000000000E+00 0. -1.
</event>
<event>
 7    1  0.2323330E-008  0.4614232E+02  0.7816164E-02  0.1320468E+00
        -11   -1    0    0    0    0  0.00000000000E+00  0.00000000000E+00  0.45593999997E+02  0.45594000000E+02  0.51100000000E-03 0.  1.
         11   -1    0    0    0    0 -0.00000000000E+00 -0.00000000000E+00 -0.45593999997E+02  0.45594000000E+02  0.51100000000E-03 0. -1.
    9900012    2    1    2    0    0 -0.23035697152E+02  0.38709868013E+02  0.12769244450E+00  0.46142317296E+02  0.99999957628E+01 0.  0.
         12    1    1    2    0    0  0.23035697152E+02 -0.38709868013E+02 -0.12769244450E+00  0.45045682704E+02  0.00000000000E+00 0. -1.
         11    1    3    3    0    0 -0.17737539241E+01  0.78784530343E+01 -0.23853069081E+01  0.84205649754E+01  0.51100000000E-03 0. -1.
        -11    1    3    3    0    0 -0.11966558476E+02  0.18416012531E+02  0.32140681677E+01  0.22196357218E+02  0.51100000000E-03 0.  1.
         12    1    3    3    0    0 -0.92953847512E+01  0.12415402448E+02 -0.70106881502E+00  0.15525395103E+02  0.00000000000E+00 0. -1.
</event>
