<event>
 7    1  0.1749439E-013  0.7246152E+02  0.7816164E-02  0.1226708E+00
        -11   -1    0    0    0    0  0.00000000000E+00  0.00000000000E+00  0.45593999997E+02  0.45594000000E+02  0.51100000000E-03 0.  1.
         11   -1    0    0    0    0 -0.00000000000E+00 -0.00000000000E+00 -0.45593999997E+02  0.45594000000E+02  0.51100000000E-03 0. -1.
    9900012    2    1    2    0    0 -0.12674769608E+02 -0.33716031217E+01 -0.13366512255E+02  0.72461517627E+02  0.69999931390E+02 0.  0.
        -12    1    1    2    0    0  0.12674769608E+02  0.33716031217E+01  0.13366512255E+02  0.18726482373E+02  0.00000000000E+00 0.  1.
         11    1    3    3    0    0 -0.16151531066E+02 -0.20274474380E+02  0.32612147454E+01  0.26125883507E+02  0.51100000000E-03 0. -1.
        -11    1    3    3    0    0 -0.14959309818E+00 -0.56396918836E+01  0.98633626156E+01  0.11362852854E+02  0.51100000000E-03 0.  1.
        -12    1    3    3    0    0  0.36263545563E+01  0.22542563142E+02 -0.26491089616E+02  0.34972781265E+02  0.00000000000E+00 0.  1.
</event>
<event>
 7    1  0.1749439E-013  0.7246145E+02  0.7816164E-02  0.1226708E+00
        -11   -1    0    0    0    0  0.00000000000E+00  0.00000000000E+00  0.45593999997E+02  0.45594000000E+02  0.51100000000E-03 0.  1.
         11   -1    0    0    0    0 -0.00000000000E+00 -0.00000000000E+00 -0.45593999997E+02  0.45594000000E+02  0.51100000000E-03 0. -1.
    9900012    2    1    2    0    0  0.13438393692E+02  0.12988961821E+02 -0.11748119199E+01  0.72461448336E+02  0.69999841126E+02 0.  0.
        -12    1    1    2    0    0 -0.13438393692E+02 -0.12988961821E+02  0.11748119199E+01  0.18726551664E+02  0.00000000000E+00 0.  1.
         11    1    3    3    0    0  0.16668043422E+02 -0.14217146107E+02 -0.16176340939E+02  0.27232791289E+02  0.51100000000E-03 0. -1.
        -11    1    3    3    0    0 -0.13061285847E+02  0.40138260553E+01 -0.33425561946E+01  0.14067006425E+02  0.51100000000E-03 0.  1.
        -12    1    3    3    0    0  0.98316361172E+01  0.23192281872E+02  0.18344085214E+02  0.31161650622E+02  0.00000000000E+00 0.  1.
</event>
<event>
 7    1  0.1749439E-013  0.7246153E+02  0.7816164E-02  0.1226708E+00
        -11   -1    0    0    0    0  0.00000000000E+00  0.00000000000E+00  0.45593999997E+02  0.45594000000E+02  0.51100000000E-03 0.  1.
         11   -1    0    0    0    0 -0.00000000000E+00 -0.00000000000E+00 -0.45593999997E+02  0.45594000000E+02  0.51100000000E-03 0. -1.
    9900012    2    1    2    0    0  0.14428288736E+01 -0.16251347700E+02 -0.91919893275E+01  0.72461528762E+02  0.69999945896E+02 0.  0.
        -12    1    1    2    0    0 -0.14428288736E+01  0.16251347700E+02  0.91919893275E+01  0.18726471238E+02  0.00000000000E+00 0.  1.
         11    1    3    3    0    0 -0.12824189078E+02 -0.39878153503E+01 -0.74401983065E+00  0.13450504175E+02  0.51100000000E-03 0. -1.
        -11    1    3    3    0    0  0.10636399362E+02  0.16665514313E+01 -0.30686248014E+02  0.32520089214E+02  0.51100000000E-03 0.  1.
        -12    1    3    3    0    0  0.36306185897E+01 -0.13930083781E+02  0.22238278517E+02  0.26490935373E+02  0.00000000000E+00 0.  1.
</event>
<event>
 7    1  0.1749439E-013  0.7246157E+02  0.7816164E-02  0.1226708E+00
        -11   -1    0    0    0    0  0.00000000000E+00  0.00000000000E+00  0.45593999997E+02  0.45594000000E+02  0.51100000000E-03 0. -1.
         11   -1    0    0    0    0 -0.00000000000E+00 -0.00000000000E+00 -0.45593999997E+02  0.45594000000E+02  0.51100000000E-03 0.  1.
    9900012    2    1    2    0    0  0.11440649141E+02 -0.12866980638E+02  0.73642018343E+01  0.72461571826E+02  0.70000001995E+02 0.  0.
        -12    1    1    2    0    0 -0.11440649141E+02  0.12866980638E+02 -0.73642018343E+01  0.18726428174E+02  0.00000000000E+00 0.  1.
         11    1    3    3    0    0 -0.48672548352E+01 -0.56095882133E+01 -0.94423966480E+01  0.12013180440E+02  0.51100000000E-03 0. -1.
        -11    1    3    3    0    0  0.25420675178E+02 -0.25572700555E+01 -0.13186380172E+02  0.28751190913E+02  0.51100000000E-03 0.  1.
         12    1    3    3    0    0 -0.91127712020E+01 -0.47001223694E+01  0.29992978654E+02  0.31697200473E+02  0.00000000000E+00 0. -1.
</event>
<event>
 7    1  0.1749439E-013  0.7246157E+02  0.7816164E-02  0.1226708E+00
        -11   -1    0    0    0    0  0.00000000000E+00  0.00000000000E+00  0.45593999997E+02  0.45594000000E+02  0.51100000000E-03 0. -1.
         11   -1    0    0    0    0 -0.00000000000E+00 -0.00000000000E+00 -0.45593999997E+02  0.45594000000E+02  0.51100000000E-03 0.  1.
    9900012    2    1    2    0    0 -0.15047206758E+02 -0.66395357273E+01  0.89541782239E+01  0.72461570186E+02  0.69999999859E+02 0.  0.
        -12    1    1    2    0    0  0.15047206758E+02  0.66395357273E+01 -0.89541782239E+01  0.18726429814E+02  0.00000000000E+00 0.  1.
         11    1    3    3    0    0  0.96782732792E+00  0.12642188356E+01  0.11471490257E+01  0.19623685050E+01  0.51100000000E-03 0. -1.
        -11    1    3    3    0    0 -0.29639500959E+01  0.29689947796E+02  0.72270025751E+01  0.30700286102E+02  0.51100000000E-03 0.  1.
         12    1    3    3    0    0 -0.13051083991E+02 -0.37593702359E+02  0.58002662305E+00  0.39798915579E+02  0.00000000000E+00 0. -1.
</event>
<event>
 7    1  0.1749439E-013  0.7246154E+02  0.7816164E-02  0.1226708E+00
        -11   -1    0    0    0    0  0.00000000000E+00  0.00000000000E+00  0.45593999997E+02  0.45594000000E+02  0.51100000000E-03 0. -1.
         11   -1    0    0    0    0 -0.00000000000E+00 -0.00000000000E+00 -0.45593999997E+02  0.45594000000E+02  0.51100000000E-03 0.  1.
    9900012    2    1    2    0    0 -0.15565266613E+02 -0.10369525198E+02  0.93589520249E+00  0.72461535373E+02  0.69999954509E+02 0.  0.
        -12    1    1    2    0    0  0.15565266613E+02  0.10369525198E+02 -0.93589520249E+00  0.18726464627E+02  0.00000000000E+00 0.  1.
         11    1    3    3    0    0 -0.86465190971E+01 -0.77220211183E+01 -0.34064899310E+01  0.12082883619E+02  0.51100000000E-03 0. -1.
        -11    1    3    3    0    0  0.93030780834E+01 -0.27227996491E+02 -0.55638675902E+01  0.29306444301E+02  0.51100000000E-03 0.  1.
         12    1    3    3    0    0 -0.16221825600E+02  0.24580492411E+02  0.99062527237E+01  0.31072207453E+02  0.00000000000E+00 0. -1.
</event>
<event>
 7    1  0.1749439E-013  0.7246149E+02  0.7816164E-02  0.1226708E+00
        -11   -1    0    0    0    0  0.00000000000E+00  0.00000000000E+00  0.45593999997E+02  0.45594000000E+02  0.51100000000E-03 0. -1.
         11   -1    0    0    0    0 -0.00000000000E+00 -0.00000000000E+00 -0.45593999997E+02  0.45594000000E+02  0.51100000000E-03 0.  1.
    9900012    2    1    2    0    0 -0.64254530966E+01  0.77879575768E+01  0.15771597749E+02  0.72461494019E+02  0.69999900637E+02 0.  0.
        -12    1    1    2    0    0  0.64254530966E+01 -0.77879575768E+01 -0.15771597749E+02  0.18726505981E+02  0.00000000000E+00 0.  1.
         11    1    3    3    0    0  0.48364681100E+01 -0.71745859858E+01  0.23839495607E+02  0.25361144669E+02  0.51100000000E-03 0. -1.
        -11    1    3    3    0    0 -0.57372828056E+01 -0.57287696473E+01  0.14107775741E+02  0.16271587270E+02  0.51100000000E-03 0.  1.
        -12    1    3    3    0    0 -0.55246384010E+01  0.20691313210E+02 -0.22175673599E+02  0.30828762080E+02  0.00000000000E+00 0.  1.
</event>
<event>
 7    1  0.1749439E-013  0.7246158E+02  0.7816164E-02  0.1226708E+00
        -11   -1    0    0    0    0  0.00000000000E+00  0.00000000000E+00  0.45593999997E+02  0.45594000000E+02  0.51100000000E-03 0.  1.
         11   -1    0    0    0    0 -0.00000000000E+00 -0.00000000000E+00 -0.45593999997E+02  0.45594000000E+02  0.51100000000E-03 0. -1.
    9900012    2    1    2    0    0 -0.10301795456E+02  0.15218734251E+02 -0.35974869916E+01  0.72461580842E+02  0.70000013740E+02 0.  0.
        -12    1    1    2    0    0  0.10301795456E+02 -0.15218734251E+02  0.35974869916E+01  0.18726419158E+02  0.00000000000E+00 0.  1.
         11    1    3    3    0    0 -0.52944925100E+01 -0.10639312083E+02  0.16664318852E+02  0.20467685155E+02  0.51100000000E-03 0. -1.
        -11    1    3    3    0    0  0.15070510646E+02  0.17092810477E+01 -0.11054074951E+01  0.15207361994E+02  0.51100000000E-03 0.  1.
         12    1    3    3    0    0 -0.20077813591E+02  0.24148765287E+02 -0.19156398348E+02  0.36786533693E+02  0.00000000000E+00 0. -1.
</event>
<event>
 7    1  0.1749439E-013  0.7246161E+02  0.7816164E-02  0.1226708E+00
        -11   -1    0    0    0    0  0.00000000000E+00  0.00000000000E+00  0.45593999997E+02  0.45594000000E+02  0.51100000000E-03 0.  1.
         11   -1    0    0    0    0 -0.00000000000E+00 -0.00000000000E+00 -0.45593999997E+02  0.45594000000E+02  0.51100000000E-03 0. -1.
    9900012    2    1    2    0    0  0.23857540591E+01 -0.18455799350E+02 -0.20902913997E+01  0.72461610326E+02  0.70000052149E+02 0.  0.
        -12    1    1    2    0    0 -0.23857540591E+01  0.18455799350E+02  0.20902913997E+01  0.18726389674E+02  0.00000000000E+00 0.  1.
         11    1    3    3    0    0 -0.11073103771E+02 -0.31115319806E+02  0.10294177284E+02  0.34594028964E+02  0.51100000000E-03 0.  1.
        -11    1    3    3    0    0 -0.46576160537E+01 -0.70781505269E+01 -0.58328636648E+01  0.10286685617E+02  0.51100000000E-03 0. -1.
         12    1    3    3    0    0  0.18116473884E+02  0.19737670983E+02 -0.65516050190E+01  0.27580895746E+02  0.00000000000E+00 0. -1.
</event>
<event>
 7    1  0.1749439E-013  0.7246155E+02  0.7816164E-02  0.1226708E+00
        -11   -1    0    0    0    0  0.00000000000E+00  0.00000000000E+00  0.45593999997E+02  0.45594000000E+02  0.51100000000E-03 0. -1.
         11   -1    0    0    0    0 -0.00000000000E+00 -0.00000000000E+00 -0.45593999997E+02  0.45594000000E+02  0.51100000000E-03 0.  1.
    9900012    2    1    2    0    0 -0.52629087205E+01  0.99539943241E+01  0.14963277639E+02  0.72461551087E+02  0.69999974979E+02 0.  0.
        -12    1    1    2    0    0  0.52629087205E+01 -0.99539943241E+01 -0.14963277639E+02  0.18726448913E+02  0.00000000000E+00 0.  1.
         11    1    3    3    0    0  0.46431581395E+01  0.22855559412E+02 -0.18536227046E+02  0.29791395182E+02  0.51100000000E-03 0. -1.
        -11    1    3    3    0    0  0.53424693335E+01 -0.79844397367E+01  0.77508640611E+01  0.12343789955E+02  0.51100000000E-03 0.  1.
        -12    1    3    3    0    0 -0.15248536193E+02 -0.49171253513E+01  0.25748640624E+02  0.30326365950E+02  0.00000000000E+00 0.  1.
</event>
<event>
 7    1  0.1749439E-013  0.7246126E+02  0.7816164E-02  0.1226709E+00
        -11   -1    0    0    0    0  0.00000000000E+00  0.00000000000E+00  0.45593999997E+02  0.45594000000E+02  0.51100000000E-03 0.  1.
         11   -1    0    0    0    0 -0.00000000000E+00 -0.00000000000E+00 -0.45593999997E+02  0.45594000000E+02  0.51100000000E-03 0. -1.
    9900012    2    1    2    0    0 -0.36053892981E+01 -0.11875107453E+01 -0.18337991490E+02  0.72461255871E+02  0.69999590404E+02 0.  0.
        -12    1    1    2    0    0  0.36053892981E+01  0.11875107453E+01  0.18337991490E+02  0.18726744129E+02  0.00000000000E+00 0.  1.
         11    1    3    3    0    0 -0.11557351246E+02 -0.13012092927E+02 -0.20680192342E+01  0.17526084388E+02  0.51100000000E-03 0. -1.
        -11    1    3    3    0    0  0.25382702496E+02 -0.58831441232E+01 -0.16546351434E+01  0.26108059838E+02  0.51100000000E-03 0.  1.
         12    1    3    3    0    0 -0.17430740548E+02  0.17707726305E+02 -0.14615337113E+02  0.28827111646E+02  0.00000000000E+00 0. -1.
</event>
<event>
 7    1  0.1749439E-013  0.7246149E+02  0.7816164E-02  0.1226708E+00
        -11   -1    0    0    0    0  0.00000000000E+00  0.00000000000E+00  0.45593999997E+02  0.45594000000E+02  0.51100000000E-03 0.  1.
         11   -1    0    0    0    0 -0.00000000000E+00 -0.00000000000E+00 -0.45593999997E+02  0.45594000000E+02  0.51100000000E-03 0. -1.
    9900012    2    1    2    0    0  0.18339046800E+01 -0.96787729563E+01 -0.15926091259E+02  0.72461488443E+02  0.69999893374E+02 0.  0.
        -12    1    1    2    0    0 -0.18339046800E+01  0.96787729563E+01  0.15926091259E+02  0.18726511557E+02  0.00000000000E+00 0.  1.
         11    1    3    3    0    0 -0.43488307167E+01 -0.14897613244E+00 -0.19846122149E+01  0.47825943164E+01  0.51100000000E-03 0. -1.
        -11    1    3    3    0    0 -0.21404269555E+02 -0.10085557489E+02  0.14742105448E+02  0.27878143739E+02  0.51100000000E-03 0.  1.
         12    1    3    3    0    0  0.27587004952E+02  0.55576066486E+00 -0.28683584492E+02  0.39800750388E+02  0.00000000000E+00 0. -1.
</event>
<event>
 7    1  0.1749439E-013  0.7246156E+02  0.7816164E-02  0.1226708E+00
        -11   -1    0    0    0    0  0.00000000000E+00  0.00000000000E+00  0.45593999997E+02  0.45594000000E+02  0.51100000000E-03 0. -1.
         11   -1    0    0    0    0 -0.00000000000E+00 -0.00000000000E+00 -0.45593999997E+02  0.45594000000E+02  0.51100000000E-03 0.  1.
    9900012    2    1    2    0    0 -0.28492907374E+01 -0.15318642134E+02  0.10387506148E+02  0.72461560442E+02  0.69999987165E+02 0.  0.
        -12    1    1    2    0    0  0.28492907374E+01  0.15318642134E+02 -0.10387506148E+02  0.18726439558E+02  0.00000000000E+00 0.  1.
         11    1    3    3    0    0  0.82680441138E+00  0.13925862150E+01  0.20245567796E+02  0.20310241691E+02  0.51100000000E-03 0. -1.
        -11    1    3    3    0    0  0.14120991818E+02 -0.22280033877E+02  0.66971273716E+01  0.27214956086E+02  0.51100000000E-03 0.  1.
         12    1    3    3    0    0 -0.17797086966E+02  0.55688055281E+01 -0.16555189019E+02  0.24936362665E+02  0.00000000000E+00 0. -1.
</event>
<event>
 7    1  0.1749439E-013  0.7246160E+02  0.7816164E-02  0.1226708E+00
        -11   -1    0    0    0    0  0.00000000000E+00  0.00000000000E+00  0.45593999997E+02  0.45594000000E+02  0.51100000000E-03 0.  1.
         11   -1    0    0    0    0 -0.00000000000E+00 -0.00000000000E+00 -0.45593999997E+02  0.45594000000E+02  0.51100000000E-03 0. -1.
    9900012    2    1    2    0    0  0.49282570126E+01 -0.53692668617E+00 -0.18058300944E+02  0.72461595101E+02  0.70000032315E+02 0.  0.
        -12    1    1    2    0    0 -0.49282570126E+01  0.53692668617E+00  0.18058300944E+02  0.18726404899E+02  0.00000000000E+00 0.  1.
         11    1    3    3    0    0  0.96243637310E+01  0.21477791314E+02 -0.10470103683E+02  0.25759405435E+02  0.51100000000E-03 0. -1.
        -11    1    3    3    0    0 -0.50056610054E+00  0.90768194439E+01 -0.11963254223E+02  0.15025267701E+02  0.51100000000E-03 0.  1.
        -12    1    3    3    0    0 -0.41955406178E+01 -0.31091537445E+02  0.43750569618E+01  0.31676921965E+02  0.00000000000E+00 0.  1.
</event>
<event>
 7    1  0.1749439E-013  0.7246157E+02  0.7816164E-02  0.1226708E+00
        -11   -1    0    0    0    0  0.00000000000E+00  0.00000000000E+00  0.45593999997E+02  0.45594000000E+02  0.51100000000E-03 0.  1.
         11   -1    0    0    0    0 -0.00000000000E+00 -0.00000000000E+00 -0.45593999997E+02  0.45594000000E+02  0.51100000000E-03 0. -1.
    9900012    2    1    2    0    0 -0.52774171964E+01  0.13185884980E+02 -0.12204930815E+02  0.72461573988E+02  0.70000004812E+02 0.  0.
        -12    1    1    2    0    0  0.52774171964E+01 -0.13185884980E+02  0.12204930815E+02  0.18726426012E+02  0.00000000000E+00 0.  1.
         11    1    3    3    0    0 -0.53321287930E+01  0.15137590551E+02 -0.20650887609E+02  0.26154108749E+02  0.51100000000E-03 0.  1.
        -11    1    3    3    0    0 -0.15728578966E+02  0.14835671209E+02 -0.40212152528E+00  0.21625148288E+02  0.51100000000E-03 0. -1.
        -12    1    3    3    0    0  0.15783290563E+02 -0.16787376779E+02  0.88480783193E+01  0.24682316951E+02  0.00000000000E+00 0.  1.
</event>
<event>
 7    1  0.1749439E-013  0.7246158E+02  0.7816164E-02  0.1226708E+00
        -11   -1    0    0    0    0  0.00000000000E+00  0.00000000000E+00  0.45593999997E+02  0.45594000000E+02  0.51100000000E-03 0. -1.
         11   -1    0    0    0    0 -0.00000000000E+00 -0.00000000000E+00 -0.45593999997E+02  0.45594000000E+02  0.51100000000E-03 0.  1.
    9900012    2    1    2    0    0  0.72166596932E+01  0.15230580663E+02  0.81625927117E+01  0.72461583251E+02  0.70000016879E+02 0.  0.
        -12    1    1    2    0    0 -0.72166596932E+01 -0.15230580663E+02 -0.81625927117E+01  0.18726416749E+02  0.00000000000E+00 0.  1.
         11    1    3    3    0    0  0.38245131358E+01  0.35821301464E+02  0.11206521265E+02  0.37727690871E+02  0.51100000000E-03 0. -1.
        -11    1    3    3    0    0  0.80535315329E+01  0.38058454778E+01 -0.42442968562E+01  0.98670099836E+01  0.51100000000E-03 0.  1.
        -12    1    3    3    0    0 -0.46613849755E+01 -0.24396566279E+02  0.12003683033E+01  0.24866882397E+02  0.00000000000E+00 0.  1.
</event>
<event>
 7    1  0.1749439E-013  0.7246162E+02  0.7816164E-02  0.1226708E+00
        -11   -1    0    0    0    0  0.00000000000E+00  0.00000000000E+00  0.45593999997E+02  0.45594000000E+02  0.51100000000E-03 0.  1.
         11   -1    0    0    0    0 -0.00000000000E+00 -0.00000000000E+00 -0.45593999997E+02  0.45594000000E+02  0.51100000000E-03 0. -1.
    9900012    2    1    2    0    0  0.69894116574E+01  0.13551435490E+02 -0.10871242550E+02  0.72461623049E+02  0.70000068722E+02 0.  0.
        -12    1    1    2    0    0 -0.69894116574E+01 -0.13551435490E+02  0.10871242550E+02  0.18726376951E+02  0.00000000000E+00 0.  1.
         11    1    3    3    0    0  0.99382139988E+01  0.21726136295E+02 -0.11154326124E-01  0.23891279172E+02  0.51100000000E-03 0.  1.
        -11    1    3    3    0    0  0.46920645001E+01  0.17546217188E+02 -0.11907501995E+02  0.21718052650E+02  0.51100000000E-03 0. -1.
        -12    1    3    3    0    0 -0.76408668415E+01 -0.25720917993E+02  0.10474137716E+01  0.26852291227E+02  0.00000000000E+00 0.  1.
</event>
<event>
 7    1  0.1749439E-013  0.7246172E+02  0.7816164E-02  0.1226708E+00
        -11   -1    0    0    0    0  0.00000000000E+00  0.00000000000E+00  0.45593999997E+02  0.45594000000E+02  0.51100000000E-03 0.  1.
         11   -1    0    0    0    0 -0.00000000000E+00 -0.00000000000E+00 -0.45593999997E+02  0.45594000000E+02  0.51100000000E-03 0. -1.
    9900012    2    1    2    0    0  0.76648138422E+01  0.52542307757E+01 -0.16257831352E+02  0.72461724541E+02  0.70000200935E+02 0.  0.
        -12    1    1    2    0    0 -0.76648138422E+01 -0.52542307757E+01  0.16257831352E+02  0.18726275459E+02  0.00000000000E+00 0.  1.
         11    1    3    3    0    0  0.13912140834E+02  0.53510966753E+01  0.81689451707E+01  0.16997457565E+02  0.51100000000E-03 0.  1.
        -11    1    3    3    0    0 -0.11522745651E+02 -0.11540429217E+02 -0.35258699591E+02  0.38847536227E+02  0.51100000000E-03 0. -1.
         12    1    3    3    0    0  0.52754186587E+01  0.11443563318E+02  0.10831923068E+02  0.16616730749E+02  0.00000000000E+00 0. -1.
</event>
<event>
 7    1  0.1749439E-013  0.7246156E+02  0.7816164E-02  0.1226708E+00
        -11   -1    0    0    0    0  0.00000000000E+00  0.00000000000E+00  0.45593999997E+02  0.45594000000E+02  0.51100000000E-03 0. -1.
         11   -1    0    0    0    0 -0.00000000000E+00 -0.00000000000E+00 -0.45593999997E+02  0.45594000000E+02  0.51100000000E-03 0.  1.
    9900012    2    1    2    0    0  0.17152293651E+02 -0.61750550180E+00  0.74897912695E+01  0.72461562437E+02  0.69999989765E+02 0.  0.
        -12    1    1    2    0    0 -0.17152293651E+02  0.61750550180E+00 -0.74897912695E+01  0.18726437563E+02  0.00000000000E+00 0.  1.
         11    1    3    3    0    0  0.26850697134E+02  0.93743616423E+01  0.20882190746E+02  0.35283203984E+02  0.51100000000E-03 0. -1.
        -11    1    3    3    0    0 -0.38408775533E+01 -0.24643067273E+00  0.10247345349E+02  0.10946285005E+02  0.51100000000E-03 0.  1.
        -12    1    3    3    0    0 -0.58575259297E+01 -0.97454364713E+01 -0.23639744825E+02  0.26232073449E+02  0.00000000000E+00 0.  1.
</event>
<event>
 7    1  0.1749439E-013  0.7246156E+02  0.7816164E-02  0.1226708E+00
        -11   -1    0    0    0    0  0.00000000000E+00  0.00000000000E+00  0.45593999997E+02  0.45594000000E+02  0.51100000000E-03 0. -1.
         11   -1    0    0    0    0 -0.00000000000E+00 -0.00000000000E+00 -0.45593999997E+02  0.45594000000E+02  0.51100000000E-03 0.  1.
    9900012    2    1    2    0    0  0.17291349786E+02  0.68503484798E+01 -0.21820969910E+01  0.72461558827E+02  0.69999985062E+02 0.  0.
        -12    1    1    2    0    0 -0.17291349786E+02 -0.68503484798E+01  0.21820969910E+01  0.18726441173E+02  0.00000000000E+00 0.  1.
         11    1    3    3    0    0 -0.64338991871E+01  0.20264417941E+02 -0.62512763427E+01  0.22161230773E+02  0.51100000000E-03 0. -1.
        -11    1    3    3    0    0 -0.40950144865E+01  0.68170180599E+01 -0.10307159533E+02  0.13018387641E+02  0.51100000000E-03 0.  1.
        -12    1    3    3    0    0  0.27820263459E+02 -0.20231087521E+02  0.14376338885E+02  0.37281940413E+02  0.00000000000E+00 0.  1.
</event>
<event>
 7    1  0.1749439E-013  0.7246173E+02  0.7816164E-02  0.1226708E+00
        -11   -1    0    0    0    0  0.00000000000E+00  0.00000000000E+00  0.45593999997E+02  0.45594000000E+02  0.51100000000E-03 0.  1.
         11   -1    0    0    0    0 -0.00000000000E+00 -0.00000000000E+00 -0.45593999997E+02  0.45594000000E+02  0.51100000000E-03 0. -1.
    9900012    2    1    2    0    0 -0.11182755116E+02 -0.60177340208E+01  0.13762483476E+02  0.72461732723E+02  0.70000211593E+02 0.  0.
        -12    1    1    2    0    0  0.11182755116E+02  0.60177340208E+01 -0.13762483476E+02  0.18726267277E+02  0.00000000000E+00 0.  1.
         11    1    3    3    0    0  0.32774941422E+01  0.15515555903E+02 -0.85386917479E+01  0.18010655176E+02  0.51100000000E-03 0. -1.
        -11    1    3    3    0    0  0.97390018382E+01  0.65772033152E+01  0.12924067546E+01  0.11822777835E+02  0.51100000000E-03 0.  1.
         12    1    3    3    0    0 -0.24199251096E+02 -0.28110493239E+02  0.21008768469E+02  0.42628299712E+02  0.00000000000E+00 0. -1.
</event>
<event>
 7    1  0.1749439E-013  0.7246156E+02  0.7816164E-02  0.1226708E+00
        -11   -1    0    0    0    0  0.00000000000E+00  0.00000000000E+00  0.45593999997E+02  0.45594000000E+02  0.51100000000E-03 0. -1.
         11   -1    0    0    0    0 -0.00000000000E+00 -0.00000000000E+00 -0.45593999997E+02  0.45594000000E+02  0.51100000000E-03 0.  1.
    9900012    2    1    2    0    0 -0.11846923805E+02 -0.43774283651E+01  0.13826353739E+02  0.72461560391E+02  0.69999987099E+02 0.  0.
        -12    1    1    2    0    0  0.11846923805E+02  0.43774283651E+01 -0.13826353739E+02  0.18726439609E+02  0.00000000000E+00 0.  1.
         11    1    3    3    0    0 -0.11928702585E+01 -0.20231375848E+02  0.57427645838E+01  0.21064445245E+02  0.51100000000E-03 0. -1.
        -11    1    3    3    0    0  0.16050466209E+00 -0.14003069668E+02 -0.76506294241E+01  0.15957564122E+02  0.51100000000E-03 0.  1.
        -12    1    3    3    0    0 -0.10814558208E+02  0.29857017151E+02  0.15734218579E+02  0.35439551023E+02  0.00000000000E+00 0.  1.
</event>
<event>
 7    1  0.1749439E-013  0.7246164E+02  0.7816164E-02  0.1226708E+00
        -11   -1    0    0    0    0  0.00000000000E+00  0.00000000000E+00  0.45593999997E+02  0.45594000000E+02  0.51100000000E-03 0.  1.
         11   -1    0    0    0    0 -0.00000000000E+00 -0.00000000000E+00 -0.45593999997E+02  0.45594000000E+02  0.51100000000E-03 0. -1.
    9900012    2    1    2    0    0 -0.87861212587E+01  0.98407180429E+01 -0.13290631258E+02  0.72461640567E+02  0.70000091544E+02 0.  0.
        -12    1    1    2    0    0  0.87861212587E+01 -0.98407180429E+01  0.13290631258E+02  0.18726359433E+02  0.00000000000E+00 0.  1.
         11    1    3    3    0    0 -0.48330371398E-01 -0.25320889440E+02 -0.20764916174E+02  0.32746473425E+02  0.51100000000E-03 0. -1.
        -11    1    3    3    0    0  0.18446836430E+00  0.60013092981E+01  0.69925842047E+01  0.92166141283E+01  0.51100000000E-03 0.  1.
        -12    1    3    3    0    0 -0.89222592516E+01  0.29160298184E+02  0.48170071108E+00  0.30498553014E+02  0.00000000000E+00 0.  1.
</event>
<event>
 7    1  0.1749439E-013  0.7246156E+02  0.7816164E-02  0.1226708E+00
        -11   -1    0    0    0    0  0.00000000000E+00  0.00000000000E+00  0.45593999997E+02  0.45594000000E+02  0.51100000000E-03 0.  1.
         11   -1    0    0    0    0 -0.00000000000E+00 -0.00000000000E+00 -0.45593999997E+02  0.45594000000E+02  0.51100000000E-03 0. -1.
    9900012    2    1    2    0    0 -0.50156313745E+01  0.16223331503E+02 -0.78947161036E+01  0.72461559188E+02  0.69999985532E+02 0.  0.
        -12    1    1    2    0    0  0.50156313745E+01 -0.16223331503E+02  0.78947161036E+01  0.18726440812E+02  0.00000000000E+00 0.  1.
         11    1    3    3    0    0  0.11789010567E+00 -0.95402311101E+01  0.73149238276E+01  0.12022396540E+02  0.51100000000E-03 0. -1.
        -11    1    3    3    0    0  0.23231228188E+02  0.12964998164E+02 -0.21485789242E+01  0.26690776163E+02  0.51100000000E-03 0.  1.
         12    1    3    3    0    0 -0.28364749668E+02  0.12798564449E+02 -0.13061061007E+02  0.33748386485E+02  0.00000000000E+00 0. -1.
</event>
<event>
 7    1  0.1749439E-013  0.7246158E+02  0.7816164E-02  0.1226708E+00
        -11   -1    0    0    0    0  0.00000000000E+00  0.00000000000E+00  0.45593999997E+02  0.45594000000E+02  0.51100000000E-03 0.  1.
         11   -1    0    0    0    0 -0.00000000000E+00 -0.00000000000E+00 -0.45593999997E+02  0.45594000000E+02  0.51100000000E-03 0. -1.
    9900012    2    1    2    0    0  0.17741061074E+02 -0.37968834309E+01 -0.46386718713E+01  0.72461578864E+02  0.70000011164E+02 0.  0.
        -12    1    1    2    0    0 -0.17741061074E+02  0.37968834309E+01  0.46386718713E+01  0.18726421136E+02  0.00000000000E+00 0.  1.
         11    1    3    3    0    0 -0.28800562780E+01 -0.20418687464E+02 -0.25687117433E+01  0.20780178108E+02  0.51100000000E-03 0. -1.
        -11    1    3    3    0    0  0.79430602103E+01 -0.80857415311E+01  0.15213688966E+02  0.18971762012E+02  0.51100000000E-03 0.  1.
        -12    1    3    3    0    0  0.12678057142E+02  0.24707545565E+02 -0.17283649094E+02  0.32709638744E+02  0.00000000000E+00 0.  1.
</event>
<event>
 7    1  0.1749439E-013  0.7246155E+02  0.7816164E-02  0.1226708E+00
        -11   -1    0    0    0    0  0.00000000000E+00  0.00000000000E+00  0.45593999997E+02  0.45594000000E+02  0.51100000000E-03 0.  1.
         11   -1    0    0    0    0 -0.00000000000E+00 -0.00000000000E+00 -0.45593999997E+02  0.45594000000E+02  0.51100000000E-03 0. -1.
    9900012    2    1    2    0    0  0.16750950387E+02 -0.48690998511E+01 -0.68100905716E+01  0.72461553305E+02  0.69999977868E+02 0.  0.
        -12    1    1    2    0    0 -0.16750950387E+02  0.48690998511E+01  0.68100905716E+01  0.18726446695E+02  0.00000000000E+00 0.  1.
         11    1    3    3    0    0 -0.98474324749E+01  0.39083806134E+01  0.11702916805E+02  0.15786248046E+02  0.51100000000E-03 0. -1.
        -11    1    3    3    0    0 -0.12948501003E+02  0.16410645173E+00 -0.32378352548E+01  0.13348190385E+02  0.51100000000E-03 0.  1.
        -12    1    3    3    0    0  0.39546883864E+02 -0.89415869162E+01 -0.15275172122E+02  0.43327114874E+02  0.00000000000E+00 0.  1.
</event>
<event>
 7    1  0.1749439E-013  0.7246155E+02  0.7816164E-02  0.1226708E+00
        -11   -1    0    0    0    0  0.00000000000E+00  0.00000000000E+00  0.45593999997E+02  0.45594000000E+02  0.51100000000E-03 0. -1.
         11   -1    0    0    0    0 -0.00000000000E+00 -0.00000000000E+00 -0.45593999997E+02  0.45594000000E+02  0.51100000000E-03 0.  1.
    9900012    2    1    2    0    0  0.13012037715E+02  0.12364482345E+02  0.53372721430E+01  0.72461547504E+02  0.69999970312E+02 0.  0.
        -12    1    1    2    0    0 -0.13012037715E+02 -0.12364482345E+02 -0.53372721430E+01  0.18726452496E+02  0.00000000000E+00 0.  1.
         11    1    3    3    0    0  0.14890287712E+02 -0.15666736808E+02 -0.64582113577E+01  0.22558275744E+02  0.51100000000E-03 0. -1.
        -11    1    3    3    0    0 -0.33816718387E+01  0.91811825408E+01 -0.14513502952E+02  0.17503473526E+02  0.51100000000E-03 0.  1.
         12    1    3    3    0    0  0.15034218420E+01  0.18850036612E+02  0.26308986453E+02  0.32399798235E+02  0.00000000000E+00 0. -1.
</event>
<event>
 7    1  0.1749439E-013  0.7246156E+02  0.7816164E-02  0.1226708E+00
        -11   -1    0    0    0    0  0.00000000000E+00  0.00000000000E+00  0.45593999997E+02  0.45594000000E+02  0.51100000000E-03 0. -1.
         11   -1    0    0    0    0 -0.00000000000E+00 -0.00000000000E+00 -0.45593999997E+02  0.45594000000E+02  0.51100000000E-03 0.  1.
    9900012    2    1    2    0    0 -0.95909644192E+01 -0.16031360565E+02  0.12993811392E+01  0.72461561166E+02  0.69999988109E+02 0.  0.
        -12    1    1    2    0    0  0.95909644192E+01  0.16031360565E+02 -0.12993811392E+01  0.18726438834E+02  0.00000000000E+00 0.  1.
         11    1    3    3    0    0 -0.10939498502E+02 -0.16818872270E+02  0.13509177925E+02  0.24187703082E+02  0.51100000000E-03 0. -1.
        -11    1    3    3    0    0  0.26552473267E+01 -0.22106311511E+02 -0.12103901335E+02  0.25342528974E+02  0.51100000000E-03 0.  1.
         12    1    3    3    0    0 -0.13067132435E+01  0.22893823216E+02 -0.10589545071E+00  0.22931329111E+02  0.00000000000E+00 0. -1.
</event>
<event>
 7    1  0.1749439E-013  0.7246137E+02  0.7816164E-02  0.1226709E+00
        -11   -1    0    0    0    0  0.00000000000E+00  0.00000000000E+00  0.45593999997E+02  0.45594000000E+02  0.51100000000E-03 0.  1.
         11   -1    0    0    0    0 -0.00000000000E+00 -0.00000000000E+00 -0.45593999997E+02  0.45594000000E+02  0.51100000000E-03 0. -1.
    9900012    2    1    2    0    0  0.93241782627E+01  0.16215533417E+02 -0.89607219379E+00  0.72461367370E+02  0.69999735653E+02 0.  0.
        -12    1    1    2    0    0 -0.93241782627E+01 -0.16215533417E+02  0.89607219379E+00  0.18726632630E+02  0.00000000000E+00 0.  1.
         11    1    3    3    0    0  0.39085131537E+01  0.18871402161E+02 -0.20883759851E+02  0.28417208174E+02  0.51100000000E-03 0. -1.
        -11    1    3    3    0    0 -0.13372894245E+02  0.92109661855E+01  0.41632663306E+01  0.16763322623E+02  0.51100000000E-03 0.  1.
        -12    1    3    3    0    0  0.18788559354E+02 -0.11866834929E+02  0.15824421327E+02  0.27280836574E+02  0.00000000000E+00 0.  1.
</event>
<event>
 7    1  0.1749439E-013  0.7246164E+02  0.7816164E-02  0.1226708E+00
        -11   -1    0    0    0    0  0.00000000000E+00  0.00000000000E+00  0.45593999997E+02  0.45594000000E+02  0.51100000000E-03 0.  1.
         11   -1    0    0    0    0 -0.00000000000E+00 -0.00000000000E+00 -0.45593999997E+02  0.45594000000E+02  0.51100000000E-03 0. -1.
    9900012    2    1    2    0    0 -0.13980649064E+02 -0.11106093837E+02 -0.56455943575E+01  0.72461638788E+02  0.70000089226E+02 0.  0.
        -12    1    1    2    0    0  0.13980649064E+02  0.11106093837E+02  0.56455943575E+01  0.18726361212E+02  0.00000000000E+00 0.  1.
         11    1    3    3    0    0 -0.43317301780E+01 -0.89650195813E+01  0.14257514543E+01  0.10058241889E+02  0.51100000000E-03 0. -1.
        -11    1    3    3    0    0 -0.32652359723E+02 -0.12362350316E+02  0.35254313753E+01  0.35091779200E+02  0.51100000000E-03 0.  1.
        -12    1    3    3    0    0  0.23003440836E+02  0.10221276060E+02 -0.10596777187E+02  0.27311617699E+02  0.00000000000E+00 0.  1.
</event>
<event>
 7    1  0.1749439E-013  0.7246157E+02  0.7816164E-02  0.1226708E+00
        -11   -1    0    0    0    0  0.00000000000E+00  0.00000000000E+00  0.45593999997E+02  0.45594000000E+02  0.51100000000E-03 0.  1.
         11   -1    0    0    0    0 -0.00000000000E+00 -0.00000000000E+00 -0.45593999997E+02  0.45594000000E+02  0.51100000000E-03 0. -1.
    9900012    2    1    2    0    0  0.17354488662E+01  0.16906838772E+02  0.78629571024E+01  0.72461572833E+02  0.70000003307E+02 0.  0.
        -12    1    1    2    0    0 -0.17354488662E+01 -0.16906838772E+02 -0.78629571024E+01  0.18726427167E+02  0.00000000000E+00 0.  1.
         11    1    3    3    0    0 -0.40771583531E+01  0.47054551942E+01  0.88630775971E+01  0.10831374501E+02  0.51100000000E-03 0. -1.
        -11    1    3    3    0    0  0.14517865806E+01 -0.98549890264E+01  0.25204872397E+02  0.27101920334E+02  0.51100000000E-03 0.  1.
         12    1    3    3    0    0  0.43608206387E+01  0.22056372604E+02 -0.26204992891E+02  0.34528277999E+02  0.00000000000E+00 0. -1.
</event>
<event>
 7    1  0.1749439E-013  0.7246160E+02  0.7816164E-02  0.1226708E+00
        -11   -1    0    0    0    0  0.00000000000E+00  0.00000000000E+00  0.45593999997E+02  0.45594000000E+02  0.51100000000E-03 0.  1.
         11   -1    0    0    0    0 -0.00000000000E+00 -0.00000000000E+00 -0.45593999997E+02  0.45594000000E+02  0.51100000000E-03 0. -1.
    9900012    2    1    2    0    0 -0.92938512526E+01 -0.75338044090E+01  0.14406391050E+02  0.72461601973E+02  0.70000041268E+02 0.  0.
        -12    1    1    2    0    0  0.92938512526E+01  0.75338044090E+01 -0.14406391050E+02  0.18726398027E+02  0.00000000000E+00 0.  1.
         11    1    3    3    0    0  0.10663404553E+02 -0.16104565899E+02 -0.15175916517E+02  0.24563665888E+02  0.51100000000E-03 0. -1.
        -11    1    3    3    0    0 -0.32844381346E+01 -0.67966037885E+01 -0.30664897005E+01  0.81476816496E+01  0.51100000000E-03 0.  1.
        -12    1    3    3    0    0 -0.16672817671E+02  0.15367365279E+02  0.32648797267E+02  0.39750254436E+02  0.00000000000E+00 0.  1.
</event>
<event>
 7    1  0.1749439E-013  0.7246160E+02  0.7816164E-02  0.1226708E+00
        -11   -1    0    0    0    0  0.00000000000E+00  0.00000000000E+00  0.45593999997E+02  0.45594000000E+02  0.51100000000E-03 0.  1.
         11   -1    0    0    0    0 -0.00000000000E+00 -0.00000000000E+00 -0.45593999997E+02  0.45594000000E+02  0.51100000000E-03 0. -1.
    9900012    2    1    2    0    0  0.96357118795E+01 -0.17961144211E+01 -0.15956354244E+02  0.72461595882E+02  0.70000033333E+02 0.  0.
        -12    1    1    2    0    0 -0.96357118795E+01  0.17961144211E+01  0.15956354244E+02  0.18726404118E+02  0.00000000000E+00 0.  1.
         11    1    3    3    0    0  0.10489155472E+02 -0.18830737185E+02  0.53617024258E+01  0.22211863915E+02  0.51100000000E-03 0. -1.
        -11    1    3    3    0    0  0.13774779475E+02 -0.27090405103E+01  0.43685044676E+01  0.14702628391E+02  0.51100000000E-03 0.  1.
        -12    1    3    3    0    0 -0.14628223067E+02  0.19743663274E+02 -0.25686561137E+02  0.35547103576E+02  0.00000000000E+00 0.  1.
</event>
<event>
 7    1  0.1749439E-013  0.7246147E+02  0.7816164E-02  0.1226708E+00
        -11   -1    0    0    0    0  0.00000000000E+00  0.00000000000E+00  0.45593999997E+02  0.45594000000E+02  0.51100000000E-03 0.  1.
         11   -1    0    0    0    0 -0.00000000000E+00 -0.00000000000E+00 -0.45593999997E+02  0.45594000000E+02  0.51100000000E-03 0. -1.
    9900012    2    1    2    0    0 -0.10347838813E+02 -0.73187622309E+01 -0.13785530453E+02  0.72461470728E+02  0.69999870297E+02 0.  0.
        -12    1    1    2    0    0  0.10347838813E+02  0.73187622309E+01  0.13785530453E+02  0.18726529272E+02  0.00000000000E+00 0.  1.
         11    1    3    3    0    0 -0.94534557778E+01 -0.17608256176E+02 -0.17458119110E+02  0.26536850507E+02  0.51100000000E-03 0. -1.
        -11    1    3    3    0    0 -0.43410773606E+01  0.98928955188E+01  0.23463880329E+02  0.25831531406E+02  0.51100000000E-03 0.  1.
         12    1    3    3    0    0  0.34466943256E+01  0.39659842619E+00 -0.19791291673E+02  0.20093088816E+02  0.00000000000E+00 0. -1.
</event>
<event>
 7    1  0.1749439E-013  0.7246159E+02  0.7816164E-02  0.1226708E+00
        -11   -1    0    0    0    0  0.00000000000E+00  0.00000000000E+00  0.45593999997E+02  0.45594000000E+02  0.51100000000E-03 0. -1.
         11   -1    0    0    0    0 -0.00000000000E+00 -0.00000000000E+00 -0.45593999997E+02  0.45594000000E+02  0.51100000000E-03 0.  1.
    9900012    2    1    2    0    0  0.10895361889E+02 -0.15092897297E+02 -0.20430120184E+01  0.72461591972E+02  0.70000028239E+02 0.  0.
        -12    1    1    2    0    0 -0.10895361889E+02  0.15092897297E+02  0.20430120184E+01  0.18726408028E+02  0.00000000000E+00 0.  1.
         11    1    3    3    0    0 -0.14341666224E+02 -0.11128309790E+02  0.91879617356E+01  0.20345547669E+02  0.51100000000E-03 0. -1.
        -11    1    3    3    0    0  0.14013111918E+02 -0.17349116870E+02  0.10153496842E+02  0.24504135573E+02  0.51100000000E-03 0.  1.
        -12    1    3    3    0    0  0.11223916195E+02  0.13384529363E+02 -0.21384470596E+02  0.27611908730E+02  0.00000000000E+00 0.  1.
</event>
<event>
 7    1  0.1749439E-013  0.7246160E+02  0.7816164E-02  0.1226708E+00
        -11   -1    0    0    0    0  0.00000000000E+00  0.00000000000E+00  0.45593999997E+02  0.45594000000E+02  0.51100000000E-03 0. -1.
         11   -1    0    0    0    0 -0.00000000000E+00 -0.00000000000E+00 -0.45593999997E+02  0.45594000000E+02  0.51100000000E-03 0.  1.
    9900012    2    1    2    0    0 -0.14599416693E+02  0.11726014025E+02  0.18939239105E+00  0.72461595055E+02  0.70000032255E+02 0.  0.
        -12    1    1    2    0    0  0.14599416693E+02 -0.11726014025E+02 -0.18939239105E+00  0.18726404945E+02  0.00000000000E+00 0.  1.
         11    1    3    3    0    0  0.15023868033E+02  0.93477475344E+01  0.96944129750E+01  0.20176189874E+02  0.51100000000E-03 0. -1.
        -11    1    3    3    0    0 -0.32504983083E+01 -0.55892848618E+01  0.14415948235E+02  0.15799538230E+02  0.51100000000E-03 0.  1.
        -12    1    3    3    0    0 -0.26372786417E+02  0.79675513528E+01 -0.23920968818E+02  0.36485866951E+02  0.00000000000E+00 0.  1.
</event>
<event>
 7    1  0.1749439E-013  0.7246156E+02  0.7816164E-02  0.1226708E+00
        -11   -1    0    0    0    0  0.00000000000E+00  0.00000000000E+00  0.45593999997E+02  0.45594000000E+02  0.51100000000E-03 0. -1.
         11   -1    0    0    0    0 -0.00000000000E+00 -0.00000000000E+00 -0.45593999997E+02  0.45594000000E+02  0.51100000000E-03 0.  1.
    9900012    2    1    2    0    0 -0.41357998218E+01  0.18165664960E+02  0.18929282432E+01  0.72461564115E+02  0.69999991950E+02 0.  0.
        -12    1    1    2    0    0  0.41357998218E+01 -0.18165664960E+02 -0.18929282432E+01  0.18726435885E+02  0.00000000000E+00 0.  1.
         11    1    3    3    0    0 -0.34961158974E+01 -0.93081406331E+01 -0.15083339187E+01  0.10056807639E+02  0.51100000000E-03 0. -1.
        -11    1    3    3    0    0  0.15149682980E+02 -0.10597788295E+02 -0.72102580639E+01  0.19844743202E+02  0.51100000000E-03 0.  1.
         12    1    3    3    0    0 -0.15789366904E+02  0.38071593888E+02  0.10611520226E+02  0.42560013275E+02  0.00000000000E+00 0. -1.
</event>
<event>
 7    1  0.1749439E-013  0.7246156E+02  0.7816164E-02  0.1226708E+00
        -11   -1    0    0    0    0  0.00000000000E+00  0.00000000000E+00  0.45593999997E+02  0.45594000000E+02  0.51100000000E-03 0. -1.
         11   -1    0    0    0    0 -0.00000000000E+00 -0.00000000000E+00 -0.45593999997E+02  0.45594000000E+02  0.51100000000E-03 0.  1.
    9900012    2    1    2    0    0 -0.10249019191E+02  0.74981498259E+01  0.13762809660E+02  0.72461559470E+02  0.69999985899E+02 0.  0.
        -12    1    1    2    0    0  0.10249019191E+02 -0.74981498259E+01 -0.13762809660E+02  0.18726440530E+02  0.00000000000E+00 0.  1.
         11    1    3    3    0    0  0.13903104024E+01  0.22228138886E+02 -0.22361731968E+01  0.22383556289E+02  0.51100000000E-03 0. -1.
        -11    1    3    3    0    0  0.16529913269E+02 -0.32657661890E+01  0.35694997257E+01  0.17223373364E+02  0.51100000000E-03 0.  1.
         12    1    3    3    0    0 -0.28169242863E+02 -0.11464222871E+02  0.12429483131E+02  0.32854629817E+02  0.00000000000E+00 0. -1.
</event>
<event>
 7    1  0.1749439E-013  0.7246155E+02  0.7816164E-02  0.1226708E+00
        -11   -1    0    0    0    0  0.00000000000E+00  0.00000000000E+00  0.45593999997E+02  0.45594000000E+02  0.51100000000E-03 0.  1.
         11   -1    0    0    0    0 -0.00000000000E+00 -0.00000000000E+00 -0.45593999997E+02  0.45594000000E+02  0.51100000000E-03 0. -1.
    9900012    2    1    2    0    0 -0.61647613308E+01 -0.17599144968E+02 -0.17163425251E+01  0.72461547653E+02  0.69999970505E+02 0.  0.
        -12    1    1    2    0    0  0.61647613308E+01  0.17599144968E+02  0.17163425251E+01  0.18726452347E+02  0.00000000000E+00 0.  1.
         11    1    3    3    0    0  0.46004446345E+01 -0.21079883296E+02 -0.10305853079E+01  0.21600640661E+02  0.51100000000E-03 0. -1.
        -11    1    3    3    0    0 -0.22442145833E+02 -0.72744795750E+01 -0.16235829328E+02  0.28638612343E+02  0.51100000000E-03 0.  1.
         12    1    3    3    0    0  0.11676939868E+02  0.10755217903E+02  0.15550072111E+02  0.22222294649E+02  0.00000000000E+00 0. -1.
</event>
<event>
 7    1  0.1749439E-013  0.7246158E+02  0.7816164E-02  0.1226708E+00
        -11   -1    0    0    0    0  0.00000000000E+00  0.00000000000E+00  0.45593999997E+02  0.45594000000E+02  0.51100000000E-03 0.  1.
         11   -1    0    0    0    0 -0.00000000000E+00 -0.00000000000E+00 -0.45593999997E+02  0.45594000000E+02  0.51100000000E-03 0. -1.
    9900012    2    1    2    0    0  0.24842069974E+01 -0.95619891285E+01 -0.15908358968E+02  0.72461580013E+02  0.70000012660E+02 0.  0.
        -12    1    1    2    0    0 -0.24842069974E+01  0.95619891285E+01  0.15908358968E+02  0.18726419987E+02  0.00000000000E+00 0.  1.
         11    1    3    3    0    0 -0.15254674883E+02 -0.23936214302E+01 -0.31467976662E+02  0.35052362043E+02  0.51100000000E-03 0. -1.
        -11    1    3    3    0    0  0.88129175423E+00 -0.14999119661E+02  0.41052792541E+01  0.15575737022E+02  0.51100000000E-03 0.  1.
        -12    1    3    3    0    0  0.16857590126E+02  0.78307519630E+01  0.11454338440E+02  0.21833480947E+02  0.00000000000E+00 0.  1.
</event>
<event>
 7    1  0.1749439E-013  0.7246157E+02  0.7816164E-02  0.1226708E+00
        -11   -1    0    0    0    0  0.00000000000E+00  0.00000000000E+00  0.45593999997E+02  0.45594000000E+02  0.51100000000E-03 0. -1.
         11   -1    0    0    0    0 -0.00000000000E+00 -0.00000000000E+00 -0.45593999997E+02  0.45594000000E+02  0.51100000000E-03 0.  1.
    9900012    2    1    2    0    0 -0.25098010856E+01  0.11679908188E+02  0.14420815812E+02  0.72461567199E+02  0.69999995968E+02 0.  0.
        -12    1    1    2    0    0  0.25098010856E+01 -0.11679908188E+02 -0.14420815812E+02  0.18726432801E+02  0.00000000000E+00 0.  1.
         11    1    3    3    0    0  0.19947994196E+02 -0.72800480260E+01  0.13625635441E+02  0.25230527405E+02  0.51100000000E-03 0. -1.
        -11    1    3    3    0    0 -0.80561168265E+01  0.13036317205E+01 -0.16644745003E+02  0.18537745560E+02  0.51100000000E-03 0.  1.
         12    1    3    3    0    0 -0.14401678455E+02  0.17656324494E+02  0.17439925374E+02  0.28693294234E+02  0.00000000000E+00 0. -1.
</event>
<event>
 7    1  0.1749439E-013  0.7246157E+02  0.7816164E-02  0.1226708E+00
        -11   -1    0    0    0    0  0.00000000000E+00  0.00000000000E+00  0.45593999997E+02  0.45594000000E+02  0.51100000000E-03 0.  1.
         11   -1    0    0    0    0 -0.00000000000E+00 -0.00000000000E+00 -0.45593999997E+02  0.45594000000E+02  0.51100000000E-03 0. -1.
    9900012    2    1    2    0    0 -0.17478986126E+02 -0.39121109684E+01 -0.54643956403E+01  0.72461569803E+02  0.69999999360E+02 0.  0.
        -12    1    1    2    0    0  0.17478986126E+02  0.39121109684E+01  0.54643956403E+01  0.18726430197E+02  0.00000000000E+00 0.  1.
         11    1    3    3    0    0  0.12062314457E+02 -0.61629486795E+00 -0.11915652039E+02  0.16966496787E+02  0.51100000000E-03 0. -1.
        -11    1    3    3    0    0  0.30692596894E+00  0.14584977829E+02  0.13633618425E+02  0.19967256533E+02  0.51100000000E-03 0.  1.
        -12    1    3    3    0    0 -0.29848226552E+02 -0.17880793929E+02 -0.71823620263E+01  0.35527816484E+02  0.00000000000E+00 0.  1.
</event>
<event>
 7    1  0.1749439E-013  0.7246146E+02  0.7816164E-02  0.1226708E+00
        -11   -1    0    0    0    0  0.00000000000E+00  0.00000000000E+00  0.45593999997E+02  0.45594000000E+02  0.51100000000E-03 0.  1.
         11   -1    0    0    0    0 -0.00000000000E+00 -0.00000000000E+00 -0.45593999997E+02  0.45594000000E+02  0.51100000000E-03 0. -1.
    9900012    2    1    2    0    0 -0.15519893414E+02  0.10478108098E+02  0.15980601572E+00  0.72461457904E+02  0.69999853591E+02 0.  0.
        -12    1    1    2    0    0  0.15519893414E+02 -0.10478108098E+02 -0.15980601572E+00  0.18726542096E+02  0.00000000000E+00 0.  1.
         11    1    3    3    0    0 -0.58126309152E+01  0.17548846416E+02  0.24006488700E+01  0.18641668486E+02  0.51100000000E-03 0. -1.
        -11    1    3    3    0    0 -0.19692890489E+02 -0.20671502939E+02  0.12732779533E+02  0.31260912406E+02  0.51100000000E-03 0.  1.
         12    1    3    3    0    0  0.99856279906E+01  0.13600764622E+02 -0.14973622387E+02  0.22558877012E+02  0.00000000000E+00 0. -1.
</event>
<event>
 7    1  0.1749439E-013  0.7246159E+02  0.7816164E-02  0.1226708E+00
        -11   -1    0    0    0    0  0.00000000000E+00  0.00000000000E+00  0.45593999997E+02  0.45594000000E+02  0.51100000000E-03 0.  1.
         11   -1    0    0    0    0 -0.00000000000E+00 -0.00000000000E+00 -0.45593999997E+02  0.45594000000E+02  0.51100000000E-03 0. -1.
    9900012    2    1    2    0    0 -0.13527166507E+02  0.70679868241E+01 -0.10850698715E+02  0.72461592601E+02  0.70000029059E+02 0.  0.
        -12    1    1    2    0    0  0.13527166507E+02 -0.70679868241E+01  0.10850698715E+02  0.18726407399E+02  0.00000000000E+00 0.  1.
         11    1    3    3    0    0 -0.41290280486E+01  0.93929295688E+01 -0.34797705475E+02  0.36278868575E+02  0.51100000000E-03 0. -1.
        -11    1    3    3    0    0 -0.55500518986E+01 -0.12638830423E+01 -0.46243771032E+01  0.73338489400E+01  0.51100000000E-03 0.  1.
        -12    1    3    3    0    0 -0.38480865597E+01 -0.10610597023E+01  0.28571383863E+02  0.28848875086E+02  0.00000000000E+00 0.  1.
</event>
<event>
 7    1  0.1749439E-013  0.7246159E+02  0.7816164E-02  0.1226708E+00
        -11   -1    0    0    0    0  0.00000000000E+00  0.00000000000E+00  0.45593999997E+02  0.45594000000E+02  0.51100000000E-03 0.  1.
         11   -1    0    0    0    0 -0.00000000000E+00 -0.00000000000E+00 -0.45593999997E+02  0.45594000000E+02  0.51100000000E-03 0. -1.
    9900012    2    1    2    0    0  0.16403817776E+02 -0.89098744216E+01 -0.14856913563E+01  0.72461591411E+02  0.70000027509E+02 0.  0.
        -12    1    1    2    0    0 -0.16403817776E+02  0.89098744216E+01  0.14856913563E+01  0.18726408589E+02  0.00000000000E+00 0.  1.
         11    1    3    3    0    0  0.15736994831E+02 -0.70686458596E+01  0.17862833682E+02  0.24833436895E+02  0.51100000000E-03 0. -1.
        -11    1    3    3    0    0  0.11328425143E+02 -0.19676871951E+02 -0.11079613891E+02  0.25264012948E+02  0.51100000000E-03 0.  1.
        -12    1    3    3    0    0 -0.10661602198E+02  0.17835643389E+02 -0.82689111469E+01  0.22364141569E+02  0.00000000000E+00 0.  1.
</event>
<event>
 7    1  0.1749439E-013  0.7246157E+02  0.7816164E-02  0.1226708E+00
        -11   -1    0    0    0    0  0.00000000000E+00  0.00000000000E+00  0.45593999997E+02  0.45594000000E+02  0.51100000000E-03 0. -1.
         11   -1    0    0    0    0 -0.00000000000E+00 -0.00000000000E+00 -0.45593999997E+02  0.45594000000E+02  0.51100000000E-03 0.  1.
    9900012    2    1    2    0    0 -0.81199437737E+01 -0.33593776930E+01  0.16536630567E+02  0.72461573328E+02  0.70000003952E+02 0.  0.
        -12    1    1    2    0    0  0.81199437737E+01  0.33593776930E+01 -0.16536630567E+02  0.18726426672E+02  0.00000000000E+00 0.  1.
         11    1    3    3    0    0 -0.16547002963E+01 -0.29599085952E+02 -0.60670368849E+01  0.30259756428E+02  0.51100000000E-03 0.  1.
        -11    1    3    3    0    0 -0.10218524452E+02  0.20712567358E+01  0.29784753840E+01  0.10843415620E+02  0.51100000000E-03 0. -1.
        -12    1    3    3    0    0  0.37532809744E+01  0.24168451524E+02  0.19625192068E+02  0.31358401280E+02  0.00000000000E+00 0.  1.
</event>
<event>
 7    1  0.1749439E-013  0.7246158E+02  0.7816164E-02  0.1226708E+00
        -11   -1    0    0    0    0  0.00000000000E+00  0.00000000000E+00  0.45593999997E+02  0.45594000000E+02  0.51100000000E-03 0.  1.
         11   -1    0    0    0    0 -0.00000000000E+00 -0.00000000000E+00 -0.45593999997E+02  0.45594000000E+02  0.51100000000E-03 0. -1.
    9900012    2    1    2    0    0  0.38472899288E+01  0.65188149498E+00 -0.18315352865E+02  0.72461581766E+02  0.70000014944E+02 0.  0.
        -12    1    1    2    0    0 -0.38472899288E+01 -0.65188149498E+00  0.18315352865E+02  0.18726418234E+02  0.00000000000E+00 0.  1.
         11    1    3    3    0    0  0.13115511326E+02  0.61383518602E+00  0.12396932002E+02  0.18057612087E+02  0.51100000000E-03 0. -1.
        -11    1    3    3    0    0 -0.14433648276E+02  0.29171830194E+01  0.69479063865E+01  0.16282308274E+02  0.51100000000E-03 0.  1.
         12    1    3    3    0    0  0.51654268787E+01 -0.28791367104E+01 -0.37660191254E+02  0.38121661405E+02  0.00000000000E+00 0. -1.
</event>
<event>
 7    1  0.1749439E-013  0.7246116E+02  0.7816164E-02  0.1226709E+00
        -11   -1    0    0    0    0  0.00000000000E+00  0.00000000000E+00  0.45593999997E+02  0.45594000000E+02  0.51100000000E-03 0.  1.
         11   -1    0    0    0    0 -0.00000000000E+00 -0.00000000000E+00 -0.45593999997E+02  0.45594000000E+02  0.51100000000E-03 0. -1.
    9900012    2    1    2    0    0 -0.13453860731E+02  0.12801677242E+02  0.24093960500E+01  0.72461161022E+02  0.69999466845E+02 0.  0.
        -12    1    1    2    0    0  0.13453860731E+02 -0.12801677242E+02 -0.24093960500E+01  0.18726838978E+02  0.00000000000E+00 0.  1.
         11    1    3    3    0    0  0.19392141753E+01 -0.50489991491E+01 -0.13632863351E+02  0.14666557450E+02  0.51100000000E-03 0. -1.
        -11    1    3    3    0    0  0.36344106225E+01 -0.15348788990E+02  0.10927758265E+02  0.19188803115E+02  0.51100000000E-03 0.  1.
         12    1    3    3    0    0 -0.19027485529E+02  0.33199465381E+02  0.51145011361E+01  0.38605800458E+02  0.00000000000E+00 0. -1.
</event>
<event>
 7    1  0.1749439E-013  0.7246158E+02  0.7816164E-02  0.1226708E+00
        -11   -1    0    0    0    0  0.00000000000E+00  0.00000000000E+00  0.45593999997E+02  0.45594000000E+02  0.51100000000E-03 0.  1.
         11   -1    0    0    0    0 -0.00000000000E+00 -0.00000000000E+00 -0.45593999997E+02  0.45594000000E+02  0.51100000000E-03 0. -1.
    9900012    2    1    2    0    0 -0.28526955417E+01  0.56868844180E+01 -0.17612507227E+02  0.72461576501E+02  0.70000008086E+02 0.  0.
        -12    1    1    2    0    0  0.28526955417E+01 -0.56868844180E+01  0.17612507227E+02  0.18726423499E+02  0.00000000000E+00 0.  1.
         11    1    3    3    0    0 -0.33993207242E+01 -0.12236643518E+02 -0.41400328206E+01  0.13357795402E+02  0.51100000000E-03 0. -1.
        -11    1    3    3    0    0 -0.23770614052E+02 -0.63506577109E+00  0.36345340061E+01  0.24055253867E+02  0.51100000000E-03 0.  1.
         12    1    3    3    0    0  0.24317239234E+02  0.18558593707E+02 -0.17107008412E+02  0.35048527232E+02  0.00000000000E+00 0. -1.
</event>
<event>
 7    1  0.1749439E-013  0.7246151E+02  0.7816164E-02  0.1226708E+00
        -11   -1    0    0    0    0  0.00000000000E+00  0.00000000000E+00  0.45593999997E+02  0.45594000000E+02  0.51100000000E-03 0. -1.
         11   -1    0    0    0    0 -0.00000000000E+00 -0.00000000000E+00 -0.45593999997E+02  0.45594000000E+02  0.51100000000E-03 0.  1.
    9900012    2    1    2    0    0  0.65544016816E+01 -0.25330308580E+01  0.17358139512E+02  0.72461509831E+02  0.69999921236E+02 0.  0.
        -12    1    1    2    0    0 -0.65544016816E+01  0.25330308580E+01 -0.17358139512E+02  0.18726490169E+02  0.00000000000E+00 0.  1.
         11    1    3    3    0    0  0.83179154437E+01 -0.17000210384E+02  0.17426999406E+01  0.19006100962E+02  0.51100000000E-03 0. -1.
        -11    1    3    3    0    0  0.11579914676E+02 -0.16978756333E+01 -0.13316368796E+02  0.17728589446E+02  0.51100000000E-03 0.  1.
        -12    1    3    3    0    0 -0.13343428438E+02  0.16165055159E+02  0.28931808367E+02  0.35726819424E+02  0.00000000000E+00 0.  1.
</event>
<event>
 7    1  0.1749439E-013  0.7246159E+02  0.7816164E-02  0.1226708E+00
        -11   -1    0    0    0    0  0.00000000000E+00  0.00000000000E+00  0.45593999997E+02  0.45594000000E+02  0.51100000000E-03 0.  1.
         11   -1    0    0    0    0 -0.00000000000E+00 -0.00000000000E+00 -0.45593999997E+02  0.45594000000E+02  0.51100000000E-03 0. -1.
    9900012    2    1    2    0    0  0.90904655274E+00 -0.17187225999E+02 -0.73791218995E+01  0.72461587018E+02  0.70000021785E+02 0.  0.
        -12    1    1    2    0    0 -0.90904655274E+00  0.17187225999E+02  0.73791218995E+01  0.18726412982E+02  0.00000000000E+00 0.  1.
         11    1    3    3    0    0 -0.29098770343E+00 -0.25391675544E+00  0.78755960610E+01  0.78850593618E+01  0.51100000000E-03 0. -1.
        -11    1    3    3    0    0  0.11472194739E+02 -0.29398377994E+02  0.11279495237E+02  0.33512727342E+02  0.51100000000E-03 0.  1.
         12    1    3    3    0    0 -0.10272160483E+02  0.12465068751E+02 -0.26534213198E+02  0.31063800314E+02  0.00000000000E+00 0. -1.
</event>
<event>
 7    1  0.1749439E-013  0.7246161E+02  0.7816164E-02  0.1226708E+00
        -11   -1    0    0    0    0  0.00000000000E+00  0.00000000000E+00  0.45593999997E+02  0.45594000000E+02  0.51100000000E-03 0.  1.
         11   -1    0    0    0    0 -0.00000000000E+00 -0.00000000000E+00 -0.45593999997E+02  0.45594000000E+02  0.51100000000E-03 0. -1.
    9900012    2    1    2    0    0 -0.31142476938E+01  0.11041841317E+02 -0.14800568086E+02  0.72461611827E+02  0.70000054103E+02 0.  0.
        -12    1    1    2    0    0  0.31142476938E+01 -0.11041841317E+02  0.14800568086E+02  0.18726388173E+02  0.00000000000E+00 0.  1.
         11    1    3    3    0    0  0.11373769630E+02  0.68139141031E+01 -0.30205125112E+02  0.32986992047E+02  0.51100000000E-03 0. -1.
        -11    1    3    3    0    0 -0.19648491994E+02  0.37303113555E+01 -0.31172250647E+01  0.20240937548E+02  0.51100000000E-03 0.  1.
        -12    1    3    3    0    0  0.51604746696E+01  0.49761585791E+00  0.18521782091E+02  0.19233682232E+02  0.00000000000E+00 0.  1.
</event>
<event>
 7    1  0.1749439E-013  0.7246149E+02  0.7816164E-02  0.1226708E+00
        -11   -1    0    0    0    0  0.00000000000E+00  0.00000000000E+00  0.45593999997E+02  0.45594000000E+02  0.51100000000E-03 0.  1.
         11   -1    0    0    0    0 -0.00000000000E+00 -0.00000000000E+00 -0.45593999997E+02  0.45594000000E+02  0.51100000000E-03 0. -1.
    9900012    2    1    2    0    0 -0.18392291824E+02 -0.31103379895E+01 -0.16527107675E+01  0.72461493282E+02  0.69999899678E+02 0.  0.
        -12    1    1    2    0    0  0.18392291824E+02  0.31103379895E+01  0.16527107675E+01  0.18726506718E+02  0.00000000000E+00 0.  1.
         11    1    3    3    0    0 -0.32184355629E+02  0.13310908099E+02 -0.96996937495E+01  0.36153797598E+02  0.51100000000E-03 0. -1.
        -11    1    3    3    0    0  0.89913238688E+01  0.66047871446E+01 -0.78252203239E+00  0.11183892843E+02  0.51100000000E-03 0.  1.
        -12    1    3    3    0    0  0.48007399360E+01 -0.23026033233E+02  0.88295050144E+01  0.25123802841E+02  0.00000000000E+00 0.  1.
</event>
<event>
 7    1  0.1749439E-013  0.7246151E+02  0.7816164E-02  0.1226708E+00
        -11   -1    0    0    0    0  0.00000000000E+00  0.00000000000E+00  0.45593999997E+02  0.45594000000E+02  0.51100000000E-03 0.  1.
         11   -1    0    0    0    0 -0.00000000000E+00 -0.00000000000E+00 -0.45593999997E+02  0.45594000000E+02  0.51100000000E-03 0. -1.
    9900012    2    1    2    0    0 -0.11977278118E+02 -0.22596442908E+01 -0.14216899295E+02  0.72461510500E+02  0.69999922107E+02 0.  0.
        -12    1    1    2    0    0  0.11977278118E+02  0.22596442908E+01  0.14216899295E+02  0.18726489500E+02  0.00000000000E+00 0.  1.
         11    1    3    3    0    0  0.82029038757E+01  0.13212907977E+01 -0.30807202766E+01  0.88613926134E+01  0.51100000000E-03 0. -1.
        -11    1    3    3    0    0  0.75259346361E+01 -0.20042294695E+02  0.11419157198E+02  0.24263767641E+02  0.51100000000E-03 0.  1.
         12    1    3    3    0    0 -0.27706116630E+02  0.16461359606E+02 -0.22555336216E+02  0.39336350245E+02  0.00000000000E+00 0. -1.
</event>
<event>
 7    1  0.1749439E-013  0.7246158E+02  0.7816164E-02  0.1226708E+00
        -11   -1    0    0    0    0  0.00000000000E+00  0.00000000000E+00  0.45593999997E+02  0.45594000000E+02  0.51100000000E-03 0.  1.
         11   -1    0    0    0    0 -0.00000000000E+00 -0.00000000000E+00 -0.45593999997E+02  0.45594000000E+02  0.51100000000E-03 0. -1.
    9900012    2    1    2    0    0  0.46259840142E+01 -0.16360624258E+02 -0.78491397320E+01  0.72461581529E+02  0.70000014635E+02 0.  0.
        -12    1    1    2    0    0 -0.46259840142E+01  0.16360624258E+02  0.78491397320E+01  0.18726418471E+02  0.00000000000E+00 0.  1.
         11    1    3    3    0    0  0.27542024247E+02 -0.10509015375E+02  0.14496742678E+02  0.32850541127E+02  0.51100000000E-03 0. -1.
        -11    1    3    3    0    0 -0.69828121989E+00  0.42257515943E+01  0.23596778794E+01  0.48900565594E+01  0.51100000000E-03 0.  1.
        -12    1    3    3    0    0 -0.22217759013E+02 -0.10077360477E+02 -0.24705560290E+02  0.34720983842E+02  0.00000000000E+00 0.  1.
</event>
<event>
 7    1  0.1749439E-013  0.7246148E+02  0.7816164E-02  0.1226708E+00
        -11   -1    0    0    0    0  0.00000000000E+00  0.00000000000E+00  0.45593999997E+02  0.45594000000E+02  0.51100000000E-03 0. -1.
         11   -1    0    0    0    0 -0.00000000000E+00 -0.00000000000E+00 -0.45593999997E+02  0.45594000000E+02  0.51100000000E-03 0.  1.
    9900012    2    1    2    0    0 -0.16412742787E+02 -0.26984216237E+01 -0.86036521193E+01  0.72461483110E+02  0.69999886426E+02 0.  0.
        -12    1    1    2    0    0  0.16412742787E+02  0.26984216237E+01  0.86036521193E+01  0.18726516890E+02  0.00000000000E+00 0.  1.
         11    1    3    3    0    0  0.21065915435E+01  0.23481230669E+01  0.13183884718E+02  0.13556040218E+02  0.51100000000E-03 0. -1.
        -11    1    3    3    0    0 -0.13747223032E+02 -0.22369285942E+02  0.49233505899E+01  0.26713488651E+02  0.51100000000E-03 0.  1.
        -12    1    3    3    0    0 -0.47721112983E+01  0.17322741251E+02 -0.26710887427E+02  0.32191954241E+02  0.00000000000E+00 0.  1.
</event>
<event>
 7    1  0.1749439E-013  0.7246168E+02  0.7816164E-02  0.1226708E+00
        -11   -1    0    0    0    0  0.00000000000E+00  0.00000000000E+00  0.45593999997E+02  0.45594000000E+02  0.51100000000E-03 0.  1.
         11   -1    0    0    0    0 -0.00000000000E+00 -0.00000000000E+00 -0.45593999997E+02  0.45594000000E+02  0.51100000000E-03 0. -1.
    9900012    2    1    2    0    0 -0.16853381568E+02  0.35333046344E+01 -0.73589606110E+01  0.72461681270E+02  0.70000144566E+02 0.  0.
        -12    1    1    2    0    0  0.16853381568E+02 -0.35333046344E+01  0.73589606110E+01  0.18726318730E+02  0.00000000000E+00 0.  1.
         11    1    3    3    0    0  0.17933151413E+01 -0.64811616096E+01 -0.21608969482E+01  0.70633498347E+01  0.51100000000E-03 0. -1.
        -11    1    3    3    0    0  0.50741247958E+00 -0.43602763652E+01  0.25831635046E+02  0.26201962652E+02  0.51100000000E-03 0.  1.
         12    1    3    3    0    0 -0.19154109189E+02  0.14374742609E+02 -0.31029698708E+02  0.39196368784E+02  0.00000000000E+00 0. -1.
</event>
<event>
 7    1  0.1749439E-013  0.7246132E+02  0.7816164E-02  0.1226709E+00
        -11   -1    0    0    0    0  0.00000000000E+00  0.00000000000E+00  0.45593999997E+02  0.45594000000E+02  0.51100000000E-03 0.  1.
         11   -1    0    0    0    0 -0.00000000000E+00 -0.00000000000E+00 -0.45593999997E+02  0.45594000000E+02  0.51100000000E-03 0. -1.
    9900012    2    1    2    0    0 -0.18180073718E+02 -0.17447332315E+01  0.41387551297E+01  0.72461322013E+02  0.69999676566E+02 0.  0.
        -12    1    1    2    0    0  0.18180073718E+02  0.17447332315E+01 -0.41387551297E+01  0.18726677987E+02  0.00000000000E+00 0.  1.
         11    1    3    3    0    0  0.65394190488E+01  0.93526433041E+01 -0.14034262421E+02  0.18088572642E+02  0.51100000000E-03 0. -1.
        -11    1    3    3    0    0 -0.23516033965E+01  0.12725683043E+02 -0.54585022116E+01  0.14045223178E+02  0.51100000000E-03 0.  1.
        -12    1    3    3    0    0 -0.22367889370E+02 -0.23823059579E+02  0.23631519762E+02  0.40327526193E+02  0.00000000000E+00 0.  1.
</event>
<event>
 7    1  0.1749439E-013  0.7246159E+02  0.7816164E-02  0.1226708E+00
        -11   -1    0    0    0    0  0.00000000000E+00  0.00000000000E+00  0.45593999997E+02  0.45594000000E+02  0.51100000000E-03 0.  1.
         11   -1    0    0    0    0 -0.00000000000E+00 -0.00000000000E+00 -0.45593999997E+02  0.45594000000E+02  0.51100000000E-03 0. -1.
    9900012    2    1    2    0    0  0.94200533304E+01  0.12056318926E+02 -0.10797511601E+02  0.72461588503E+02  0.70000023720E+02 0.  0.
        -12    1    1    2    0    0 -0.94200533304E+01 -0.12056318926E+02  0.10797511601E+02  0.18726411497E+02  0.00000000000E+00 0.  1.
         11    1    3    3    0    0  0.58056453532E+01  0.48506240171E+01 -0.67404539291E+01  0.10132511572E+02  0.51100000000E-03 0. -1.
        -11    1    3    3    0    0  0.16320335660E+02  0.12986592023E+02  0.23510678436E+02  0.31428600497E+02  0.51100000000E-03 0.  1.
         12    1    3    3    0    0 -0.12705927683E+02 -0.57808971144E+01 -0.27567736108E+02  0.30900476434E+02  0.00000000000E+00 0. -1.
</event>
<event>
 7    1  0.1749439E-013  0.7246155E+02  0.7816164E-02  0.1226708E+00
        -11   -1    0    0    0    0  0.00000000000E+00  0.00000000000E+00  0.45593999997E+02  0.45594000000E+02  0.51100000000E-03 0.  1.
         11   -1    0    0    0    0 -0.00000000000E+00 -0.00000000000E+00 -0.45593999997E+02  0.45594000000E+02  0.51100000000E-03 0. -1.
    9900012    2    1    2    0    0 -0.34253679338E+01  0.91093440912E+01 -0.15998962406E+02  0.72461545629E+02  0.69999967868E+02 0.  0.
        -12    1    1    2    0    0  0.34253679338E+01 -0.91093440912E+01  0.15998962406E+02  0.18726454371E+02  0.00000000000E+00 0.  1.
         11    1    3    3    0    0  0.27289495659E+02 -0.65392872760E+00 -0.74956379279E+01  0.28307751311E+02  0.51100000000E-03 0.  1.
        -11    1    3    3    0    0 -0.16482688865E+02  0.15821185155E+02 -0.15048969007E+02  0.27358004320E+02  0.51100000000E-03 0. -1.
        -12    1    3    3    0    0 -0.14232174728E+02 -0.60579123364E+01  0.65456445285E+01  0.16795789998E+02  0.00000000000E+00 0.  1.
</event>
<event>
 7    1  0.1749439E-013  0.7246154E+02  0.7816164E-02  0.1226708E+00
        -11   -1    0    0    0    0  0.00000000000E+00  0.00000000000E+00  0.45593999997E+02  0.45594000000E+02  0.51100000000E-03 0.  1.
         11   -1    0    0    0    0 -0.00000000000E+00 -0.00000000000E+00 -0.45593999997E+02  0.45594000000E+02  0.51100000000E-03 0. -1.
    9900012    2    1    2    0    0  0.10257340763E+02  0.29950880453E+01 -0.15378448383E+02  0.72461541003E+02  0.69999961842E+02 0.  0.
        -12    1    1    2    0    0 -0.10257340763E+02 -0.29950880453E+01  0.15378448383E+02  0.18726458997E+02  0.00000000000E+00 0.  1.
         11    1    3    3    0    0  0.16954565692E+02 -0.58400127381E+01  0.23641320065E+01  0.18087348258E+02  0.51100000000E-03 0. -1.
        -11    1    3    3    0    0 -0.16844914818E+02 -0.16822385800E+02 -0.81305050002E+01  0.25156488846E+02  0.51100000000E-03 0.  1.
         12    1    3    3    0    0  0.10147689889E+02  0.25657486583E+02 -0.96120753890E+01  0.29217703899E+02  0.00000000000E+00 0. -1.
</event>
<event>
 7    1  0.1749439E-013  0.7246155E+02  0.7816164E-02  0.1226708E+00
        -11   -1    0    0    0    0  0.00000000000E+00  0.00000000000E+00  0.45593999997E+02  0.45594000000E+02  0.51100000000E-03 0. -1.
         11   -1    0    0    0    0 -0.00000000000E+00 -0.00000000000E+00 -0.45593999997E+02  0.45594000000E+02  0.51100000000E-03 0.  1.
    9900012    2    1    2    0    0  0.54071253637E+00 -0.64919442336E+00  0.18707378476E+02  0.72461552582E+02  0.69999976926E+02 0.  0.
        -12    1    1    2    0    0 -0.54071253637E+00  0.64919442336E+00 -0.18707378476E+02  0.18726447418E+02  0.00000000000E+00 0.  1.
         11    1    3    3    0    0  0.15819644176E+02 -0.10957468361E+02 -0.20535624404E+01  0.19353148935E+02  0.51100000000E-03 0. -1.
        -11    1    3    3    0    0  0.11809368631E+01  0.24576373581E+02  0.25887118331E+01  0.24740537170E+02  0.51100000000E-03 0.  1.
        -12    1    3    3    0    0 -0.16459868503E+02 -0.14268099643E+02  0.18172229084E+02  0.28367866476E+02  0.00000000000E+00 0.  1.
</event>
<event>
 7    1  0.1749439E-013  0.7246162E+02  0.7816164E-02  0.1226708E+00
        -11   -1    0    0    0    0  0.00000000000E+00  0.00000000000E+00  0.45593999997E+02  0.45594000000E+02  0.51100000000E-03 0. -1.
         11   -1    0    0    0    0 -0.00000000000E+00 -0.00000000000E+00 -0.45593999997E+02  0.45594000000E+02  0.51100000000E-03 0.  1.
    9900012    2    1    2    0    0  0.58455119373E+01  0.16089860730E+01  0.17717745309E+02  0.72461619014E+02  0.70000063466E+02 0.  0.
        -12    1    1    2    0    0 -0.58455119373E+01 -0.16089860730E+01 -0.17717745309E+02  0.18726380986E+02  0.00000000000E+00 0.  1.
         11    1    3    3    0    0 -0.10002295232E+02  0.14162038445E+02  0.12866038691E+02  0.21590372731E+02  0.51100000000E-03 0. -1.
        -11    1    3    3    0    0  0.75113145792E+01  0.11263793713E+02  0.17916085522E+02  0.22456157645E+02  0.51100000000E-03 0.  1.
        -12    1    3    3    0    0  0.83364925905E+01 -0.23816846084E+02 -0.13064378904E+02  0.28415088637E+02  0.00000000000E+00 0.  1.
</event>
<event>
 7    1  0.1749439E-013  0.7246208E+02  0.7816164E-02  0.1226707E+00
        -11   -1    0    0    0    0  0.00000000000E+00  0.00000000000E+00  0.45593999997E+02  0.45594000000E+02  0.51100000000E-03 0.  1.
         11   -1    0    0    0    0 -0.00000000000E+00 -0.00000000000E+00 -0.45593999997E+02  0.45594000000E+02  0.51100000000E-03 0. -1.
    9900012    2    1    2    0    0  0.42544839915E+01  0.13263649463E+02 -0.12515393807E+02  0.72462079108E+02  0.70000662821E+02 0.  0.
        -12    1    1    2    0    0 -0.42544839915E+01 -0.13263649463E+02  0.12515393807E+02  0.18725920892E+02  0.00000000000E+00 0.  1.
         11    1    3    3    0    0 -0.10822667432E+02 -0.16767820621E+02  0.48335510696E+01  0.20534194772E+02  0.51100000000E-03 0. -1.
        -11    1    3    3    0    0 -0.70154124580E+01  0.41387070865E+01 -0.15894291120E+02  0.17859826393E+02  0.51100000000E-03 0.  1.
        -12    1    3    3    0    0  0.22092563881E+02  0.25892762998E+02 -0.14546537557E+01  0.34068057944E+02  0.00000000000E+00 0.  1.
</event>
<event>
 7    1  0.1749439E-013  0.7246106E+02  0.7816164E-02  0.1226709E+00
        -11   -1    0    0    0    0  0.00000000000E+00  0.00000000000E+00  0.45593999997E+02  0.45594000000E+02  0.51100000000E-03 0.  1.
         11   -1    0    0    0    0 -0.00000000000E+00 -0.00000000000E+00 -0.45593999997E+02  0.45594000000E+02  0.51100000000E-03 0. -1.
    9900012    2    1    2    0    0  0.18714582879E+02 -0.65094411890E+00 -0.19743638219E+00  0.72461058934E+02  0.69999333855E+02 0.  0.
        -12    1    1    2    0    0 -0.18714582879E+02  0.65094411890E+00  0.19743638219E+00  0.18726941066E+02  0.00000000000E+00 0.  1.
         11    1    3    3    0    0  0.18923249015E+02  0.33854360954E+01  0.12166756544E+02  0.22750395511E+02  0.51100000000E-03 0. -1.
        -11    1    3    3    0    0  0.14577048231E+02 -0.17349173076E+02  0.51115471955E+01  0.23229551364E+02  0.51100000000E-03 0.  1.
        -12    1    3    3    0    0 -0.14785714367E+02  0.13312792862E+02 -0.17475740121E+02  0.26481112060E+02  0.00000000000E+00 0.  1.
</event>
<event>
 7    1  0.1749439E-013  0.7246140E+02  0.7816164E-02  0.1226708E+00
        -11   -1    0    0    0    0  0.00000000000E+00  0.00000000000E+00  0.45593999997E+02  0.45594000000E+02  0.51100000000E-03 0.  1.
         11   -1    0    0    0    0 -0.00000000000E+00 -0.00000000000E+00 -0.45593999997E+02  0.45594000000E+02  0.51100000000E-03 0. -1.
    9900012    2    1    2    0    0 -0.10726056290E+02  0.12729589939E+02 -0.85787472563E+01  0.72461397317E+02  0.69999774664E+02 0.  0.
        -12    1    1    2    0    0  0.10726056290E+02 -0.12729589939E+02  0.85787472563E+01  0.18726602683E+02  0.00000000000E+00 0.  1.
         11    1    3    3    0    0  0.10394976712E+01  0.52185265342E+01 -0.90044785228E+01  0.10459168625E+02  0.51100000000E-03 0. -1.
        -11    1    3    3    0    0  0.23085815786E+02 -0.42785437069E+01  0.72717247096E+01  0.24579235287E+02  0.51100000000E-03 0.  1.
         12    1    3    3    0    0 -0.34851369748E+02  0.11789607112E+02 -0.68459934431E+01  0.37422993405E+02  0.00000000000E+00 0. -1.
</event>
<event>
 7    1  0.1749439E-013  0.7246158E+02  0.7816164E-02  0.1226708E+00
        -11   -1    0    0    0    0  0.00000000000E+00  0.00000000000E+00  0.45593999997E+02  0.45594000000E+02  0.51100000000E-03 0. -1.
         11   -1    0    0    0    0 -0.00000000000E+00 -0.00000000000E+00 -0.45593999997E+02  0.45594000000E+02  0.51100000000E-03 0.  1.
    9900012    2    1    2    0    0 -0.86975132280E+01  0.25093901852E+01  0.16393142457E+02  0.72461577622E+02  0.70000009546E+02 0.  0.
        -12    1    1    2    0    0  0.86975132280E+01 -0.25093901852E+01 -0.16393142457E+02  0.18726422378E+02  0.00000000000E+00 0.  1.
         11    1    3    3    0    0 -0.84273219394E+01 -0.69757221070E+01  0.17344444101E+02  0.20506345248E+02  0.51100000000E-03 0. -1.
        -11    1    3    3    0    0 -0.19040174994E+02  0.22126703190E+02  0.12533833479E+01  0.29217977821E+02  0.51100000000E-03 0.  1.
        -12    1    3    3    0    0  0.18769983706E+02 -0.12641590897E+02 -0.22046849917E+01  0.22737254554E+02  0.00000000000E+00 0.  1.
</event>
<event>
 7    1  0.1749439E-013  0.7246157E+02  0.7816164E-02  0.1226708E+00
        -11   -1    0    0    0    0  0.00000000000E+00  0.00000000000E+00  0.45593999997E+02  0.45594000000E+02  0.51100000000E-03 0.  1.
         11   -1    0    0    0    0 -0.00000000000E+00 -0.00000000000E+00 -0.45593999997E+02  0.45594000000E+02  0.51100000000E-03 0. -1.
    9900012    2    1    2    0    0  0.15638297839E+02  0.74662839733E+01 -0.70977037872E+01  0.72461570690E+02  0.70000000515E+02 0.  0.
        -12    1    1    2    0    0 -0.15638297839E+02 -0.74662839733E+01  0.70977037872E+01  0.18726429310E+02  0.00000000000E+00 0.  1.
         11    1    3    3    0    0  0.99532816581E+01  0.20631611980E+02 -0.25839727318E+02  0.34531474582E+02  0.51100000000E-03 0. -1.
        -11    1    3    3    0    0  0.92836797631E+01  0.75268110522E+01  0.61361552492E+01  0.13434730964E+02  0.51100000000E-03 0.  1.
        -12    1    3    3    0    0 -0.35986635827E+01 -0.20692139059E+02  0.12605868282E+02  0.24495365144E+02  0.00000000000E+00 0.  1.
</event>
<event>
 7    1  0.1749439E-013  0.7246143E+02  0.7816164E-02  0.1226708E+00
        -11   -1    0    0    0    0  0.00000000000E+00  0.00000000000E+00  0.45593999997E+02  0.45594000000E+02  0.51100000000E-03 0.  1.
         11   -1    0    0    0    0 -0.00000000000E+00 -0.00000000000E+00 -0.45593999997E+02  0.45594000000E+02  0.51100000000E-03 0. -1.
    9900012    2    1    2    0    0  0.14544168896E+02  0.10552618420E+02  0.52719723475E+01  0.72461433394E+02  0.69999821662E+02 0.  0.
        -12    1    1    2    0    0 -0.14544168896E+02 -0.10552618420E+02 -0.52719723475E+01  0.18726566606E+02  0.00000000000E+00 0.  1.
         11    1    3    3    0    0  0.38421526679E+01 -0.65482312645E+01 -0.26417848581E+01  0.80386875368E+01  0.51100000000E-03 0.  1.
        -11    1    3    3    0    0  0.14515363724E+02  0.28817974001E+02 -0.17114978947E+02  0.36525250365E+02  0.51100000000E-03 0. -1.
         12    1    3    3    0    0 -0.38133474952E+01 -0.11717124317E+02  0.25028736153E+02  0.27897495493E+02  0.00000000000E+00 0. -1.
</event>
<event>
 7    1  0.1749439E-013  0.7246181E+02  0.7816164E-02  0.1226707E+00
        -11   -1    0    0    0    0  0.00000000000E+00  0.00000000000E+00  0.45593999997E+02  0.45594000000E+02  0.51100000000E-03 0.  1.
         11   -1    0    0    0    0 -0.00000000000E+00 -0.00000000000E+00 -0.45593999997E+02  0.45594000000E+02  0.51100000000E-03 0. -1.
    9900012    2    1    2    0    0 -0.25527560219E+01 -0.69340408830E+01 -0.17206761651E+02  0.72461811579E+02  0.70000314317E+02 0.  0.
        -12    1    1    2    0    0  0.25527560219E+01  0.69340408830E+01  0.17206761651E+02  0.18726188421E+02  0.00000000000E+00 0.  1.
         11    1    3    3    0    0 -0.15391990894E+02  0.92073407995E+01  0.13728818214E+02  0.22586920067E+02  0.51100000000E-03 0. -1.
        -11    1    3    3    0    0 -0.58575505247E+01 -0.54485435568E+01  0.39144719579E+01  0.89062122145E+01  0.51100000000E-03 0.  1.
        -12    1    3    3    0    0  0.18696785397E+02 -0.10692838126E+02 -0.34850051823E+02  0.40968679298E+02  0.00000000000E+00 0.  1.
</event>
<event>
 7    1  0.1749439E-013  0.7246156E+02  0.7816164E-02  0.1226708E+00
        -11   -1    0    0    0    0  0.00000000000E+00  0.00000000000E+00  0.45593999997E+02  0.45594000000E+02  0.51100000000E-03 0.  1.
         11   -1    0    0    0    0 -0.00000000000E+00 -0.00000000000E+00 -0.45593999997E+02  0.45594000000E+02  0.51100000000E-03 0. -1.
    9900012    2    1    2    0    0  0.14177555672E+02 -0.11866620212E+02 -0.29765414152E+01  0.72461559899E+02  0.69999986458E+02 0.  0.
        -12    1    1    2    0    0 -0.14177555672E+02  0.11866620212E+02  0.29765414152E+01  0.18726440101E+02  0.00000000000E+00 0.  1.
         11    1    3    3    0    0  0.16804054253E+02  0.20623750424E+02  0.93989647357E+01  0.28214461881E+02  0.51100000000E-03 0. -1.
        -11    1    3    3    0    0  0.88296220235E+01 -0.16322478557E+02 -0.15509788738E+02  0.24185513810E+02  0.51100000000E-03 0.  1.
        -12    1    3    3    0    0 -0.11456120605E+02 -0.16167892078E+02  0.31342825869E+01  0.20061584207E+02  0.00000000000E+00 0.  1.
</event>
<event>
 7    1  0.1749439E-013  0.7246154E+02  0.7816164E-02  0.1226708E+00
        -11   -1    0    0    0    0  0.00000000000E+00  0.00000000000E+00  0.45593999997E+02  0.45594000000E+02  0.51100000000E-03 0.  1.
         11   -1    0    0    0    0 -0.00000000000E+00 -0.00000000000E+00 -0.45593999997E+02  0.45594000000E+02  0.51100000000E-03 0. -1.
    9900012    2    1    2    0    0 -0.48954118243E+01  0.76379391622E+01 -0.16382225022E+02  0.72461535618E+02  0.69999954827E+02 0.  0.
        -12    1    1    2    0    0  0.48954118243E+01 -0.76379391622E+01  0.16382225022E+02  0.18726464382E+02  0.00000000000E+00 0.  1.
         11    1    3    3    0    0  0.17603933414E+01 -0.74026513686E+01 -0.92778784509E+00  0.76654434019E+01  0.51100000000E-03 0. -1.
        -11    1    3    3    0    0 -0.39106469547E+01  0.47999094938E+01  0.23563519833E+02  0.24363328138E+02  0.51100000000E-03 0.  1.
         12    1    3    3    0    0 -0.27451582109E+01  0.10240681037E+02 -0.39017957011E+02  0.40432764078E+02  0.00000000000E+00 0. -1.
</event>
<event>
 7    1  0.1749439E-013  0.7246154E+02  0.7816164E-02  0.1226708E+00
        -11   -1    0    0    0    0  0.00000000000E+00  0.00000000000E+00  0.45593999997E+02  0.45594000000E+02  0.51100000000E-03 0.  1.
         11   -1    0    0    0    0 -0.00000000000E+00 -0.00000000000E+00 -0.45593999997E+02  0.45594000000E+02  0.51100000000E-03 0. -1.
    9900012    2    1    2    0    0  0.85749963153E+01 -0.51067763173E+00 -0.16639981664E+02  0.72461538956E+02  0.69999959176E+02 0.  0.
        -12    1    1    2    0    0 -0.85749963153E+01  0.51067763173E+00  0.16639981664E+02  0.18726461044E+02  0.00000000000E+00 0.  1.
         11    1    3    3    0    0  0.12100894363E+02  0.13959252491E+02 -0.27761803503E+02  0.33346815567E+02  0.51100000000E-03 0. -1.
        -11    1    3    3    0    0  0.77140545793E+01  0.62588397070E+01 -0.44208123703E+01  0.10873053610E+02  0.51100000000E-03 0.  1.
        -12    1    3    3    0    0 -0.11239952627E+02 -0.20728769830E+02  0.15542634209E+02  0.28241669778E+02  0.00000000000E+00 0.  1.
</event>
<event>
 7    1  0.1749439E-013  0.7246184E+02  0.7816164E-02  0.1226707E+00
        -11   -1    0    0    0    0  0.00000000000E+00  0.00000000000E+00  0.45593999997E+02  0.45594000000E+02  0.51100000000E-03 0. -1.
         11   -1    0    0    0    0 -0.00000000000E+00 -0.00000000000E+00 -0.45593999997E+02  0.45594000000E+02  0.51100000000E-03 0.  1.
    9900012    2    1    2    0    0  0.85333148099E+01  0.81656576898E+01  0.14531817189E+02  0.72461838141E+02  0.70000348919E+02 0.  0.
        -12    1    1    2    0    0 -0.85333148099E+01 -0.81656576898E+01 -0.14531817189E+02  0.18726161859E+02  0.00000000000E+00 0.  1.
         11    1    3    3    0    0  0.66426264523E+01  0.10956565247E+02  0.17733675913E+02  0.21878164225E+02  0.51100000000E-03 0. -1.
        -11    1    3    3    0    0 -0.29957343656E+01  0.90991199945E+00  0.23235257202E+02  0.23445245611E+02  0.51100000000E-03 0.  1.
        -12    1    3    3    0    0  0.48864227232E+01 -0.37008195562E+01 -0.26437115926E+02  0.27138428306E+02  0.00000000000E+00 0.  1.
</event>
<event>
 7    1  0.1749439E-013  0.7246155E+02  0.7816164E-02  0.1226708E+00
        -11   -1    0    0    0    0  0.00000000000E+00  0.00000000000E+00  0.45593999997E+02  0.45594000000E+02  0.51100000000E-03 0.  1.
         11   -1    0    0    0    0 -0.00000000000E+00 -0.00000000000E+00 -0.45593999997E+02  0.45594000000E+02  0.51100000000E-03 0. -1.
    9900012    2    1    2    0    0  0.16114149905E+01  0.60300727880E+01 -0.17655639167E+02  0.72461547306E+02  0.69999970053E+02 0.  0.
        -12    1    1    2    0    0 -0.16114149905E+01 -0.60300727880E+01  0.17655639167E+02  0.18726452694E+02  0.00000000000E+00 0.  1.
         11    1    3    3    0    0 -0.12358516742E+02 -0.20635699430E+01 -0.25232035206E+02  0.28171738637E+02  0.51100000000E-03 0. -1.
        -11    1    3    3    0    0 -0.33498972616E+01 -0.13387031104E+02  0.93025451272E+01  0.16642468553E+02  0.51100000000E-03 0.  1.
        -12    1    3    3    0    0  0.17319828994E+02  0.21480673835E+02 -0.17261490888E+01  0.27647340115E+02  0.00000000000E+00 0.  1.
</event>
<event>
 7    1  0.1749439E-013  0.7246157E+02  0.7816164E-02  0.1226708E+00
        -11   -1    0    0    0    0  0.00000000000E+00  0.00000000000E+00  0.45593999997E+02  0.45594000000E+02  0.51100000000E-03 0. -1.
         11   -1    0    0    0    0 -0.00000000000E+00 -0.00000000000E+00 -0.45593999997E+02  0.45594000000E+02  0.51100000000E-03 0.  1.
    9900012    2    1    2    0    0  0.14603738894E+02  0.11583796733E+02  0.17960282296E+01  0.72461568043E+02  0.69999997067E+02 0.  0.
        -12    1    1    2    0    0 -0.14603738894E+02 -0.11583796733E+02 -0.17960282296E+01  0.18726431957E+02  0.00000000000E+00 0.  1.
         11    1    3    3    0    0 -0.85198560457E+01 -0.84289146091E+01  0.18656764947E+01  0.12129109513E+02  0.51100000000E-03 0. -1.
        -11    1    3    3    0    0  0.28178615837E+02 -0.97054109248E+01  0.33645362235E+01  0.29992490659E+02  0.51100000000E-03 0.  1.
         12    1    3    3    0    0 -0.50550208968E+01  0.29718122266E+02 -0.34341844886E+01  0.30339967871E+02  0.00000000000E+00 0. -1.
</event>
<event>
 7    1  0.1749439E-013  0.7246155E+02  0.7816164E-02  0.1226708E+00
        -11   -1    0    0    0    0  0.00000000000E+00  0.00000000000E+00  0.45593999997E+02  0.45594000000E+02  0.51100000000E-03 0. -1.
         11   -1    0    0    0    0 -0.00000000000E+00 -0.00000000000E+00 -0.45593999997E+02  0.45594000000E+02  0.51100000000E-03 0.  1.
    9900012    2    1    2    0    0 -0.15002957551E+02 -0.76319109413E+01  0.82063993088E+01  0.72461553741E+02  0.69999978436E+02 0.  0.
        -12    1    1    2    0    0  0.15002957551E+02  0.76319109413E+01 -0.82063993088E+01  0.18726446259E+02  0.00000000000E+00 0.  1.
         11    1    3    3    0    0  0.55050910288E+01 -0.24275759174E+02  0.74546280998E+01  0.25984418236E+02  0.51100000000E-03 0. -1.
        -11    1    3    3    0    0 -0.18636154402E+02 -0.78221812298E+01 -0.58985737751E+01  0.21054356863E+02  0.51100000000E-03 0.  1.
        -12    1    3    3    0    0 -0.18718941779E+01  0.24466029462E+02  0.66503449841E+01  0.25422778642E+02  0.00000000000E+00 0.  1.
</event>
<event>
 7    1  0.1749439E-013  0.7246160E+02  0.7816164E-02  0.1226708E+00
        -11   -1    0    0    0    0  0.00000000000E+00  0.00000000000E+00  0.45593999997E+02  0.45594000000E+02  0.51100000000E-03 0.  1.
         11   -1    0    0    0    0 -0.00000000000E+00 -0.00000000000E+00 -0.45593999997E+02  0.45594000000E+02  0.51100000000E-03 0. -1.
    9900012    2    1    2    0    0  0.29421390877E+01  0.24473399179E+00 -0.18492214349E+02  0.72461599688E+02  0.70000038290E+02 0.  0.
        -12    1    1    2    0    0 -0.29421390877E+01 -0.24473399179E+00  0.18492214349E+02  0.18726400312E+02  0.00000000000E+00 0.  1.
         11    1    3    3    0    0  0.46562699333E+01 -0.69571446436E+00 -0.30104461852E+01  0.55881709712E+01  0.51100000000E-03 0. -1.
        -11    1    3    3    0    0  0.19785427617E+02 -0.23034244663E+02  0.16257503167E+01  0.30408594797E+02  0.51100000000E-03 0.  1.
        -12    1    3    3    0    0 -0.21499558462E+02  0.23974693119E+02 -0.17107518480E+02  0.36464833920E+02  0.00000000000E+00 0.  1.
</event>
<event>
 7    1  0.1749439E-013  0.7246162E+02  0.7816164E-02  0.1226708E+00
        -11   -1    0    0    0    0  0.00000000000E+00  0.00000000000E+00  0.45593999997E+02  0.45594000000E+02  0.51100000000E-03 0.  1.
         11   -1    0    0    0    0 -0.00000000000E+00 -0.00000000000E+00 -0.45593999997E+02  0.45594000000E+02  0.51100000000E-03 0. -1.
    9900012    2    1    2    0    0  0.13549516040E+02  0.14923448825E+01 -0.12839814593E+02  0.72461619759E+02  0.70000064437E+02 0.  0.
        -12    1    1    2    0    0 -0.13549516040E+02 -0.14923448825E+01  0.12839814593E+02  0.18726380241E+02  0.00000000000E+00 0.  1.
         11    1    3    3    0    0  0.82282716126E+01 -0.22826792237E+01 -0.25610499731E+02  0.26996532646E+02  0.51100000000E-03 0. -1.
        -11    1    3    3    0    0 -0.15217960257E+02  0.87626257477E-01 -0.69711133874E+01  0.16738889296E+02  0.51100000000E-03 0.  1.
         12    1    3    3    0    0  0.20539204684E+02  0.36873978487E+01  0.19741798526E+02  0.28726197817E+02  0.00000000000E+00 0. -1.
</event>
<event>
 7    1  0.1749439E-013  0.7246155E+02  0.7816164E-02  0.1226708E+00
        -11   -1    0    0    0    0  0.00000000000E+00  0.00000000000E+00  0.45593999997E+02  0.45594000000E+02  0.51100000000E-03 0. -1.
         11   -1    0    0    0    0 -0.00000000000E+00 -0.00000000000E+00 -0.45593999997E+02  0.45594000000E+02  0.51100000000E-03 0.  1.
    9900012    2    1    2    0    0 -0.14081834811E+02 -0.10365319702E+02  0.67038748809E+01  0.72461551790E+02  0.69999975894E+02 0.  0.
        -12    1    1    2    0    0  0.14081834811E+02  0.10365319702E+02 -0.67038748809E+01  0.18726448210E+02  0.00000000000E+00 0.  1.
         11    1    3    3    0    0 -0.57857182849E+01 -0.67153520562E+01  0.13076704943E+02  0.15797806865E+02  0.51100000000E-03 0. -1.
        -11    1    3    3    0    0 -0.17549858580E+02 -0.92086798989E+01 -0.26934595456E+02  0.33440540580E+02  0.51100000000E-03 0.  1.
         12    1    3    3    0    0  0.92537420541E+01  0.55587122530E+01  0.20561765394E+02  0.23223204345E+02  0.00000000000E+00 0. -1.
</event>
<event>
 7    1  0.1749439E-013  0.7246156E+02  0.7816164E-02  0.1226708E+00
        -11   -1    0    0    0    0  0.00000000000E+00  0.00000000000E+00  0.45593999997E+02  0.45594000000E+02  0.51100000000E-03 0. -1.
         11   -1    0    0    0    0 -0.00000000000E+00 -0.00000000000E+00 -0.45593999997E+02  0.45594000000E+02  0.51100000000E-03 0.  1.
    9900012    2    1    2    0    0 -0.98930653530E+01  0.74013476497E+01  0.14072208252E+02  0.72461555217E+02  0.69999980359E+02 0.  0.
        -12    1    1    2    0    0  0.98930653530E+01 -0.74013476497E+01 -0.14072208252E+02  0.18726444783E+02  0.00000000000E+00 0.  1.
         11    1    3    3    0    0 -0.12045892222E+02  0.22731035522E+02  0.19921179134E+02  0.32537007755E+02  0.51100000000E-03 0. -1.
        -11    1    3    3    0    0 -0.15287116115E+02 -0.15872697953E+02 -0.36678281752E+01  0.22340354142E+02  0.51100000000E-03 0.  1.
        -12    1    3    3    0    0  0.17439942984E+02  0.54301008105E+00 -0.21811427062E+01  0.17584193320E+02  0.00000000000E+00 0.  1.
</event>
<event>
 7    1  0.1749439E-013  0.7246166E+02  0.7816164E-02  0.1226708E+00
        -11   -1    0    0    0    0  0.00000000000E+00  0.00000000000E+00  0.45593999997E+02  0.45594000000E+02  0.51100000000E-03 0.  1.
         11   -1    0    0    0    0 -0.00000000000E+00 -0.00000000000E+00 -0.45593999997E+02  0.45594000000E+02  0.51100000000E-03 0. -1.
    9900012    2    1    2    0    0 -0.23751754890E+01  0.49979183126E+01 -0.17890087191E+02  0.72461658505E+02  0.70000114911E+02 0.  0.
        -12    1    1    2    0    0  0.23751754890E+01 -0.49979183126E+01  0.17890087191E+02  0.18726341495E+02  0.00000000000E+00 0.  1.
         11    1    3    3    0    0  0.33776845168E+01  0.61869358717E+01 -0.24136211089E+02  0.25144454939E+02  0.51100000000E-03 0. -1.
        -11    1    3    3    0    0  0.20373415239E+02 -0.41279577002E+00  0.57554759775E+01  0.21174795226E+02  0.51100000000E-03 0.  1.
        -12    1    3    3    0    0 -0.26126275245E+02 -0.77622178916E+00  0.49064792053E+00  0.26142408340E+02  0.00000000000E+00 0.  1.
</event>
<event>
 7    1  0.1749439E-013  0.7246153E+02  0.7816164E-02  0.1226708E+00
        -11   -1    0    0    0    0  0.00000000000E+00  0.00000000000E+00  0.45593999997E+02  0.45594000000E+02  0.51100000000E-03 0. -1.
         11   -1    0    0    0    0 -0.00000000000E+00 -0.00000000000E+00 -0.45593999997E+02  0.45594000000E+02  0.51100000000E-03 0.  1.
    9900012    2    1    2    0    0 -0.12887478885E+01 -0.13518471129E+02 -0.12894605393E+02  0.72461527267E+02  0.69999943949E+02 0.  0.
        -12    1    1    2    0    0  0.12887478885E+01  0.13518471129E+02  0.12894605393E+02  0.18726472733E+02  0.00000000000E+00 0.  1.
         11    1    3    3    0    0  0.75326902918E+01  0.11275170305E+02  0.36779848143E+01  0.14049856262E+02  0.51100000000E-03 0. -1.
        -11    1    3    3    0    0  0.12880995956E+02 -0.56623097416E+01 -0.24642136524E+02  0.28376340517E+02  0.51100000000E-03 0.  1.
         12    1    3    3    0    0 -0.21702434136E+02 -0.19131331692E+02  0.80695463165E+01  0.30035330488E+02  0.00000000000E+00 0. -1.
</event>
<event>
 7    1  0.1749439E-013  0.7246153E+02  0.7816164E-02  0.1226708E+00
        -11   -1    0    0    0    0  0.00000000000E+00  0.00000000000E+00  0.45593999997E+02  0.45594000000E+02  0.51100000000E-03 0.  1.
         11   -1    0    0    0    0 -0.00000000000E+00 -0.00000000000E+00 -0.45593999997E+02  0.45594000000E+02  0.51100000000E-03 0. -1.
    9900012    2    1    2    0    0 -0.10019680457E+02  0.12486328316E+02  0.97148394723E+01  0.72461534844E+02  0.69999953819E+02 0.  0.
        -12    1    1    2    0    0  0.10019680457E+02 -0.12486328316E+02 -0.97148394723E+01  0.18726465156E+02  0.00000000000E+00 0.  1.
         11    1    3    3    0    0 -0.11051443826E+01  0.42293993545E+01 -0.15841672602E+02  0.16433738287E+02  0.51100000000E-03 0. -1.
        -11    1    3    3    0    0 -0.10122162296E+02 -0.17361888401E+02  0.39801919545E+00  0.20101038728E+02  0.51100000000E-03 0.  1.
        -12    1    3    3    0    0  0.12076262223E+01  0.25618817363E+02  0.25158492879E+02  0.35926757829E+02  0.00000000000E+00 0.  1.
</event>
<event>
 7    1  0.1749439E-013  0.7246135E+02  0.7816164E-02  0.1226709E+00
        -11   -1    0    0    0    0  0.00000000000E+00  0.00000000000E+00  0.45593999997E+02  0.45594000000E+02  0.51100000000E-03 0. -1.
         11   -1    0    0    0    0 -0.00000000000E+00 -0.00000000000E+00 -0.45593999997E+02  0.45594000000E+02  0.51100000000E-03 0.  1.
    9900012    2    1    2    0    0  0.45252285312E+01  0.13164194549E+02  0.12526513825E+02  0.72461354278E+02  0.69999718598E+02 0.  0.
        -12    1    1    2    0    0 -0.45252285312E+01 -0.13164194549E+02 -0.12526513825E+02  0.18726645722E+02  0.00000000000E+00 0.  1.
         11    1    3    3    0    0  0.52156172221E+01  0.20896269074E+02 -0.37647714670E+01  0.21863902412E+02  0.51100000000E-03 0. -1.
        -11    1    3    3    0    0  0.11613467334E+02  0.12527972004E+02 -0.59537408651E+01  0.18090598017E+02  0.51100000000E-03 0.  1.
         12    1    3    3    0    0 -0.12303856025E+02 -0.20260046529E+02  0.22245026158E+02  0.32506853849E+02  0.00000000000E+00 0. -1.
</event>
<event>
 7    1  0.1749439E-013  0.7246153E+02  0.7816164E-02  0.1226708E+00
        -11   -1    0    0    0    0  0.00000000000E+00  0.00000000000E+00  0.45593999997E+02  0.45594000000E+02  0.51100000000E-03 0.  1.
         11   -1    0    0    0    0 -0.00000000000E+00 -0.00000000000E+00 -0.45593999997E+02  0.45594000000E+02  0.51100000000E-03 0. -1.
    9900012    2    1    2    0    0  0.95379419912E+01  0.69046118093E+01  0.14561407544E+02  0.72461532332E+02  0.69999950546E+02 0.  0.
        -12    1    1    2    0    0 -0.95379419912E+01 -0.69046118093E+01 -0.14561407544E+02  0.18726467668E+02  0.00000000000E+00 0.  1.
         11    1    3    3    0    0  0.36065201021E+01 -0.24881607675E+02  0.12572828637E+02  0.28110094413E+02  0.51100000000E-03 0. -1.
        -11    1    3    3    0    0  0.12526486655E+02  0.21142483173E+02  0.12889423284E+02  0.27749859378E+02  0.51100000000E-03 0.  1.
        -12    1    3    3    0    0 -0.65950647657E+01  0.10643736311E+02 -0.10900844377E+02  0.16601578541E+02  0.00000000000E+00 0.  1.
</event>
<event>
 7    1  0.1749439E-013  0.7246160E+02  0.7816164E-02  0.1226708E+00
        -11   -1    0    0    0    0  0.00000000000E+00  0.00000000000E+00  0.45593999997E+02  0.45594000000E+02  0.51100000000E-03 0. -1.
         11   -1    0    0    0    0 -0.00000000000E+00 -0.00000000000E+00 -0.45593999997E+02  0.45594000000E+02  0.51100000000E-03 0.  1.
    9900012    2    1    2    0    0 -0.14311967843E+02  0.61562657119E+01  0.10389709952E+02  0.72461598746E+02  0.70000037064E+02 0.  0.
        -12    1    1    2    0    0  0.14311967843E+02 -0.61562657119E+01 -0.10389709952E+02  0.18726401254E+02  0.00000000000E+00 0.  1.
         11    1    3    3    0    0 -0.24800205450E+02  0.20635587113E+02 -0.63869766102E+01  0.32888768848E+02  0.51100000000E-03 0. -1.
        -11    1    3    3    0    0 -0.90232771626E+01 -0.13380699435E+02  0.94507207778E+01  0.18702373422E+02  0.51100000000E-03 0.  1.
        -12    1    3    3    0    0  0.19511514770E+02 -0.10986219661E+01  0.73259657841E+01  0.20870456476E+02  0.00000000000E+00 0.  1.
</event>
<event>
 7    1  0.1749439E-013  0.7246167E+02  0.7816164E-02  0.1226708E+00
        -11   -1    0    0    0    0  0.00000000000E+00  0.00000000000E+00  0.45593999997E+02  0.45594000000E+02  0.51100000000E-03 0. -1.
         11   -1    0    0    0    0 -0.00000000000E+00 -0.00000000000E+00 -0.45593999997E+02  0.45594000000E+02  0.51100000000E-03 0.  1.
    9900012    2    1    2    0    0 -0.53006393026E+01  0.70885089700E+01  0.16502475254E+02  0.72461670249E+02  0.70000130209E+02 0.  0.
        -12    1    1    2    0    0  0.53006393026E+01 -0.70885089700E+01 -0.16502475254E+02  0.18726329751E+02  0.00000000000E+00 0.  1.
         11    1    3    3    0    0 -0.11329833774E+02  0.41063141145E+01  0.21623210741E+02  0.24754599410E+02  0.51100000000E-03 0. -1.
        -11    1    3    3    0    0 -0.15971514205E+02 -0.12501165053E+02 -0.46090120829E+01  0.20799312160E+02  0.51100000000E-03 0.  1.
        -12    1    3    3    0    0  0.22000708676E+02  0.15483359908E+02 -0.51172340381E+00  0.26907758679E+02  0.00000000000E+00 0.  1.
</event>
<event>
 7    1  0.1749439E-013  0.7246158E+02  0.7816164E-02  0.1226708E+00
        -11   -1    0    0    0    0  0.00000000000E+00  0.00000000000E+00  0.45593999997E+02  0.45594000000E+02  0.51100000000E-03 0.  1.
         11   -1    0    0    0    0 -0.00000000000E+00 -0.00000000000E+00 -0.45593999997E+02  0.45594000000E+02  0.51100000000E-03 0. -1.
    9900012    2    1    2    0    0 -0.12184724226E+02 -0.59009696492E+01 -0.12937916431E+02  0.72461584730E+02  0.70000018806E+02 0.  0.
        -12    1    1    2    0    0  0.12184724226E+02  0.59009696492E+01  0.12937916431E+02  0.18726415270E+02  0.00000000000E+00 0.  1.
         11    1    3    3    0    0 -0.19822731032E+02 -0.32981288721E+01 -0.21590717638E+02  0.29495379435E+02  0.51100000000E-03 0. -1.
        -11    1    3    3    0    0 -0.12791895468E+01  0.31155574827E+01 -0.15885699086E+02  0.16238794907E+02  0.51100000000E-03 0.  1.
        -12    1    3    3    0    0  0.89171963532E+01 -0.57183982599E+01  0.24538500293E+02  0.26727410388E+02  0.00000000000E+00 0.  1.
</event>
<event>
 7    1  0.1749439E-013  0.7246156E+02  0.7816164E-02  0.1226708E+00
        -11   -1    0    0    0    0  0.00000000000E+00  0.00000000000E+00  0.45593999997E+02  0.45594000000E+02  0.51100000000E-03 0.  1.
         11   -1    0    0    0    0 -0.00000000000E+00 -0.00000000000E+00 -0.45593999997E+02  0.45594000000E+02  0.51100000000E-03 0. -1.
    9900012    2    1    2    0    0 -0.65321275273E+01 -0.81083286104E+01 -0.15564888213E+02  0.72461563393E+02  0.69999991010E+02 0.  0.
        -12    1    1    2    0    0  0.65321275273E+01  0.81083286104E+01  0.15564888213E+02  0.18726436607E+02  0.00000000000E+00 0.  1.
         11    1    3    3    0    0  0.27516645181E+02 -0.65697622260E+01 -0.14310240208E+02  0.31703477929E+02  0.51100000000E-03 0. -1.
        -11    1    3    3    0    0  0.26009932915E+00 -0.56418726022E+01 -0.25132095501E+01  0.61817959061E+01  0.51100000000E-03 0.  1.
        -12    1    3    3    0    0 -0.34308872038E+02  0.41033062179E+01  0.12585615450E+01  0.34576289558E+02  0.00000000000E+00 0.  1.
</event>
<event>
 7    1  0.1749439E-013  0.7246159E+02  0.7816164E-02  0.1226708E+00
        -11   -1    0    0    0    0  0.00000000000E+00  0.00000000000E+00  0.45593999997E+02  0.45594000000E+02  0.51100000000E-03 0. -1.
         11   -1    0    0    0    0 -0.00000000000E+00 -0.00000000000E+00 -0.45593999997E+02  0.45594000000E+02  0.51100000000E-03 0.  1.
    9900012    2    1    2    0    0  0.16002789465E+02  0.32570411856E+00 -0.97202398259E+01  0.72461590411E+02  0.70000026206E+02 0.  0.
        -12    1    1    2    0    0 -0.16002789465E+02 -0.32570411856E+00  0.97202398259E+01  0.18726409589E+02  0.00000000000E+00 0.  1.
         11    1    3    3    0    0  0.18462317586E+02 -0.70978227441E+01  0.12279761186E+02  0.23281511837E+02  0.51100000000E-03 0. -1.
        -11    1    3    3    0    0 -0.69254729186E+01  0.95751151109E+00  0.12214977608E+02  0.14074255989E+02  0.51100000000E-03 0.  1.
        -12    1    3    3    0    0  0.44659447968E+01  0.64660153516E+01 -0.34214978619E+02  0.35105822585E+02  0.00000000000E+00 0.  1.
</event>
<event>
 7    1  0.1749439E-013  0.7246159E+02  0.7816164E-02  0.1226708E+00
        -11   -1    0    0    0    0  0.00000000000E+00  0.00000000000E+00  0.45593999997E+02  0.45594000000E+02  0.51100000000E-03 0.  1.
         11   -1    0    0    0    0 -0.00000000000E+00 -0.00000000000E+00 -0.45593999997E+02  0.45594000000E+02  0.51100000000E-03 0. -1.
    9900012    2    1    2    0    0 -0.10042520016E+02 -0.46594022381E+01 -0.15103517420E+02  0.72461588813E+02  0.70000024124E+02 0.  0.
        -12    1    1    2    0    0  0.10042520016E+02  0.46594022381E+01  0.15103517420E+02  0.18726411187E+02  0.00000000000E+00 0.  1.
         11    1    3    3    0    0 -0.10544619217E+01 -0.31562298224E+02 -0.17296032125E+02  0.36006156233E+02  0.51100000000E-03 0. -1.
        -11    1    3    3    0    0 -0.40889438119E+01 -0.32296331219E+01  0.28120610927E+01  0.59209525795E+01  0.51100000000E-03 0.  1.
        -12    1    3    3    0    0 -0.48991142822E+01  0.30132529108E+02 -0.61954638826E+00  0.30534480001E+02  0.00000000000E+00 0.  1.
</event>
<event>
 7    1  0.1749439E-013  0.7246158E+02  0.7816164E-02  0.1226708E+00
        -11   -1    0    0    0    0  0.00000000000E+00  0.00000000000E+00  0.45593999997E+02  0.45594000000E+02  0.51100000000E-03 0.  1.
         11   -1    0    0    0    0 -0.00000000000E+00 -0.00000000000E+00 -0.45593999997E+02  0.45594000000E+02  0.51100000000E-03 0. -1.
    9900012    2    1    2    0    0  0.14593946276E+02  0.78279328906E+01 -0.87417931798E+01  0.72461581516E+02  0.70000014618E+02 0.  0.
        -12    1    1    2    0    0 -0.14593946276E+02 -0.78279328906E+01  0.87417931798E+01  0.18726418484E+02  0.00000000000E+00 0.  1.
         11    1    3    3    0    0 -0.61856347066E+01  0.86995667435E+01  0.28911720282E+01  0.11059087404E+02  0.51100000000E-03 0. -1.
        -11    1    3    3    0    0  0.67780668593E+01  0.23802805233E+02 -0.20004510789E+02  0.31822887668E+02  0.51100000000E-03 0.  1.
         12    1    3    3    0    0  0.14001514124E+02 -0.24674439086E+02  0.83715455812E+01  0.29579606444E+02  0.00000000000E+00 0. -1.
</event>
<event>
 7    1  0.1749439E-013  0.7246182E+02  0.7816164E-02  0.1226707E+00
        -11   -1    0    0    0    0  0.00000000000E+00  0.00000000000E+00  0.45593999997E+02  0.45594000000E+02  0.51100000000E-03 0.  1.
         11   -1    0    0    0    0 -0.00000000000E+00 -0.00000000000E+00 -0.45593999997E+02  0.45594000000E+02  0.51100000000E-03 0. -1.
    9900012    2    1    2    0    0 -0.16006010788E+02  0.11612006766E+01 -0.96503466781E+01  0.72461816210E+02  0.70000320350E+02 0.  0.
        -12    1    1    2    0    0  0.16006010788E+02 -0.11612006766E+01  0.96503466781E+01  0.18726183790E+02  0.00000000000E+00 0.  1.
         11    1    3    3    0    0 -0.25163847304E+01 -0.18550564419E+02 -0.20488061920E+02  0.27752771283E+02  0.51100000000E-03 0. -1.
        -11    1    3    3    0    0 -0.29060605250E+01 -0.86489273956E+01  0.11186884466E+02  0.14435910681E+02  0.51100000000E-03 0.  1.
         12    1    3    3    0    0 -0.10583565532E+02  0.28360692491E+02 -0.34916922412E+00  0.30273134246E+02  0.00000000000E+00 0. -1.
</event>
<event>
 7    1  0.1749439E-013  0.7246159E+02  0.7816164E-02  0.1226708E+00
        -11   -1    0    0    0    0  0.00000000000E+00  0.00000000000E+00  0.45593999997E+02  0.45594000000E+02  0.51100000000E-03 0.  1.
         11   -1    0    0    0    0 -0.00000000000E+00 -0.00000000000E+00 -0.45593999997E+02  0.45594000000E+02  0.51100000000E-03 0. -1.
    9900012    2    1    2    0    0 -0.10545279798E+02  0.46891920116E+01 -0.14747438752E+02  0.72461590908E+02  0.70000026854E+02 0.  0.
        -12    1    1    2    0    0  0.10545279798E+02 -0.46891920116E+01  0.14747438752E+02  0.18726409092E+02  0.00000000000E+00 0.  1.
         11    1    3    3    0    0 -0.12580846466E+01  0.13905029121E+02  0.47314922188E+01  0.14741764844E+02  0.51100000000E-03 0. -1.
        -11    1    3    3    0    0 -0.17177970228E+02  0.18206691341E+02 -0.13942746692E+02  0.28652512216E+02  0.51100000000E-03 0.  1.
        -12    1    3    3    0    0  0.78907750766E+01 -0.27422528451E+02 -0.55361842787E+01  0.29067313848E+02  0.00000000000E+00 0.  1.
</event>
<event>
 7    1  0.1749439E-013  0.7246158E+02  0.7816164E-02  0.1226708E+00
        -11   -1    0    0    0    0  0.00000000000E+00  0.00000000000E+00  0.45593999997E+02  0.45594000000E+02  0.51100000000E-03 0. -1.
         11   -1    0    0    0    0 -0.00000000000E+00 -0.00000000000E+00 -0.45593999997E+02  0.45594000000E+02  0.51100000000E-03 0.  1.
    9900012    2    1    2    0    0 -0.41199961961E+01  0.93661143543E+00  0.18243556346E+02  0.72461575947E+02  0.70000007364E+02 0.  0.
        -12    1    1    2    0    0  0.41199961961E+01 -0.93661143543E+00 -0.18243556346E+02  0.18726424053E+02  0.00000000000E+00 0.  1.
         11    1    3    3    0    0 -0.11576589294E+01  0.68815428221E+01  0.13366410890E+02  0.15078353562E+02  0.51100000000E-03 0. -1.
        -11    1    3    3    0    0 -0.29083913894E+02 -0.98150005482E+01  0.11713237447E+01  0.30717751915E+02  0.51100000000E-03 0.  1.
         12    1    3    3    0    0  0.26121576627E+02  0.38700691616E+01  0.37058217118E+01  0.26665470470E+02  0.00000000000E+00 0. -1.
</event>
<event>
 7    1  0.1749439E-013  0.7246147E+02  0.7816164E-02  0.1226708E+00
        -11   -1    0    0    0    0  0.00000000000E+00  0.00000000000E+00  0.45593999997E+02  0.45594000000E+02  0.51100000000E-03 0.  1.
         11   -1    0    0    0    0 -0.00000000000E+00 -0.00000000000E+00 -0.45593999997E+02  0.45594000000E+02  0.51100000000E-03 0. -1.
    9900012    2    1    2    0    0 -0.15191291703E+02  0.86639016547E+01 -0.66965845627E+01  0.72461473886E+02  0.69999874410E+02 0.  0.
        -12    1    1    2    0    0  0.15191291703E+02 -0.86639016547E+01  0.66965845627E+01  0.18726526114E+02  0.00000000000E+00 0.  1.
         11    1    3    3    0    0  0.13961257886E+02  0.28590187038E+02  0.45972288250E+00  0.31820227246E+02  0.51100000000E-03 0. -1.
        -11    1    3    3    0    0 -0.24760681807E+00  0.20110915746E+01 -0.36635432743E+01  0.41865675728E+01  0.51100000000E-03 0.  1.
         12    1    3    3    0    0 -0.28904942771E+02 -0.21937376957E+02 -0.34927641709E+01  0.36454679067E+02  0.00000000000E+00 0. -1.
</event>
<event>
 7    1  0.1749439E-013  0.7246163E+02  0.7816164E-02  0.1226708E+00
        -11   -1    0    0    0    0  0.00000000000E+00  0.00000000000E+00  0.45593999997E+02  0.45594000000E+02  0.51100000000E-03 0.  1.
         11   -1    0    0    0    0 -0.00000000000E+00 -0.00000000000E+00 -0.45593999997E+02  0.45594000000E+02  0.51100000000E-03 0. -1.
    9900012    2    1    2    0    0 -0.11324059430E+02  0.14666442349E+02  0.27089211855E+01  0.72461625360E+02  0.70000071734E+02 0.  0.
        -12    1    1    2    0    0  0.11324059430E+02 -0.14666442349E+02 -0.27089211855E+01  0.18726374640E+02  0.00000000000E+00 0.  1.
         11    1    3    3    0    0 -0.17358995687E+02 -0.84585624358E+01 -0.19127944775E+01  0.19404659047E+02  0.51100000000E-03 0. -1.
        -11    1    3    3    0    0  0.23081021584E+02  0.68748043368E+00  0.85147142032E+01  0.24611106129E+02  0.51100000000E-03 0.  1.
        -12    1    3    3    0    0 -0.17046085326E+02  0.22437524351E+02 -0.38929985402E+01  0.28445860184E+02  0.00000000000E+00 0.  1.
</event>
<event>
 7    1  0.1749439E-013  0.7246156E+02  0.7816164E-02  0.1226708E+00
        -11   -1    0    0    0    0  0.00000000000E+00  0.00000000000E+00  0.45593999997E+02  0.45594000000E+02  0.51100000000E-03 0.  1.
         11   -1    0    0    0    0 -0.00000000000E+00 -0.00000000000E+00 -0.45593999997E+02  0.45594000000E+02  0.51100000000E-03 0. -1.
    9900012    2    1    2    0    0  0.97929968260E+00  0.76240873326E+01 -0.17076121541E+02  0.72461557134E+02  0.69999982856E+02 0.  0.
        -12    1    1    2    0    0 -0.97929968260E+00 -0.76240873326E+01  0.17076121541E+02  0.18726442866E+02  0.00000000000E+00 0.  1.
         11    1    3    3    0    0  0.67280672827E+01  0.32401646342E+01 -0.26430105434E+02  0.27464814395E+02  0.51100000000E-03 0. -1.
        -11    1    3    3    0    0  0.27878968670E+01  0.21280479512E+02  0.13845311198E+02  0.25540630760E+02  0.51100000000E-03 0.  1.
         12    1    3    3    0    0 -0.85366644671E+01 -0.16896556814E+02 -0.44913273049E+01  0.19456111979E+02  0.00000000000E+00 0. -1.
</event>
<event>
 7    1  0.1749439E-013  0.7246157E+02  0.7816164E-02  0.1226708E+00
        -11   -1    0    0    0    0  0.00000000000E+00  0.00000000000E+00  0.45593999997E+02  0.45594000000E+02  0.51100000000E-03 0. -1.
         11   -1    0    0    0    0 -0.00000000000E+00 -0.00000000000E+00 -0.45593999997E+02  0.45594000000E+02  0.51100000000E-03 0.  1.
    9900012    2    1    2    0    0 -0.30050047918E+01  0.18334667079E+02  0.23429219814E+01  0.72461565366E+02  0.69999993580E+02 0.  0.
        -12    1    1    2    0    0  0.30050047918E+01 -0.18334667079E+02 -0.23429219814E+01  0.18726434634E+02  0.00000000000E+00 0.  1.
         11    1    3    3    0    0 -0.13486540349E+02  0.25295226773E+02  0.19632878759E+02  0.34744570752E+02  0.51100000000E-03 0. -1.
        -11    1    3    3    0    0  0.16036539696E+02  0.73703170187E+01 -0.59813307563E+01  0.18635141434E+02  0.51100000000E-03 0.  1.
        -12    1    3    3    0    0 -0.55550041382E+01 -0.14330876713E+02 -0.11308626021E+02  0.19081853181E+02  0.00000000000E+00 0.  1.
</event>
<event>
 7    1  0.1749439E-013  0.7246158E+02  0.7816164E-02  0.1226708E+00
        -11   -1    0    0    0    0  0.00000000000E+00  0.00000000000E+00  0.45593999997E+02  0.45594000000E+02  0.51100000000E-03 0.  1.
         11   -1    0    0    0    0 -0.00000000000E+00 -0.00000000000E+00 -0.45593999997E+02  0.45594000000E+02  0.51100000000E-03 0. -1.
    9900012    2    1    2    0    0 -0.13999216529E+02 -0.97470341930E+01 -0.77263205874E+01  0.72461580994E+02  0.70000013938E+02 0.  0.
        -12    1    1    2    0    0  0.13999216529E+02  0.97470341930E+01  0.77263205874E+01  0.18726419006E+02  0.00000000000E+00 0.  1.
         11    1    3    3    0    0 -0.48979049629E+01  0.42170373460E+01 -0.25882643204E+02  0.26677407980E+02  0.51100000000E-03 0. -1.
        -11    1    3    3    0    0 -0.11672205059E+02  0.10999738139E+02  0.25728395688E+01  0.16243586851E+02  0.51100000000E-03 0.  1.
        -12    1    3    3    0    0  0.25708934936E+01 -0.24963809678E+02  0.15583483048E+02  0.29540586164E+02  0.00000000000E+00 0.  1.
</event>
<event>
 7    1  0.1749439E-013  0.7246160E+02  0.7816164E-02  0.1226708E+00
        -11   -1    0    0    0    0  0.00000000000E+00  0.00000000000E+00  0.45593999997E+02  0.45594000000E+02  0.51100000000E-03 0. -1.
         11   -1    0    0    0    0 -0.00000000000E+00 -0.00000000000E+00 -0.45593999997E+02  0.45594000000E+02  0.51100000000E-03 0.  1.
    9900012    2    1    2    0    0 -0.65987605717E+01  0.73025649571E+01  0.15931315781E+02  0.72461603696E+02  0.70000043512E+02 0.  0.
        -12    1    1    2    0    0  0.65987605717E+01 -0.73025649571E+01 -0.15931315781E+02  0.18726396304E+02  0.00000000000E+00 0.  1.
         11    1    3    3    0    0  0.79513818106E+01  0.25675856951E+02  0.86265680637E+01  0.28229271681E+02  0.51100000000E-03 0. -1.
        -11    1    3    3    0    0  0.56655787285E+01 -0.13256751788E+01  0.15492847237E+02  0.16549456571E+02  0.51100000000E-03 0.  1.
        -12    1    3    3    0    0 -0.20215721111E+02 -0.17047616815E+02 -0.81880995201E+01  0.27682875444E+02  0.00000000000E+00 0.  1.
</event>
<event>
 7    1  0.1749439E-013  0.7246140E+02  0.7816164E-02  0.1226708E+00
        -11   -1    0    0    0    0  0.00000000000E+00  0.00000000000E+00  0.45593999997E+02  0.45594000000E+02  0.51100000000E-03 0.  1.
         11   -1    0    0    0    0 -0.00000000000E+00 -0.00000000000E+00 -0.45593999997E+02  0.45594000000E+02  0.51100000000E-03 0. -1.
    9900012    2    1    2    0    0  0.13446222571E+02  0.72842540184E+01 -0.10808525574E+02  0.72461401720E+02  0.69999780400E+02 0.  0.
        -12    1    1    2    0    0 -0.13446222571E+02 -0.72842540184E+01  0.10808525574E+02  0.18726598280E+02  0.00000000000E+00 0.  1.
         11    1    3    3    0    0  0.59485948599E+01  0.11045827308E+02 -0.22170566391E+02  0.25474106385E+02  0.51100000000E-03 0. -1.
        -11    1    3    3    0    0  0.92766984977E+01  0.17764652893E+02  0.15066016814E+02  0.25072392992E+02  0.51100000000E-03 0.  1.
         12    1    3    3    0    0 -0.17790707863E+01 -0.21526226183E+02 -0.37039759973E+01  0.21914902343E+02  0.00000000000E+00 0. -1.
</event>
<event>
 7    1  0.1749439E-013  0.7246156E+02  0.7816164E-02  0.1226708E+00
        -11   -1    0    0    0    0  0.00000000000E+00  0.00000000000E+00  0.45593999997E+02  0.45594000000E+02  0.51100000000E-03 0.  1.
         11   -1    0    0    0    0 -0.00000000000E+00 -0.00000000000E+00 -0.45593999997E+02  0.45594000000E+02  0.51100000000E-03 0. -1.
    9900012    2    1    2    0    0  0.29609675334E+01  0.15390540305E+02 -0.10249076023E+02  0.72461558294E+02  0.69999984368E+02 0.  0.
        -12    1    1    2    0    0 -0.29609675334E+01 -0.15390540305E+02  0.10249076023E+02  0.18726441706E+02  0.00000000000E+00 0.  1.
         11    1    3    3    0    0 -0.76202726284E+01 -0.32820635525E+01 -0.32600883019E+01  0.89145202950E+01  0.51100000000E-03 0. -1.
        -11    1    3    3    0    0  0.55462249763E+01 -0.18832744132E+02 -0.15194879059E+02  0.24825736906E+02  0.51100000000E-03 0.  1.
         12    1    3    3    0    0  0.50350151854E+01  0.37505347990E+02  0.82058913380E+01  0.38721301094E+02  0.00000000000E+00 0. -1.
</event>
<event>
 7    1  0.1749439E-013  0.7246157E+02  0.7816164E-02  0.1226708E+00
        -11   -1    0    0    0    0  0.00000000000E+00  0.00000000000E+00  0.45593999997E+02  0.45594000000E+02  0.51100000000E-03 0. -1.
         11   -1    0    0    0    0 -0.00000000000E+00 -0.00000000000E+00 -0.45593999997E+02  0.45594000000E+02  0.51100000000E-03 0.  1.
    9900012    2    1    2    0    0 -0.90380289267E+00  0.14563440978E+01  0.18647826387E+02  0.72461568766E+02  0.69999998009E+02 0.  0.
        -12    1    1    2    0    0  0.90380289267E+00 -0.14563440978E+01 -0.18647826387E+02  0.18726431234E+02  0.00000000000E+00 0.  1.
         11    1    3    3    0    0  0.11658567684E+02 -0.11489037948E+02  0.40650686703E+01  0.16865496642E+02  0.51100000000E-03 0. -1.
        -11    1    3    3    0    0  0.10748840556E+02 -0.62603638027E+01  0.21288997580E+02  0.24656665356E+02  0.51100000000E-03 0.  1.
        -12    1    3    3    0    0 -0.23311211133E+02  0.19205745848E+02 -0.67062398638E+01  0.30939406769E+02  0.00000000000E+00 0.  1.
</event>
<event>
 7    1  0.1749439E-013  0.7246150E+02  0.7816164E-02  0.1226708E+00
        -11   -1    0    0    0    0  0.00000000000E+00  0.00000000000E+00  0.45593999997E+02  0.45594000000E+02  0.51100000000E-03 0. -1.
         11   -1    0    0    0    0 -0.00000000000E+00 -0.00000000000E+00 -0.45593999997E+02  0.45594000000E+02  0.51100000000E-03 0.  1.
    9900012    2    1    2    0    0 -0.11961755997E+02 -0.16698431167E+01  0.14311174378E+02  0.72461502873E+02  0.69999912171E+02 0.  0.
        -12    1    1    2    0    0  0.11961755997E+02  0.16698431167E+01 -0.14311174378E+02  0.18726497127E+02  0.00000000000E+00 0.  1.
         11    1    3    3    0    0 -0.14020376765E+02  0.83094920449E+01  0.13167729317E+02  0.20952511026E+02  0.51100000000E-03 0. -1.
        -11    1    3    3    0    0  0.13786915713E+02  0.11194868071E+02  0.15322899029E+02  0.23456243324E+02  0.51100000000E-03 0.  1.
         12    1    3    3    0    0 -0.11728294945E+02 -0.21174203232E+02 -0.14179453968E+02  0.28052748522E+02  0.00000000000E+00 0. -1.
</event>
<event>
 7    1  0.1749439E-013  0.7246160E+02  0.7816164E-02  0.1226708E+00
        -11   -1    0    0    0    0  0.00000000000E+00  0.00000000000E+00  0.45593999997E+02  0.45594000000E+02  0.51100000000E-03 0. -1.
         11   -1    0    0    0    0 -0.00000000000E+00 -0.00000000000E+00 -0.45593999997E+02  0.45594000000E+02  0.51100000000E-03 0.  1.
    9900012    2    1    2    0    0  0.16953320343E+02 -0.46438096003E+01  0.64574016174E+01  0.72461599547E+02  0.70000038108E+02 0.  0.
        -12    1    1    2    0    0 -0.16953320343E+02  0.46438096003E+01 -0.64574016174E+01  0.18726400453E+02  0.00000000000E+00 0.  1.
         11    1    3    3    0    0 -0.33451606472E+01 -0.54870628053E+00  0.71425167265E+01  0.79061193886E+01  0.51100000000E-03 0. -1.
        -11    1    3    3    0    0 -0.13017805065E+02 -0.20868131645E+02 -0.92622554157E+01  0.26281772061E+02  0.51100000000E-03 0.  1.
         12    1    3    3    0    0  0.33316286055E+02  0.16773028325E+02  0.85771403066E+01  0.38273708097E+02  0.00000000000E+00 0. -1.
</event>
<event>
 7    1  0.1749439E-013  0.7246150E+02  0.7816164E-02  0.1226708E+00
        -11   -1    0    0    0    0  0.00000000000E+00  0.00000000000E+00  0.45593999997E+02  0.45594000000E+02  0.51100000000E-03 0. -1.
         11   -1    0    0    0    0 -0.00000000000E+00 -0.00000000000E+00 -0.45593999997E+02  0.45594000000E+02  0.51100000000E-03 0.  1.
    9900012    2    1    2    0    0 -0.28613123809E+01  0.53649115846E+00  0.18498834216E+02  0.72461500096E+02  0.69999908554E+02 0.  0.
        -12    1    1    2    0    0  0.28613123809E+01 -0.53649115846E+00 -0.18498834216E+02  0.18726499904E+02  0.00000000000E+00 0.  1.
         11    1    3    3    0    0 -0.95009191225E+01 -0.97113487756E+01 -0.40397087355E+01  0.14173814100E+02  0.51100000000E-03 0. -1.
        -11    1    3    3    0    0 -0.13077092450E+02  0.20590461259E+02 -0.28053731888E+01  0.24552954217E+02  0.51100000000E-03 0.  1.
         12    1    3    3    0    0  0.19716699192E+02 -0.10342621325E+02  0.25343916140E+02  0.33734731779E+02  0.00000000000E+00 0. -1.
</event>
<event>
 7    1  0.1749439E-013  0.7246155E+02  0.7816164E-02  0.1226708E+00
        -11   -1    0    0    0    0  0.00000000000E+00  0.00000000000E+00  0.45593999997E+02  0.45594000000E+02  0.51100000000E-03 0. -1.
         11   -1    0    0    0    0 -0.00000000000E+00 -0.00000000000E+00 -0.45593999997E+02  0.45594000000E+02  0.51100000000E-03 0.  1.
    9900012    2    1    2    0    0  0.16474898321E+02  0.56509717828E+01  0.68792516826E+01  0.72461551845E+02  0.69999975966E+02 0.  0.
        -12    1    1    2    0    0 -0.16474898321E+02 -0.56509717828E+01 -0.68792516826E+01  0.18726448155E+02  0.00000000000E+00 0.  1.
         11    1    3    3    0    0  0.36023979711E+01 -0.46809636046E+01  0.14103909356E+02  0.15290812627E+02  0.51100000000E-03 0. -1.
        -11    1    3    3    0    0  0.29529189153E+02  0.17321617827E+02  0.60352594379E+01  0.34762563382E+02  0.51100000000E-03 0.  1.
        -12    1    3    3    0    0 -0.16656688803E+02 -0.69896824392E+01 -0.13259917111E+02  0.22408175836E+02  0.00000000000E+00 0.  1.
</event>
<event>
 7    1  0.1749439E-013  0.7246158E+02  0.7816164E-02  0.1226708E+00
        -11   -1    0    0    0    0  0.00000000000E+00  0.00000000000E+00  0.45593999997E+02  0.45594000000E+02  0.51100000000E-03 0.  1.
         11   -1    0    0    0    0 -0.00000000000E+00 -0.00000000000E+00 -0.45593999997E+02  0.45594000000E+02  0.51100000000E-03 0. -1.
    9900012    2    1    2    0    0  0.13145344184E+02 -0.12287010070E+02 -0.51873175370E+01  0.72461576065E+02  0.70000007517E+02 0.  0.
        -12    1    1    2    0    0 -0.13145344184E+02  0.12287010070E+02  0.51873175370E+01  0.18726423935E+02  0.00000000000E+00 0.  1.
         11    1    3    3    0    0  0.19454365363E+02  0.70656431218E+01  0.57886755597E+01  0.21491961506E+02  0.51100000000E-03 0.  1.
        -11    1    3    3    0    0  0.17941420801E+02 -0.16481852929E+02 -0.10542466242E+02  0.26545991243E+02  0.51100000000E-03 0. -1.
        -12    1    3    3    0    0 -0.24250441979E+02 -0.28708002623E+01 -0.43352685464E+00  0.24423623316E+02  0.00000000000E+00 0.  1.
</event>
<event>
 7    1  0.1749439E-013  0.7246158E+02  0.7816164E-02  0.1226708E+00
        -11   -1    0    0    0    0  0.00000000000E+00  0.00000000000E+00  0.45593999997E+02  0.45594000000E+02  0.51100000000E-03 0. -1.
         11   -1    0    0    0    0 -0.00000000000E+00 -0.00000000000E+00 -0.45593999997E+02  0.45594000000E+02  0.51100000000E-03 0.  1.
    9900012    2    1    2    0    0  0.18647745266E+02  0.12611211024E+00  0.17101307985E+01  0.72461578689E+02  0.70000010935E+02 0.  0.
        -12    1    1    2    0    0 -0.18647745266E+02 -0.12611211024E+00 -0.17101307985E+01  0.18726421311E+02  0.00000000000E+00 0.  1.
         11    1    3    3    0    0 -0.12859480150E+02 -0.11969659614E+02 -0.61272176984E+01  0.18605960818E+02  0.51100000000E-03 0. -1.
        -11    1    3    3    0    0  0.16016450743E+02 -0.58653006262E+01 -0.13654103774E+02  0.21848638309E+02  0.51100000000E-03 0.  1.
        -12    1    3    3    0    0  0.15490774673E+02  0.17961072350E+02  0.21491452271E+02  0.32006979561E+02  0.00000000000E+00 0.  1.
</event>
<event>
 7    1  0.1749439E-013  0.7246156E+02  0.7816164E-02  0.1226708E+00
        -11   -1    0    0    0    0  0.00000000000E+00  0.00000000000E+00  0.45593999997E+02  0.45594000000E+02  0.51100000000E-03 0.  1.
         11   -1    0    0    0    0 -0.00000000000E+00 -0.00000000000E+00 -0.45593999997E+02  0.45594000000E+02  0.51100000000E-03 0. -1.
    9900012    2    1    2    0    0 -0.98996189590E+01  0.43840162778E+01 -0.15279316484E+02  0.72461559696E+02  0.69999986193E+02 0.  0.
        -12    1    1    2    0    0  0.98996189590E+01 -0.43840162778E+01  0.15279316484E+02  0.18726440304E+02  0.00000000000E+00 0.  1.
         11    1    3    3    0    0 -0.88066151741E+01  0.10443976317E+02 -0.37306486656E+02  0.39729171386E+02  0.51100000000E-03 0. -1.
        -11    1    3    3    0    0 -0.83484420102E+00  0.83468228765E+01  0.30963787506E+01  0.89416988654E+01  0.51100000000E-03 0.  1.
        -12    1    3    3    0    0 -0.25815958389E+00 -0.14406782916E+02  0.18930791422E+02  0.23790689444E+02  0.00000000000E+00 0.  1.
</event>
<event>
 7    1  0.1749439E-013  0.7246158E+02  0.7816164E-02  0.1226708E+00
        -11   -1    0    0    0    0  0.00000000000E+00  0.00000000000E+00  0.45593999997E+02  0.45594000000E+02  0.51100000000E-03 0. -1.
         11   -1    0    0    0    0 -0.00000000000E+00 -0.00000000000E+00 -0.45593999997E+02  0.45594000000E+02  0.51100000000E-03 0.  1.
    9900012    2    1    2    0    0 -0.11785940546E+02 -0.13514015619E+02  0.53983153580E+01  0.72461579589E+02  0.70000012108E+02 0.  0.
        -12    1    1    2    0    0  0.11785940546E+02  0.13514015619E+02 -0.53983153580E+01  0.18726420411E+02  0.00000000000E+00 0.  1.
         11    1    3    3    0    0  0.77440354941E+01 -0.13355993177E+02  0.17574421370E+02  0.23392582718E+02  0.51100000000E-03 0. -1.
        -11    1    3    3    0    0  0.11090823094E+02 -0.61524999807E+01  0.47841708459E+01  0.13555364394E+02  0.51100000000E-03 0.  1.
        -12    1    3    3    0    0 -0.30620799134E+02  0.59944775388E+01 -0.16960276857E+02  0.35513632476E+02  0.00000000000E+00 0.  1.
</event>
<event>
 7    1  0.1749439E-013  0.7246155E+02  0.7816164E-02  0.1226708E+00
        -11   -1    0    0    0    0  0.00000000000E+00  0.00000000000E+00  0.45593999997E+02  0.45594000000E+02  0.51100000000E-03 0. -1.
         11   -1    0    0    0    0 -0.00000000000E+00 -0.00000000000E+00 -0.45593999997E+02  0.45594000000E+02  0.51100000000E-03 0.  1.
    9900012    2    1    2    0    0 -0.42232479337E+01 -0.93832824710E+01  0.15646022210E+02  0.72461552819E+02  0.69999977235E+02 0.  0.
        -12    1    1    2    0    0  0.42232479337E+01  0.93832824710E+01 -0.15646022210E+02  0.18726447181E+02  0.00000000000E+00 0.  1.
         11    1    3    3    0    0 -0.91656877484E+01 -0.16980519899E+02  0.41553591298E+01  0.19738665044E+02  0.51100000000E-03 0. -1.
        -11    1    3    3    0    0 -0.32580032140E+01 -0.17411664906E+02  0.18370271551E+02  0.25519552051E+02  0.51100000000E-03 0.  1.
        -12    1    3    3    0    0  0.82004430287E+01  0.25008902334E+02 -0.68796084716E+01  0.27203335725E+02  0.00000000000E+00 0.  1.
</event>
<event>
 7    1  0.1749439E-013  0.7246159E+02  0.7816164E-02  0.1226708E+00
        -11   -1    0    0    0    0  0.00000000000E+00  0.00000000000E+00  0.45593999997E+02  0.45594000000E+02  0.51100000000E-03 0.  1.
         11   -1    0    0    0    0 -0.00000000000E+00 -0.00000000000E+00 -0.45593999997E+02  0.45594000000E+02  0.51100000000E-03 0. -1.
    9900012    2    1    2    0    0 -0.11907657015E+02 -0.29855796699E+00 -0.14449805243E+02  0.72461593403E+02  0.70000030104E+02 0.  0.
        -12    1    1    2    0    0  0.11907657015E+02  0.29855796699E+00  0.14449805243E+02  0.18726406597E+02  0.00000000000E+00 0.  1.
         11    1    3    3    0    0 -0.20491260001E+02  0.10152280664E+02 -0.73356781353E+01  0.24016092794E+02  0.51100000000E-03 0. -1.
        -11    1    3    3    0    0  0.15767395421E+02 -0.25130052763E+02  0.19978032502E+01  0.29734181144E+02  0.51100000000E-03 0.  1.
         12    1    3    3    0    0 -0.71837924348E+01  0.14679214132E+02 -0.91119303581E+01  0.18711319465E+02  0.00000000000E+00 0. -1.
</event>
<event>
 7    1  0.1749439E-013  0.7246150E+02  0.7816164E-02  0.1226708E+00
        -11   -1    0    0    0    0  0.00000000000E+00  0.00000000000E+00  0.45593999997E+02  0.45594000000E+02  0.51100000000E-03 0. -1.
         11   -1    0    0    0    0 -0.00000000000E+00 -0.00000000000E+00 -0.45593999997E+02  0.45594000000E+02  0.51100000000E-03 0.  1.
    9900012    2    1    2    0    0  0.66766142372E+01  0.17454470154E+02  0.12025848669E+01  0.72461496952E+02  0.69999904459E+02 0.  0.
        -12    1    1    2    0    0 -0.66766142372E+01 -0.17454470154E+02 -0.12025848669E+01  0.18726503048E+02  0.00000000000E+00 0.  1.
         11    1    3    3    0    0  0.73946136518E+01  0.13966758750E+02  0.74658733251E+01  0.17478270103E+02  0.51100000000E-03 0. -1.
        -11    1    3    3    0    0  0.18682370423E+02 -0.20838302162E+01 -0.22326962478E+02  0.29186753275E+02  0.51100000000E-03 0.  1.
         12    1    3    3    0    0 -0.19400369837E+02  0.55715416203E+01  0.16063674020E+02  0.25796473574E+02  0.00000000000E+00 0. -1.
</event>
<event>
 7    1  0.1749439E-013  0.7246161E+02  0.7816164E-02  0.1226708E+00
        -11   -1    0    0    0    0  0.00000000000E+00  0.00000000000E+00  0.45593999997E+02  0.45594000000E+02  0.51100000000E-03 0. -1.
         11   -1    0    0    0    0 -0.00000000000E+00 -0.00000000000E+00 -0.45593999997E+02  0.45594000000E+02  0.51100000000E-03 0.  1.
    9900012    2    1    2    0    0  0.12622042978E+02  0.98278724592E+01  0.97352281796E+01  0.72461609164E+02  0.70000050635E+02 0.  0.
        -12    1    1    2    0    0 -0.12622042978E+02 -0.98278724592E+01 -0.97352281796E+01  0.18726390836E+02  0.00000000000E+00 0.  1.
         11    1    3    3    0    0 -0.36518197859E+01 -0.44619137277E+01  0.66353674434E+01  0.87904813993E+01  0.51100000000E-03 0. -1.
        -11    1    3    3    0    0 -0.57490242226E+01  0.25489890076E+02 -0.17544932053E+02  0.31473964107E+02  0.51100000000E-03 0.  1.
         12    1    3    3    0    0  0.22022886987E+02 -0.11200103889E+02  0.20644792789E+02  0.32197163659E+02  0.00000000000E+00 0. -1.
</event>
<event>
 7    1  0.1749439E-013  0.7246160E+02  0.7816164E-02  0.1226708E+00
        -11   -1    0    0    0    0  0.00000000000E+00  0.00000000000E+00  0.45593999997E+02  0.45594000000E+02  0.51100000000E-03 0.  1.
         11   -1    0    0    0    0 -0.00000000000E+00 -0.00000000000E+00 -0.45593999997E+02  0.45594000000E+02  0.51100000000E-03 0. -1.
    9900012    2    1    2    0    0  0.35801749814E+01 -0.33834583002E+01 -0.18066896827E+02  0.72461596076E+02  0.70000033586E+02 0.  0.
        -12    1    1    2    0    0 -0.35801749814E+01  0.33834583002E+01  0.18066896827E+02  0.18726403924E+02  0.00000000000E+00 0.  1.
         11    1    3    3    0    0 -0.17271862240E+02 -0.14867643292E+02 -0.15656793415E+02  0.27649579067E+02  0.51100000000E-03 0. -1.
        -11    1    3    3    0    0  0.61618631999E+01 -0.45419330106E+00  0.16765085465E+02  0.17867370835E+02  0.51100000000E-03 0.  1.
        -12    1    3    3    0    0  0.14690174021E+02  0.11938378293E+02 -0.19175188876E+02  0.26944646174E+02  0.00000000000E+00 0.  1.
</event>
<event>
 7    1  0.1749439E-013  0.7246161E+02  0.7816164E-02  0.1226708E+00
        -11   -1    0    0    0    0  0.00000000000E+00  0.00000000000E+00  0.45593999997E+02  0.45594000000E+02  0.51100000000E-03 0. -1.
         11   -1    0    0    0    0 -0.00000000000E+00 -0.00000000000E+00 -0.45593999997E+02  0.45594000000E+02  0.51100000000E-03 0.  1.
    9900012    2    1    2    0    0  0.15225827590E+02 -0.10739536778E+02 -0.18746200211E+01  0.72461610166E+02  0.70000051940E+02 0.  0.
        -12    1    1    2    0    0 -0.15225827590E+02  0.10739536778E+02  0.18746200211E+01  0.18726389834E+02  0.00000000000E+00 0.  1.
         11    1    3    3    0    0  0.85271673834E+01  0.12797768201E+02 -0.13508509276E+02  0.20468885598E+02  0.51100000000E-03 0. -1.
        -11    1    3    3    0    0  0.19879876348E+02 -0.76060304887E+01 -0.86979997725E+01  0.22993833602E+02  0.51100000000E-03 0.  1.
        -12    1    3    3    0    0 -0.13181216141E+02 -0.15931274490E+02  0.20331889027E+02  0.28998890966E+02  0.00000000000E+00 0.  1.
</event>
<event>
 7    1  0.1749439E-013  0.7246156E+02  0.7816164E-02  0.1226708E+00
        -11   -1    0    0    0    0  0.00000000000E+00  0.00000000000E+00  0.45593999997E+02  0.45594000000E+02  0.51100000000E-03 0.  1.
         11   -1    0    0    0    0 -0.00000000000E+00 -0.00000000000E+00 -0.45593999997E+02  0.45594000000E+02  0.51100000000E-03 0. -1.
    9900012    2    1    2    0    0 -0.30225248532E+00  0.18706946105E+02 -0.79900669551E+00  0.72461558778E+02  0.69999984998E+02 0.  0.
        -12    1    1    2    0    0  0.30225248532E+00 -0.18706946105E+02  0.79900669551E+00  0.18726441222E+02  0.00000000000E+00 0.  1.
         11    1    3    3    0    0  0.67093986711E+01 -0.30402498465E+01  0.51390957913E+01  0.89816176422E+01  0.51100000000E-03 0. -1.
        -11    1    3    3    0    0 -0.31159168845E+02  0.86053366490E+01 -0.13400501555E+02  0.34993128813E+02  0.51100000000E-03 0.  1.
         12    1    3    3    0    0  0.24147517689E+02  0.13141859303E+02  0.74623990681E+01  0.28486812323E+02  0.00000000000E+00 0. -1.
</event>
<event>
 7    1  0.1749439E-013  0.7246154E+02  0.7816164E-02  0.1226708E+00
        -11   -1    0    0    0    0  0.00000000000E+00  0.00000000000E+00  0.45593999997E+02  0.45594000000E+02  0.51100000000E-03 0.  1.
         11   -1    0    0    0    0 -0.00000000000E+00 -0.00000000000E+00 -0.45593999997E+02  0.45594000000E+02  0.51100000000E-03 0. -1.
    9900012    2    1    2    0    0  0.37697058773E+01 -0.17336340400E+02  0.59934012504E+01  0.72461541728E+02  0.69999962787E+02 0.  0.
        -12    1    1    2    0    0 -0.37697058773E+01  0.17336340400E+02 -0.59934012504E+01  0.18726458272E+02  0.00000000000E+00 0.  1.
         11    1    3    3    0    0  0.43579110595E+01 -0.29460403004E+02  0.73703493292E+01  0.30679452137E+02  0.51100000000E-03 0. -1.
        -11    1    3    3    0    0 -0.17129828493E+02 -0.18070287145E+01  0.69960268596E+01  0.18591416543E+02  0.51100000000E-03 0.  1.
         12    1    3    3    0    0  0.16541623311E+02  0.13931091319E+02 -0.83729749384E+01  0.23190673048E+02  0.00000000000E+00 0. -1.
</event>
<event>
 7    1  0.1749439E-013  0.7246157E+02  0.7816164E-02  0.1226708E+00
        -11   -1    0    0    0    0  0.00000000000E+00  0.00000000000E+00  0.45593999997E+02  0.45594000000E+02  0.51100000000E-03 0.  1.
         11   -1    0    0    0    0 -0.00000000000E+00 -0.00000000000E+00 -0.45593999997E+02  0.45594000000E+02  0.51100000000E-03 0. -1.
    9900012    2    1    2    0    0 -0.70312856788E+01 -0.17261105955E+02 -0.18150587842E+01  0.72461569602E+02  0.69999999097E+02 0.  0.
        -12    1    1    2    0    0  0.70312856788E+01  0.17261105955E+02  0.18150587842E+01  0.18726430398E+02  0.00000000000E+00 0.  1.
         11    1    3    3    0    0 -0.15924426563E+02  0.43068795084E+00 -0.24576405738E+02  0.29287754655E+02  0.51100000000E-03 0. -1.
        -11    1    3    3    0    0  0.74129682727E+01 -0.68687635788E+00 -0.61120755610E+01  0.96323084288E+01  0.51100000000E-03 0.  1.
        -12    1    3    3    0    0  0.14801726120E+01 -0.17004917548E+02  0.28873422515E+02  0.33541506518E+02  0.00000000000E+00 0.  1.
</event>
<event>
 7    1  0.1749439E-013  0.7246160E+02  0.7816164E-02  0.1226708E+00
        -11   -1    0    0    0    0  0.00000000000E+00  0.00000000000E+00  0.45593999997E+02  0.45594000000E+02  0.51100000000E-03 0.  1.
         11   -1    0    0    0    0 -0.00000000000E+00 -0.00000000000E+00 -0.45593999997E+02  0.45594000000E+02  0.51100000000E-03 0. -1.
    9900012    2    1    2    0    0  0.12239162413E+02 -0.42708974780E+01 -0.13514458171E+02  0.72461595072E+02  0.70000032278E+02 0.  0.
        -12    1    1    2    0    0 -0.12239162413E+02  0.42708974780E+01  0.13514458171E+02  0.18726404928E+02  0.00000000000E+00 0.  1.
         11    1    3    3    0    0 -0.50623609002E-01 -0.28774106760E+01 -0.51120717513E+01  0.58664582841E+01  0.51100000000E-03 0. -1.
        -11    1    3    3    0    0 -0.13083776006E+02  0.25718024158E+02 -0.52512061413E+01  0.29328776438E+02  0.51100000000E-03 0.  1.
         12    1    3    3    0    0  0.25373562029E+02 -0.27111510960E+02 -0.31511802789E+01  0.37266360350E+02  0.00000000000E+00 0. -1.
</event>
<event>
 7    1  0.1749439E-013  0.7246114E+02  0.7816164E-02  0.1226709E+00
        -11   -1    0    0    0    0  0.00000000000E+00  0.00000000000E+00  0.45593999997E+02  0.45594000000E+02  0.51100000000E-03 0. -1.
         11   -1    0    0    0    0 -0.00000000000E+00 -0.00000000000E+00 -0.45593999997E+02  0.45594000000E+02  0.51100000000E-03 0.  1.
    9900012    2    1    2    0    0  0.14597308739E+01  0.74849314577E+01  0.17103808539E+02  0.72461140154E+02  0.69999439661E+02 0.  0.
        -12    1    1    2    0    0 -0.14597308739E+01 -0.74849314577E+01 -0.17103808539E+02  0.18726859846E+02  0.00000000000E+00 0.  1.
         11    1    3    3    0    0  0.75156064199E+01 -0.13038120686E+02 -0.47130762768E+01  0.15769908660E+02  0.51100000000E-03 0. -1.
        -11    1    3    3    0    0  0.20440576245E+02  0.10512908610E+02  0.15344704698E+02  0.27636902272E+02  0.51100000000E-03 0.  1.
         12    1    3    3    0    0 -0.26496451791E+02  0.10010143534E+02  0.64721801176E+01  0.29054329222E+02  0.00000000000E+00 0. -1.
</event>
<event>
 7    1  0.1749439E-013  0.7246157E+02  0.7816164E-02  0.1226708E+00
        -11   -1    0    0    0    0  0.00000000000E+00  0.00000000000E+00  0.45593999997E+02  0.45594000000E+02  0.51100000000E-03 0.  1.
         11   -1    0    0    0    0 -0.00000000000E+00 -0.00000000000E+00 -0.45593999997E+02  0.45594000000E+02  0.51100000000E-03 0. -1.
    9900012    2    1    2    0    0 -0.46252222859E+01  0.13483711483E+02 -0.12143975873E+02  0.72461566636E+02  0.69999995234E+02 0.  0.
        -12    1    1    2    0    0  0.46252222859E+01 -0.13483711483E+02  0.12143975873E+02  0.18726433364E+02  0.00000000000E+00 0.  1.
         11    1    3    3    0    0 -0.46700579651E+01 -0.14396908493E+02  0.59449718166E+01  0.16261091775E+02  0.51100000000E-03 0. -1.
        -11    1    3    3    0    0  0.21248600931E+02  0.51699241024E+01 -0.46994788530E+01  0.22367750412E+02  0.51100000000E-03 0.  1.
         12    1    3    3    0    0 -0.21203765252E+02  0.22710695873E+02 -0.13389468836E+02  0.33832724449E+02  0.00000000000E+00 0. -1.
</event>
<event>
 7    1  0.1749439E-013  0.7246157E+02  0.7816164E-02  0.1226708E+00
        -11   -1    0    0    0    0  0.00000000000E+00  0.00000000000E+00  0.45593999997E+02  0.45594000000E+02  0.51100000000E-03 0. -1.
         11   -1    0    0    0    0 -0.00000000000E+00 -0.00000000000E+00 -0.45593999997E+02  0.45594000000E+02  0.51100000000E-03 0.  1.
    9900012    2    1    2    0    0 -0.72835410455E+01 -0.15380578530E+02  0.78145487407E+01  0.72461565793E+02  0.69999994136E+02 0.  0.
        -12    1    1    2    0    0  0.72835410455E+01  0.15380578530E+02 -0.78145487407E+01  0.18726434207E+02  0.00000000000E+00 0.  1.
         11    1    3    3    0    0  0.63209919264E+01  0.75405280563E+01 -0.33563408334E+01  0.10396130355E+02  0.51100000000E-03 0. -1.
        -11    1    3    3    0    0 -0.31843410418E+00 -0.96633666391E+01 -0.21956114846E+02  0.23990686411E+02  0.51100000000E-03 0.  1.
         12    1    3    3    0    0 -0.13286098868E+02 -0.13257739948E+02  0.33127004420E+02  0.38074749027E+02  0.00000000000E+00 0. -1.
</event>
<event>
 7    1  0.1749439E-013  0.7246154E+02  0.7816164E-02  0.1226708E+00
        -11   -1    0    0    0    0  0.00000000000E+00  0.00000000000E+00  0.45593999997E+02  0.45594000000E+02  0.51100000000E-03 0.  1.
         11   -1    0    0    0    0 -0.00000000000E+00 -0.00000000000E+00 -0.45593999997E+02  0.45594000000E+02  0.51100000000E-03 0. -1.
    9900012    2    1    2    0    0 -0.51170635813E+01 -0.15134450031E+02 -0.97695564207E+01  0.72461544113E+02  0.69999965893E+02 0.  0.
        -12    1    1    2    0    0  0.51170635813E+01  0.15134450031E+02  0.97695564207E+01  0.18726455887E+02  0.00000000000E+00 0.  1.
         11    1    3    3    0    0 -0.27544527874E+01  0.52730367902E+01  0.40360928834E+00  0.59627869211E+01  0.51100000000E-03 0. -1.
        -11    1    3    3    0    0 -0.10549606659E+01  0.80398223733E+01 -0.30468687407E+02  0.31529234028E+02  0.51100000000E-03 0.  1.
         12    1    3    3    0    0 -0.13076501280E+01 -0.28447309195E+02  0.20295521698E+02  0.34969523164E+02  0.00000000000E+00 0. -1.
</event>
<event>
 7    1  0.1749439E-013  0.7246163E+02  0.7816164E-02  0.1226708E+00
        -11   -1    0    0    0    0  0.00000000000E+00  0.00000000000E+00  0.45593999997E+02  0.45594000000E+02  0.51100000000E-03 0. -1.
         11   -1    0    0    0    0 -0.00000000000E+00 -0.00000000000E+00 -0.45593999997E+02  0.45594000000E+02  0.51100000000E-03 0.  1.
    9900012    2    1    2    0    0 -0.10318978559E-01  0.18344124621E+02  0.37642899221E+01  0.72461631073E+02  0.70000079175E+02 0.  0.
        -12    1    1    2    0    0  0.10318978559E-01 -0.18344124621E+02 -0.37642899221E+01  0.18726368927E+02  0.00000000000E+00 0.  1.
         11    1    3    3    0    0 -0.25479936138E+02  0.71561841037E+01 -0.53356945295E+01  0.26998291666E+02  0.51100000000E-03 0. -1.
        -11    1    3    3    0    0  0.46723492536E+01 -0.10373286761E+02 -0.49112543094E+01  0.12391785381E+02  0.51100000000E-03 0.  1.
        -12    1    3    3    0    0  0.20797267906E+02  0.21561227278E+02  0.14011238761E+02  0.33071554026E+02  0.00000000000E+00 0.  1.
</event>
<event>
 7    1  0.1749439E-013  0.7246161E+02  0.7816164E-02  0.1226708E+00
        -11   -1    0    0    0    0  0.00000000000E+00  0.00000000000E+00  0.45593999997E+02  0.45594000000E+02  0.51100000000E-03 0. -1.
         11   -1    0    0    0    0 -0.00000000000E+00 -0.00000000000E+00 -0.45593999997E+02  0.45594000000E+02  0.51100000000E-03 0.  1.
    9900012    2    1    2    0    0  0.12294281708E+02  0.13745412767E+02 -0.32545144522E+01  0.72461612223E+02  0.70000054620E+02 0.  0.
        -12    1    1    2    0    0 -0.12294281708E+02 -0.13745412767E+02  0.32545144522E+01  0.18726387777E+02  0.00000000000E+00 0.  1.
         11    1    3    3    0    0 -0.12714771887E+02  0.27646626652E+02 -0.52582649664E+01  0.30881236052E+02  0.51100000000E-03 0. -1.
        -11    1    3    3    0    0  0.13619648626E+02  0.80579982505E+01 -0.35712195577E+01  0.16222816460E+02  0.51100000000E-03 0.  1.
        -12    1    3    3    0    0  0.11389404970E+02 -0.21959212136E+02  0.55749700719E+01  0.25357559711E+02  0.00000000000E+00 0.  1.
</event>
<event>
 7    1  0.1749439E-013  0.7246156E+02  0.7816164E-02  0.1226708E+00
        -11   -1    0    0    0    0  0.00000000000E+00  0.00000000000E+00  0.45593999997E+02  0.45594000000E+02  0.51100000000E-03 0. -1.
         11   -1    0    0    0    0 -0.00000000000E+00 -0.00000000000E+00 -0.45593999997E+02  0.45594000000E+02  0.51100000000E-03 0.  1.
    9900012    2    1    2    0    0 -0.21371505739E+01 -0.89155872200E+01  0.16328634945E+02  0.72461563414E+02  0.69999991037E+02 0.  0.
        -12    1    1    2    0    0  0.21371505739E+01  0.89155872200E+01 -0.16328634945E+02  0.18726436586E+02  0.00000000000E+00 0.  1.
         11    1    3    3    0    0 -0.20420898188E+02  0.14519243259E+02 -0.13012566974E+02  0.28233816730E+02  0.51100000000E-03 0.  1.
        -11    1    3    3    0    0  0.18612433555E+01 -0.10936827657E+01  0.10463432708E+02  0.10683809860E+02  0.51100000000E-03 0. -1.
        -12    1    3    3    0    0  0.16422504259E+02 -0.22341147713E+02  0.18877769210E+02  0.33543936824E+02  0.00000000000E+00 0.  1.
</event>
<event>
 7    1  0.1749439E-013  0.7246156E+02  0.7816164E-02  0.1226708E+00
        -11   -1    0    0    0    0  0.00000000000E+00  0.00000000000E+00  0.45593999997E+02  0.45594000000E+02  0.51100000000E-03 0.  1.
         11   -1    0    0    0    0 -0.00000000000E+00 -0.00000000000E+00 -0.45593999997E+02  0.45594000000E+02  0.51100000000E-03 0. -1.
    9900012    2    1    2    0    0  0.68261319901E+01  0.13647680488E+02 -0.10854689497E+02  0.72461560277E+02  0.69999986950E+02 0.  0.
        -12    1    1    2    0    0 -0.68261319901E+01 -0.13647680488E+02  0.10854689497E+02  0.18726439723E+02  0.00000000000E+00 0.  1.
         11    1    3    3    0    0  0.49856506897E+01  0.17314129070E+02 -0.14188601584E+02  0.22933647626E+02  0.51100000000E-03 0. -1.
        -11    1    3    3    0    0  0.11140872865E+01 -0.28704979881E+01  0.26328575236E+02  0.26508014324E+02  0.51100000000E-03 0.  1.
         12    1    3    3    0    0  0.72639401388E+00 -0.79595059400E+00 -0.22994663149E+02  0.23019898326E+02  0.00000000000E+00 0. -1.
</event>
<event>
 7    1  0.1749439E-013  0.7246162E+02  0.7816164E-02  0.1226708E+00
        -11   -1    0    0    0    0  0.00000000000E+00  0.00000000000E+00  0.45593999997E+02  0.45594000000E+02  0.51100000000E-03 0.  1.
         11   -1    0    0    0    0 -0.00000000000E+00 -0.00000000000E+00 -0.45593999997E+02  0.45594000000E+02  0.51100000000E-03 0. -1.
    9900012    2    1    2    0    0  0.23043704502E+01 -0.15285986466E+02 -0.10569100540E+02  0.72461617764E+02  0.70000061839E+02 0.  0.
        -12    1    1    2    0    0 -0.23043704502E+01  0.15285986466E+02  0.10569100540E+02  0.18726382236E+02  0.00000000000E+00 0.  1.
         11    1    3    3    0    0 -0.90671068413E+01 -0.98155423192E+01 -0.21448073751E+02  0.25270084396E+02  0.51100000000E-03 0. -1.
        -11    1    3    3    0    0 -0.14959990484E+02  0.69638723287E+01  0.13683810396E+01  0.16558058461E+02  0.51100000000E-03 0.  1.
        -12    1    3    3    0    0  0.26331467775E+02 -0.12434316475E+02  0.95105921718E+01  0.30633474907E+02  0.00000000000E+00 0.  1.
</event>
<event>
 7    1  0.1749439E-013  0.7246160E+02  0.7816164E-02  0.1226708E+00
        -11   -1    0    0    0    0  0.00000000000E+00  0.00000000000E+00  0.45593999997E+02  0.45594000000E+02  0.51100000000E-03 0. -1.
         11   -1    0    0    0    0 -0.00000000000E+00 -0.00000000000E+00 -0.45593999997E+02  0.45594000000E+02  0.51100000000E-03 0.  1.
    9900012    2    1    2    0    0 -0.10583789920E+02 -0.54255755549E+00  0.15439141445E+02  0.72461599750E+02  0.70000038372E+02 0.  0.
        -12    1    1    2    0    0  0.10583789920E+02  0.54255755549E+00 -0.15439141445E+02  0.18726400250E+02  0.00000000000E+00 0.  1.
         11    1    3    3    0    0  0.74472621672E+01 -0.22085304293E+01 -0.94694807558E+01  0.12247872733E+02  0.51100000000E-03 0. -1.
        -11    1    3    3    0    0  0.12236762507E+02  0.89134663509E+01 -0.60610109805E+01  0.16307179198E+02  0.51100000000E-03 0.  1.
         12    1    3    3    0    0 -0.30267814594E+02 -0.72474934771E+01  0.30969633181E+02  0.43906547819E+02  0.00000000000E+00 0. -1.
</event>
<event>
 7    1  0.1749439E-013  0.7246166E+02  0.7816164E-02  0.1226708E+00
        -11   -1    0    0    0    0  0.00000000000E+00  0.00000000000E+00  0.45593999997E+02  0.45594000000E+02  0.51100000000E-03 0. -1.
         11   -1    0    0    0    0 -0.00000000000E+00 -0.00000000000E+00 -0.45593999997E+02  0.45594000000E+02  0.51100000000E-03 0.  1.
    9900012    2    1    2    0    0 -0.50093888836E+01  0.66605211287E+01 -0.16769598357E+02  0.72461656316E+02  0.70000112060E+02 0.  0.
        -12    1    1    2    0    0  0.50093888836E+01 -0.66605211287E+01  0.16769598357E+02  0.18726343684E+02  0.00000000000E+00 0.  1.
         11    1    3    3    0    0  0.12245714809E+02 -0.85181837438E+01  0.87652250311E+01  0.17301622918E+02  0.51100000000E-03 0. -1.
        -11    1    3    3    0    0 -0.60337060163E+01 -0.11004189982E+02  0.49012019090E+01  0.13472920466E+02  0.51100000000E-03 0.  1.
         12    1    3    3    0    0 -0.11221397676E+02  0.26182894855E+02 -0.30436025297E+02  0.41687112933E+02  0.00000000000E+00 0. -1.
</event>
<event>
 7    1  0.1749439E-013  0.7246156E+02  0.7816164E-02  0.1226708E+00
        -11   -1    0    0    0    0  0.00000000000E+00  0.00000000000E+00  0.45593999997E+02  0.45594000000E+02  0.51100000000E-03 0.  1.
         11   -1    0    0    0    0 -0.00000000000E+00 -0.00000000000E+00 -0.45593999997E+02  0.45594000000E+02  0.51100000000E-03 0. -1.
    9900012    2    1    2    0    0 -0.73209198595E+01 -0.97330956327E+01 -0.14224995037E+02  0.72461561418E+02  0.69999988436E+02 0.  0.
        -12    1    1    2    0    0  0.73209198595E+01  0.97330956327E+01  0.14224995037E+02  0.18726438582E+02  0.00000000000E+00 0.  1.
         11    1    3    3    0    0  0.67103182264E+01 -0.20825621429E+02 -0.10156166962E+02  0.24122242977E+02  0.51100000000E-03 0. -1.
        -11    1    3    3    0    0 -0.16392675540E+02 -0.12571573248E+02 -0.11216343204E+02  0.23506820721E+02  0.51100000000E-03 0.  1.
         12    1    3    3    0    0  0.23614374540E+01  0.23664099045E+02  0.71475151294E+01  0.24832497719E+02  0.00000000000E+00 0. -1.
</event>
<event>
 7    1  0.1749439E-013  0.7246155E+02  0.7816164E-02  0.1226708E+00
        -11   -1    0    0    0    0  0.00000000000E+00  0.00000000000E+00  0.45593999997E+02  0.45594000000E+02  0.51100000000E-03 0. -1.
         11   -1    0    0    0    0 -0.00000000000E+00 -0.00000000000E+00 -0.45593999997E+02  0.45594000000E+02  0.51100000000E-03 0.  1.
    9900012    2    1    2    0    0 -0.17103819671E+02  0.26193546605E+01  0.71608910560E+01  0.72461547402E+02  0.69999970179E+02 0.  0.
        -12    1    1    2    0    0  0.17103819671E+02 -0.26193546605E+01 -0.71608910560E+01  0.18726452598E+02  0.00000000000E+00 0.  1.
         11    1    3    3    0    0 -0.32707456736E+00 -0.11283981918E+02  0.22228859012E+02  0.24931052904E+02  0.51100000000E-03 0. -1.
        -11    1    3    3    0    0  0.10109234884E+02  0.16085823321E+01  0.53994123812E+01  0.11573150884E+02  0.51100000000E-03 0.  1.
        -12    1    3    3    0    0 -0.26885979988E+02  0.12294754246E+02 -0.20467380337E+02  0.35957343614E+02  0.00000000000E+00 0.  1.
</event>
<event>
 7    1  0.1749439E-013  0.7246151E+02  0.7816164E-02  0.1226708E+00
        -11   -1    0    0    0    0  0.00000000000E+00  0.00000000000E+00  0.45593999997E+02  0.45594000000E+02  0.51100000000E-03 0. -1.
         11   -1    0    0    0    0 -0.00000000000E+00 -0.00000000000E+00 -0.45593999997E+02  0.45594000000E+02  0.51100000000E-03 0.  1.
    9900012    2    1    2    0    0  0.11908394974E+02 -0.65703622571E+01  0.12872519345E+02  0.72461513802E+02  0.69999926408E+02 0.  0.
        -12    1    1    2    0    0 -0.11908394974E+02  0.65703622571E+01 -0.12872519345E+02  0.18726486198E+02  0.00000000000E+00 0.  1.
         11    1    3    3    0    0 -0.97809959196E+01  0.22896493120E+01  0.36625289412E+01  0.10692263262E+02  0.51100000000E-03 0. -1.
        -11    1    3    3    0    0  0.45717408471E+01  0.42991584063E+01 -0.22526643962E+02  0.23384466336E+02  0.51100000000E-03 0.  1.
        -12    1    3    3    0    0  0.17117650047E+02 -0.13159169975E+02  0.31736634365E+02  0.38384784204E+02  0.00000000000E+00 0.  1.
</event>
<event>
 7    1  0.1749439E-013  0.7246157E+02  0.7816164E-02  0.1226708E+00
        -11   -1    0    0    0    0  0.00000000000E+00  0.00000000000E+00  0.45593999997E+02  0.45594000000E+02  0.51100000000E-03 0.  1.
         11   -1    0    0    0    0 -0.00000000000E+00 -0.00000000000E+00 -0.45593999997E+02  0.45594000000E+02  0.51100000000E-03 0. -1.
    9900012    2    1    2    0    0 -0.16425065474E+02  0.77605344720E+01 -0.45464883880E+01  0.72461568739E+02  0.69999997974E+02 0.  0.
        -12    1    1    2    0    0  0.16425065474E+02 -0.77605344720E+01  0.45464883880E+01  0.18726431261E+02  0.00000000000E+00 0.  1.
         11    1    3    3    0    0  0.52188364766E+00 -0.19865333567E+01 -0.26847763263E+02  0.26926215290E+02  0.51100000000E-03 0. -1.
        -11    1    3    3    0    0  0.86455592066E+01  0.24979827347E+01 -0.23161891655E+01  0.92924885929E+01  0.51100000000E-03 0.  1.
        -12    1    3    3    0    0 -0.25592508328E+02  0.72490850940E+01  0.24617464041E+02  0.36242864857E+02  0.00000000000E+00 0.  1.
</event>
<event>
 7    1  0.1749439E-013  0.7246155E+02  0.7816164E-02  0.1226708E+00
        -11   -1    0    0    0    0  0.00000000000E+00  0.00000000000E+00  0.45593999997E+02  0.45594000000E+02  0.51100000000E-03 0. -1.
         11   -1    0    0    0    0 -0.00000000000E+00 -0.00000000000E+00 -0.45593999997E+02  0.45594000000E+02  0.51100000000E-03 0.  1.
    9900012    2    1    2    0    0  0.25620302948E+01 -0.69482284450E+00  0.18537345953E+02  0.72461548842E+02  0.69999972054E+02 0.  0.
        -12    1    1    2    0    0 -0.25620302948E+01  0.69482284450E+00 -0.18537345953E+02  0.18726451158E+02  0.00000000000E+00 0.  1.
         11    1    3    3    0    0  0.28455098946E+01 -0.30831900844E+01 -0.20656697575E+02  0.21078475814E+02  0.51100000000E-03 0. -1.
        -11    1    3    3    0    0  0.41400388670E+01  0.40047713666E+01 -0.45784124334E+01  0.73579872377E+01  0.51100000000E-03 0.  1.
         12    1    3    3    0    0 -0.44235184668E+01 -0.16164041267E+01  0.43772455961E+02  0.44025085790E+02  0.00000000000E+00 0. -1.
</event>
<event>
 7    1  0.1749439E-013  0.7246154E+02  0.7816164E-02  0.1226708E+00
        -11   -1    0    0    0    0  0.00000000000E+00  0.00000000000E+00  0.45593999997E+02  0.45594000000E+02  0.51100000000E-03 0.  1.
         11   -1    0    0    0    0 -0.00000000000E+00 -0.00000000000E+00 -0.45593999997E+02  0.45594000000E+02  0.51100000000E-03 0. -1.
    9900012    2    1    2    0    0 -0.14370181934E+01 -0.18205203749E+02 -0.41455650949E+01  0.72461543453E+02  0.69999965034E+02 0.  0.
        -12    1    1    2    0    0  0.14370181934E+01  0.18205203749E+02  0.41455650949E+01  0.18726456547E+02  0.00000000000E+00 0.  1.
         11    1    3    3    0    0 -0.73188610916E+01 -0.12061439624E+02 -0.41754845559E+01  0.14713215999E+02  0.51100000000E-03 0. -1.
        -11    1    3    3    0    0  0.16213817839E+02  0.12590872345E+02  0.19870248493E+02  0.28569997038E+02  0.51100000000E-03 0.  1.
         12    1    3    3    0    0 -0.10331974941E+02 -0.18734636470E+02 -0.19840329032E+02  0.29178330417E+02  0.00000000000E+00 0. -1.
</event>
<event>
 7    1  0.1749439E-013  0.7246145E+02  0.7816164E-02  0.1226708E+00
        -11   -1    0    0    0    0  0.00000000000E+00  0.00000000000E+00  0.45593999997E+02  0.45594000000E+02  0.51100000000E-03 0.  1.
         11   -1    0    0    0    0 -0.00000000000E+00 -0.00000000000E+00 -0.45593999997E+02  0.45594000000E+02  0.51100000000E-03 0. -1.
    9900012    2    1    2    0    0 -0.10856769916E+01 -0.18083209446E+02 -0.47436897727E+01  0.72461447967E+02  0.69999840645E+02 0.  0.
        -12    1    1    2    0    0  0.10856769916E+01  0.18083209446E+02  0.47436897727E+01  0.18726552033E+02  0.00000000000E+00 0.  1.
         11    1    3    3    0    0 -0.13206868630E+01  0.14121477356E+02 -0.20365605876E+02  0.24817700125E+02  0.51100000000E-03 0. -1.
        -11    1    3    3    0    0  0.37487044868E+01  0.57588668761E+01  0.27926903311E+01  0.74173076364E+01  0.51100000000E-03 0.  1.
        -12    1    3    3    0    0 -0.35136946154E+01 -0.37963553678E+02  0.12829225773E+02  0.40226440206E+02  0.00000000000E+00 0.  1.
</event>
<event>
 7    1  0.1749439E-013  0.7246161E+02  0.7816164E-02  0.1226708E+00
        -11   -1    0    0    0    0  0.00000000000E+00  0.00000000000E+00  0.45593999997E+02  0.45594000000E+02  0.51100000000E-03 0. -1.
         11   -1    0    0    0    0 -0.00000000000E+00 -0.00000000000E+00 -0.45593999997E+02  0.45594000000E+02  0.51100000000E-03 0.  1.
    9900012    2    1    2    0    0  0.16525541214E+02  0.81018852123E+01 -0.34559619509E+01  0.72461608746E+02  0.70000050090E+02 0.  0.
        -12    1    1    2    0    0 -0.16525541214E+02 -0.81018852123E+01  0.34559619509E+01  0.18726391254E+02  0.00000000000E+00 0.  1.
         11    1    3    3    0    0 -0.12790880668E+02 -0.85072694908E+01 -0.84019642172E+01  0.17509233719E+02  0.51100000000E-03 0. -1.
        -11    1    3    3    0    0 -0.32781706981E+01  0.20604941854E+02 -0.32265499287E+01  0.21112097401E+02  0.51100000000E-03 0.  1.
        -12    1    3    3    0    0  0.32594592580E+02 -0.39957871512E+01  0.81725521950E+01  0.33840277626E+02  0.00000000000E+00 0.  1.
</event>
<event>
 7    1  0.1749439E-013  0.7246157E+02  0.7816164E-02  0.1226708E+00
        -11   -1    0    0    0    0  0.00000000000E+00  0.00000000000E+00  0.45593999997E+02  0.45594000000E+02  0.51100000000E-03 0. -1.
         11   -1    0    0    0    0 -0.00000000000E+00 -0.00000000000E+00 -0.45593999997E+02  0.45594000000E+02  0.51100000000E-03 0.  1.
    9900012    2    1    2    0    0  0.14175324217E+02 -0.86611809385E+01  0.86442598520E+01  0.72461572142E+02  0.70000002408E+02 0.  0.
        -12    1    1    2    0    0 -0.14175324217E+02  0.86611809385E+01 -0.86442598520E+01  0.18726427858E+02  0.00000000000E+00 0.  1.
         11    1    3    3    0    0 -0.14481095463E+02 -0.19255207555E+02 -0.99208380844E+00  0.24113261379E+02  0.51100000000E-03 0. -1.
        -11    1    3    3    0    0 -0.54538881480E+01  0.54396276393E+01 -0.66715340385E+01  0.10190378377E+02  0.51100000000E-03 0.  1.
        -12    1    3    3    0    0  0.34110307828E+02  0.51543989773E+01  0.16307877699E+02  0.38157932386E+02  0.00000000000E+00 0.  1.
</event>
<event>
 7    1  0.1749439E-013  0.7246161E+02  0.7816164E-02  0.1226708E+00
        -11   -1    0    0    0    0  0.00000000000E+00  0.00000000000E+00  0.45593999997E+02  0.45594000000E+02  0.51100000000E-03 0.  1.
         11   -1    0    0    0    0 -0.00000000000E+00 -0.00000000000E+00 -0.45593999997E+02  0.45594000000E+02  0.51100000000E-03 0. -1.
    9900012    2    1    2    0    0 -0.11703999796E+02 -0.12124457268E+02 -0.81664870991E+01  0.72461612553E+02  0.70000055050E+02 0.  0.
        -12    1    1    2    0    0  0.11703999796E+02  0.12124457268E+02  0.81664870991E+01  0.18726387447E+02  0.00000000000E+00 0.  1.
         11    1    3    3    0    0 -0.22684032845E-01 -0.49518233102E+01  0.91449062016E+01  0.10399537411E+02  0.51100000000E-03 0. -1.
        -11    1    3    3    0    0 -0.29232841374E+02 -0.12584659131E+02  0.59970373498E+01  0.32386681174E+02  0.51100000000E-03 0.  1.
         12    1    3    3    0    0  0.17551525611E+02  0.54120251729E+01 -0.23308430651E+02  0.29675393968E+02  0.00000000000E+00 0. -1.
</event>
<event>
 7    1  0.1749439E-013  0.7246160E+02  0.7816164E-02  0.1226708E+00
        -11   -1    0    0    0    0  0.00000000000E+00  0.00000000000E+00  0.45593999997E+02  0.45594000000E+02  0.51100000000E-03 0.  1.
         11   -1    0    0    0    0 -0.00000000000E+00 -0.00000000000E+00 -0.45593999997E+02  0.45594000000E+02  0.51100000000E-03 0. -1.
    9900012    2    1    2    0    0 -0.17201704531E+02  0.71681663607E+01  0.18430637566E+01  0.72461598003E+02  0.70000036095E+02 0.  0.
        -12    1    1    2    0    0  0.17201704531E+02 -0.71681663607E+01 -0.18430637566E+01  0.18726401997E+02  0.00000000000E+00 0.  1.
         11    1    3    3    0    0 -0.33823923209E+01  0.24268948147E+02  0.14716992440E+02  0.28583426818E+02  0.51100000000E-03 0. -1.
        -11    1    3    3    0    0 -0.16592841334E+02  0.64764264530E+01 -0.85105800795E+01  0.19740730906E+02  0.51100000000E-03 0.  1.
        -12    1    3    3    0    0  0.27735291237E+01 -0.23577208239E+02 -0.43633486034E+01  0.24137440278E+02  0.00000000000E+00 0.  1.
</event>
<event>
 7    1  0.1749439E-013  0.7246159E+02  0.7816164E-02  0.1226708E+00
        -11   -1    0    0    0    0  0.00000000000E+00  0.00000000000E+00  0.45593999997E+02  0.45594000000E+02  0.51100000000E-03 0.  1.
         11   -1    0    0    0    0 -0.00000000000E+00 -0.00000000000E+00 -0.45593999997E+02  0.45594000000E+02  0.51100000000E-03 0. -1.
    9900012    2    1    2    0    0  0.11407320477E+02 -0.52067901616E+01 -0.13908296350E+02  0.72461592667E+02  0.70000029144E+02 0.  0.
        -12    1    1    2    0    0 -0.11407320477E+02  0.52067901616E+01  0.13908296350E+02  0.18726407333E+02  0.00000000000E+00 0.  1.
         11    1    3    3    0    0  0.73207703334E+01  0.72145039916E+01 -0.27050945322E+02  0.28937802080E+02  0.51100000000E-03 0. -1.
        -11    1    3    3    0    0  0.11133551775E+02 -0.19343821333E+02 -0.49944637191E+01  0.22871031175E+02  0.51100000000E-03 0.  1.
         12    1    3    3    0    0 -0.70470016312E+01  0.69225271797E+01  0.18137112692E+02  0.20652759412E+02  0.00000000000E+00 0. -1.
</event>
<event>
 7    1  0.1749439E-013  0.7246160E+02  0.7816164E-02  0.1226708E+00
        -11   -1    0    0    0    0  0.00000000000E+00  0.00000000000E+00  0.45593999997E+02  0.45594000000E+02  0.51100000000E-03 0.  1.
         11   -1    0    0    0    0 -0.00000000000E+00 -0.00000000000E+00 -0.45593999997E+02  0.45594000000E+02  0.51100000000E-03 0. -1.
    9900012    2    1    2    0    0 -0.18228998608E+02 -0.27499638299E+01 -0.32892813880E+01  0.72461599829E+02  0.70000038474E+02 0.  0.
        -12    1    1    2    0    0  0.18228998608E+02  0.27499638299E+01  0.32892813880E+01  0.18726400171E+02  0.00000000000E+00 0.  1.
         11    1    3    3    0    0 -0.35699094457E+02 -0.92198674026E+01 -0.19394238159E+02  0.41660146111E+02  0.51100000000E-03 0. -1.
        -11    1    3    3    0    0 -0.27199478374E+01  0.51257540288E+01  0.20077759561E+01  0.61402471574E+01  0.51100000000E-03 0.  1.
        -12    1    3    3    0    0  0.20190043686E+02  0.13441495439E+01  0.14097180815E+02  0.24661206560E+02  0.00000000000E+00 0.  1.
</event>
<event>
 7    1  0.1749439E-013  0.7246157E+02  0.7816164E-02  0.1226708E+00
        -11   -1    0    0    0    0  0.00000000000E+00  0.00000000000E+00  0.45593999997E+02  0.45594000000E+02  0.51100000000E-03 0. -1.
         11   -1    0    0    0    0 -0.00000000000E+00 -0.00000000000E+00 -0.45593999997E+02  0.45594000000E+02  0.51100000000E-03 0.  1.
    9900012    2    1    2    0    0  0.98450741265E+01 -0.13572416683E+02  0.83392581306E+01  0.72461569338E+02  0.69999998754E+02 0.  0.
        -12    1    1    2    0    0 -0.98450741265E+01  0.13572416683E+02 -0.83392581306E+01  0.18726430662E+02  0.00000000000E+00 0.  1.
         11    1    3    3    0    0  0.78648522520E+01 -0.26814707800E+02  0.28898166145E+02  0.40199358977E+02  0.51100000000E-03 0. -1.
        -11    1    3    3    0    0  0.10539273471E+02  0.27553289611E+01 -0.62241043315E+01  0.12546218473E+02  0.51100000000E-03 0.  1.
        -12    1    3    3    0    0 -0.85590515966E+01  0.10486962156E+02 -0.14334803683E+02  0.19715991888E+02  0.00000000000E+00 0.  1.
</event>
<event>
 7    1  0.1749439E-013  0.7246149E+02  0.7816164E-02  0.1226708E+00
        -11   -1    0    0    0    0  0.00000000000E+00  0.00000000000E+00  0.45593999997E+02  0.45594000000E+02  0.51100000000E-03 0. -1.
         11   -1    0    0    0    0 -0.00000000000E+00 -0.00000000000E+00 -0.45593999997E+02  0.45594000000E+02  0.51100000000E-03 0.  1.
    9900012    2    1    2    0    0  0.11772298487E+02  0.23941929898E+01  0.14365335798E+02  0.72461493536E+02  0.69999900008E+02 0.  0.
        -12    1    1    2    0    0 -0.11772298487E+02 -0.23941929898E+01 -0.14365335798E+02  0.18726506464E+02  0.00000000000E+00 0.  1.
         11    1    3    3    0    0 -0.93242347726E+01  0.24579921982E+02 -0.67270689559E+00  0.26297651103E+02  0.51100000000E-03 0. -1.
        -11    1    3    3    0    0 -0.64472691365E+01  0.22347861500E+01  0.27408358029E+01  0.73534841820E+01  0.51100000000E-03 0.  1.
        -12    1    3    3    0    0  0.27543802396E+02 -0.24420515142E+02  0.12297206891E+02  0.38810358251E+02  0.00000000000E+00 0.  1.
</event>
<event>
 7    1  0.1749439E-013  0.7246159E+02  0.7816164E-02  0.1226708E+00
        -11   -1    0    0    0    0  0.00000000000E+00  0.00000000000E+00  0.45593999997E+02  0.45594000000E+02  0.51100000000E-03 0. -1.
         11   -1    0    0    0    0 -0.00000000000E+00 -0.00000000000E+00 -0.45593999997E+02  0.45594000000E+02  0.51100000000E-03 0.  1.
    9900012    2    1    2    0    0  0.47412944263E+01  0.12083854581E+02  0.13497368167E+02  0.72461591861E+02  0.70000028094E+02 0.  0.
        -12    1    1    2    0    0 -0.47412944263E+01 -0.12083854581E+02 -0.13497368167E+02  0.18726408139E+02  0.00000000000E+00 0.  1.
         11    1    3    3    0    0 -0.10200227329E+02  0.51622227887E+01  0.10413647266E+02  0.15464062575E+02  0.51100000000E-03 0. -1.
        -11    1    3    3    0    0 -0.19431044506E+02  0.91328692663E+01 -0.39824929720E+01  0.21836552891E+02  0.51100000000E-03 0.  1.
        -12    1    3    3    0    0  0.34372566261E+02 -0.22112374740E+01  0.70662138728E+01  0.35160976395E+02  0.00000000000E+00 0.  1.
</event>
<event>
 7    1  0.1749439E-013  0.7246157E+02  0.7816164E-02  0.1226708E+00
        -11   -1    0    0    0    0  0.00000000000E+00  0.00000000000E+00  0.45593999997E+02  0.45594000000E+02  0.51100000000E-03 0.  1.
         11   -1    0    0    0    0 -0.00000000000E+00 -0.00000000000E+00 -0.45593999997E+02  0.45594000000E+02  0.51100000000E-03 0. -1.
    9900012    2    1    2    0    0 -0.15567572754E+02 -0.10278337330E+02 -0.16388254430E+01  0.72461567116E+02  0.69999995860E+02 0.  0.
        -12    1    1    2    0    0  0.15567572754E+02  0.10278337330E+02  0.16388254430E+01  0.18726432884E+02  0.00000000000E+00 0.  1.
         11    1    3    3    0    0 -0.57031091146E+01  0.28695418253E+01 -0.60182539398E+01  0.87737736809E+01  0.51100000000E-03 0. -1.
        -11    1    3    3    0    0  0.10679880586E+02 -0.16457331042E+02 -0.22397978090E+02  0.29775376020E+02  0.51100000000E-03 0.  1.
         12    1    3    3    0    0 -0.20544344225E+02  0.33094518872E+01  0.26777406587E+02  0.33912417415E+02  0.00000000000E+00 0. -1.
</event>
<event>
 7    1  0.1749439E-013  0.7246159E+02  0.7816164E-02  0.1226708E+00
        -11   -1    0    0    0    0  0.00000000000E+00  0.00000000000E+00  0.45593999997E+02  0.45594000000E+02  0.51100000000E-03 0. -1.
         11   -1    0    0    0    0 -0.00000000000E+00 -0.00000000000E+00 -0.45593999997E+02  0.45594000000E+02  0.51100000000E-03 0.  1.
    9900012    2    1    2    0    0  0.12814828443E+02  0.72409512210E+01  0.11577015552E+02  0.72461588392E+02  0.70000023576E+02 0.  0.
        -12    1    1    2    0    0 -0.12814828443E+02 -0.72409512210E+01 -0.11577015552E+02  0.18726411608E+02  0.00000000000E+00 0.  1.
         11    1    3    3    0    0  0.83232549789E+01 -0.13678403809E+02  0.15857086413E+02  0.22534917217E+02  0.51100000000E-03 0. -1.
        -11    1    3    3    0    0  0.14649071928E+02 -0.35746062863E+01  0.11594759924E+02  0.19021345284E+02  0.51100000000E-03 0.  1.
        -12    1    3    3    0    0 -0.10157498463E+02  0.24493961316E+02 -0.15874830785E+02  0.30905325891E+02  0.00000000000E+00 0.  1.
</event>
<event>
 7    1  0.1749439E-013  0.7246157E+02  0.7816164E-02  0.1226708E+00
        -11   -1    0    0    0    0  0.00000000000E+00  0.00000000000E+00  0.45593999997E+02  0.45594000000E+02  0.51100000000E-03 0.  1.
         11   -1    0    0    0    0 -0.00000000000E+00 -0.00000000000E+00 -0.45593999997E+02  0.45594000000E+02  0.51100000000E-03 0. -1.
    9900012    2    1    2    0    0  0.11073333594E+02  0.12284594382E+02 -0.87834528245E+01  0.72461574299E+02  0.70000005217E+02 0.  0.
        -12    1    1    2    0    0 -0.11073333594E+02 -0.12284594382E+02  0.87834528245E+01  0.18726425701E+02  0.00000000000E+00 0.  1.
         11    1    3    3    0    0 -0.85770010641E+01 -0.10589786159E+02  0.35178562787E+01  0.14074225776E+02  0.51100000000E-03 0. -1.
        -11    1    3    3    0    0  0.27225271527E+02 -0.27975486593E+01  0.30390417406E+01  0.27536838294E+02  0.51100000000E-03 0.  1.
        -12    1    3    3    0    0 -0.75749368692E+01  0.25671929200E+02 -0.15340350844E+02  0.30850510229E+02  0.00000000000E+00 0.  1.
</event>
<event>
 7    1  0.1749439E-013  0.7246159E+02  0.7816164E-02  0.1226708E+00
        -11   -1    0    0    0    0  0.00000000000E+00  0.00000000000E+00  0.45593999997E+02  0.45594000000E+02  0.51100000000E-03 0.  1.
         11   -1    0    0    0    0 -0.00000000000E+00 -0.00000000000E+00 -0.45593999997E+02  0.45594000000E+02  0.51100000000E-03 0. -1.
    9900012    2    1    2    0    0 -0.17639579332E+01  0.31384813043E+01 -0.18377075158E+02  0.72461588068E+02  0.70000023154E+02 0.  0.
        -12    1    1    2    0    0  0.17639579332E+01 -0.31384813043E+01  0.18377075158E+02  0.18726411932E+02  0.00000000000E+00 0.  1.
         11    1    3    3    0    0  0.70350490509E+01 -0.19019074117E+01 -0.44508775861E+01  0.85392902807E+01  0.51100000000E-03 0. -1.
        -11    1    3    3    0    0  0.15668575733E+02 -0.19879347038E+02  0.22942911492E+01  0.25415673832E+02  0.51100000000E-03 0.  1.
         12    1    3    3    0    0 -0.24467582718E+02  0.24919735754E+02 -0.16220488721E+02  0.38506623956E+02  0.00000000000E+00 0. -1.
</event>
<event>
 7    1  0.1749439E-013  0.7246159E+02  0.7816164E-02  0.1226708E+00
        -11   -1    0    0    0    0  0.00000000000E+00  0.00000000000E+00  0.45593999997E+02  0.45594000000E+02  0.51100000000E-03 0.  1.
         11   -1    0    0    0    0 -0.00000000000E+00 -0.00000000000E+00 -0.45593999997E+02  0.45594000000E+02  0.51100000000E-03 0. -1.
    9900012    2    1    2    0    0  0.11881686236E+02  0.12759423946E+02  0.68338094329E+01  0.72461593014E+02  0.70000029596E+02 0.  0.
        -12    1    1    2    0    0 -0.11881686236E+02 -0.12759423946E+02 -0.68338094329E+01  0.18726406986E+02  0.00000000000E+00 0.  1.
         11    1    3    3    0    0 -0.10964169310E+02  0.71921426866E+01 -0.44377733801E+01  0.13843184530E+02  0.51100000000E-03 0. -1.
        -11    1    3    3    0    0 -0.10734998875E+02  0.18482546136E+02  0.20203005132E+01  0.21469194837E+02  0.51100000000E-03 0.  1.
         12    1    3    3    0    0  0.33580854421E+02 -0.12915264876E+02  0.92512822998E+01  0.37149213647E+02  0.00000000000E+00 0. -1.
</event>
<event>
 7    1  0.1749439E-013  0.7246148E+02  0.7816164E-02  0.1226708E+00
        -11   -1    0    0    0    0  0.00000000000E+00  0.00000000000E+00  0.45593999997E+02  0.45594000000E+02  0.51100000000E-03 0.  1.
         11   -1    0    0    0    0 -0.00000000000E+00 -0.00000000000E+00 -0.45593999997E+02  0.45594000000E+02  0.51100000000E-03 0. -1.
    9900012    2    1    2    0    0  0.45280927335E+01 -0.11189648043E+02 -0.14316794688E+02  0.72461482511E+02  0.69999885646E+02 0.  0.
        -12    1    1    2    0    0 -0.45280927335E+01  0.11189648043E+02  0.14316794688E+02  0.18726517489E+02  0.00000000000E+00 0.  1.
         11    1    3    3    0    0  0.14451551923E+02 -0.37865266928E+00 -0.16932519453E+02  0.22264342481E+02  0.51100000000E-03 0. -1.
        -11    1    3    3    0    0  0.10288407760E+01 -0.26734833486E+02  0.11257254246E+02  0.29026463930E+02  0.51100000000E-03 0.  1.
         12    1    3    3    0    0 -0.10952299966E+02  0.15923838113E+02 -0.86415294815E+01  0.21170676100E+02  0.00000000000E+00 0. -1.
</event>
<event>
 7    1  0.1749439E-013  0.7246154E+02  0.7816164E-02  0.1226708E+00
        -11   -1    0    0    0    0  0.00000000000E+00  0.00000000000E+00  0.45593999997E+02  0.45594000000E+02  0.51100000000E-03 0. -1.
         11   -1    0    0    0    0 -0.00000000000E+00 -0.00000000000E+00 -0.45593999997E+02  0.45594000000E+02  0.51100000000E-03 0.  1.
    9900012    2    1    2    0    0 -0.12690287274E+02 -0.13767639283E+02  0.29864832005E+00  0.72461535483E+02  0.69999954651E+02 0.  0.
        -12    1    1    2    0    0  0.12690287274E+02  0.13767639283E+02 -0.29864832005E+00  0.18726464517E+02  0.00000000000E+00 0.  1.
         11    1    3    3    0    0  0.12893619666E+02 -0.17087886669E+01  0.91884953355E+01  0.15924629779E+02  0.51100000000E-03 0. -1.
        -11    1    3    3    0    0 -0.59881646236E+01 -0.98679191423E+01  0.19089384998E+02  0.22307813959E+02  0.51100000000E-03 0.  1.
        -12    1    3    3    0    0 -0.19595742316E+02 -0.21909314734E+01 -0.27979232013E+02  0.34229091745E+02  0.00000000000E+00 0.  1.
</event>
<event>
 7    1  0.1749439E-013  0.7246158E+02  0.7816164E-02  0.1226708E+00
        -11   -1    0    0    0    0  0.00000000000E+00  0.00000000000E+00  0.45593999997E+02  0.45594000000E+02  0.51100000000E-03 0. -1.
         11   -1    0    0    0    0 -0.00000000000E+00 -0.00000000000E+00 -0.45593999997E+02  0.45594000000E+02  0.51100000000E-03 0.  1.
    9900012    2    1    2    0    0 -0.90757698241E+00 -0.10940852827E+02  0.15170793467E+02  0.72461576663E+02  0.70000008296E+02 0.  0.
        -12    1    1    2    0    0  0.90757698241E+00  0.10940852827E+02 -0.15170793467E+02  0.18726423337E+02  0.00000000000E+00 0.  1.
         11    1    3    3    0    0 -0.12003973000E+02 -0.30270405424E+01  0.93184042709E+01  0.15494870140E+02  0.51100000000E-03 0. -1.
        -11    1    3    3    0    0 -0.20133835767E+02 -0.24987644567E+01 -0.87178257219E+01  0.22082021014E+02  0.51100000000E-03 0.  1.
         12    1    3    3    0    0  0.31230231785E+02 -0.54150478279E+01  0.14570214918E+02  0.34884685509E+02  0.00000000000E+00 0. -1.
</event>
<event>
 7    1  0.1749439E-013  0.7246149E+02  0.7816164E-02  0.1226708E+00
        -11   -1    0    0    0    0  0.00000000000E+00  0.00000000000E+00  0.45593999997E+02  0.45594000000E+02  0.51100000000E-03 0.  1.
         11   -1    0    0    0    0 -0.00000000000E+00 -0.00000000000E+00 -0.45593999997E+02  0.45594000000E+02  0.51100000000E-03 0. -1.
    9900012    2    1    2    0    0 -0.12181051867E+02 -0.79708430138E+01 -0.11780063811E+02  0.72461487609E+02  0.69999892287E+02 0.  0.
        -12    1    1    2    0    0  0.12181051867E+02  0.79708430138E+01  0.11780063811E+02  0.18726512391E+02  0.00000000000E+00 0.  1.
         11    1    3    3    0    0 -0.18936447792E+02 -0.35062007337E+01 -0.19385797774E+01  0.19355634590E+02  0.51100000000E-03 0.  1.
        -11    1    3    3    0    0 -0.15519253483E+02  0.12492182282E+02  0.61698937228E+01  0.20855920878E+02  0.51100000000E-03 0. -1.
         12    1    3    3    0    0  0.22274649408E+02 -0.16956824563E+02 -0.16011377756E+02  0.32249932142E+02  0.00000000000E+00 0. -1.
</event>
<event>
 7    1  0.1749439E-013  0.7246160E+02  0.7816164E-02  0.1226708E+00
        -11   -1    0    0    0    0  0.00000000000E+00  0.00000000000E+00  0.45593999997E+02  0.45594000000E+02  0.51100000000E-03 0.  1.
         11   -1    0    0    0    0 -0.00000000000E+00 -0.00000000000E+00 -0.45593999997E+02  0.45594000000E+02  0.51100000000E-03 0. -1.
    9900012    2    1    2    0    0 -0.62476510657E+01  0.11703491709E+02 -0.13216401768E+02  0.72461597844E+02  0.70000035889E+02 0.  0.
        -12    1    1    2    0    0  0.62476510657E+01 -0.11703491709E+02  0.13216401768E+02  0.18726402156E+02  0.00000000000E+00 0.  1.
         11    1    3    3    0    0 -0.21953512152E+01  0.28967549298E+01 -0.34792782862E+02  0.34982116798E+02  0.51100000000E-03 0. -1.
        -11    1    3    3    0    0 -0.70589604128E+01 -0.71768215308E+01 -0.47664009408E+00  0.10077840812E+02  0.51100000000E-03 0.  1.
         12    1    3    3    0    0  0.30066605623E+01  0.15983558310E+02  0.22053021189E+02  0.27401640234E+02  0.00000000000E+00 0. -1.
</event>
<event>
 7    1  0.1749439E-013  0.7246193E+02  0.7816164E-02  0.1226707E+00
        -11   -1    0    0    0    0  0.00000000000E+00  0.00000000000E+00  0.45593999997E+02  0.45594000000E+02  0.51100000000E-03 0.  1.
         11   -1    0    0    0    0 -0.00000000000E+00 -0.00000000000E+00 -0.45593999997E+02  0.45594000000E+02  0.51100000000E-03 0. -1.
    9900012    2    1    2    0    0 -0.34804396690E+01  0.83623117497E+01 -0.16389753396E+02  0.72461929017E+02  0.70000467301E+02 0.  0.
        -12    1    1    2    0    0  0.34804396690E+01 -0.83623117497E+01  0.16389753396E+02  0.18726070983E+02  0.00000000000E+00 0.  1.
         11    1    3    3    0    0 -0.11095063789E+01  0.28785811108E+01 -0.61010750213E+01  0.68366914727E+01  0.51100000000E-03 0. -1.
        -11    1    3    3    0    0  0.93811410331E+01 -0.14026495263E+02 -0.30705995822E+02  0.35037216729E+02  0.51100000000E-03 0.  1.
         12    1    3    3    0    0 -0.11752074323E+02  0.19510225902E+02  0.20417317447E+02  0.30588020815E+02  0.00000000000E+00 0. -1.
</event>
<event>
 7    1  0.1749439E-013  0.7246157E+02  0.7816164E-02  0.1226708E+00
        -11   -1    0    0    0    0  0.00000000000E+00  0.00000000000E+00  0.45593999997E+02  0.45594000000E+02  0.51100000000E-03 0.  1.
         11   -1    0    0    0    0 -0.00000000000E+00 -0.00000000000E+00 -0.45593999997E+02  0.45594000000E+02  0.51100000000E-03 0. -1.
    9900012    2    1    2    0    0  0.16160185537E+02  0.74551794085E+01 -0.58264970120E+01  0.72461565101E+02  0.69999993235E+02 0.  0.
        -12    1    1    2    0    0 -0.16160185537E+02 -0.74551794085E+01  0.58264970120E+01  0.18726434899E+02  0.00000000000E+00 0.  1.
         11    1    3    3    0    0 -0.10980386008E+02 -0.25145171088E+02 -0.34479664389E+01  0.27653878186E+02  0.51100000000E-03 0. -1.
        -11    1    3    3    0    0 -0.41376003697E+00  0.70356576386E+01 -0.15245774912E+01  0.72108260666E+01  0.51100000000E-03 0.  1.
        -12    1    3    3    0    0  0.27554331581E+02  0.25564692858E+02 -0.85395308196E+00  0.37596860848E+02  0.00000000000E+00 0.  1.
</event>
<event>
 7    1  0.1749439E-013  0.7246160E+02  0.7816164E-02  0.1226708E+00
        -11   -1    0    0    0    0  0.00000000000E+00  0.00000000000E+00  0.45593999997E+02  0.45594000000E+02  0.51100000000E-03 0.  1.
         11   -1    0    0    0    0 -0.00000000000E+00 -0.00000000000E+00 -0.45593999997E+02  0.45594000000E+02  0.51100000000E-03 0. -1.
    9900012    2    1    2    0    0  0.13502699326E+02  0.10410948585E+02 -0.77438511206E+01  0.72461602330E+02  0.70000041732E+02 0.  0.
        -12    1    1    2    0    0 -0.13502699326E+02 -0.10410948585E+02  0.77438511206E+01  0.18726397670E+02  0.00000000000E+00 0.  1.
         11    1    3    3    0    0 -0.13229042935E+02 -0.77919417754E+01 -0.21485682243E+02  0.26407507935E+02  0.51100000000E-03 0. -1.
        -11    1    3    3    0    0 -0.36243702591E+01  0.10217097067E+01  0.10343828392E+02  0.11007939705E+02  0.51100000000E-03 0.  1.
        -12    1    3    3    0    0  0.30356112520E+02  0.17181180654E+02  0.33980027309E+01  0.35046154690E+02  0.00000000000E+00 0.  1.
</event>
<event>
 7    1  0.1749439E-013  0.7246162E+02  0.7816164E-02  0.1226708E+00
        -11   -1    0    0    0    0  0.00000000000E+00  0.00000000000E+00  0.45593999997E+02  0.45594000000E+02  0.51100000000E-03 0.  1.
         11   -1    0    0    0    0 -0.00000000000E+00 -0.00000000000E+00 -0.45593999997E+02  0.45594000000E+02  0.51100000000E-03 0. -1.
    9900012    2    1    2    0    0 -0.12675632003E+02 -0.13782373563E+02 -0.22764425448E+00  0.72461620488E+02  0.70000065387E+02 0.  0.
        -12    1    1    2    0    0  0.12675632003E+02  0.13782373563E+02  0.22764425448E+00  0.18726379512E+02  0.00000000000E+00 0.  1.
         11    1    3    3    0    0  0.21350280330E+02 -0.25752276916E+01  0.35905783268E+01  0.21802718198E+02  0.51100000000E-03 0. -1.
        -11    1    3    3    0    0  0.64894869547E+01  0.10146831515E+01 -0.51077418238E+01  0.83205798857E+01  0.51100000000E-03 0.  1.
        -12    1    3    3    0    0 -0.40515399288E+02 -0.12221829023E+02  0.12895192426E+01  0.42338322404E+02  0.00000000000E+00 0.  1.
</event>
<event>
 7    1  0.1749439E-013  0.7246157E+02  0.7816164E-02  0.1226708E+00
        -11   -1    0    0    0    0  0.00000000000E+00  0.00000000000E+00  0.45593999997E+02  0.45594000000E+02  0.51100000000E-03 0. -1.
         11   -1    0    0    0    0 -0.00000000000E+00 -0.00000000000E+00 -0.45593999997E+02  0.45594000000E+02  0.51100000000E-03 0.  1.
    9900012    2    1    2    0    0  0.15271074909E+02  0.14480709321E+00  0.10837554181E+02  0.72461567382E+02  0.69999996206E+02 0.  0.
        -12    1    1    2    0    0 -0.15271074909E+02 -0.14480709321E+00 -0.10837554181E+02  0.18726432618E+02  0.00000000000E+00 0.  1.
         11    1    3    3    0    0  0.12828738625E+02  0.44088610929E+01  0.15428134568E+01  0.13652650456E+02  0.51100000000E-03 0. -1.
        -11    1    3    3    0    0 -0.34009357487E+01 -0.55044625685E+01 -0.24064445138E+02  0.24919129042E+02  0.51100000000E-03 0.  1.
         12    1    3    3    0    0  0.58432720323E+01  0.12404085688E+01  0.33359185862E+02  0.33889787884E+02  0.00000000000E+00 0. -1.
</event>
<event>
 7    1  0.1749439E-013  0.7246154E+02  0.7816164E-02  0.1226708E+00
        -11   -1    0    0    0    0  0.00000000000E+00  0.00000000000E+00  0.45593999997E+02  0.45594000000E+02  0.51100000000E-03 0. -1.
         11   -1    0    0    0    0 -0.00000000000E+00 -0.00000000000E+00 -0.45593999997E+02  0.45594000000E+02  0.51100000000E-03 0.  1.
    9900012    2    1    2    0    0  0.32338979921E+01 -0.93755482824E+01  0.15884629573E+02  0.72461535878E+02  0.69999955167E+02 0.  0.
        -12    1    1    2    0    0 -0.32338979921E+01  0.93755482824E+01 -0.15884629573E+02  0.18726464122E+02  0.00000000000E+00 0.  1.
         11    1    3    3    0    0  0.10422782245E+02  0.73668853648E+01  0.62118621669E+01  0.14194809669E+02  0.51100000000E-03 0.  1.
        -11    1    3    3    0    0  0.10016576381E+02 -0.32539455782E+02  0.44893036325E+01  0.34340964348E+02  0.51100000000E-03 0. -1.
         12    1    3    3    0    0 -0.17205460633E+02  0.15797022135E+02  0.51834637740E+01  0.23925761861E+02  0.00000000000E+00 0. -1.
</event>
<event>
 7    1  0.1749439E-013  0.7246159E+02  0.7816164E-02  0.1226708E+00
        -11   -1    0    0    0    0  0.00000000000E+00  0.00000000000E+00  0.45593999997E+02  0.45594000000E+02  0.51100000000E-03 0.  1.
         11   -1    0    0    0    0 -0.00000000000E+00 -0.00000000000E+00 -0.45593999997E+02  0.45594000000E+02  0.51100000000E-03 0. -1.
    9900012    2    1    2    0    0  0.14514131158E+02 -0.75965461278E+01 -0.90725420824E+01  0.72461587205E+02  0.70000022029E+02 0.  0.
        -12    1    1    2    0    0 -0.14514131158E+02  0.75965461278E+01  0.90725420824E+01  0.18726412795E+02  0.00000000000E+00 0.  1.
         11    1    3    3    0    0  0.30623217751E+01 -0.13064126051E+02 -0.21250211847E+02  0.25132065333E+02  0.51100000000E-03 0. -1.
        -11    1    3    3    0    0 -0.12842118377E+02  0.39770389824E+01 -0.80605381664E+01  0.15675111459E+02  0.51100000000E-03 0.  1.
        -12    1    3    3    0    0  0.24293927760E+02  0.14905409404E+01  0.20238207930E+02  0.31654410412E+02  0.00000000000E+00 0.  1.
</event>
<event>
 7    1  0.1749439E-013  0.7246157E+02  0.7816164E-02  0.1226708E+00
        -11   -1    0    0    0    0  0.00000000000E+00  0.00000000000E+00  0.45593999997E+02  0.45594000000E+02  0.51100000000E-03 0. -1.
         11   -1    0    0    0    0 -0.00000000000E+00 -0.00000000000E+00 -0.45593999997E+02  0.45594000000E+02  0.51100000000E-03 0.  1.
    9900012    2    1    2    0    0 -0.17910791031E+02  0.14619071339E+01  0.52674206341E+01  0.72461566064E+02  0.69999994489E+02 0.  0.
        -12    1    1    2    0    0  0.17910791031E+02 -0.14619071339E+01 -0.52674206341E+01  0.18726433936E+02  0.00000000000E+00 0.  1.
         11    1    3    3    0    0 -0.62882738568E+01 -0.40892882430E+00  0.31629183971E+01  0.70507917236E+01  0.51100000000E-03 0. -1.
        -11    1    3    3    0    0 -0.19234265046E+01 -0.26494825370E+01  0.32769347674E+02  0.32932498758E+02  0.51100000000E-03 0.  1.
        -12    1    3    3    0    0 -0.96990906695E+01  0.45203184952E+01 -0.30664845437E+02  0.32478275582E+02  0.00000000000E+00 0.  1.
</event>
<event>
 7    1  0.1749439E-013  0.7246159E+02  0.7816164E-02  0.1226708E+00
        -11   -1    0    0    0    0  0.00000000000E+00  0.00000000000E+00  0.45593999997E+02  0.45594000000E+02  0.51100000000E-03 0.  1.
         11   -1    0    0    0    0 -0.00000000000E+00 -0.00000000000E+00 -0.45593999997E+02  0.45594000000E+02  0.51100000000E-03 0. -1.
    9900012    2    1    2    0    0  0.16165321467E+02 -0.84570614728E+01 -0.42236295481E+01  0.72461586744E+02  0.70000021429E+02 0.  0.
        -12    1    1    2    0    0 -0.16165321467E+02  0.84570614728E+01  0.42236295481E+01  0.18726413256E+02  0.00000000000E+00 0.  1.
         11    1    3    3    0    0  0.18493139777E+02 -0.56958197110E+00 -0.28312621819E+02  0.33821963234E+02  0.51100000000E-03 0. -1.
        -11    1    3    3    0    0  0.13027681266E+02 -0.55659275331E+01  0.79628029977E+01  0.16251346416E+02  0.51100000000E-03 0.  1.
        -12    1    3    3    0    0 -0.15355499577E+02 -0.23215519686E+01  0.16126189273E+02  0.22388277095E+02  0.00000000000E+00 0.  1.
</event>
<event>
 7    1  0.1749439E-013  0.7246159E+02  0.7816164E-02  0.1226708E+00
        -11   -1    0    0    0    0  0.00000000000E+00  0.00000000000E+00  0.45593999997E+02  0.45594000000E+02  0.51100000000E-03 0.  1.
         11   -1    0    0    0    0 -0.00000000000E+00 -0.00000000000E+00 -0.45593999997E+02  0.45594000000E+02  0.51100000000E-03 0. -1.
    9900012    2    1    2    0    0  0.12950313777E+00 -0.61575722906E+01 -0.17684626466E+02  0.72461588683E+02  0.70000023955E+02 0.  0.
        -12    1    1    2    0    0 -0.12950313777E+00  0.61575722906E+01  0.17684626466E+02  0.18726411317E+02  0.00000000000E+00 0.  1.
         11    1    3    3    0    0 -0.49358371674E+00 -0.33799391829E+02 -0.81319697237E+01  0.34767390537E+02  0.51100000000E-03 0. -1.
        -11    1    3    3    0    0 -0.11057552351E+01  0.22690912457E+01  0.69387602188E+01  0.73836212901E+01  0.51100000000E-03 0.  1.
        -12    1    3    3    0    0  0.17288420896E+01  0.25372728293E+02 -0.16491416961E+02  0.30310576856E+02  0.00000000000E+00 0.  1.
</event>
<event>
 7    1  0.1749439E-013  0.7246157E+02  0.7816164E-02  0.1226708E+00
        -11   -1    0    0    0    0  0.00000000000E+00  0.00000000000E+00  0.45593999997E+02  0.45594000000E+02  0.51100000000E-03 0. -1.
         11   -1    0    0    0    0 -0.00000000000E+00 -0.00000000000E+00 -0.45593999997E+02  0.45594000000E+02  0.51100000000E-03 0.  1.
    9900012    2    1    2    0    0 -0.11812159520E+02  0.42936339252E+01  0.13882250793E+02  0.72461567027E+02  0.69999995744E+02 0.  0.
        -12    1    1    2    0    0  0.11812159520E+02 -0.42936339252E+01 -0.13882250793E+02  0.18726432973E+02  0.00000000000E+00 0.  1.
         11    1    3    3    0    0  0.37869952835E+01  0.60633970578E+01 -0.29152183465E+01  0.77204025431E+01  0.51100000000E-03 0. -1.
        -11    1    3    3    0    0  0.26416710666E+01 -0.18037156606E+02  0.31372566175E+02  0.36284367889E+02  0.51100000000E-03 0.  1.
         12    1    3    3    0    0 -0.18240825870E+02  0.16267393473E+02 -0.14575097035E+02  0.28456796595E+02  0.00000000000E+00 0. -1.
</event>
<event>
 7    1  0.1749439E-013  0.7246154E+02  0.7816164E-02  0.1226708E+00
        -11   -1    0    0    0    0  0.00000000000E+00  0.00000000000E+00  0.45593999997E+02  0.45594000000E+02  0.51100000000E-03 0.  1.
         11   -1    0    0    0    0 -0.00000000000E+00 -0.00000000000E+00 -0.45593999997E+02  0.45594000000E+02  0.51100000000E-03 0. -1.
    9900012    2    1    2    0    0 -0.12858061654E+02 -0.93819585043E+01  0.98655666041E+01  0.72461540129E+02  0.69999960704E+02 0.  0.
        -12    1    1    2    0    0  0.12858061654E+02  0.93819585043E+01 -0.98655666041E+01  0.18726459871E+02  0.00000000000E+00 0.  1.
         11    1    3    3    0    0  0.52245217063E+00  0.13606229435E+02 -0.82618997805E+01  0.15926751833E+02  0.51100000000E-03 0. -1.
        -11    1    3    3    0    0 -0.69507449955E+01  0.10605755195E+02 -0.66320007620E+01  0.14310078043E+02  0.51100000000E-03 0.  1.
        -12    1    3    3    0    0 -0.64297688290E+01 -0.33593943134E+02  0.24759467147E+02  0.42224710252E+02  0.00000000000E+00 0.  1.
</event>
<event>
 7    1  0.1749439E-013  0.7246151E+02  0.7816164E-02  0.1226708E+00
        -11   -1    0    0    0    0  0.00000000000E+00  0.00000000000E+00  0.45593999997E+02  0.45594000000E+02  0.51100000000E-03 0. -1.
         11   -1    0    0    0    0 -0.00000000000E+00 -0.00000000000E+00 -0.45593999997E+02  0.45594000000E+02  0.51100000000E-03 0.  1.
    9900012    2    1    2    0    0 -0.16194573573E+02  0.37616370064E+01  0.86178501114E+01  0.72461508959E+02  0.69999920099E+02 0.  0.
        -12    1    1    2    0    0  0.16194573573E+02 -0.37616370064E+01 -0.86178501114E+01  0.18726491041E+02  0.00000000000E+00 0.  1.
         11    1    3    3    0    0 -0.31013506915E+01  0.31991171529E+00  0.89664530344E+01  0.94930500840E+01  0.51100000000E-03 0. -1.
        -11    1    3    3    0    0 -0.10604811874E+02 -0.18122252244E+02 -0.23308720163E+02  0.31371555543E+02  0.51100000000E-03 0.  1.
         12    1    3    3    0    0 -0.24884110081E+01  0.21563977535E+02  0.22960117240E+02  0.31596903332E+02  0.00000000000E+00 0. -1.
</event>
<event>
 7    1  0.1749439E-013  0.7246156E+02  0.7816164E-02  0.1226708E+00
        -11   -1    0    0    0    0  0.00000000000E+00  0.00000000000E+00  0.45593999997E+02  0.45594000000E+02  0.51100000000E-03 0.  1.
         11   -1    0    0    0    0 -0.00000000000E+00 -0.00000000000E+00 -0.45593999997E+02  0.45594000000E+02  0.51100000000E-03 0. -1.
    9900012    2    1    2    0    0  0.30498835994E+01 -0.17777315301E+02 -0.50343770560E+01  0.72461556621E+02  0.69999982188E+02 0.  0.
        -12    1    1    2    0    0 -0.30498835994E+01  0.17777315301E+02  0.50343770560E+01  0.18726443379E+02  0.00000000000E+00 0.  1.
         11    1    3    3    0    0 -0.60118713226E+01 -0.22731532480E+02  0.63117256862E+01  0.24345493363E+02  0.51100000000E-03 0. -1.
        -11    1    3    3    0    0  0.15480525194E+02 -0.42654930691E+01  0.13416256271E+02  0.20924555527E+02  0.51100000000E-03 0.  1.
         12    1    3    3    0    0 -0.64187702723E+01  0.92197102477E+01 -0.24762359013E+02  0.27191507732E+02  0.00000000000E+00 0. -1.
</event>
<event>
 7    1  0.1749439E-013  0.7246156E+02  0.7816164E-02  0.1226708E+00
        -11   -1    0    0    0    0  0.00000000000E+00  0.00000000000E+00  0.45593999997E+02  0.45594000000E+02  0.51100000000E-03 0.  1.
         11   -1    0    0    0    0 -0.00000000000E+00 -0.00000000000E+00 -0.45593999997E+02  0.45594000000E+02  0.51100000000E-03 0. -1.
    9900012    2    1    2    0    0 -0.39523279220E+01 -0.30117442600E+01 -0.18055137017E+02  0.72461562213E+02  0.69999989472E+02 0.  0.
        -12    1    1    2    0    0  0.39523279220E+01  0.30117442600E+01  0.18055137017E+02  0.18726437787E+02  0.00000000000E+00 0.  1.
         11    1    3    3    0    0 -0.20624511042E+02 -0.10158273210E+02  0.98887741255E+01  0.25026961947E+02  0.51100000000E-03 0. -1.
        -11    1    3    3    0    0 -0.95292774934E+01  0.15177566344E+01 -0.14639028036E+01  0.97598015568E+01  0.51100000000E-03 0.  1.
         12    1    3    3    0    0  0.26201460614E+02  0.56287723158E+01 -0.26480008339E+02  0.37674798708E+02  0.00000000000E+00 0. -1.
</event>
<event>
 7    1  0.1749439E-013  0.7246156E+02  0.7816164E-02  0.1226708E+00
        -11   -1    0    0    0    0  0.00000000000E+00  0.00000000000E+00  0.45593999997E+02  0.45594000000E+02  0.51100000000E-03 0. -1.
         11   -1    0    0    0    0 -0.00000000000E+00 -0.00000000000E+00 -0.45593999997E+02  0.45594000000E+02  0.51100000000E-03 0.  1.
    9900012    2    1    2    0    0 -0.17339206158E+02 -0.67206485979E+01 -0.22055268383E+01  0.72461560499E+02  0.69999987239E+02 0.  0.
        -12    1    1    2    0    0  0.17339206158E+02  0.67206485979E+01  0.22055268383E+01  0.18726439501E+02  0.00000000000E+00 0.  1.
         11    1    3    3    0    0 -0.21032378661E+02 -0.14022321002E+02 -0.18004753569E+02  0.31034780324E+02  0.51100000000E-03 0. -1.
        -11    1    3    3    0    0 -0.12812930835E+02 -0.11419467388E+01 -0.47840159192E+01  0.13724505365E+02  0.51100000000E-03 0.  1.
         12    1    3    3    0    0  0.16506103338E+02  0.84436191432E+01  0.20583242650E+02  0.27702274809E+02  0.00000000000E+00 0. -1.
</event>
<event>
 7    1  0.1749439E-013  0.7246189E+02  0.7816164E-02  0.1226707E+00
        -11   -1    0    0    0    0  0.00000000000E+00  0.00000000000E+00  0.45593999997E+02  0.45594000000E+02  0.51100000000E-03 0.  1.
         11   -1    0    0    0    0 -0.00000000000E+00 -0.00000000000E+00 -0.45593999997E+02  0.45594000000E+02  0.51100000000E-03 0. -1.
    9900012    2    1    2    0    0 -0.87727503193E+01 -0.15041538980E+02  0.68889992197E+01  0.72461885793E+02  0.70000410994E+02 0.  0.
        -12    1    1    2    0    0  0.87727503193E+01  0.15041538980E+02 -0.68889992197E+01  0.18726114207E+02  0.00000000000E+00 0.  1.
         11    1    3    3    0    0 -0.10432039844E+02 -0.15616786328E+01 -0.10312036862E+02  0.14751420269E+02  0.51100000000E-03 0. -1.
        -11    1    3    3    0    0  0.13588643022E+02 -0.12163938351E+02 -0.14829097829E+02  0.23505632475E+02  0.51100000000E-03 0.  1.
        -12    1    3    3    0    0 -0.11929353498E+02 -0.13159219967E+01  0.32030133910E+02  0.34204833048E+02  0.00000000000E+00 0.  1.
</event>
<event>
 7    1  0.1749439E-013  0.7246154E+02  0.7816164E-02  0.1226708E+00
        -11   -1    0    0    0    0  0.00000000000E+00  0.00000000000E+00  0.45593999997E+02  0.45594000000E+02  0.51100000000E-03 0.  1.
         11   -1    0    0    0    0 -0.00000000000E+00 -0.00000000000E+00 -0.45593999997E+02  0.45594000000E+02  0.51100000000E-03 0. -1.
    9900012    2    1    2    0    0  0.63233006434E+01 -0.11681508272E+02 -0.13199938734E+02  0.72461544139E+02  0.69999965928E+02 0.  0.
        -12    1    1    2    0    0 -0.63233006434E+01  0.11681508272E+02  0.13199938734E+02  0.18726455861E+02  0.00000000000E+00 0.  1.
         11    1    3    3    0    0 -0.28964730073E+01  0.15502924377E+01 -0.20146107159E+01  0.38537798487E+01  0.51100000000E-03 0. -1.
        -11    1    3    3    0    0  0.24882730611E+00  0.26647838872E+02 -0.20823673565E+01  0.26730235420E+02  0.51100000000E-03 0.  1.
        -12    1    3    3    0    0  0.89709463446E+01 -0.39879639581E+02 -0.91029606615E+01  0.41877528870E+02  0.00000000000E+00 0.  1.
</event>
<event>
 7    1  0.1749439E-013  0.7246156E+02  0.7816164E-02  0.1226708E+00
        -11   -1    0    0    0    0  0.00000000000E+00  0.00000000000E+00  0.45593999997E+02  0.45594000000E+02  0.51100000000E-03 0. -1.
         11   -1    0    0    0    0 -0.00000000000E+00 -0.00000000000E+00 -0.45593999997E+02  0.45594000000E+02  0.51100000000E-03 0.  1.
    9900012    2    1    2    0    0  0.17579394131E+02  0.37999469145E+01 -0.52158207462E+01  0.72461561988E+02  0.69999989179E+02 0.  0.
        -12    1    1    2    0    0 -0.17579394131E+02 -0.37999469145E+01  0.52158207462E+01  0.18726438012E+02  0.00000000000E+00 0.  1.
         11    1    3    3    0    0  0.35720475551E+02  0.22679970053E+02 -0.39090907325E+01  0.42492521763E+02  0.51100000000E-03 0. -1.
        -11    1    3    3    0    0  0.10026487344E+01 -0.60887723024E+01  0.24525454627E+01  0.66402885587E+01  0.51100000000E-03 0.  1.
        -12    1    3    3    0    0 -0.19143730155E+02 -0.12791250836E+02 -0.37592754764E+01  0.23328751666E+02  0.00000000000E+00 0.  1.
</event>
<event>
 7    1  0.1749439E-013  0.7246166E+02  0.7816164E-02  0.1226708E+00
        -11   -1    0    0    0    0  0.00000000000E+00  0.00000000000E+00  0.45593999997E+02  0.45594000000E+02  0.51100000000E-03 0.  1.
         11   -1    0    0    0    0 -0.00000000000E+00 -0.00000000000E+00 -0.45593999997E+02  0.45594000000E+02  0.51100000000E-03 0. -1.
    9900012    2    1    2    0    0  0.75826945858E+01 -0.16157101650E+02  0.56680405175E+01  0.72461658280E+02  0.70000114617E+02 0.  0.
        -12    1    1    2    0    0 -0.75826945858E+01  0.16157101650E+02 -0.56680405175E+01  0.18726341720E+02  0.00000000000E+00 0.  1.
         11    1    3    3    0    0  0.87890424619E+00 -0.11397124322E+02  0.65597535925E+01  0.13179426503E+02  0.51100000000E-03 0. -1.
        -11    1    3    3    0    0 -0.11951856736E+02 -0.14597913959E+02  0.21444296107E+02  0.28562279447E+02  0.51100000000E-03 0.  1.
         12    1    3    3    0    0  0.18655647075E+02  0.98379366308E+01 -0.22336009182E+02  0.30719952330E+02  0.00000000000E+00 0. -1.
</event>
<event>
 7    1  0.1749439E-013  0.7246159E+02  0.7816164E-02  0.1226708E+00
        -11   -1    0    0    0    0  0.00000000000E+00  0.00000000000E+00  0.45593999997E+02  0.45594000000E+02  0.51100000000E-03 0. -1.
         11   -1    0    0    0    0 -0.00000000000E+00 -0.00000000000E+00 -0.45593999997E+02  0.45594000000E+02  0.51100000000E-03 0.  1.
    9900012    2    1    2    0    0 -0.27019396763E+01  0.66036835188E+01  0.17313842755E+02  0.72461594446E+02  0.70000031462E+02 0.  0.
        -12    1    1    2    0    0  0.27019396763E+01 -0.66036835188E+01 -0.17313842755E+02  0.18726405554E+02  0.00000000000E+00 0.  1.
         11    1    3    3    0    0 -0.18564329265E+01 -0.69035924257E+01  0.21885375337E+02  0.23023370420E+02  0.51100000000E-03 0. -1.
        -11    1    3    3    0    0 -0.12596149923E+01  0.77955515822E+01  0.21416895638E+02  0.22826315372E+02  0.51100000000E-03 0.  1.
        -12    1    3    3    0    0  0.41410824249E+00  0.57117243623E+01 -0.25988428221E+02  0.26611908654E+02  0.00000000000E+00 0.  1.
</event>
<event>
 7    1  0.1749439E-013  0.7246156E+02  0.7816164E-02  0.1226708E+00
        -11   -1    0    0    0    0  0.00000000000E+00  0.00000000000E+00  0.45593999997E+02  0.45594000000E+02  0.51100000000E-03 0. -1.
         11   -1    0    0    0    0 -0.00000000000E+00 -0.00000000000E+00 -0.45593999997E+02  0.45594000000E+02  0.51100000000E-03 0.  1.
    9900012    2    1    2    0    0  0.12779017718E+02 -0.84230040839E+00 -0.13662604225E+02  0.72461560989E+02  0.69999987879E+02 0.  0.
        -12    1    1    2    0    0 -0.12779017718E+02  0.84230040839E+00  0.13662604225E+02  0.18726439011E+02  0.00000000000E+00 0.  1.
         11    1    3    3    0    0 -0.17376457633E+02  0.15550995977E+00 -0.19134621037E+02  0.25847614700E+02  0.51100000000E-03 0. -1.
        -11    1    3    3    0    0  0.13704943278E+02 -0.12266863531E+02 -0.10398552071E+02  0.21128920856E+02  0.51100000000E-03 0.  1.
         12    1    3    3    0    0  0.16450532073E+02  0.11269053162E+02  0.15870568883E+02  0.25485025433E+02  0.00000000000E+00 0. -1.
</event>
<event>
 7    1  0.1749439E-013  0.7246148E+02  0.7816164E-02  0.1226708E+00
        -11   -1    0    0    0    0  0.00000000000E+00  0.00000000000E+00  0.45593999997E+02  0.45594000000E+02  0.51100000000E-03 0. -1.
         11   -1    0    0    0    0 -0.00000000000E+00 -0.00000000000E+00 -0.45593999997E+02  0.45594000000E+02  0.51100000000E-03 0.  1.
    9900012    2    1    2    0    0  0.75884358886E+01  0.75773844425E+01  0.15351924822E+02  0.72461475764E+02  0.69999876856E+02 0.  0.
        -12    1    1    2    0    0 -0.75884358886E+01 -0.75773844425E+01 -0.15351924822E+02  0.18726524236E+02  0.00000000000E+00 0.  1.
         11    1    3    3    0    0  0.10010078621E+02  0.10308715022E+02 -0.60295787730E+00  0.14381753644E+02  0.51100000000E-03 0. -1.
        -11    1    3    3    0    0 -0.97994991370E+01 -0.18576072321E+02 -0.12679097275E+02  0.24532838283E+02  0.51100000000E-03 0.  1.
         12    1    3    3    0    0  0.73778564049E+01  0.15844741742E+02  0.28633979975E+02  0.33546883837E+02  0.00000000000E+00 0. -1.
</event>
<event>
 7    1  0.1749439E-013  0.7246156E+02  0.7816164E-02  0.1226708E+00
        -11   -1    0    0    0    0  0.00000000000E+00  0.00000000000E+00  0.45593999997E+02  0.45594000000E+02  0.51100000000E-03 0.  1.
         11   -1    0    0    0    0 -0.00000000000E+00 -0.00000000000E+00 -0.45593999997E+02  0.45594000000E+02  0.51100000000E-03 0. -1.
    9900012    2    1    2    0    0  0.16611365161E+02 -0.84655617857E+01 -0.17539916256E+01  0.72461556785E+02  0.69999982402E+02 0.  0.
        -12    1    1    2    0    0 -0.16611365161E+02  0.84655617857E+01  0.17539916256E+01  0.18726443215E+02  0.00000000000E+00 0.  1.
         11    1    3    3    0    0  0.66168295413E+01  0.85588577118E+01  0.47686940584E+01  0.11822729033E+02  0.51100000000E-03 0. -1.
        -11    1    3    3    0    0  0.16633280924E+02  0.11725961982E+02  0.13995760953E+02  0.24699100056E+02  0.51100000000E-03 0.  1.
         12    1    3    3    0    0 -0.66387453039E+01 -0.28750381479E+02 -0.20518446637E+02  0.35939727695E+02  0.00000000000E+00 0. -1.
</event>
<event>
 7    1  0.1749439E-013  0.7246158E+02  0.7816164E-02  0.1226708E+00
        -11   -1    0    0    0    0  0.00000000000E+00  0.00000000000E+00  0.45593999997E+02  0.45594000000E+02  0.51100000000E-03 0.  1.
         11   -1    0    0    0    0 -0.00000000000E+00 -0.00000000000E+00 -0.45593999997E+02  0.45594000000E+02  0.51100000000E-03 0. -1.
    9900012    2    1    2    0    0 -0.56953406801E+01 -0.17817873708E+02  0.87475072219E+00  0.72461582356E+02  0.70000015713E+02 0.  0.
        -12    1    1    2    0    0  0.56953406801E+01  0.17817873708E+02 -0.87475072219E+00  0.18726417644E+02  0.00000000000E+00 0.  1.
         11    1    3    3    0    0 -0.29736393703E+01 -0.19330338923E+02  0.45781227586E+01  0.20086406902E+02  0.51100000000E-03 0. -1.
        -11    1    3    3    0    0 -0.10576501916E+02 -0.95297308395E+01  0.20309688855E+02  0.24802451982E+02  0.51100000000E-03 0.  1.
         12    1    3    3    0    0  0.78548006065E+01  0.11042196055E+02 -0.24013060892E+02  0.27572723472E+02  0.00000000000E+00 0. -1.
</event>
<event>
 7    1  0.1749439E-013  0.7246156E+02  0.7816164E-02  0.1226708E+00
        -11   -1    0    0    0    0  0.00000000000E+00  0.00000000000E+00  0.45593999997E+02  0.45594000000E+02  0.51100000000E-03 0.  1.
         11   -1    0    0    0    0 -0.00000000000E+00 -0.00000000000E+00 -0.45593999997E+02  0.45594000000E+02  0.51100000000E-03 0. -1.
    9900012    2    1    2    0    0  0.12074445791E+02  0.13216051246E+02 -0.54975804407E+01  0.72461557668E+02  0.69999983552E+02 0.  0.
        -12    1    1    2    0    0 -0.12074445791E+02 -0.13216051246E+02  0.54975804407E+01  0.18726442332E+02  0.00000000000E+00 0.  1.
         11    1    3    3    0    0 -0.25339148234E+01  0.15866452926E+02 -0.24679159458E+02  0.29448700558E+02  0.51100000000E-03 0. -1.
        -11    1    3    3    0    0 -0.36189439095E+01  0.10960774247E+02  0.16457331706E+02  0.20101718689E+02  0.51100000000E-03 0.  1.
        -12    1    3    3    0    0  0.18227304524E+02 -0.13611175927E+02  0.27242473111E+01  0.22911138421E+02  0.00000000000E+00 0.  1.
</event>
<event>
 7    1  0.1749439E-013  0.7246157E+02  0.7816164E-02  0.1226708E+00
        -11   -1    0    0    0    0  0.00000000000E+00  0.00000000000E+00  0.45593999997E+02  0.45594000000E+02  0.51100000000E-03 0. -1.
         11   -1    0    0    0    0 -0.00000000000E+00 -0.00000000000E+00 -0.45593999997E+02  0.45594000000E+02  0.51100000000E-03 0.  1.
    9900012    2    1    2    0    0 -0.16607033245E+02 -0.27807972485E+01 -0.81946910326E+01  0.72461565538E+02  0.69999993804E+02 0.  0.
        -12    1    1    2    0    0  0.16607033245E+02  0.27807972485E+01  0.81946910326E+01  0.18726434462E+02  0.00000000000E+00 0.  1.
         11    1    3    3    0    0 -0.38967712776E+01  0.33536997833E+01  0.12014078847E+02  0.13067907998E+02  0.51100000000E-03 0. -1.
        -11    1    3    3    0    0 -0.20866753493E+02  0.98011310972E+01 -0.30892329520E+02  0.38546330507E+02  0.51100000000E-03 0.  1.
         12    1    3    3    0    0  0.81564915261E+01 -0.15935628129E+02  0.10683559640E+02  0.20847327034E+02  0.00000000000E+00 0. -1.
</event>
<event>
 7    1  0.1749439E-013  0.7246153E+02  0.7816164E-02  0.1226708E+00
        -11   -1    0    0    0    0  0.00000000000E+00  0.00000000000E+00  0.45593999997E+02  0.45594000000E+02  0.51100000000E-03 0.  1.
         11   -1    0    0    0    0 -0.00000000000E+00 -0.00000000000E+00 -0.45593999997E+02  0.45594000000E+02  0.51100000000E-03 0. -1.
    9900012    2    1    2    0    0 -0.57420835569E+01  0.17557955083E+02 -0.30704303162E+01  0.72461525356E+02  0.69999941459E+02 0.  0.
        -12    1    1    2    0    0  0.57420835569E+01 -0.17557955083E+02  0.30704303162E+01  0.18726474644E+02  0.00000000000E+00 0.  1.
         11    1    3    3    0    0  0.16708744825E+02  0.19653094012E+02 -0.16385028198E+02  0.30559702341E+02  0.51100000000E-03 0. -1.
        -11    1    3    3    0    0 -0.18048172129E+02  0.50926650697E+01 -0.69143755704E+01  0.19987004390E+02  0.51100000000E-03 0.  1.
        -12    1    3    3    0    0 -0.44026562530E+01 -0.71878039981E+01  0.20228973453E+02  0.21914818624E+02  0.00000000000E+00 0.  1.
</event>
<event>
 7    1  0.1749439E-013  0.7246159E+02  0.7816164E-02  0.1226708E+00
        -11   -1    0    0    0    0  0.00000000000E+00  0.00000000000E+00  0.45593999997E+02  0.45594000000E+02  0.51100000000E-03 0. -1.
         11   -1    0    0    0    0 -0.00000000000E+00 -0.00000000000E+00 -0.45593999997E+02  0.45594000000E+02  0.51100000000E-03 0.  1.
    9900012    2    1    2    0    0  0.15030037531E+02 -0.92155009191E+01 -0.63127658823E+01  0.72461588212E+02  0.70000023341E+02 0.  0.
        -12    1    1    2    0    0 -0.15030037531E+02  0.92155009191E+01  0.63127658823E+01  0.18726411788E+02  0.00000000000E+00 0.  1.
         11    1    3    3    0    0  0.14653764179E+02 -0.43800003560E+01  0.16644512419E+02  0.22604358024E+02  0.51100000000E-03 0. -1.
        -11    1    3    3    0    0  0.20985553488E+02 -0.16293929461E+01 -0.19543067828E+02  0.28722462933E+02  0.51100000000E-03 0.  1.
        -12    1    3    3    0    0 -0.20609280135E+02 -0.32061076170E+01 -0.34142104734E+01  0.21134767255E+02  0.00000000000E+00 0.  1.
</event>
<event>
 7    1  0.1749439E-013  0.7246156E+02  0.7816164E-02  0.1226708E+00
        -11   -1    0    0    0    0  0.00000000000E+00  0.00000000000E+00  0.45593999997E+02  0.45594000000E+02  0.51100000000E-03 0.  1.
         11   -1    0    0    0    0 -0.00000000000E+00 -0.00000000000E+00 -0.45593999997E+02  0.45594000000E+02  0.51100000000E-03 0. -1.
    9900012    2    1    2    0    0  0.83568905278E+01 -0.71026783106E+01 -0.15178727847E+02  0.72461563138E+02  0.69999990678E+02 0.  0.
        -12    1    1    2    0    0 -0.83568905278E+01  0.71026783106E+01  0.15178727847E+02  0.18726436862E+02  0.00000000000E+00 0.  1.
         11    1    3    3    0    0  0.12384582630E+02  0.90293378230E+01 -0.14316162599E+02  0.20972823850E+02  0.51100000000E-03 0. -1.
        -11    1    3    3    0    0 -0.68747757680E+01  0.16688381652E+02 -0.36958869912E+01  0.18423468863E+02  0.51100000000E-03 0.  1.
        -12    1    3    3    0    0  0.28470836662E+01 -0.32820397785E+02  0.28333217432E+01  0.33065270425E+02  0.00000000000E+00 0.  1.
</event>
<event>
 7    1  0.1749439E-013  0.7246155E+02  0.7816164E-02  0.1226708E+00
        -11   -1    0    0    0    0  0.00000000000E+00  0.00000000000E+00  0.45593999997E+02  0.45594000000E+02  0.51100000000E-03 0.  1.
         11   -1    0    0    0    0 -0.00000000000E+00 -0.00000000000E+00 -0.45593999997E+02  0.45594000000E+02  0.51100000000E-03 0. -1.
    9900012    2    1    2    0    0  0.32014733505E+01 -0.23953497353E+01 -0.18294612590E+02  0.72461548607E+02  0.69999971748E+02 0.  0.
        -12    1    1    2    0    0 -0.32014733505E+01  0.23953497353E+01  0.18294612590E+02  0.18726451393E+02  0.00000000000E+00 0.  1.
         11    1    3    3    0    0  0.66658342026E+01 -0.16777356373E+02  0.41831336612E+01  0.18531369080E+02  0.51100000000E-03 0.  1.
        -11    1    3    3    0    0 -0.13229772184E+02  0.97938075177E+01 -0.34226393514E+02  0.37978830300E+02  0.51100000000E-03 0. -1.
         12    1    3    3    0    0  0.97654113322E+01  0.45881991200E+01  0.11748647263E+02  0.15951349227E+02  0.00000000000E+00 0. -1.
</event>
<event>
 7    1  0.1749439E-013  0.7246155E+02  0.7816164E-02  0.1226708E+00
        -11   -1    0    0    0    0  0.00000000000E+00  0.00000000000E+00  0.45593999997E+02  0.45594000000E+02  0.51100000000E-03 0. -1.
         11   -1    0    0    0    0 -0.00000000000E+00 -0.00000000000E+00 -0.45593999997E+02  0.45594000000E+02  0.51100000000E-03 0.  1.
    9900012    2    1    2    0    0 -0.74223007341E+01  0.16589900685E+02  0.45127012496E+01  0.72461552780E+02  0.69999977184E+02 0.  0.
        -12    1    1    2    0    0  0.74223007341E+01 -0.16589900685E+02 -0.45127012496E+01  0.18726447220E+02  0.00000000000E+00 0.  1.
         11    1    3    3    0    0  0.13116046213E+02  0.80916686698E+01 -0.23191812088E+01  0.15584748052E+02  0.51100000000E-03 0. -1.
        -11    1    3    3    0    0 -0.19286350170E+02 -0.11850805684E+01 -0.20309314023E+02  0.28032765743E+02  0.51100000000E-03 0.  1.
        -12    1    3    3    0    0 -0.12519967765E+01  0.96833125835E+01  0.27141196481E+02  0.28844038985E+02  0.00000000000E+00 0.  1.
</event>
<event>
 7    1  0.1749439E-013  0.7246154E+02  0.7816164E-02  0.1226708E+00
        -11   -1    0    0    0    0  0.00000000000E+00  0.00000000000E+00  0.45593999997E+02  0.45594000000E+02  0.51100000000E-03 0.  1.
         11   -1    0    0    0    0 -0.00000000000E+00 -0.00000000000E+00 -0.45593999997E+02  0.45594000000E+02  0.51100000000E-03 0. -1.
    9900012    2    1    2    0    0 -0.17856210586E+02 -0.22707804916E+00 -0.56377730461E+01  0.72461539954E+02  0.69999960476E+02 0.  0.
        -12    1    1    2    0    0  0.17856210586E+02  0.22707804916E+00  0.56377730461E+01  0.18726460046E+02  0.00000000000E+00 0.  1.
         11    1    3    3    0    0 -0.26856123775E+01 -0.66871207669E+01 -0.10229564766E+01  0.72784983484E+01  0.51100000000E-03 0. -1.
        -11    1    3    3    0    0 -0.63715891082E+01 -0.22565925210E+02  0.16109234695E+02  0.28448647965E+02  0.51100000000E-03 0.  1.
         12    1    3    3    0    0 -0.87990091007E+01  0.29025967927E+02 -0.20724051264E+02  0.36734393640E+02  0.00000000000E+00 0. -1.
</event>
<event>
 7    1  0.1749439E-013  0.7246157E+02  0.7816164E-02  0.1226708E+00
        -11   -1    0    0    0    0  0.00000000000E+00  0.00000000000E+00  0.45593999997E+02  0.45594000000E+02  0.51100000000E-03 0.  1.
         11   -1    0    0    0    0 -0.00000000000E+00 -0.00000000000E+00 -0.45593999997E+02  0.45594000000E+02  0.51100000000E-03 0. -1.
    9900012    2    1    2    0    0  0.15614767375E+02  0.50737820266E+01 -0.90063816226E+01  0.72461571238E+02  0.70000001230E+02 0.  0.
        -12    1    1    2    0    0 -0.15614767375E+02 -0.50737820266E+01  0.90063816226E+01  0.18726428762E+02  0.00000000000E+00 0.  1.
         11    1    3    3    0    0 -0.11411872526E+02  0.16714754524E+01 -0.18081858167E+02  0.21447103762E+02  0.51100000000E-03 0. -1.
        -11    1    3    3    0    0  0.30211290464E+02  0.13193205444E+02  0.17848339701E+02  0.37487944352E+02  0.51100000000E-03 0.  1.
         12    1    3    3    0    0 -0.31846505626E+01 -0.97908988694E+01 -0.87728631566E+01  0.13526523125E+02  0.00000000000E+00 0. -1.
</event>
<event>
 7    1  0.1749439E-013  0.7246158E+02  0.7816164E-02  0.1226708E+00
        -11   -1    0    0    0    0  0.00000000000E+00  0.00000000000E+00  0.45593999997E+02  0.45594000000E+02  0.51100000000E-03 0.  1.
         11   -1    0    0    0    0 -0.00000000000E+00 -0.00000000000E+00 -0.45593999997E+02  0.45594000000E+02  0.51100000000E-03 0. -1.
    9900012    2    1    2    0    0  0.33923395821E+00  0.47457876093E+01 -0.18111903871E+02  0.72461584392E+02  0.70000018364E+02 0.  0.
        -12    1    1    2    0    0 -0.33923395821E+00 -0.47457876093E+01  0.18111903871E+02  0.18726415608E+02  0.00000000000E+00 0.  1.
         11    1    3    3    0    0 -0.19947905628E+02  0.89406138280E+01  0.15018107923E+02  0.26521634196E+02  0.51100000000E-03 0. -1.
        -11    1    3    3    0    0 -0.52342245789E+01  0.51473891771E+00 -0.94141124016E+01  0.10783671715E+02  0.51100000000E-03 0.  1.
        -12    1    3    3    0    0  0.25521364165E+02 -0.47095651365E+01 -0.23715899393E+02  0.35156278481E+02  0.00000000000E+00 0.  1.
</event>
<event>
 7    1  0.1749439E-013  0.7246170E+02  0.7816164E-02  0.1226708E+00
        -11   -1    0    0    0    0  0.00000000000E+00  0.00000000000E+00  0.45593999997E+02  0.45594000000E+02  0.51100000000E-03 0.  1.
         11   -1    0    0    0    0 -0.00000000000E+00 -0.00000000000E+00 -0.45593999997E+02  0.45594000000E+02  0.51100000000E-03 0. -1.
    9900012    2    1    2    0    0 -0.17710610644E+02  0.27386717771E+01 -0.54321418444E+01  0.72461702514E+02  0.70000172241E+02 0.  0.
        -12    1    1    2    0    0  0.17710610644E+02 -0.27386717771E+01  0.54321418444E+01  0.18726297486E+02  0.00000000000E+00 0.  1.
         11    1    3    3    0    0 -0.21727146672E+02  0.29910202705E+01  0.19579588494E+01  0.22019280367E+02  0.51100000000E-03 0. -1.
        -11    1    3    3    0    0 -0.86001496698E+01 -0.22621896564E+02 -0.41909727635E+01  0.24561698464E+02  0.51100000000E-03 0.  1.
        -12    1    3    3    0    0  0.12616685697E+02  0.22369548071E+02 -0.31991279304E+01  0.25880723683E+02  0.00000000000E+00 0.  1.
</event>
<event>
 7    1  0.1749439E-013  0.7246157E+02  0.7816164E-02  0.1226708E+00
        -11   -1    0    0    0    0  0.00000000000E+00  0.00000000000E+00  0.45593999997E+02  0.45594000000E+02  0.51100000000E-03 0.  1.
         11   -1    0    0    0    0 -0.00000000000E+00 -0.00000000000E+00 -0.45593999997E+02  0.45594000000E+02  0.51100000000E-03 0. -1.
    9900012    2    1    2    0    0  0.12437188839E+02 -0.12970765853E+02  0.52682599037E+01  0.72461574942E+02  0.70000006054E+02 0.  0.
        -12    1    1    2    0    0 -0.12437188839E+02  0.12970765853E+02 -0.52682599037E+01  0.18726425058E+02  0.00000000000E+00 0.  1.
         11    1    3    3    0    0  0.31571359687E+02 -0.19608938514E+02 -0.15101395419E+01  0.37195990965E+02  0.51100000000E-03 0. -1.
        -11    1    3    3    0    0  0.36747331133E+01 -0.28759173522E+01  0.93186855087E+01  0.10421730372E+02  0.51100000000E-03 0.  1.
        -12    1    3    3    0    0 -0.22808903961E+02  0.95140900132E+01 -0.25402860631E+01  0.24843853606E+02  0.00000000000E+00 0.  1.
</event>
<event>
 7    1  0.1749439E-013  0.7246160E+02  0.7816164E-02  0.1226708E+00
        -11   -1    0    0    0    0  0.00000000000E+00  0.00000000000E+00  0.45593999997E+02  0.45594000000E+02  0.51100000000E-03 0.  1.
         11   -1    0    0    0    0 -0.00000000000E+00 -0.00000000000E+00 -0.45593999997E+02  0.45594000000E+02  0.51100000000E-03 0. -1.
    9900012    2    1    2    0    0 -0.10848676798E+02  0.12109321506E+02 -0.92924010886E+01  0.72461596886E+02  0.70000034640E+02 0.  0.
        -12    1    1    2    0    0  0.10848676798E+02 -0.12109321506E+02  0.92924010886E+01  0.18726403114E+02  0.00000000000E+00 0.  1.
         11    1    3    3    0    0  0.19436856829E+02  0.21951313385E+02  0.13968562976E+01  0.29353070887E+02  0.51100000000E-03 0. -1.
        -11    1    3    3    0    0 -0.68914085373E+01  0.83891824763E+01  0.16567084213E+01  0.10982466813E+02  0.51100000000E-03 0.  1.
        -12    1    3    3    0    0 -0.23394125090E+02 -0.18231174355E+02 -0.12345965808E+02  0.32126059186E+02  0.00000000000E+00 0.  1.
</event>
<event>
 7    1  0.1749439E-013  0.7246161E+02  0.7816164E-02  0.1226708E+00
        -11   -1    0    0    0    0  0.00000000000E+00  0.00000000000E+00  0.45593999997E+02  0.45594000000E+02  0.51100000000E-03 0.  1.
         11   -1    0    0    0    0 -0.00000000000E+00 -0.00000000000E+00 -0.45593999997E+02  0.45594000000E+02  0.51100000000E-03 0. -1.
    9900012    2    1    2    0    0 -0.85020090256E+00 -0.13174578904E+02 -0.13281006218E+02  0.72461614950E+02  0.70000058173E+02 0.  0.
        -12    1    1    2    0    0  0.85020090256E+00  0.13174578904E+02  0.13281006218E+02  0.18726385050E+02  0.00000000000E+00 0.  1.
         11    1    3    3    0    0 -0.20498062987E+02 -0.81186694572E+01 -0.70925629929E+01  0.23160048144E+02  0.51100000000E-03 0. -1.
        -11    1    3    3    0    0 -0.10963451907E+02 -0.89962005923E+01  0.69068856022E+01  0.15774472156E+02  0.51100000000E-03 0.  1.
        -12    1    3    3    0    0  0.30611313991E+02  0.39402911459E+01 -0.13095328827E+02  0.33527094650E+02  0.00000000000E+00 0.  1.
</event>
<event>
 7    1  0.1749439E-013  0.7246127E+02  0.7816164E-02  0.1226709E+00
        -11   -1    0    0    0    0  0.00000000000E+00  0.00000000000E+00  0.45593999997E+02  0.45594000000E+02  0.51100000000E-03 0.  1.
         11   -1    0    0    0    0 -0.00000000000E+00 -0.00000000000E+00 -0.45593999997E+02  0.45594000000E+02  0.51100000000E-03 0. -1.
    9900012    2    1    2    0    0 -0.50583818900E+01 -0.15107986929E+01 -0.17967209651E+02  0.72461271437E+02  0.69999610682E+02 0.  0.
        -12    1    1    2    0    0  0.50583818900E+01  0.15107986929E+01  0.17967209651E+02  0.18726728563E+02  0.00000000000E+00 0.  1.
         11    1    3    3    0    0 -0.63357541525E+01  0.22137446193E+02 -0.11646273954E+01  0.23055686107E+02  0.51100000000E-03 0.  1.
        -11    1    3    3    0    0 -0.76503316729E+01 -0.67159116373E+01  0.11423388878E+02  0.15301139093E+02  0.51100000000E-03 0. -1.
         12    1    3    3    0    0  0.89277039353E+01 -0.16932333248E+02 -0.28225971133E+02  0.34104446238E+02  0.00000000000E+00 0. -1.
</event>
<event>
 7    1  0.1749439E-013  0.7246159E+02  0.7816164E-02  0.1226708E+00
        -11   -1    0    0    0    0  0.00000000000E+00  0.00000000000E+00  0.45593999997E+02  0.45594000000E+02  0.51100000000E-03 0.  1.
         11   -1    0    0    0    0 -0.00000000000E+00 -0.00000000000E+00 -0.45593999997E+02  0.45594000000E+02  0.51100000000E-03 0. -1.
    9900012    2    1    2    0    0 -0.12942504405E+02 -0.13039409287E+02  0.36254521970E+01  0.72461587677E+02  0.70000022645E+02 0.  0.
        -12    1    1    2    0    0  0.12942504405E+02  0.13039409287E+02 -0.36254521970E+01  0.18726412323E+02  0.00000000000E+00 0.  1.
         11    1    3    3    0    0 -0.45813900296E+01 -0.17162841877E+02 -0.12867923366E+01  0.17810337186E+02  0.51100000000E-03 0. -1.
        -11    1    3    3    0    0 -0.20412957883E+02 -0.19002583746E+02  0.60927036342E+01  0.28546594830E+02  0.51100000000E-03 0.  1.
         12    1    3    3    0    0  0.12051843507E+02  0.23126016336E+02 -0.11804591006E+01  0.26104655661E+02  0.00000000000E+00 0. -1.
</event>
<event>
 7    1  0.1749439E-013  0.7246178E+02  0.7816164E-02  0.1226707E+00
        -11   -1    0    0    0    0  0.00000000000E+00  0.00000000000E+00  0.45593999997E+02  0.45594000000E+02  0.51100000000E-03 0. -1.
         11   -1    0    0    0    0 -0.00000000000E+00 -0.00000000000E+00 -0.45593999997E+02  0.45594000000E+02  0.51100000000E-03 0.  1.
    9900012    2    1    2    0    0  0.16406723433E+02 -0.76149668716E+01  0.48479764094E+01  0.72461783897E+02  0.70000278257E+02 0.  0.
        -12    1    1    2    0    0 -0.16406723433E+02  0.76149668716E+01 -0.48479764094E+01  0.18726216103E+02  0.00000000000E+00 0.  1.
         11    1    3    3    0    0  0.29748053237E+02 -0.25173621354E+00  0.78405569432E+01  0.30764986201E+02  0.51100000000E-03 0. -1.
        -11    1    3    3    0    0 -0.15391660906E+01  0.11687541513E+02 -0.12652508252E+02  0.17293166980E+02  0.51100000000E-03 0.  1.
         12    1    3    3    0    0 -0.11802163714E+02 -0.19050772171E+02  0.96599277178E+01  0.24403630717E+02  0.00000000000E+00 0. -1.
</event>
<event>
 7    1  0.1749439E-013  0.7246157E+02  0.7816164E-02  0.1226708E+00
        -11   -1    0    0    0    0  0.00000000000E+00  0.00000000000E+00  0.45593999997E+02  0.45594000000E+02  0.51100000000E-03 0. -1.
         11   -1    0    0    0    0 -0.00000000000E+00 -0.00000000000E+00 -0.45593999997E+02  0.45594000000E+02  0.51100000000E-03 0.  1.
    9900012    2    1    2    0    0 -0.16084292986E+02 -0.82587678437E+01  0.48751809282E+01  0.72461571717E+02  0.70000001854E+02 0.  0.
        -12    1    1    2    0    0  0.16084292986E+02  0.82587678437E+01 -0.48751809282E+01  0.18726428283E+02  0.00000000000E+00 0.  1.
         11    1    3    3    0    0 -0.10045475071E+02 -0.49696792300E+01 -0.89230954259E+01  0.14325882636E+02  0.51100000000E-03 0. -1.
        -11    1    3    3    0    0 -0.22967138855E+01  0.25290427500E+02 -0.16226454477E+01  0.25446288459E+02  0.51100000000E-03 0.  1.
         12    1    3    3    0    0 -0.37421040290E+01 -0.28579516114E+02  0.15420921802E+02  0.32689400623E+02  0.00000000000E+00 0. -1.
</event>
<event>
 7    1  0.1749439E-013  0.7246157E+02  0.7816164E-02  0.1226708E+00
        -11   -1    0    0    0    0  0.00000000000E+00  0.00000000000E+00  0.45593999997E+02  0.45594000000E+02  0.51100000000E-03 0. -1.
         11   -1    0    0    0    0 -0.00000000000E+00 -0.00000000000E+00 -0.45593999997E+02  0.45594000000E+02  0.51100000000E-03 0.  1.
    9900012    2    1    2    0    0 -0.17124085509E+02 -0.61056651379E+01  0.44906143432E+01  0.72461572992E+02  0.70000003514E+02 0.  0.
        -12    1    1    2    0    0  0.17124085509E+02  0.61056651379E+01 -0.44906143432E+01  0.18726427008E+02  0.00000000000E+00 0.  1.
         11    1    3    3    0    0  0.18979259369E+02 -0.59366651212E+01  0.15595948706E+02  0.25272314798E+02  0.51100000000E-03 0. -1.
        -11    1    3    3    0    0 -0.17163975951E+01 -0.44979784560E+01  0.66798465806E+01  0.82339651139E+01  0.51100000000E-03 0.  1.
        -12    1    3    3    0    0 -0.34386947283E+02  0.43289784394E+01 -0.17785180943E+02  0.38955293080E+02  0.00000000000E+00 0.  1.
</event>
<event>
 7    1  0.1749439E-013  0.7246157E+02  0.7816164E-02  0.1226708E+00
        -11   -1    0    0    0    0  0.00000000000E+00  0.00000000000E+00  0.45593999997E+02  0.45594000000E+02  0.51100000000E-03 0.  1.
         11   -1    0    0    0    0 -0.00000000000E+00 -0.00000000000E+00 -0.45593999997E+02  0.45594000000E+02  0.51100000000E-03 0. -1.
    9900012    2    1    2    0    0  0.11369869848E+02  0.79080116025E+01 -0.12604315149E+02  0.72461565522E+02  0.69999993783E+02 0.  0.
        -12    1    1    2    0    0 -0.11369869848E+02 -0.79080116025E+01  0.12604315149E+02  0.18726434478E+02  0.00000000000E+00 0.  1.
         11    1    3    3    0    0 -0.93924637139E+01  0.15200670305E+02 -0.50116666613E+01  0.18557897384E+02  0.51100000000E-03 0. -1.
        -11    1    3    3    0    0  0.81486672663E+01  0.17601354911E+02  0.90576486991E+01  0.21406762322E+02  0.51100000000E-03 0.  1.
         12    1    3    3    0    0  0.12613666296E+02 -0.24894013613E+02 -0.16650297187E+02  0.32496905816E+02  0.00000000000E+00 0. -1.
</event>
<event>
 7    1  0.1749439E-013  0.7246153E+02  0.7816164E-02  0.1226708E+00
        -11   -1    0    0    0    0  0.00000000000E+00  0.00000000000E+00  0.45593999997E+02  0.45594000000E+02  0.51100000000E-03 0.  1.
         11   -1    0    0    0    0 -0.00000000000E+00 -0.00000000000E+00 -0.45593999997E+02  0.45594000000E+02  0.51100000000E-03 0. -1.
    9900012    2    1    2    0    0  0.32002474856E+01  0.86732600673E+01 -0.16285377221E+02  0.72461533825E+02  0.69999952493E+02 0.  0.
        -12    1    1    2    0    0 -0.32002474856E+01 -0.86732600673E+01  0.16285377221E+02  0.18726466175E+02  0.00000000000E+00 0.  1.
         11    1    3    3    0    0  0.29027503396E+02  0.16422104558E+02 -0.96982822604E+01  0.34732378994E+02  0.51100000000E-03 0. -1.
        -11    1    3    3    0    0 -0.41473962097E+01  0.74517057378E+01 -0.73235386135E+01  0.11241131251E+02  0.51100000000E-03 0.  1.
        -12    1    3    3    0    0 -0.21679859701E+02 -0.15200550229E+02  0.73644365320E+00  0.26488023580E+02  0.00000000000E+00 0.  1.
</event>
<event>
 7    1  0.1749439E-013  0.7246160E+02  0.7816164E-02  0.1226708E+00
        -11   -1    0    0    0    0  0.00000000000E+00  0.00000000000E+00  0.45593999997E+02  0.45594000000E+02  0.51100000000E-03 0. -1.
         11   -1    0    0    0    0 -0.00000000000E+00 -0.00000000000E+00 -0.45593999997E+02  0.45594000000E+02  0.51100000000E-03 0.  1.
    9900012    2    1    2    0    0  0.22871140556E+00 -0.43130188984E+01  0.18221514338E+02  0.72461600834E+02  0.70000039784E+02 0.  0.
        -12    1    1    2    0    0 -0.22871140556E+00  0.43130188984E+01 -0.18221514338E+02  0.18726399166E+02  0.00000000000E+00 0.  1.
         11    1    3    3    0    0  0.34213196651E+01  0.84666542884E+00  0.40502639661E+02  0.40655701819E+02  0.51100000000E-03 0. -1.
        -11    1    3    3    0    0  0.67310704745E+01 -0.86002029538E+01 -0.60840789902E+01  0.12501472633E+02  0.51100000000E-03 0.  1.
        -12    1    3    3    0    0 -0.99236787341E+01  0.34405186265E+01 -0.16197046333E+02  0.19304426382E+02  0.00000000000E+00 0.  1.
</event>
<event>
 7    1  0.1749439E-013  0.7246154E+02  0.7816164E-02  0.1226708E+00
        -11   -1    0    0    0    0  0.00000000000E+00  0.00000000000E+00  0.45593999997E+02  0.45594000000E+02  0.51100000000E-03 0.  1.
         11   -1    0    0    0    0 -0.00000000000E+00 -0.00000000000E+00 -0.45593999997E+02  0.45594000000E+02  0.51100000000E-03 0. -1.
    9900012    2    1    2    0    0 -0.50222795420E+01 -0.21216873420E+00 -0.18039179911E+02  0.72461539597E+02  0.69999960011E+02 0.  0.
        -12    1    1    2    0    0  0.50222795420E+01  0.21216873420E+00  0.18039179911E+02  0.18726460403E+02  0.00000000000E+00 0.  1.
         11    1    3    3    0    0  0.65942486935E+01  0.12832240461E+01  0.16680966786E+01  0.69219452883E+01  0.51100000000E-03 0. -1.
        -11    1    3    3    0    0  0.21073648066E+02  0.10441047496E+02  0.34038159235E+01  0.23763418919E+02  0.51100000000E-03 0.  1.
        -12    1    3    3    0    0 -0.32690176301E+02 -0.11936440276E+02 -0.23111092513E+02  0.41776175390E+02  0.00000000000E+00 0.  1.
</event>
<event>
 7    1  0.1749439E-013  0.7246156E+02  0.7816164E-02  0.1226708E+00
        -11   -1    0    0    0    0  0.00000000000E+00  0.00000000000E+00  0.45593999997E+02  0.45594000000E+02  0.51100000000E-03 0.  1.
         11   -1    0    0    0    0 -0.00000000000E+00 -0.00000000000E+00 -0.45593999997E+02  0.45594000000E+02  0.51100000000E-03 0. -1.
    9900012    2    1    2    0    0 -0.58900752240E+01  0.17247196386E+02 -0.43035619727E+01  0.72461563741E+02  0.69999991463E+02 0.  0.
        -12    1    1    2    0    0  0.58900752240E+01 -0.17247196386E+02  0.43035619727E+01  0.18726436259E+02  0.00000000000E+00 0.  1.
         11    1    3    3    0    0  0.17073415648E+01 -0.89698395928E+01 -0.14875703820E+02  0.17454500907E+02  0.51100000000E-03 0. -1.
        -11    1    3    3    0    0  0.16123498737E+02  0.20855286432E+02 -0.39897446965E+01  0.26661362431E+02  0.51100000000E-03 0.  1.
         12    1    3    3    0    0 -0.23720915526E+02  0.53617495465E+01  0.14561886543E+02  0.28345700402E+02  0.00000000000E+00 0. -1.
</event>
<event>
 7    1  0.1749439E-013  0.7246161E+02  0.7816164E-02  0.1226708E+00
        -11   -1    0    0    0    0  0.00000000000E+00  0.00000000000E+00  0.45593999997E+02  0.45594000000E+02  0.51100000000E-03 0.  1.
         11   -1    0    0    0    0 -0.00000000000E+00 -0.00000000000E+00 -0.45593999997E+02  0.45594000000E+02  0.51100000000E-03 0. -1.
    9900012    2    1    2    0    0 -0.11898209572E+02 -0.46183269565E+01 -0.13703327265E+02  0.72461614523E+02  0.70000057616E+02 0.  0.
        -12    1    1    2    0    0  0.11898209572E+02  0.46183269565E+01  0.13703327265E+02  0.18726385477E+02  0.00000000000E+00 0.  1.
         11    1    3    3    0    0  0.15978753509E+01 -0.11996442132E+01  0.83828271387E+01  0.86176645893E+01  0.51100000000E-03 0. -1.
        -11    1    3    3    0    0  0.13023567426E+02 -0.14409791439E+02  0.91065845499E+01  0.21451929523E+02  0.51100000000E-03 0.  1.
         12    1    3    3    0    0 -0.26519652349E+02  0.10991108696E+02 -0.31192738954E+02  0.42392020411E+02  0.00000000000E+00 0. -1.
</event>
<event>
 7    1  0.1749439E-013  0.7246156E+02  0.7816164E-02  0.1226708E+00
        -11   -1    0    0    0    0  0.00000000000E+00  0.00000000000E+00  0.45593999997E+02  0.45594000000E+02  0.51100000000E-03 0.  1.
         11   -1    0    0    0    0 -0.00000000000E+00 -0.00000000000E+00 -0.45593999997E+02  0.45594000000E+02  0.51100000000E-03 0. -1.
    9900012    2    1    2    0    0  0.60014222242E+00 -0.18666991352E+02 -0.13648176852E+01  0.72461562428E+02  0.69999989752E+02 0.  0.
        -12    1    1    2    0    0 -0.60014222242E+00  0.18666991352E+02  0.13648176852E+01  0.18726437572E+02  0.00000000000E+00 0.  1.
         11    1    3    3    0    0  0.15054046462E+02 -0.88616944259E+01 -0.18780913425E+01  0.17569324698E+02  0.51100000000E-03 0. -1.
        -11    1    3    3    0    0  0.47451960130E+01  0.48949593514E+01  0.21698251086E+02  0.22744045653E+02  0.51100000000E-03 0.  1.
         12    1    3    3    0    0 -0.19199100253E+02 -0.14700256278E+02 -0.21184977428E+02  0.32148192076E+02  0.00000000000E+00 0. -1.
</event>
<event>
 7    1  0.1749439E-013  0.7246153E+02  0.7816164E-02  0.1226708E+00
        -11   -1    0    0    0    0  0.00000000000E+00  0.00000000000E+00  0.45593999997E+02  0.45594000000E+02  0.51100000000E-03 0.  1.
         11   -1    0    0    0    0 -0.00000000000E+00 -0.00000000000E+00 -0.45593999997E+02  0.45594000000E+02  0.51100000000E-03 0. -1.
    9900012    2    1    2    0    0 -0.90426056874E+01 -0.73411622839E+01 -0.14663535407E+02  0.72461530713E+02  0.69999948439E+02 0.  0.
        -12    1    1    2    0    0  0.90426056874E+01  0.73411622839E+01  0.14663535407E+02  0.18726469287E+02  0.00000000000E+00 0.  1.
         11    1    3    3    0    0  0.87697873631E+01 -0.49832599073E+01 -0.64303347194E+01  0.11962075680E+02  0.51100000000E-03 0. -1.
        -11    1    3    3    0    0  0.38184478669E+01  0.18624112412E+02  0.13523748928E+02  0.23330878521E+02  0.51100000000E-03 0.  1.
         12    1    3    3    0    0 -0.21630840917E+02 -0.20982014788E+02 -0.21756949616E+02  0.37168576513E+02  0.00000000000E+00 0. -1.
</event>
<event>
 7    1  0.1749439E-013  0.7246168E+02  0.7816164E-02  0.1226708E+00
        -11   -1    0    0    0    0  0.00000000000E+00  0.00000000000E+00  0.45593999997E+02  0.45594000000E+02  0.51100000000E-03 0.  1.
         11   -1    0    0    0    0 -0.00000000000E+00 -0.00000000000E+00 -0.45593999997E+02  0.45594000000E+02  0.51100000000E-03 0. -1.
    9900012    2    1    2    0    0 -0.55023865264E+01 -0.33371588881E+01 -0.17585855119E+02  0.72461676624E+02  0.70000138514E+02 0.  0.
        -12    1    1    2    0    0  0.55023865264E+01  0.33371588881E+01  0.17585855119E+02  0.18726323376E+02  0.00000000000E+00 0.  1.
         11    1    3    3    0    0  0.14589979439E+02  0.14743511811E+02 -0.14443117646E+02  0.25275329635E+02  0.51100000000E-03 0. -1.
        -11    1    3    3    0    0 -0.62552547791E+00  0.91774609924E+01 -0.93544025235E+01  0.13119524352E+02  0.51100000000E-03 0.  1.
        -12    1    3    3    0    0 -0.19466840487E+02 -0.27258131692E+02  0.62116650503E+01  0.34066822637E+02  0.00000000000E+00 0.  1.
</event>
<event>
 7    1  0.1749439E-013  0.7246160E+02  0.7816164E-02  0.1226708E+00
        -11   -1    0    0    0    0  0.00000000000E+00  0.00000000000E+00  0.45593999997E+02  0.45594000000E+02  0.51100000000E-03 0. -1.
         11   -1    0    0    0    0 -0.00000000000E+00 -0.00000000000E+00 -0.45593999997E+02  0.45594000000E+02  0.51100000000E-03 0.  1.
    9900012    2    1    2    0    0 -0.16520658647E+02 -0.75427231127E+01  0.45665169313E+01  0.72461603898E+02  0.70000043776E+02 0.  0.
        -12    1    1    2    0    0  0.16520658647E+02  0.75427231127E+01 -0.45665169313E+01  0.18726396102E+02  0.00000000000E+00 0.  1.
         11    1    3    3    0    0 -0.50752304569E+01 -0.77285482028E+01  0.56846198585E+01  0.10853724002E+02  0.51100000000E-03 0. -1.
        -11    1    3    3    0    0 -0.16078711211E+02 -0.23837738922E+02 -0.16065169466E+02  0.32937097949E+02  0.51100000000E-03 0.  1.
         12    1    3    3    0    0  0.46332830209E+01  0.24023564012E+02  0.14947066538E+02  0.28670781947E+02  0.00000000000E+00 0. -1.
</event>
<event>
 7    1  0.1749439E-013  0.7246212E+02  0.7816164E-02  0.1226707E+00
        -11   -1    0    0    0    0  0.00000000000E+00  0.00000000000E+00  0.45593999997E+02  0.45594000000E+02  0.51100000000E-03 0.  1.
         11   -1    0    0    0    0 -0.00000000000E+00 -0.00000000000E+00 -0.45593999997E+02  0.45594000000E+02  0.51100000000E-03 0. -1.
    9900012    2    1    2    0    0  0.58689450776E+01 -0.17761345338E+02 -0.86516842490E+00  0.72462124294E+02  0.70000721684E+02 0.  0.
        -12    1    1    2    0    0 -0.58689450776E+01  0.17761345338E+02  0.86516842490E+00  0.18725875706E+02  0.00000000000E+00 0.  1.
         11    1    3    3    0    0  0.16914096011E+02 -0.19779345711E+00 -0.15298280803E+02  0.22807085783E+02  0.51100000000E-03 0. -1.
        -11    1    3    3    0    0  0.13407471763E+02 -0.54501644506E+01  0.16905814900E+02  0.22254688704E+02  0.51100000000E-03 0.  1.
        -12    1    3    3    0    0 -0.24452622696E+02 -0.12113387431E+02 -0.24727025216E+01  0.27400349807E+02  0.00000000000E+00 0.  1.
</event>
<event>
 7    1  0.1749439E-013  0.7246159E+02  0.7816164E-02  0.1226708E+00
        -11   -1    0    0    0    0  0.00000000000E+00  0.00000000000E+00  0.45593999997E+02  0.45594000000E+02  0.51100000000E-03 0.  1.
         11   -1    0    0    0    0 -0.00000000000E+00 -0.00000000000E+00 -0.45593999997E+02  0.45594000000E+02  0.51100000000E-03 0. -1.
    9900012    2    1    2    0    0 -0.16083444377E+02 -0.71286996922E+01 -0.64173986935E+01  0.72461586881E+02  0.70000021607E+02 0.  0.
        -12    1    1    2    0    0  0.16083444377E+02  0.71286996922E+01  0.64173986935E+01  0.18726413119E+02  0.00000000000E+00 0.  1.
         11    1    3    3    0    0  0.75467918925E+01 -0.22387149996E+02 -0.19118151624E+02  0.30391483587E+02  0.51100000000E-03 0. -1.
        -11    1    3    3    0    0 -0.88945856750E+01 -0.83835867278E+01  0.45737105137E+01  0.13050555884E+02  0.51100000000E-03 0.  1.
        -12    1    3    3    0    0 -0.14735650594E+02  0.23642037032E+02  0.81270424168E+01  0.29019547410E+02  0.00000000000E+00 0.  1.
</event>
<event>
 7    1  0.1749439E-013  0.7246156E+02  0.7816164E-02  0.1226708E+00
        -11   -1    0    0    0    0  0.00000000000E+00  0.00000000000E+00  0.45593999997E+02  0.45594000000E+02  0.51100000000E-03 0.  1.
         11   -1    0    0    0    0 -0.00000000000E+00 -0.00000000000E+00 -0.45593999997E+02  0.45594000000E+02  0.51100000000E-03 0. -1.
    9900012    2    1    2    0    0  0.40494775475E+00 -0.14698648943E+02  0.11595915219E+02  0.72461561119E+02  0.69999988047E+02 0.  0.
        -12    1    1    2    0    0 -0.40494775475E+00  0.14698648943E+02 -0.11595915219E+02  0.18726438881E+02  0.00000000000E+00 0.  1.
         11    1    3    3    0    0  0.94042319890E+01  0.88092922258E+01 -0.16894407889E+01  0.12996053988E+02  0.51100000000E-03 0. -1.
        -11    1    3    3    0    0  0.15704103004E+02 -0.26362298821E+02 -0.11588506383E+01  0.30707207385E+02  0.51100000000E-03 0.  1.
        -12    1    3    3    0    0 -0.24703387238E+02  0.28543576528E+01  0.14444206646E+02  0.28758299746E+02  0.00000000000E+00 0.  1.
</event>
<event>
 7    1  0.1749439E-013  0.7246160E+02  0.7816164E-02  0.1226708E+00
        -11   -1    0    0    0    0  0.00000000000E+00  0.00000000000E+00  0.45593999997E+02  0.45594000000E+02  0.51100000000E-03 0.  1.
         11   -1    0    0    0    0 -0.00000000000E+00 -0.00000000000E+00 -0.45593999997E+02  0.45594000000E+02  0.51100000000E-03 0. -1.
    9900012    2    1    2    0    0  0.48611264811E+01  0.23212361685E+01 -0.17934862366E+02  0.72461602159E+02  0.70000041510E+02 0.  0.
        -12    1    1    2    0    0 -0.48611264811E+01 -0.23212361685E+01  0.17934862366E+02  0.18726397841E+02  0.00000000000E+00 0.  1.
         11    1    3    3    0    0 -0.25243467603E+01  0.16021086939E+02 -0.25204761303E+02  0.29972112803E+02  0.51100000000E-03 0. -1.
        -11    1    3    3    0    0  0.21806923229E+02 -0.26874638428E+00  0.10889429145E+01  0.21835748723E+02  0.51100000000E-03 0.  1.
         12    1    3    3    0    0 -0.14421449988E+02 -0.13431104386E+02  0.61809560228E+01  0.20653740633E+02  0.00000000000E+00 0. -1.
</event>
<event>
 7    1  0.1749439E-013  0.7246162E+02  0.7816164E-02  0.1226708E+00
        -11   -1    0    0    0    0  0.00000000000E+00  0.00000000000E+00  0.45593999997E+02  0.45594000000E+02  0.51100000000E-03 0.  1.
         11   -1    0    0    0    0 -0.00000000000E+00 -0.00000000000E+00 -0.45593999997E+02  0.45594000000E+02  0.51100000000E-03 0. -1.
    9900012    2    1    2    0    0 -0.55536214304E+01  0.47990184544E+01  0.17227998125E+02  0.72461622653E+02  0.70000068207E+02 0.  0.
        -12    1    1    2    0    0  0.55536214304E+01 -0.47990184544E+01 -0.17227998125E+02  0.18726377347E+02  0.00000000000E+00 0.  1.
         11    1    3    3    0    0 -0.38191358370E+01 -0.18871424304E+02  0.12360507044E+02  0.22880091530E+02  0.51100000000E-03 0. -1.
        -11    1    3    3    0    0  0.15860945353E+02  0.61292845749E+01  0.15071908865E+02  0.22722239194E+02  0.51100000000E-03 0.  1.
         12    1    3    3    0    0 -0.17595430947E+02  0.17541158183E+02 -0.10204417784E+02  0.26859291929E+02  0.00000000000E+00 0. -1.
</event>
<event>
 7    1  0.1749439E-013  0.7246158E+02  0.7816164E-02  0.1226708E+00
        -11   -1    0    0    0    0  0.00000000000E+00  0.00000000000E+00  0.45593999997E+02  0.45594000000E+02  0.51100000000E-03 0. -1.
         11   -1    0    0    0    0 -0.00000000000E+00 -0.00000000000E+00 -0.45593999997E+02  0.45594000000E+02  0.51100000000E-03 0.  1.
    9900012    2    1    2    0    0 -0.49523483453E+01  0.14805266731E+02  0.10342014722E+02  0.72461576272E+02  0.70000007788E+02 0.  0.
        -12    1    1    2    0    0  0.49523483453E+01 -0.14805266731E+02 -0.10342014722E+02  0.18726423728E+02  0.00000000000E+00 0.  1.
         11    1    3    3    0    0  0.83943006308E+01  0.24629108866E+02  0.18439342591E+02  0.31891482281E+02  0.51100000000E-03 0. -1.
        -11    1    3    3    0    0 -0.71097152256E+01  0.11524554200E+02  0.53728970122E+01  0.14568164698E+02  0.51100000000E-03 0.  1.
        -12    1    3    3    0    0 -0.62369337506E+01 -0.21348396335E+02 -0.13470224881E+02  0.26001929294E+02  0.00000000000E+00 0.  1.
</event>
<event>
 7    1  0.1749439E-013  0.7246157E+02  0.7816164E-02  0.1226708E+00
        -11   -1    0    0    0    0  0.00000000000E+00  0.00000000000E+00  0.45593999997E+02  0.45594000000E+02  0.51100000000E-03 0. -1.
         11   -1    0    0    0    0 -0.00000000000E+00 -0.00000000000E+00 -0.45593999997E+02  0.45594000000E+02  0.51100000000E-03 0.  1.
    9900012    2    1    2    0    0  0.85983193864E+01 -0.10027178304E+02  0.13274180423E+02  0.72461567694E+02  0.69999996613E+02 0.  0.
        -12    1    1    2    0    0 -0.85983193864E+01  0.10027178304E+02 -0.13274180423E+02  0.18726432306E+02  0.00000000000E+00 0.  1.
         11    1    3    3    0    0  0.18223900091E+02 -0.23388621889E+02 -0.14077835548E+02  0.32822608403E+02  0.51100000000E-03 0.  1.
        -11    1    3    3    0    0 -0.12064351533E+02  0.49489518293E+01  0.24852131003E+01  0.13274674630E+02  0.51100000000E-03 0. -1.
        -12    1    3    3    0    0  0.24387708282E+01  0.84124917557E+01  0.24866802871E+02  0.26364284662E+02  0.00000000000E+00 0.  1.
</event>
<event>
 7    1  0.1749439E-013  0.7246209E+02  0.7816164E-02  0.1226707E+00
        -11   -1    0    0    0    0  0.00000000000E+00  0.00000000000E+00  0.45593999997E+02  0.45594000000E+02  0.51100000000E-03 0.  1.
         11   -1    0    0    0    0 -0.00000000000E+00 -0.00000000000E+00 -0.45593999997E+02  0.45594000000E+02  0.51100000000E-03 0. -1.
    9900012    2    1    2    0    0 -0.51496602726E+01  0.17476348640E+02 -0.43264114142E+01  0.72462092854E+02  0.70000680727E+02 0.  0.
        -12    1    1    2    0    0  0.51496602726E+01 -0.17476348640E+02  0.43264114142E+01  0.18725907146E+02  0.00000000000E+00 0.  1.
         11    1    3    3    0    0 -0.10418363913E+02 -0.95719252401E+01  0.25198631659E+00  0.14150178684E+02  0.51100000000E-03 0. -1.
        -11    1    3    3    0    0 -0.14076315102E+02  0.33609642625E+02 -0.87238359786E+01  0.37468066919E+02  0.51100000000E-03 0.  1.
         12    1    3    3    0    0  0.19345018742E+02 -0.65613687441E+01  0.41454382478E+01  0.20843847251E+02  0.00000000000E+00 0. -1.
</event>
<event>
 7    1  0.1749439E-013  0.7246156E+02  0.7816164E-02  0.1226708E+00
        -11   -1    0    0    0    0  0.00000000000E+00  0.00000000000E+00  0.45593999997E+02  0.45594000000E+02  0.51100000000E-03 0.  1.
         11   -1    0    0    0    0 -0.00000000000E+00 -0.00000000000E+00 -0.45593999997E+02  0.45594000000E+02  0.51100000000E-03 0. -1.
    9900012    2    1    2    0    0  0.15465866225E+02 -0.10556385823E+02 -0.22170950195E+00  0.72461562676E+02  0.69999990076E+02 0.  0.
        -12    1    1    2    0    0 -0.15465866225E+02  0.10556385823E+02  0.22170950195E+00  0.18726437324E+02  0.00000000000E+00 0.  1.
         11    1    3    3    0    0  0.21926996823E+02 -0.23655121491E+01 -0.23889563736E+01  0.22183235793E+02  0.51100000000E-03 0. -1.
        -11    1    3    3    0    0  0.20013888036E+02 -0.17325301369E+01  0.92582507001E+01  0.22119506805E+02  0.51100000000E-03 0.  1.
        -12    1    3    3    0    0 -0.26475018634E+02 -0.64583435368E+01 -0.70910038284E+01  0.28158820079E+02  0.00000000000E+00 0.  1.
</event>
<event>
 7    1  0.1749439E-013  0.7246156E+02  0.7816164E-02  0.1226708E+00
        -11   -1    0    0    0    0  0.00000000000E+00  0.00000000000E+00  0.45593999997E+02  0.45594000000E+02  0.51100000000E-03 0.  1.
         11   -1    0    0    0    0 -0.00000000000E+00 -0.00000000000E+00 -0.45593999997E+02  0.45594000000E+02  0.51100000000E-03 0. -1.
    9900012    2    1    2    0    0  0.67927741764E+01  0.15502455520E+02 -0.80132068884E+01  0.72461564332E+02  0.69999992234E+02 0.  0.
        -12    1    1    2    0    0 -0.67927741764E+01 -0.15502455520E+02  0.80132068884E+01  0.18726435668E+02  0.00000000000E+00 0.  1.
         11    1    3    3    0    0  0.87106706540E+01 -0.79161091831E+01 -0.26307075202E+02  0.28820179975E+02  0.51100000000E-03 0. -1.
        -11    1    3    3    0    0  0.57815582436E+01 -0.63977038813E+01  0.58906270277E+01  0.10443012866E+02  0.51100000000E-03 0.  1.
        -12    1    3    3    0    0 -0.76994547212E+01  0.29816268585E+02  0.12403241286E+02  0.33198371492E+02  0.00000000000E+00 0.  1.
</event>
<event>
 7    1  0.1749439E-013  0.7246159E+02  0.7816164E-02  0.1226708E+00
        -11   -1    0    0    0    0  0.00000000000E+00  0.00000000000E+00  0.45593999997E+02  0.45594000000E+02  0.51100000000E-03 0. -1.
         11   -1    0    0    0    0 -0.00000000000E+00 -0.00000000000E+00 -0.45593999997E+02  0.45594000000E+02  0.51100000000E-03 0.  1.
    9900012    2    1    2    0    0  0.12010174664E+02 -0.71970361636E+01  0.12435312213E+02  0.72461585105E+02  0.70000019293E+02 0.  0.
        -12    1    1    2    0    0 -0.12010174664E+02  0.71970361636E+01 -0.12435312213E+02  0.18726414895E+02  0.00000000000E+00 0.  1.
         11    1    3    3    0    0  0.28041316511E+00 -0.14143884048E+02 -0.31539840047E+01  0.14493988508E+02  0.51100000000E-03 0. -1.
        -11    1    3    3    0    0 -0.70126783376E+01 -0.20976117341E+02  0.77525113947E+01  0.23436650557E+02  0.51100000000E-03 0.  1.
        -12    1    3    3    0    0  0.18742439836E+02  0.27922965225E+02  0.78367848230E+01  0.34530946039E+02  0.00000000000E+00 0.  1.
</event>
<event>
 7    1  0.1749439E-013  0.7246156E+02  0.7816164E-02  0.1226708E+00
        -11   -1    0    0    0    0  0.00000000000E+00  0.00000000000E+00  0.45593999997E+02  0.45594000000E+02  0.51100000000E-03 0.  1.
         11   -1    0    0    0    0 -0.00000000000E+00 -0.00000000000E+00 -0.45593999997E+02  0.45594000000E+02  0.51100000000E-03 0. -1.
    9900012    2    1    2    0    0 -0.52517787043E+01 -0.90338142986E+01 -0.15539900033E+02  0.72461562182E+02  0.69999989432E+02 0.  0.
        -12    1    1    2    0    0  0.52517787043E+01  0.90338142986E+01  0.15539900033E+02  0.18726437818E+02  0.00000000000E+00 0.  1.
         11    1    3    3    0    0  0.28273576867E+02 -0.31758423269E+01 -0.11135379886E+02  0.30552869077E+02  0.51100000000E-03 0. -1.
        -11    1    3    3    0    0 -0.26850850688E+02 -0.14107586240E+01 -0.13244181331E+02  0.29972767005E+02  0.51100000000E-03 0.  1.
        -12    1    3    3    0    0 -0.66745048834E+01 -0.44472133477E+01  0.88396611843E+01  0.11935926099E+02  0.00000000000E+00 0.  1.
</event>
<event>
 7    1  0.1749439E-013  0.7246198E+02  0.7816164E-02  0.1226707E+00
        -11   -1    0    0    0    0  0.00000000000E+00  0.00000000000E+00  0.45593999997E+02  0.45594000000E+02  0.51100000000E-03 0. -1.
         11   -1    0    0    0    0 -0.00000000000E+00 -0.00000000000E+00 -0.45593999997E+02  0.45594000000E+02  0.51100000000E-03 0.  1.
    9900012    2    1    2    0    0  0.13342439098E+02  0.42191188282E+01  0.12443552833E+02  0.72461984623E+02  0.70000539738E+02 0.  0.
        -12    1    1    2    0    0 -0.13342439098E+02 -0.42191188282E+01 -0.12443552833E+02  0.18726015377E+02  0.00000000000E+00 0.  1.
         11    1    3    3    0    0  0.25738692180E+02  0.13997431134E+02  0.99655640992E+01  0.30947064830E+02  0.51100000000E-03 0. -1.
        -11    1    3    3    0    0  0.68079595570E+00  0.13256871153E+02  0.64021220083E+01  0.14737546687E+02  0.51100000000E-03 0.  1.
         12    1    3    3    0    0 -0.13077049037E+02 -0.23035183459E+02 -0.39241332747E+01  0.26777373106E+02  0.00000000000E+00 0. -1.
</event>
<event>
 7    1  0.1749439E-013  0.7246165E+02  0.7816164E-02  0.1226708E+00
        -11   -1    0    0    0    0  0.00000000000E+00  0.00000000000E+00  0.45593999997E+02  0.45594000000E+02  0.51100000000E-03 0.  1.
         11   -1    0    0    0    0 -0.00000000000E+00 -0.00000000000E+00 -0.45593999997E+02  0.45594000000E+02  0.51100000000E-03 0. -1.
    9900012    2    1    2    0    0 -0.17285175513E+01 -0.66199495115E+01 -0.17431716449E+02  0.72461648438E+02  0.70000101796E+02 0.  0.
        -12    1    1    2    0    0  0.17285175513E+01  0.66199495115E+01  0.17431716449E+02  0.18726351562E+02  0.00000000000E+00 0.  1.
         11    1    3    3    0    0 -0.11106125569E+02 -0.17497448429E+01 -0.27310844416E+02  0.29534553580E+02  0.51100000000E-03 0. -1.
        -11    1    3    3    0    0  0.16478697439E+02  0.10073434992E+02  0.16207402018E+02  0.25213120438E+02  0.51100000000E-03 0.  1.
         12    1    3    3    0    0 -0.71010894213E+01 -0.14943639661E+02 -0.63282740510E+01  0.17713974420E+02  0.00000000000E+00 0. -1.
</event>
<event>
 7    1  0.1749439E-013  0.7246157E+02  0.7816164E-02  0.1226708E+00
        -11   -1    0    0    0    0  0.00000000000E+00  0.00000000000E+00  0.45593999997E+02  0.45594000000E+02  0.51100000000E-03 0.  1.
         11   -1    0    0    0    0 -0.00000000000E+00 -0.00000000000E+00 -0.45593999997E+02  0.45594000000E+02  0.51100000000E-03 0. -1.
    9900012    2    1    2    0    0  0.12063330121E+02 -0.14193335942E+02 -0.19246973542E+01  0.72461570050E+02  0.69999999681E+02 0.  0.
        -12    1    1    2    0    0 -0.12063330121E+02  0.14193335942E+02  0.19246973542E+01  0.18726429950E+02  0.00000000000E+00 0.  1.
         11    1    3    3    0    0  0.20234778565E+01 -0.22888576018E+02 -0.67756195688E+00  0.22987832982E+02  0.51100000000E-03 0. -1.
        -11    1    3    3    0    0  0.20708759945E+02 -0.87318951163E+01 -0.12937712181E+02  0.25932279644E+02  0.51100000000E-03 0.  1.
        -12    1    3    3    0    0 -0.10668907680E+02  0.17427135192E+02  0.11690576784E+02  0.23541457424E+02  0.00000000000E+00 0.  1.
</event>
<event>
 7    1  0.1749439E-013  0.7246158E+02  0.7816164E-02  0.1226708E+00
        -11   -1    0    0    0    0  0.00000000000E+00  0.00000000000E+00  0.45593999997E+02  0.45594000000E+02  0.51100000000E-03 0. -1.
         11   -1    0    0    0    0 -0.00000000000E+00 -0.00000000000E+00 -0.45593999997E+02  0.45594000000E+02  0.51100000000E-03 0.  1.
    9900012    2    1    2    0    0  0.58804936858E+01  0.21260736417E+01  0.17651584413E+02  0.72461579429E+02  0.70000011900E+02 0.  0.
        -12    1    1    2    0    0 -0.58804936858E+01 -0.21260736417E+01 -0.17651584413E+02  0.18726420571E+02  0.00000000000E+00 0.  1.
         11    1    3    3    0    0  0.56290733754E+01 -0.21756228629E+02  0.81217310408E+00  0.22487320353E+02  0.51100000000E-03 0. -1.
        -11    1    3    3    0    0  0.86443783993E+01  0.34387400239E+00  0.22711695779E+02  0.24303593410E+02  0.51100000000E-03 0.  1.
        -12    1    3    3    0    0 -0.83929580889E+01  0.23538428269E+02 -0.58722844700E+01  0.25670665666E+02  0.00000000000E+00 0.  1.
</event>
<event>
 7    1  0.1749439E-013  0.7246177E+02  0.7816164E-02  0.1226707E+00
        -11   -1    0    0    0    0  0.00000000000E+00  0.00000000000E+00  0.45593999997E+02  0.45594000000E+02  0.51100000000E-03 0. -1.
         11   -1    0    0    0    0 -0.00000000000E+00 -0.00000000000E+00 -0.45593999997E+02  0.45594000000E+02  0.51100000000E-03 0.  1.
    9900012    2    1    2    0    0 -0.44449737716E+01  0.32357502601E+01  0.17900942526E+02  0.72461772006E+02  0.70000262766E+02 0.  0.
        -12    1    1    2    0    0  0.44449737716E+01 -0.32357502601E+01 -0.17900942526E+02  0.18726227994E+02  0.00000000000E+00 0.  1.
         11    1    3    3    0    0 -0.23427783482E+02 -0.20738639987E+02  0.21760657011E+02  0.38111394900E+02  0.51100000000E-03 0. -1.
        -11    1    3    3    0    0 -0.23082388631E+01  0.49108235134E+00 -0.85539036085E+00  0.25101437121E+01  0.51100000000E-03 0.  1.
        -12    1    3    3    0    0  0.21291048574E+02  0.23483307896E+02 -0.30043241245E+01  0.31840233393E+02  0.00000000000E+00 0.  1.
</event>
<event>
 7    1  0.1749439E-013  0.7246158E+02  0.7816164E-02  0.1226708E+00
        -11   -1    0    0    0    0  0.00000000000E+00  0.00000000000E+00  0.45593999997E+02  0.45594000000E+02  0.51100000000E-03 0.  1.
         11   -1    0    0    0    0 -0.00000000000E+00 -0.00000000000E+00 -0.45593999997E+02  0.45594000000E+02  0.51100000000E-03 0. -1.
    9900012    2    1    2    0    0 -0.90682917388E+00 -0.68890195766E+01 -0.17389596207E+02  0.72461575191E+02  0.70000006379E+02 0.  0.
        -12    1    1    2    0    0  0.90682917388E+00  0.68890195766E+01  0.17389596207E+02  0.18726424809E+02  0.00000000000E+00 0.  1.
         11    1    3    3    0    0 -0.77137512179E+01 -0.55344383746E+01 -0.78305247620E+01  0.12306465142E+02  0.51100000000E-03 0. -1.
        -11    1    3    3    0    0 -0.21487809170E+02 -0.14167884243E+02  0.43830599678E+01  0.26108736121E+02  0.51100000000E-03 0.  1.
        -12    1    3    3    0    0  0.28294731214E+02  0.12813303041E+02 -0.13942131413E+02  0.34046373928E+02  0.00000000000E+00 0.  1.
</event>
<event>
 7    1  0.1749439E-013  0.7246155E+02  0.7816164E-02  0.1226708E+00
        -11   -1    0    0    0    0  0.00000000000E+00  0.00000000000E+00  0.45593999997E+02  0.45594000000E+02  0.51100000000E-03 0.  1.
         11   -1    0    0    0    0 -0.00000000000E+00 -0.00000000000E+00 -0.45593999997E+02  0.45594000000E+02  0.51100000000E-03 0. -1.
    9900012    2    1    2    0    0  0.15822287601E+02 -0.58771199231E+01 -0.81113809182E+01  0.72461552822E+02  0.69999977239E+02 0.  0.
        -12    1    1    2    0    0 -0.15822287601E+02  0.58771199231E+01  0.81113809182E+01  0.18726447178E+02  0.00000000000E+00 0.  1.
         11    1    3    3    0    0 -0.88478058044E+01  0.12645057529E+02 -0.13408226525E+02  0.20444111286E+02  0.51100000000E-03 0. -1.
        -11    1    3    3    0    0 -0.99425243426E+01 -0.13453565533E+01  0.86293591288E+01  0.13233654589E+02  0.51100000000E-03 0.  1.
        -12    1    3    3    0    0  0.34612617748E+02 -0.17176820899E+02 -0.33325135220E+01  0.38783786947E+02  0.00000000000E+00 0.  1.
</event>
<event>
 7    1  0.1749439E-013  0.7246158E+02  0.7816164E-02  0.1226708E+00
        -11   -1    0    0    0    0  0.00000000000E+00  0.00000000000E+00  0.45593999997E+02  0.45594000000E+02  0.51100000000E-03 0. -1.
         11   -1    0    0    0    0 -0.00000000000E+00 -0.00000000000E+00 -0.45593999997E+02  0.45594000000E+02  0.51100000000E-03 0.  1.
    9900012    2    1    2    0    0  0.20112163236E+01 -0.77065232563E+00  0.18602151321E+02  0.72461576692E+02  0.70000008335E+02 0.  0.
        -12    1    1    2    0    0 -0.20112163236E+01  0.77065232563E+00 -0.18602151321E+02  0.18726423308E+02  0.00000000000E+00 0.  1.
         11    1    3    3    0    0 -0.95408381438E+01 -0.17877089630E+00 -0.41699719970E+01  0.10413847427E+02  0.51100000000E-03 0. -1.
        -11    1    3    3    0    0 -0.54760442853E+01 -0.35670691933E+01 -0.17253023173E+02  0.18449332035E+02  0.51100000000E-03 0.  1.
         12    1    3    3    0    0  0.17028098753E+02  0.29751877640E+01  0.40025146492E+02  0.43598397230E+02  0.00000000000E+00 0. -1.
</event>
<event>
 7    1  0.1749439E-013  0.7246231E+02  0.7816164E-02  0.1226706E+00
        -11   -1    0    0    0    0  0.00000000000E+00  0.00000000000E+00  0.45593999997E+02  0.45594000000E+02  0.51100000000E-03 0. -1.
         11   -1    0    0    0    0 -0.00000000000E+00 -0.00000000000E+00 -0.45593999997E+02  0.45594000000E+02  0.51100000000E-03 0.  1.
    9900012    2    1    2    0    0 -0.31205369704E+01  0.18331287797E+02 -0.22085033483E+01  0.72462313089E+02  0.70000967621E+02 0.  0.
        -12    1    1    2    0    0  0.31205369704E+01 -0.18331287797E+02  0.22085033483E+01  0.18725686911E+02  0.00000000000E+00 0.  1.
         11    1    3    3    0    0 -0.20056514675E+01  0.22021789797E+02 -0.21009278928E+02  0.30501994444E+02  0.51100000000E-03 0. -1.
        -11    1    3    3    0    0 -0.49410817397E+01 -0.12021762659E+02 -0.68700656749E+01  0.14701526072E+02  0.51100000000E-03 0.  1.
         12    1    3    3    0    0  0.38261962367E+01  0.83312606586E+01  0.25670841255E+02  0.27258792573E+02  0.00000000000E+00 0. -1.
</event>
<event>
 7    1  0.1749439E-013  0.7246154E+02  0.7816164E-02  0.1226708E+00
        -11   -1    0    0    0    0  0.00000000000E+00  0.00000000000E+00  0.45593999997E+02  0.45594000000E+02  0.51100000000E-03 0. -1.
         11   -1    0    0    0    0 -0.00000000000E+00 -0.00000000000E+00 -0.45593999997E+02  0.45594000000E+02  0.51100000000E-03 0.  1.
    9900012    2    1    2    0    0  0.20298141808E+01  0.40096934177E+01  0.18179177566E+02  0.72461540541E+02  0.69999961241E+02 0.  0.
        -12    1    1    2    0    0 -0.20298141808E+01 -0.40096934177E+01 -0.18179177566E+02  0.18726459459E+02  0.00000000000E+00 0.  1.
         11    1    3    3    0    0  0.15716409847E+02  0.82703628149E+01  0.27055449366E+02  0.32363587258E+02  0.51100000000E-03 0. -1.
        -11    1    3    3    0    0 -0.51016565264E+01 -0.39191539054E+01  0.14137662074E+02  0.15532551491E+02  0.51100000000E-03 0.  1.
        -12    1    3    3    0    0 -0.85849391399E+01 -0.34151549184E+00 -0.23013933874E+02  0.24565401792E+02  0.00000000000E+00 0.  1.
</event>
<event>
 7    1  0.1749439E-013  0.7246150E+02  0.7816164E-02  0.1226708E+00
        -11   -1    0    0    0    0  0.00000000000E+00  0.00000000000E+00  0.45593999997E+02  0.45594000000E+02  0.51100000000E-03 0.  1.
         11   -1    0    0    0    0 -0.00000000000E+00 -0.00000000000E+00 -0.45593999997E+02  0.45594000000E+02  0.51100000000E-03 0. -1.
    9900012    2    1    2    0    0  0.10734937633E+02  0.57307552892E+01 -0.14233807017E+02  0.72461502613E+02  0.69999911832E+02 0.  0.
        -12    1    1    2    0    0 -0.10734937633E+02 -0.57307552892E+01  0.14233807017E+02  0.18726497387E+02  0.00000000000E+00 0.  1.
         11    1    3    3    0    0  0.30548435867E+02  0.10594328136E+02 -0.57074172278E+01  0.32833235209E+02  0.51100000000E-03 0. -1.
        -11    1    3    3    0    0 -0.54831379908E+01 -0.71355595519E+01  0.11684725113E+02  0.14748349520E+02  0.51100000000E-03 0.  1.
        -12    1    3    3    0    0 -0.14330360243E+02  0.22719867047E+01 -0.20211114903E+02  0.24879917884E+02  0.00000000000E+00 0.  1.
</event>
<event>
 7    1  0.1749439E-013  0.7246172E+02  0.7816164E-02  0.1226708E+00
        -11   -1    0    0    0    0  0.00000000000E+00  0.00000000000E+00  0.45593999997E+02  0.45594000000E+02  0.51100000000E-03 0.  1.
         11   -1    0    0    0    0 -0.00000000000E+00 -0.00000000000E+00 -0.45593999997E+02  0.45594000000E+02  0.51100000000E-03 0. -1.
    9900012    2    1    2    0    0  0.10254573619E+01 -0.96460888577E+01  0.16017952276E+02  0.72461724659E+02  0.70000201088E+02 0.  0.
        -12    1    1    2    0    0 -0.10254573619E+01  0.96460888577E+01 -0.16017952276E+02  0.18726275341E+02  0.00000000000E+00 0.  1.
         11    1    3    3    0    0 -0.94664598052E+01 -0.77407348038E+01  0.16462814517E+02  0.20507488842E+02  0.51100000000E-03 0. -1.
        -11    1    3    3    0    0  0.92882909149E+01  0.22826605419E+02  0.78121373288E+01  0.25852577298E+02  0.51100000000E-03 0.  1.
         12    1    3    3    0    0  0.12036262523E+01 -0.24731959472E+02 -0.82569995697E+01  0.26101658518E+02  0.00000000000E+00 0. -1.
</event>
<event>
 7    1  0.1749439E-013  0.7246162E+02  0.7816164E-02  0.1226708E+00
        -11   -1    0    0    0    0  0.00000000000E+00  0.00000000000E+00  0.45593999997E+02  0.45594000000E+02  0.51100000000E-03 0.  1.
         11   -1    0    0    0    0 -0.00000000000E+00 -0.00000000000E+00 -0.45593999997E+02  0.45594000000E+02  0.51100000000E-03 0. -1.
    9900012    2    1    2    0    0  0.10541277420E+02  0.11745999125E+01 -0.15433050459E+02  0.72461621251E+02  0.70000066380E+02 0.  0.
        -12    1    1    2    0    0 -0.10541277420E+02 -0.11745999125E+01  0.15433050459E+02  0.18726378749E+02  0.00000000000E+00 0.  1.
         11    1    3    3    0    0 -0.46030039381E+01 -0.13102867423E+02  0.49228207211E+01  0.14734549334E+02  0.51100000000E-03 0. -1.
        -11    1    3    3    0    0  0.37874507163E+01  0.87287752448E+01  0.16343757634E+02  0.18911761263E+02  0.51100000000E-03 0.  1.
         12    1    3    3    0    0  0.11356830642E+02  0.55486920906E+01 -0.36699628814E+02  0.38815310654E+02  0.00000000000E+00 0. -1.
</event>
<event>
 7    1  0.1749439E-013  0.7246155E+02  0.7816164E-02  0.1226708E+00
        -11   -1    0    0    0    0  0.00000000000E+00  0.00000000000E+00  0.45593999997E+02  0.45594000000E+02  0.51100000000E-03 0. -1.
         11   -1    0    0    0    0 -0.00000000000E+00 -0.00000000000E+00 -0.45593999997E+02  0.45594000000E+02  0.51100000000E-03 0.  1.
    9900012    2    1    2    0    0  0.19702716285E+01 -0.18239871242E+02  0.37556511495E+01  0.72461553760E+02  0.69999978461E+02 0.  0.
        -12    1    1    2    0    0 -0.19702716285E+01  0.18239871242E+02 -0.37556511495E+01  0.18726446240E+02  0.00000000000E+00 0.  1.
         11    1    3    3    0    0 -0.21221431528E+02 -0.49579328621E+01 -0.17869867499E+01  0.21866037050E+02  0.51100000000E-03 0. -1.
        -11    1    3    3    0    0 -0.37070141131E-01  0.83921271912E+01 -0.11738224063E+02  0.14429659642E+02  0.51100000000E-03 0.  1.
        -12    1    3    3    0    0  0.23228773297E+02 -0.21674065571E+02  0.17280861962E+02  0.36165857068E+02  0.00000000000E+00 0.  1.
</event>
<event>
 7    1  0.1749439E-013  0.7246158E+02  0.7816164E-02  0.1226708E+00
        -11   -1    0    0    0    0  0.00000000000E+00  0.00000000000E+00  0.45593999997E+02  0.45594000000E+02  0.51100000000E-03 0.  1.
         11   -1    0    0    0    0 -0.00000000000E+00 -0.00000000000E+00 -0.45593999997E+02  0.45594000000E+02  0.51100000000E-03 0. -1.
    9900012    2    1    2    0    0  0.12161196389E+02 -0.18204350685E+01 -0.14123390880E+02  0.72461578788E+02  0.70000011064E+02 0.  0.
        -12    1    1    2    0    0 -0.12161196389E+02  0.18204350685E+01  0.14123390880E+02  0.18726421212E+02  0.00000000000E+00 0.  1.
         11    1    3    3    0    0  0.83517101324E+01  0.80031407361E+01  0.68267922990E+01  0.13431545597E+02  0.51100000000E-03 0. -1.
        -11    1    3    3    0    0 -0.14057419649E+01  0.15356746135E+02  0.10311750416E+02  0.18550955749E+02  0.51100000000E-03 0.  1.
         12    1    3    3    0    0  0.52152282219E+01 -0.25180321939E+02 -0.31261933595E+02  0.40479077441E+02  0.00000000000E+00 0. -1.
</event>
<event>
 7    1  0.1749439E-013  0.7246157E+02  0.7816164E-02  0.1226708E+00
        -11   -1    0    0    0    0  0.00000000000E+00  0.00000000000E+00  0.45593999997E+02  0.45594000000E+02  0.51100000000E-03 0.  1.
         11   -1    0    0    0    0 -0.00000000000E+00 -0.00000000000E+00 -0.45593999997E+02  0.45594000000E+02  0.51100000000E-03 0. -1.
    9900012    2    1    2    0    0 -0.11051475001E+02 -0.14130847422E+02  0.53724522863E+01  0.72461569690E+02  0.69999999213E+02 0.  0.
        -12    1    1    2    0    0  0.11051475001E+02  0.14130847422E+02 -0.53724522863E+01  0.18726430310E+02  0.00000000000E+00 0.  1.
         11    1    3    3    0    0 -0.58105523077E+01  0.99405573960E+01  0.10896400629E+01  0.11565661036E+02  0.51100000000E-03 0. -1.
        -11    1    3    3    0    0 -0.23728960838E+02  0.67245935750E+01  0.39316739240E+01  0.24974823349E+02  0.51100000000E-03 0.  1.
         12    1    3    3    0    0  0.18488038144E+02 -0.30795998393E+02  0.35113829944E+00  0.35921085306E+02  0.00000000000E+00 0. -1.
</event>
<event>
 7    1  0.1749439E-013  0.7246155E+02  0.7816164E-02  0.1226708E+00
        -11   -1    0    0    0    0  0.00000000000E+00  0.00000000000E+00  0.45593999997E+02  0.45594000000E+02  0.51100000000E-03 0.  1.
         11   -1    0    0    0    0 -0.00000000000E+00 -0.00000000000E+00 -0.45593999997E+02  0.45594000000E+02  0.51100000000E-03 0. -1.
    9900012    2    1    2    0    0 -0.22147664482E+01  0.10843247629E+02 -0.15106253625E+02  0.72461545232E+02  0.69999967352E+02 0.  0.
        -12    1    1    2    0    0  0.22147664482E+01 -0.10843247629E+02  0.15106253625E+02  0.18726454768E+02  0.00000000000E+00 0.  1.
         11    1    3    3    0    0  0.84191454972E+01  0.15110662463E+02  0.39798102091E+00  0.17302384811E+02  0.51100000000E-03 0. -1.
        -11    1    3    3    0    0 -0.12407889011E+02  0.85452172762E+01  0.15469197268E+02  0.21593344168E+02  0.51100000000E-03 0.  1.
        -12    1    3    3    0    0  0.17739770654E+01 -0.12812632110E+02 -0.30973431914E+02  0.33565816254E+02  0.00000000000E+00 0.  1.
</event>
<event>
 7    1  0.1749439E-013  0.7246161E+02  0.7816164E-02  0.1226708E+00
        -11   -1    0    0    0    0  0.00000000000E+00  0.00000000000E+00  0.45593999997E+02  0.45594000000E+02  0.51100000000E-03 0.  1.
         11   -1    0    0    0    0 -0.00000000000E+00 -0.00000000000E+00 -0.45593999997E+02  0.45594000000E+02  0.51100000000E-03 0. -1.
    9900012    2    1    2    0    0  0.19715946729E+01  0.97799047426E+01 -0.15847520862E+02  0.72461611138E+02  0.70000053207E+02 0.  0.
        -12    1    1    2    0    0 -0.19715946729E+01 -0.97799047426E+01  0.15847520862E+02  0.18726388862E+02  0.00000000000E+00 0.  1.
         11    1    3    3    0    0 -0.30816766941E+01 -0.52862904678E+01 -0.21661310545E+02  0.22508975386E+02  0.51100000000E-03 0. -1.
        -11    1    3    3    0    0  0.17388030713E+02 -0.24085421990E+01 -0.12697658179E+02  0.21665068915E+02  0.51100000000E-03 0.  1.
         12    1    3    3    0    0 -0.12334759346E+02  0.17474737409E+02  0.18511447862E+02  0.28287566837E+02  0.00000000000E+00 0. -1.
</event>
<event>
 7    1  0.1749439E-013  0.7246157E+02  0.7816164E-02  0.1226708E+00
        -11   -1    0    0    0    0  0.00000000000E+00  0.00000000000E+00  0.45593999997E+02  0.45594000000E+02  0.51100000000E-03 0.  1.
         11   -1    0    0    0    0 -0.00000000000E+00 -0.00000000000E+00 -0.45593999997E+02  0.45594000000E+02  0.51100000000E-03 0. -1.
    9900012    2    1    2    0    0 -0.13477490887E+01  0.16806026003E+02 -0.81498577916E+01  0.72461571626E+02  0.70000001735E+02 0.  0.
        -12    1    1    2    0    0  0.13477490887E+01 -0.16806026003E+02  0.81498577916E+01  0.18726428374E+02  0.00000000000E+00 0.  1.
         11    1    3    3    0    0 -0.19305234336E+02 -0.93247887407E+01 -0.60589148232E+01  0.22279008212E+02  0.51100000000E-03 0. -1.
        -11    1    3    3    0    0  0.20434247033E+01 -0.19119742571E+01  0.13908755828E+02  0.14187484591E+02  0.51100000000E-03 0.  1.
        -12    1    3    3    0    0  0.15914060544E+02  0.28042789001E+02 -0.15999698796E+02  0.35995078823E+02  0.00000000000E+00 0.  1.
</event>
<event>
 7    1  0.1749439E-013  0.7246161E+02  0.7816164E-02  0.1226708E+00
        -11   -1    0    0    0    0  0.00000000000E+00  0.00000000000E+00  0.45593999997E+02  0.45594000000E+02  0.51100000000E-03 0. -1.
         11   -1    0    0    0    0 -0.00000000000E+00 -0.00000000000E+00 -0.45593999997E+02  0.45594000000E+02  0.51100000000E-03 0.  1.
    9900012    2    1    2    0    0  0.16433510323E+02 -0.27420076040E+01  0.85497792090E+01  0.72461612421E+02  0.70000054877E+02 0.  0.
        -12    1    1    2    0    0 -0.16433510323E+02  0.27420076040E+01 -0.85497792090E+01  0.18726387579E+02  0.00000000000E+00 0.  1.
         11    1    3    3    0    0  0.65743975973E+01 -0.74779660517E+01  0.86604461437E+01  0.13196439206E+02  0.51100000000E-03 0. -1.
        -11    1    3    3    0    0 -0.11820655259E+02 -0.16750578122E+02 -0.14903398959E+02  0.25346026493E+02  0.51100000000E-03 0.  1.
         12    1    3    3    0    0  0.21679767985E+02  0.21486536569E+02  0.14792732024E+02  0.33919146723E+02  0.00000000000E+00 0. -1.
</event>
<event>
 7    1  0.1749439E-013  0.7246155E+02  0.7816164E-02  0.1226708E+00
        -11   -1    0    0    0    0  0.00000000000E+00  0.00000000000E+00  0.45593999997E+02  0.45594000000E+02  0.51100000000E-03 0.  1.
         11   -1    0    0    0    0 -0.00000000000E+00 -0.00000000000E+00 -0.45593999997E+02  0.45594000000E+02  0.51100000000E-03 0. -1.
    9900012    2    1    2    0    0 -0.11115923757E+02 -0.48149776805E+01 -0.14280475836E+02  0.72461554498E+02  0.69999979422E+02 0.  0.
        -12    1    1    2    0    0  0.11115923757E+02  0.48149776805E+01  0.14280475836E+02  0.18726445502E+02  0.00000000000E+00 0.  1.
         11    1    3    3    0    0  0.60339871657E+01 -0.26677475354E+02 -0.38978587733E+01  0.27627703409E+02  0.51100000000E-03 0. -1.
        -11    1    3    3    0    0 -0.52567117188E+01 -0.90154100988E+01 -0.37297597042E+01  0.11082497239E+02  0.51100000000E-03 0.  1.
        -12    1    3    3    0    0 -0.11893199204E+02  0.30877907772E+02 -0.66528573584E+01  0.33751353850E+02  0.00000000000E+00 0.  1.
</event>
<event>
 7    1  0.1749439E-013  0.7246153E+02  0.7816164E-02  0.1226708E+00
        -11   -1    0    0    0    0  0.00000000000E+00  0.00000000000E+00  0.45593999997E+02  0.45594000000E+02  0.51100000000E-03 0.  1.
         11   -1    0    0    0    0 -0.00000000000E+00 -0.00000000000E+00 -0.45593999997E+02  0.45594000000E+02  0.51100000000E-03 0. -1.
    9900012    2    1    2    0    0  0.81382819799E+01 -0.11825026052E+02 -0.12025717580E+02  0.72461527881E+02  0.69999944749E+02 0.  0.
        -12    1    1    2    0    0 -0.81382819799E+01  0.11825026052E+02  0.12025717580E+02  0.18726472119E+02  0.00000000000E+00 0.  1.
         11    1    3    3    0    0  0.47034374541E+00  0.29091187777E+01  0.26571372143E+01  0.39679432630E+01  0.51100000000E-03 0. -1.
        -11    1    3    3    0    0  0.15404129305E+02 -0.48862520648E+01  0.23381082666E+02  0.28422485567E+02  0.51100000000E-03 0.  1.
         12    1    3    3    0    0 -0.77361910708E+01 -0.98478927646E+01 -0.38063937460E+02  0.40071099051E+02  0.00000000000E+00 0. -1.
</event>
<event>
 7    1  0.1749439E-013  0.7246171E+02  0.7816164E-02  0.1226708E+00
        -11   -1    0    0    0    0  0.00000000000E+00  0.00000000000E+00  0.45593999997E+02  0.45594000000E+02  0.51100000000E-03 0. -1.
         11   -1    0    0    0    0 -0.00000000000E+00 -0.00000000000E+00 -0.45593999997E+02  0.45594000000E+02  0.51100000000E-03 0.  1.
    9900012    2    1    2    0    0  0.64237912519E+01 -0.14670554513E+02  0.97048328048E+01  0.72461707159E+02  0.70000178292E+02 0.  0.
        -12    1    1    2    0    0 -0.64237912519E+01  0.14670554513E+02 -0.97048328048E+01  0.18726292841E+02  0.00000000000E+00 0.  1.
         11    1    3    3    0    0  0.99388278445E+01 -0.21717970591E+02 -0.95541781233E+01  0.25724168896E+02  0.51100000000E-03 0. -1.
        -11    1    3    3    0    0  0.15164621176E+01 -0.16863299430E+02  0.13446696329E+02  0.21621382182E+02  0.51100000000E-03 0.  1.
        -12    1    3    3    0    0 -0.50314987102E+01  0.23910715507E+02  0.58123145987E+01  0.25116156082E+02  0.00000000000E+00 0.  1.
</event>
<event>
 7    1  0.1749439E-013  0.7246162E+02  0.7816164E-02  0.1226708E+00
        -11   -1    0    0    0    0  0.00000000000E+00  0.00000000000E+00  0.45593999997E+02  0.45594000000E+02  0.51100000000E-03 0. -1.
         11   -1    0    0    0    0 -0.00000000000E+00 -0.00000000000E+00 -0.45593999997E+02  0.45594000000E+02  0.51100000000E-03 0.  1.
    9900012    2    1    2    0    0 -0.94059900697E+01  0.61319120448E+01 -0.14986799549E+02  0.72461624076E+02  0.70000070061E+02 0.  0.
        -12    1    1    2    0    0  0.94059900697E+01 -0.61319120448E+01  0.14986799549E+02  0.18726375924E+02  0.00000000000E+00 0.  1.
         11    1    3    3    0    0 -0.15830113931E+02  0.31176105982E+02 -0.13377678666E+02  0.37436671567E+02  0.51100000000E-03 0. -1.
        -11    1    3    3    0    0 -0.40956447326E+01 -0.20503296252E+01 -0.77515218601E+01  0.90035686678E+01  0.51100000000E-03 0.  1.
        -12    1    3    3    0    0  0.10519768594E+02 -0.22993864312E+02  0.61424009766E+01  0.26021383842E+02  0.00000000000E+00 0.  1.
</event>
<event>
 7    1  0.1749439E-013  0.7246145E+02  0.7816164E-02  0.1226708E+00
        -11   -1    0    0    0    0  0.00000000000E+00  0.00000000000E+00  0.45593999997E+02  0.45594000000E+02  0.51100000000E-03 0. -1.
         11   -1    0    0    0    0 -0.00000000000E+00 -0.00000000000E+00 -0.45593999997E+02  0.45594000000E+02  0.51100000000E-03 0.  1.
    9900012    2    1    2    0    0  0.13095946176E+01  0.42874731606E+00  0.18675785149E+02  0.72461446306E+02  0.69999838482E+02 0.  0.
        -12    1    1    2    0    0 -0.13095946176E+01 -0.42874731606E+00 -0.18675785149E+02  0.18726553694E+02  0.00000000000E+00 0.  1.
         11    1    3    3    0    0 -0.16979661543E+01 -0.59525213113E+01 -0.89704868012E+01  0.10898863828E+02  0.51100000000E-03 0. -1.
        -11    1    3    3    0    0  0.11318865458E+02  0.31547085842E+01 -0.14397567430E+02  0.18583833019E+02  0.51100000000E-03 0.  1.
         12    1    3    3    0    0 -0.83113046864E+01  0.32265600432E+01  0.42043839380E+02  0.42978749460E+02  0.00000000000E+00 0. -1.
</event>
<event>
 7    1  0.1749439E-013  0.7246234E+02  0.7816164E-02  0.1226706E+00
        -11   -1    0    0    0    0  0.00000000000E+00  0.00000000000E+00  0.45593999997E+02  0.45594000000E+02  0.51100000000E-03 0. -1.
         11   -1    0    0    0    0 -0.00000000000E+00 -0.00000000000E+00 -0.45593999997E+02  0.45594000000E+02  0.51100000000E-03 0.  1.
    9900012    2    1    2    0    0  0.11301186659E+02 -0.10928907868E+02  0.10173125917E+02  0.72462340118E+02  0.70001002831E+02 0.  0.
        -12    1    1    2    0    0 -0.11301186659E+02  0.10928907868E+02 -0.10173125917E+02  0.18725659882E+02  0.00000000000E+00 0.  1.
         11    1    3    3    0    0  0.52251372565E+01 -0.13599564324E+02 -0.14875009482E+02  0.20821049841E+02  0.51100000000E-03 0.  1.
        -11    1    3    3    0    0  0.31245635658E+01 -0.17090670272E+02 -0.25599890045E+01  0.17561533298E+02  0.51100000000E-03 0. -1.
        -12    1    3    3    0    0  0.29514858370E+01  0.19761326728E+02  0.27608124403E+02  0.34079756979E+02  0.00000000000E+00 0.  1.
</event>
<event>
 7    1  0.1749439E-013  0.7246156E+02  0.7816164E-02  0.1226708E+00
        -11   -1    0    0    0    0  0.00000000000E+00  0.00000000000E+00  0.45593999997E+02  0.45594000000E+02  0.51100000000E-03 0.  1.
         11   -1    0    0    0    0 -0.00000000000E+00 -0.00000000000E+00 -0.45593999997E+02  0.45594000000E+02  0.51100000000E-03 0. -1.
    9900012    2    1    2    0    0 -0.16854952450E+02  0.74192595246E+01  0.33977624274E+01  0.72461558173E+02  0.69999984210E+02 0.  0.
        -12    1    1    2    0    0  0.16854952450E+02 -0.74192595246E+01 -0.33977624274E+01  0.18726441827E+02  0.00000000000E+00 0.  1.
         11    1    3    3    0    0 -0.11041680078E+02 -0.18929285876E+02 -0.11150442283E+02  0.24587983367E+02  0.51100000000E-03 0. -1.
        -11    1    3    3    0    0 -0.11210936166E+02 -0.60649840838E+01  0.43253009173E+01  0.13460213592E+02  0.51100000000E-03 0.  1.
         12    1    3    3    0    0  0.53976637941E+01  0.32413529484E+02  0.10222903793E+02  0.34413361214E+02  0.00000000000E+00 0. -1.
</event>
<event>
 7    1  0.1749439E-013  0.7246149E+02  0.7816164E-02  0.1226708E+00
        -11   -1    0    0    0    0  0.00000000000E+00  0.00000000000E+00  0.45593999997E+02  0.45594000000E+02  0.51100000000E-03 0. -1.
         11   -1    0    0    0    0 -0.00000000000E+00 -0.00000000000E+00 -0.45593999997E+02  0.45594000000E+02  0.51100000000E-03 0.  1.
    9900012    2    1    2    0    0  0.14315459616E+02 -0.65025088008E+01  0.10171878150E+02  0.72461491788E+02  0.69999897730E+02 0.  0.
        -12    1    1    2    0    0 -0.14315459616E+02  0.65025088008E+01 -0.10171878150E+02  0.18726508212E+02  0.00000000000E+00 0.  1.
         11    1    3    3    0    0  0.14001881251E+02 -0.81123164004E+00  0.30334856123E+02  0.33420267378E+02  0.51100000000E-03 0. -1.
        -11    1    3    3    0    0  0.11041005391E+02  0.10122799584E+01  0.39841130665E+01  0.11781411968E+02  0.51100000000E-03 0.  1.
        -12    1    3    3    0    0 -0.10727427027E+02 -0.67035571191E+01 -0.24147091040E+02  0.27259812442E+02  0.00000000000E+00 0.  1.
</event>
<event>
 7    1  0.1749439E-013  0.7246155E+02  0.7816164E-02  0.1226708E+00
        -11   -1    0    0    0    0  0.00000000000E+00  0.00000000000E+00  0.45593999997E+02  0.45594000000E+02  0.51100000000E-03 0.  1.
         11   -1    0    0    0    0 -0.00000000000E+00 -0.00000000000E+00 -0.45593999997E+02  0.45594000000E+02  0.51100000000E-03 0. -1.
    9900012    2    1    2    0    0 -0.50396787270E+01  0.14792364478E+02 -0.10318308763E+02  0.72461550677E+02  0.69999974445E+02 0.  0.
        -12    1    1    2    0    0  0.50396787270E+01 -0.14792364478E+02  0.10318308763E+02  0.18726449323E+02  0.00000000000E+00 0.  1.
         11    1    3    3    0    0 -0.81775907351E+00 -0.13903468199E+02  0.16937460725E+01  0.14030108121E+02  0.51100000000E-03 0. -1.
        -11    1    3    3    0    0  0.16963524282E+00 -0.10997251288E+02  0.81558131631E+01  0.13692538137E+02  0.51100000000E-03 0.  1.
         12    1    3    3    0    0 -0.43915548963E+01  0.39693083965E+02 -0.20167867999E+02  0.44738904420E+02  0.00000000000E+00 0. -1.
</event>
<event>
 7    1  0.1749439E-013  0.7246154E+02  0.7816164E-02  0.1226708E+00
        -11   -1    0    0    0    0  0.00000000000E+00  0.00000000000E+00  0.45593999997E+02  0.45594000000E+02  0.51100000000E-03 0.  1.
         11   -1    0    0    0    0 -0.00000000000E+00 -0.00000000000E+00 -0.45593999997E+02  0.45594000000E+02  0.51100000000E-03 0. -1.
    9900012    2    1    2    0    0  0.11793768401E+02 -0.14545108728E+02  0.16500436400E+00  0.72461537775E+02  0.69999957637E+02 0.  0.
        -12    1    1    2    0    0 -0.11793768401E+02  0.14545108728E+02 -0.16500436400E+00  0.18726462225E+02  0.00000000000E+00 0.  1.
         11    1    3    3    0    0  0.18668611110E+02  0.10511582554E+02  0.51125017365E+01  0.22026077337E+02  0.51100000000E-03 0. -1.
        -11    1    3    3    0    0 -0.61034755610E+01  0.11763117247E+02  0.17219426122E+00  0.13253414369E+02  0.51100000000E-03 0.  1.
        -12    1    3    3    0    0 -0.77136714786E+00 -0.36819808530E+02 -0.51196916337E+01  0.37182046069E+02  0.00000000000E+00 0.  1.
</event>
<event>
 7    1  0.1749439E-013  0.7246156E+02  0.7816164E-02  0.1226708E+00
        -11   -1    0    0    0    0  0.00000000000E+00  0.00000000000E+00  0.45593999997E+02  0.45594000000E+02  0.51100000000E-03 0.  1.
         11   -1    0    0    0    0 -0.00000000000E+00 -0.00000000000E+00 -0.45593999997E+02  0.45594000000E+02  0.51100000000E-03 0. -1.
    9900012    2    1    2    0    0 -0.28614356958E+01 -0.71488593720E+01 -0.17070020534E+02  0.72461558651E+02  0.69999984833E+02 0.  0.
        -12    1    1    2    0    0  0.28614356958E+01  0.71488593720E+01  0.17070020534E+02  0.18726441349E+02  0.00000000000E+00 0.  1.
         11    1    3    3    0    0 -0.20537478881E+02 -0.14769803660E+02 -0.29851803709E+02  0.39128829830E+02  0.51100000000E-03 0. -1.
        -11    1    3    3    0    0 -0.53665492470E+01  0.54353662656E+01  0.30970967873E+01  0.82422731108E+01  0.51100000000E-03 0.  1.
        -12    1    3    3    0    0  0.23042592432E+02  0.21855780226E+01  0.96846863877E+01  0.25090455710E+02  0.00000000000E+00 0.  1.
</event>
<event>
 7    1  0.1749439E-013  0.7246157E+02  0.7816164E-02  0.1226708E+00
        -11   -1    0    0    0    0  0.00000000000E+00  0.00000000000E+00  0.45593999997E+02  0.45594000000E+02  0.51100000000E-03 0.  1.
         11   -1    0    0    0    0 -0.00000000000E+00 -0.00000000000E+00 -0.45593999997E+02  0.45594000000E+02  0.51100000000E-03 0. -1.
    9900012    2    1    2    0    0  0.12885604562E+02 -0.11361601944E+02  0.74534810923E+01  0.72461569906E+02  0.69999999494E+02 0.  0.
        -12    1    1    2    0    0 -0.12885604562E+02  0.11361601944E+02 -0.74534810923E+01  0.18726430094E+02  0.00000000000E+00 0.  1.
         11    1    3    3    0    0 -0.24929225404E+02  0.21812607151E+01 -0.65138593314E+01  0.25858355346E+02  0.51100000000E-03 0. -1.
        -11    1    3    3    0    0  0.28113373557E+01  0.14594375937E+01 -0.34869693905E+01  0.47108949902E+01  0.51100000000E-03 0.  1.
        -12    1    3    3    0    0  0.35003492611E+02 -0.15002300253E+02  0.17454309814E+02  0.41892319570E+02  0.00000000000E+00 0.  1.
</event>
<event>
 7    1  0.1749439E-013  0.7246159E+02  0.7816164E-02  0.1226708E+00
        -11   -1    0    0    0    0  0.00000000000E+00  0.00000000000E+00  0.45593999997E+02  0.45594000000E+02  0.51100000000E-03 0. -1.
         11   -1    0    0    0    0 -0.00000000000E+00 -0.00000000000E+00 -0.45593999997E+02  0.45594000000E+02  0.51100000000E-03 0.  1.
    9900012    2    1    2    0    0 -0.17860555516E+02 -0.20493466984E+00  0.56246616117E+01  0.72461594584E+02  0.70000031641E+02 0.  0.
        -12    1    1    2    0    0  0.17860555516E+02  0.20493466984E+00 -0.56246616117E+01  0.18726405416E+02  0.00000000000E+00 0.  1.
         11    1    3    3    0    0  0.56309219471E+01  0.25037845213E+02 -0.78233710358E+01  0.26829202551E+02  0.51100000000E-03 0. -1.
        -11    1    3    3    0    0 -0.28880632391E+01  0.72584577387E+00 -0.63553005921E+01  0.70183763961E+01  0.51100000000E-03 0.  1.
         12    1    3    3    0    0 -0.20603414224E+02 -0.25968625657E+02  0.19803333240E+02  0.38614015637E+02  0.00000000000E+00 0. -1.
</event>
<event>
 7    1  0.1749439E-013  0.7246160E+02  0.7816164E-02  0.1226708E+00
        -11   -1    0    0    0    0  0.00000000000E+00  0.00000000000E+00  0.45593999997E+02  0.45594000000E+02  0.51100000000E-03 0. -1.
         11   -1    0    0    0    0 -0.00000000000E+00 -0.00000000000E+00 -0.45593999997E+02  0.45594000000E+02  0.51100000000E-03 0.  1.
    9900012    2    1    2    0    0 -0.11302219654E+02  0.71324783004E+01 -0.13117382484E+02  0.72461597808E+02  0.70000035842E+02 0.  0.
        -12    1    1    2    0    0  0.11302219654E+02 -0.71324783004E+01  0.13117382484E+02  0.18726402192E+02  0.00000000000E+00 0.  1.
         11    1    3    3    0    0  0.56641425997E+01  0.26411684258E+01  0.87941440147E+01  0.10788663089E+02  0.51100000000E-03 0. -1.
        -11    1    3    3    0    0  0.15074003734E+02 -0.94534486187E+01  0.39181412820E+01  0.18219360876E+02  0.51100000000E-03 0.  1.
         12    1    3    3    0    0 -0.32040365988E+02  0.13944758493E+02 -0.25829667781E+02  0.43453573843E+02  0.00000000000E+00 0. -1.
</event>
<event>
 7    1  0.1749439E-013  0.7246172E+02  0.7816164E-02  0.1226708E+00
        -11   -1    0    0    0    0  0.00000000000E+00  0.00000000000E+00  0.45593999997E+02  0.45594000000E+02  0.51100000000E-03 0. -1.
         11   -1    0    0    0    0 -0.00000000000E+00 -0.00000000000E+00 -0.45593999997E+02  0.45594000000E+02  0.51100000000E-03 0.  1.
    9900012    2    1    2    0    0  0.94063412937E+01 -0.14468808110E+00  0.16191766238E+02  0.72461722071E+02  0.70000197717E+02 0.  0.
        -12    1    1    2    0    0 -0.94063412937E+01  0.14468808110E+00 -0.16191766238E+02  0.18726277929E+02  0.00000000000E+00 0.  1.
         11    1    3    3    0    0 -0.15913855266E+02 -0.39855632834E+01  0.71990170848E+01  0.17915394257E+02  0.51100000000E-03 0.  1.
        -11    1    3    3    0    0 -0.25591687002E+01 -0.13763801587E+02  0.15554935151E+02  0.20927197289E+02  0.51100000000E-03 0. -1.
         12    1    3    3    0    0  0.27879365260E+02  0.17604676790E+02 -0.65621859978E+01  0.33619130525E+02  0.00000000000E+00 0. -1.
</event>
<event>
 7    1  0.1749439E-013  0.7246153E+02  0.7816164E-02  0.1226708E+00
        -11   -1    0    0    0    0  0.00000000000E+00  0.00000000000E+00  0.45593999997E+02  0.45594000000E+02  0.51100000000E-03 0.  1.
         11   -1    0    0    0    0 -0.00000000000E+00 -0.00000000000E+00 -0.45593999997E+02  0.45594000000E+02  0.51100000000E-03 0. -1.
    9900012    2    1    2    0    0 -0.16124913963E+02  0.82078621607E+01 -0.48268718410E+01  0.72461533614E+02  0.69999952217E+02 0.  0.
        -12    1    1    2    0    0  0.16124913963E+02 -0.82078621607E+01  0.48268718410E+01  0.18726466386E+02  0.00000000000E+00 0.  1.
         11    1    3    3    0    0  0.10064449439E+02  0.16179819144E+02 -0.58280483357E+01  0.19926009076E+02  0.51100000000E-03 0. -1.
        -11    1    3    3    0    0 -0.22924701381E+02  0.15540953773E+02  0.58497874543E+01  0.28306945987E+02  0.51100000000E-03 0.  1.
         12    1    3    3    0    0 -0.32646620213E+01 -0.23512910756E+02 -0.48486109595E+01  0.24228578551E+02  0.00000000000E+00 0. -1.
</event>
<event>
 7    1  0.1749439E-013  0.7246158E+02  0.7816164E-02  0.1226708E+00
        -11   -1    0    0    0    0  0.00000000000E+00  0.00000000000E+00  0.45593999997E+02  0.45594000000E+02  0.51100000000E-03 0. -1.
         11   -1    0    0    0    0 -0.00000000000E+00 -0.00000000000E+00 -0.45593999997E+02  0.45594000000E+02  0.51100000000E-03 0.  1.
    9900012    2    1    2    0    0  0.11524842358E+02 -0.53863338617E+01  0.13742060292E+02  0.72461580029E+02  0.70000012681E+02 0.  0.
        -12    1    1    2    0    0 -0.11524842358E+02  0.53863338617E+01 -0.13742060292E+02  0.18726419971E+02  0.00000000000E+00 0.  1.
         11    1    3    3    0    0 -0.52087090645E+01 -0.30832520883E+01  0.42656558533E+01  0.74049249610E+01  0.51100000000E-03 0. -1.
        -11    1    3    3    0    0  0.89795795532E+01 -0.30610493424E+02  0.14901596983E+02  0.35209270790E+02  0.51100000000E-03 0.  1.
         12    1    3    3    0    0  0.77539718695E+01  0.28307411651E+02 -0.54251925442E+01  0.29847384278E+02  0.00000000000E+00 0. -1.
</event>
<event>
 7    1  0.1749439E-013  0.7246155E+02  0.7816164E-02  0.1226708E+00
        -11   -1    0    0    0    0  0.00000000000E+00  0.00000000000E+00  0.45593999997E+02  0.45594000000E+02  0.51100000000E-03 0. -1.
         11   -1    0    0    0    0 -0.00000000000E+00 -0.00000000000E+00 -0.45593999997E+02  0.45594000000E+02  0.51100000000E-03 0.  1.
    9900012    2    1    2    0    0  0.11763012945E+02  0.14294474549E+01  0.14500627908E+02  0.72461548033E+02  0.69999971000E+02 0.  0.
        -12    1    1    2    0    0 -0.11763012945E+02 -0.14294474549E+01 -0.14500627908E+02  0.18726451967E+02  0.00000000000E+00 0.  1.
         11    1    3    3    0    0  0.31967956504E+01 -0.30014982422E+01 -0.55947051404E+01  0.71083908163E+01  0.51100000000E-03 0. -1.
        -11    1    3    3    0    0  0.13968368413E+02 -0.26356517266E+02  0.37039759415E+01  0.30058289315E+02  0.51100000000E-03 0.  1.
         12    1    3    3    0    0 -0.54021511182E+01  0.30787462963E+02  0.16391357107E+02  0.35294867902E+02  0.00000000000E+00 0. -1.
</event>
<event>
 7    1  0.1749439E-013  0.7246153E+02  0.7816164E-02  0.1226708E+00
        -11   -1    0    0    0    0  0.00000000000E+00  0.00000000000E+00  0.45593999997E+02  0.45594000000E+02  0.51100000000E-03 0. -1.
         11   -1    0    0    0    0 -0.00000000000E+00 -0.00000000000E+00 -0.45593999997E+02  0.45594000000E+02  0.51100000000E-03 0.  1.
    9900012    2    1    2    0    0 -0.94739348087E+01 -0.67224269924E+01  0.14687894870E+02  0.72461528866E+02  0.69999946032E+02 0.  0.
        -12    1    1    2    0    0  0.94739348087E+01  0.67224269924E+01 -0.14687894870E+02  0.18726471134E+02  0.00000000000E+00 0.  1.
         11    1    3    3    0    0 -0.21146738200E+02 -0.20618346638E+02  0.94127199007E+01  0.30998387874E+02  0.51100000000E-03 0. -1.
        -11    1    3    3    0    0 -0.13014163137E+02  0.32041051442E+01 -0.21033693013E+01  0.13566830677E+02  0.51100000000E-03 0.  1.
        -12    1    3    3    0    0  0.24686966528E+02  0.10691814501E+02  0.73785442701E+01  0.27896310316E+02  0.00000000000E+00 0.  1.
</event>
<event>
 7    1  0.1749439E-013  0.7246160E+02  0.7816164E-02  0.1226708E+00
        -11   -1    0    0    0    0  0.00000000000E+00  0.00000000000E+00  0.45593999997E+02  0.45594000000E+02  0.51100000000E-03 0. -1.
         11   -1    0    0    0    0 -0.00000000000E+00 -0.00000000000E+00 -0.45593999997E+02  0.45594000000E+02  0.51100000000E-03 0.  1.
    9900012    2    1    2    0    0  0.25528402612E+01  0.14616948840E+02 -0.11423912149E+02  0.72461602707E+02  0.70000042223E+02 0.  0.
        -12    1    1    2    0    0 -0.25528402612E+01 -0.14616948840E+02  0.11423912149E+02  0.18726397293E+02  0.00000000000E+00 0.  1.
         11    1    3    3    0    0  0.70703254883E+01 -0.38538571979E+01  0.15564370592E+02  0.17524022084E+02  0.51100000000E-03 0. -1.
        -11    1    3    3    0    0  0.24424207073E+01 -0.10867694444E+02 -0.21605965595E+02  0.24308228051E+02  0.51100000000E-03 0.  1.
         12    1    3    3    0    0 -0.69599059344E+01  0.29338500481E+02 -0.53823171464E+01  0.30629352572E+02  0.00000000000E+00 0. -1.
</event>
<event>
 7    1  0.1749439E-013  0.7246152E+02  0.7816164E-02  0.1226708E+00
        -11   -1    0    0    0    0  0.00000000000E+00  0.00000000000E+00  0.45593999997E+02  0.45594000000E+02  0.51100000000E-03 0. -1.
         11   -1    0    0    0    0 -0.00000000000E+00 -0.00000000000E+00 -0.45593999997E+02  0.45594000000E+02  0.51100000000E-03 0.  1.
    9900012    2    1    2    0    0  0.12034986923E+02  0.14261588603E+02  0.15643833873E+01  0.72461518348E+02  0.69999932330E+02 0.  0.
        -12    1    1    2    0    0 -0.12034986923E+02 -0.14261588603E+02 -0.15643833873E+01  0.18726481652E+02  0.00000000000E+00 0.  1.
         11    1    3    3    0    0  0.46402448555E+01  0.28977066404E+02 -0.24987008895E+02  0.38542870463E+02  0.51100000000E-03 0. -1.
        -11    1    3    3    0    0  0.53898435707E+01 -0.45543076881E+01  0.20968955306E+01  0.73613248374E+01  0.51100000000E-03 0.  1.
        -12    1    3    3    0    0  0.20048984963E+01 -0.10161170113E+02  0.24454496752E+02  0.26557323047E+02  0.00000000000E+00 0.  1.
</event>
<event>
 7    1  0.1749439E-013  0.7246142E+02  0.7816164E-02  0.1226708E+00
        -11   -1    0    0    0    0  0.00000000000E+00  0.00000000000E+00  0.45593999997E+02  0.45594000000E+02  0.51100000000E-03 0.  1.
         11   -1    0    0    0    0 -0.00000000000E+00 -0.00000000000E+00 -0.45593999997E+02  0.45594000000E+02  0.51100000000E-03 0. -1.
    9900012    2    1    2    0    0  0.99541629697E+01 -0.15003758714E+02 -0.51465158668E+01  0.72461420986E+02  0.69999805498E+02 0.  0.
        -12    1    1    2    0    0 -0.99541629697E+01  0.15003758714E+02  0.51465158668E+01  0.18726579014E+02  0.00000000000E+00 0.  1.
         11    1    3    3    0    0  0.14856336321E+02 -0.66177477172E+01  0.52133904733E+01  0.17078780818E+02  0.51100000000E-03 0. -1.
        -11    1    3    3    0    0  0.12070061326E+02 -0.17587742916E+02  0.13075031771E+02  0.25019423202E+02  0.51100000000E-03 0.  1.
         12    1    3    3    0    0 -0.16972234678E+02  0.92017319191E+01 -0.23434938111E+02  0.30363216966E+02  0.00000000000E+00 0. -1.
</event>
<event>
 7    1  0.1749439E-013  0.7246161E+02  0.7816164E-02  0.1226708E+00
        -11   -1    0    0    0    0  0.00000000000E+00  0.00000000000E+00  0.45593999997E+02  0.45594000000E+02  0.51100000000E-03 0.  1.
         11   -1    0    0    0    0 -0.00000000000E+00 -0.00000000000E+00 -0.45593999997E+02  0.45594000000E+02  0.51100000000E-03 0. -1.
    9900012    2    1    2    0    0  0.72967039469E+01 -0.11422968675E+02 -0.12920977159E+02  0.72461608127E+02  0.70000049284E+02 0.  0.
        -12    1    1    2    0    0 -0.72967039469E+01  0.11422968675E+02  0.12920977159E+02  0.18726391873E+02  0.00000000000E+00 0.  1.
         11    1    3    3    0    0 -0.10733915727E+02 -0.21009339179E+02 -0.30813301594E+02  0.38808102698E+02  0.51100000000E-03 0. -1.
        -11    1    3    3    0    0 -0.36716040799E+01 -0.12285421898E+01  0.45610220789E+01  0.59827180358E+01  0.51100000000E-03 0.  1.
        -12    1    3    3    0    0  0.21702223754E+02  0.10814912695E+02  0.13331302356E+02  0.27670787393E+02  0.00000000000E+00 0.  1.
</event>
<event>
 7    1  0.1749439E-013  0.7246164E+02  0.7816164E-02  0.1226708E+00
        -11   -1    0    0    0    0  0.00000000000E+00  0.00000000000E+00  0.45593999997E+02  0.45594000000E+02  0.51100000000E-03 0.  1.
         11   -1    0    0    0    0 -0.00000000000E+00 -0.00000000000E+00 -0.45593999997E+02  0.45594000000E+02  0.51100000000E-03 0. -1.
    9900012    2    1    2    0    0  0.18642029924E+01  0.18000735370E+02 -0.48140419809E+01  0.72461635515E+02  0.70000084961E+02 0.  0.
        -12    1    1    2    0    0 -0.18642029924E+01 -0.18000735370E+02  0.48140419809E+01  0.18726364485E+02  0.00000000000E+00 0.  1.
         11    1    3    3    0    0 -0.52386419965E+01  0.19590442037E+02 -0.28052074522E+02  0.34614269809E+02  0.51100000000E-03 0. -1.
        -11    1    3    3    0    0  0.73308639139E+01  0.36295852889E+01 -0.46937900913E+01  0.94311781224E+01  0.51100000000E-03 0.  1.
        -12    1    3    3    0    0 -0.22801892494E+00 -0.52192919563E+01  0.27931822633E+02  0.28416187583E+02  0.00000000000E+00 0.  1.
</event>
<event>
 7    1  0.1749439E-013  0.7246156E+02  0.7816164E-02  0.1226708E+00
        -11   -1    0    0    0    0  0.00000000000E+00  0.00000000000E+00  0.45593999997E+02  0.45594000000E+02  0.51100000000E-03 0. -1.
         11   -1    0    0    0    0 -0.00000000000E+00 -0.00000000000E+00 -0.45593999997E+02  0.45594000000E+02  0.51100000000E-03 0.  1.
    9900012    2    1    2    0    0 -0.59356155179E+01  0.16329149844E+02 -0.69862060063E+01  0.72461555047E+02  0.69999980138E+02 0.  0.
        -12    1    1    2    0    0  0.59356155179E+01 -0.16329149844E+02  0.69862060063E+01  0.18726444953E+02  0.00000000000E+00 0.  1.
         11    1    3    3    0    0 -0.44992310996E+00  0.21066596455E+02 -0.20327721158E+02  0.29278322438E+02  0.51100000000E-03 0. -1.
        -11    1    3    3    0    0 -0.22611616228E+02 -0.60703900969E+00  0.11763434168E+02  0.25495726475E+02  0.51100000000E-03 0.  1.
         12    1    3    3    0    0  0.17125923820E+02 -0.41304076014E+01  0.15780809838E+01  0.17687506134E+02  0.00000000000E+00 0. -1.
</event>
<event>
 7    1  0.1749439E-013  0.7246159E+02  0.7816164E-02  0.1226708E+00
        -11   -1    0    0    0    0  0.00000000000E+00  0.00000000000E+00  0.45593999997E+02  0.45594000000E+02  0.51100000000E-03 0.  1.
         11   -1    0    0    0    0 -0.00000000000E+00 -0.00000000000E+00 -0.45593999997E+02  0.45594000000E+02  0.51100000000E-03 0. -1.
    9900012    2    1    2    0    0 -0.18564905239E+02  0.50446780208E-01  0.24535921042E+01  0.72461591758E+02  0.70000027961E+02 0.  0.
        -12    1    1    2    0    0  0.18564905239E+02 -0.50446780208E-01 -0.24535921042E+01  0.18726408242E+02  0.00000000000E+00 0.  1.
         11    1    3    3    0    0 -0.20715906100E+02  0.10031139654E+02  0.20482931177E+02  0.30811085638E+02  0.51100000000E-03 0. -1.
        -11    1    3    3    0    0 -0.77787158434E+01 -0.11527945241E+02  0.63448151631E+01  0.15285896158E+02  0.51100000000E-03 0.  1.
        -12    1    3    3    0    0  0.99297167041E+01  0.15472523669E+01 -0.24374154236E+02  0.26364609962E+02  0.00000000000E+00 0.  1.
</event>
<event>
 7    1  0.1749439E-013  0.7246157E+02  0.7816164E-02  0.1226708E+00
        -11   -1    0    0    0    0  0.00000000000E+00  0.00000000000E+00  0.45593999997E+02  0.45594000000E+02  0.51100000000E-03 0. -1.
         11   -1    0    0    0    0 -0.00000000000E+00 -0.00000000000E+00 -0.45593999997E+02  0.45594000000E+02  0.51100000000E-03 0.  1.
    9900012    2    1    2    0    0 -0.11614302595E+02 -0.62911486307E+01  0.13274353520E+02  0.72461573826E+02  0.70000004601E+02 0.  0.
        -12    1    1    2    0    0  0.11614302595E+02  0.62911486307E+01 -0.13274353520E+02  0.18726426174E+02  0.00000000000E+00 0.  1.
         11    1    3    3    0    0 -0.54992040834E+01  0.63057365874E+01  0.97007418398E+01  0.12810462598E+02  0.51100000000E-03 0. -1.
        -11    1    3    3    0    0 -0.57639636251E+01  0.22919776284E+02  0.47810649816E+01  0.24112196171E+02  0.51100000000E-03 0.  1.
        -12    1    3    3    0    0 -0.35113488676E+00 -0.35516661502E+02 -0.12074533015E+01  0.35538915057E+02  0.00000000000E+00 0.  1.
</event>
<event>
 7    1  0.1749439E-013  0.7246158E+02  0.7816164E-02  0.1226708E+00
        -11   -1    0    0    0    0  0.00000000000E+00  0.00000000000E+00  0.45593999997E+02  0.45594000000E+02  0.51100000000E-03 0.  1.
         11   -1    0    0    0    0 -0.00000000000E+00 -0.00000000000E+00 -0.45593999997E+02  0.45594000000E+02  0.51100000000E-03 0. -1.
    9900012    2    1    2    0    0  0.34358268323E+01 -0.17664417466E+02 -0.51809687556E+01  0.72461575150E+02  0.70000006325E+02 0.  0.
        -12    1    1    2    0    0 -0.34358268323E+01  0.17664417466E+02  0.51809687556E+01  0.18726424850E+02  0.00000000000E+00 0.  1.
         11    1    3    3    0    0  0.99631702795E+01 -0.11706846588E+01 -0.21331327935E+02  0.23572458852E+02  0.51100000000E-03 0. -1.
        -11    1    3    3    0    0  0.43634474681E+00 -0.18485637353E+01 -0.14280936494E+02  0.14406690530E+02  0.51100000000E-03 0.  1.
        -12    1    3    3    0    0 -0.69636881940E+01 -0.14645169072E+02  0.30431295674E+02  0.34482425767E+02  0.00000000000E+00 0.  1.
</event>
<event>
 7    1  0.1749439E-013  0.7246157E+02  0.7816164E-02  0.1226708E+00
        -11   -1    0    0    0    0  0.00000000000E+00  0.00000000000E+00  0.45593999997E+02  0.45594000000E+02  0.51100000000E-03 0.  1.
         11   -1    0    0    0    0 -0.00000000000E+00 -0.00000000000E+00 -0.45593999997E+02  0.45594000000E+02  0.51100000000E-03 0. -1.
    9900012    2    1    2    0    0 -0.18526033450E+02 -0.22399101716E+01 -0.15646883834E+01  0.72461565137E+02  0.69999993281E+02 0.  0.
        -12    1    1    2    0    0  0.18526033450E+02  0.22399101716E+01  0.15646883834E+01  0.18726434863E+02  0.00000000000E+00 0.  1.
         11    1    3    3    0    0 -0.26492702145E+02 -0.15884162623E+02 -0.12499058245E+02  0.33322610139E+02  0.51100000000E-03 0. -1.
        -11    1    3    3    0    0  0.22324510191E+01 -0.10482733849E+02 -0.23986189856E+01  0.10982937668E+02  0.51100000000E-03 0.  1.
        -12    1    3    3    0    0  0.57342176766E+01  0.24126986301E+02  0.13332988847E+02  0.28156017330E+02  0.00000000000E+00 0.  1.
</event>
<event>
 7    1  0.1749439E-013  0.7246158E+02  0.7816164E-02  0.1226708E+00
        -11   -1    0    0    0    0  0.00000000000E+00  0.00000000000E+00  0.45593999997E+02  0.45594000000E+02  0.51100000000E-03 0. -1.
         11   -1    0    0    0    0 -0.00000000000E+00 -0.00000000000E+00 -0.45593999997E+02  0.45594000000E+02  0.51100000000E-03 0.  1.
    9900012    2    1    2    0    0 -0.73995776067E+01  0.13063911201E+02  0.11191937651E+02  0.72461575008E+02  0.70000006140E+02 0.  0.
        -12    1    1    2    0    0  0.73995776067E+01 -0.13063911201E+02 -0.11191937651E+02  0.18726424992E+02  0.00000000000E+00 0.  1.
         11    1    3    3    0    0  0.77226672963E+01 -0.38656728866E+01  0.97935316174E+01  0.13057422366E+02  0.51100000000E-03 0. -1.
        -11    1    3    3    0    0  0.22670031430E+01  0.17670841637E+02 -0.23212141415E+02  0.29260920299E+02  0.51100000000E-03 0.  1.
         12    1    3    3    0    0 -0.17389248046E+02 -0.74125754985E+00  0.24610547449E+02  0.30143232343E+02  0.00000000000E+00 0. -1.
</event>
<event>
 7    1  0.1749439E-013  0.7246160E+02  0.7816164E-02  0.1226708E+00
        -11   -1    0    0    0    0  0.00000000000E+00  0.00000000000E+00  0.45593999997E+02  0.45594000000E+02  0.51100000000E-03 0.  1.
         11   -1    0    0    0    0 -0.00000000000E+00 -0.00000000000E+00 -0.45593999997E+02  0.45594000000E+02  0.51100000000E-03 0. -1.
    9900012    2    1    2    0    0 -0.94670466623E+01  0.90138269703E+01 -0.13409099477E+02  0.72461601576E+02  0.70000040750E+02 0.  0.
        -12    1    1    2    0    0  0.94670466623E+01 -0.90138269703E+01  0.13409099477E+02  0.18726398424E+02  0.00000000000E+00 0.  1.
         11    1    3    3    0    0  0.16895945024E+02 -0.29690538231E+01  0.16509379274E+02  0.23808566591E+02  0.51100000000E-03 0. -1.
        -11    1    3    3    0    0 -0.89749085684E+01 -0.70421512711E+01 -0.15093196815E+02  0.18919446839E+02  0.51100000000E-03 0.  1.
        -12    1    3    3    0    0 -0.17388083118E+02  0.19025032064E+02 -0.14825281935E+02  0.29733588146E+02  0.00000000000E+00 0.  1.
</event>
<event>
 7    1  0.1749439E-013  0.7246155E+02  0.7816164E-02  0.1226708E+00
        -11   -1    0    0    0    0  0.00000000000E+00  0.00000000000E+00  0.45593999997E+02  0.45594000000E+02  0.51100000000E-03 0.  1.
         11   -1    0    0    0    0 -0.00000000000E+00 -0.00000000000E+00 -0.45593999997E+02  0.45594000000E+02  0.51100000000E-03 0. -1.
    9900012    2    1    2    0    0  0.14839062553E+02 -0.70007985963E+01 -0.90261368467E+01  0.72461545322E+02  0.69999967469E+02 0.  0.
        -12    1    1    2    0    0 -0.14839062553E+02  0.70007985963E+01  0.90261368467E+01  0.18726454678E+02  0.00000000000E+00 0.  1.
         11    1    3    3    0    0 -0.93117379563E+01 -0.19135115032E+02 -0.10880570723E+02  0.23900793095E+02  0.51100000000E-03 0. -1.
        -11    1    3    3    0    0  0.97263966662E+01  0.71599660562E+01 -0.19125160717E+02  0.22619453547E+02  0.51100000000E-03 0.  1.
        -12    1    3    3    0    0  0.14424403843E+02  0.49743503792E+01  0.20979594593E+02  0.25941298680E+02  0.00000000000E+00 0.  1.
</event>
<event>
 7    1  0.1749439E-013  0.7246124E+02  0.7816164E-02  0.1226709E+00
        -11   -1    0    0    0    0  0.00000000000E+00  0.00000000000E+00  0.45593999997E+02  0.45594000000E+02  0.51100000000E-03 0.  1.
         11   -1    0    0    0    0 -0.00000000000E+00 -0.00000000000E+00 -0.45593999997E+02  0.45594000000E+02  0.51100000000E-03 0. -1.
    9900012    2    1    2    0    0 -0.11832892784E+02  0.37918443089E+01 -0.14010577307E+02  0.72461235427E+02  0.69999563772E+02 0.  0.
        -12    1    1    2    0    0  0.11832892784E+02 -0.37918443089E+01  0.14010577307E+02  0.18726764573E+02  0.00000000000E+00 0.  1.
         11    1    3    3    0    0 -0.18569402236E+02  0.94887764443E+01 -0.15615443448E+02  0.26051903043E+02  0.51100000000E-03 0. -1.
        -11    1    3    3    0    0 -0.38343682053E+01  0.45702587098E+01 -0.19655655124E+02  0.20541042399E+02  0.51100000000E-03 0.  1.
        -12    1    3    3    0    0  0.10570877658E+02 -0.10267190845E+02  0.21260521265E+02  0.25868289986E+02  0.00000000000E+00 0.  1.
</event>
<event>
 7    1  0.1749439E-013  0.7246156E+02  0.7816164E-02  0.1226708E+00
        -11   -1    0    0    0    0  0.00000000000E+00  0.00000000000E+00  0.45593999997E+02  0.45594000000E+02  0.51100000000E-03 0. -1.
         11   -1    0    0    0    0 -0.00000000000E+00 -0.00000000000E+00 -0.45593999997E+02  0.45594000000E+02  0.51100000000E-03 0.  1.
    9900012    2    1    2    0    0 -0.79391584802E+01 -0.16207092922E+01  0.16882610463E+02  0.72461562217E+02  0.69999989478E+02 0.  0.
        -12    1    1    2    0    0  0.79391584802E+01  0.16207092922E+01 -0.16882610463E+02  0.18726437783E+02  0.00000000000E+00 0.  1.
         11    1    3    3    0    0 -0.94598677052E+01 -0.18406153131E+02  0.33635010823E+02  0.39491638652E+02  0.51100000000E-03 0. -1.
        -11    1    3    3    0    0  0.30572146779E+01 -0.47515500045E+01 -0.77160707045E+01  0.95635524995E+01  0.51100000000E-03 0.  1.
        -12    1    3    3    0    0 -0.15365054529E+01  0.21536993844E+02 -0.90363296556E+01  0.23406371066E+02  0.00000000000E+00 0.  1.
</event>
<event>
 7    1  0.1749439E-013  0.7246163E+02  0.7816164E-02  0.1226708E+00
        -11   -1    0    0    0    0  0.00000000000E+00  0.00000000000E+00  0.45593999997E+02  0.45594000000E+02  0.51100000000E-03 0. -1.
         11   -1    0    0    0    0 -0.00000000000E+00 -0.00000000000E+00 -0.45593999997E+02  0.45594000000E+02  0.51100000000E-03 0.  1.
    9900012    2    1    2    0    0 -0.43586815161E+01 -0.16520672494E+02  0.76646023404E+01  0.72461632140E+02  0.70000080565E+02 0.  0.
        -12    1    1    2    0    0  0.43586815161E+01  0.16520672494E+02 -0.76646023404E+01  0.18726367860E+02  0.00000000000E+00 0.  1.
         11    1    3    3    0    0 -0.10272865325E+02 -0.21663424024E+01  0.16555584615E+02  0.19603881850E+02  0.51100000000E-03 0. -1.
        -11    1    3    3    0    0  0.18652471875E+02 -0.16660921065E+02  0.12419117095E+02  0.27923743794E+02  0.51100000000E-03 0.  1.
        -12    1    3    3    0    0 -0.12738288066E+02  0.23065909737E+01 -0.21310099370E+02  0.24934006496E+02  0.00000000000E+00 0.  1.
</event>
<event>
 7    1  0.1749439E-013  0.7246158E+02  0.7816164E-02  0.1226708E+00
        -11   -1    0    0    0    0  0.00000000000E+00  0.00000000000E+00  0.45593999997E+02  0.45594000000E+02  0.51100000000E-03 0. -1.
         11   -1    0    0    0    0 -0.00000000000E+00 -0.00000000000E+00 -0.45593999997E+02  0.45594000000E+02  0.51100000000E-03 0.  1.
    9900012    2    1    2    0    0  0.14344978119E+02  0.76587967258E+01  0.92867298818E+01  0.72461577053E+02  0.70000008804E+02 0.  0.
        -12    1    1    2    0    0 -0.14344978119E+02 -0.76587967258E+01 -0.92867298818E+01  0.18726422947E+02  0.00000000000E+00 0.  1.
         11    1    3    3    0    0  0.11699899894E+02 -0.89010087755E+01  0.11860796607E+01  0.14748640614E+02  0.51100000000E-03 0. -1.
        -11    1    3    3    0    0  0.27267805397E+02  0.10572666389E+02 -0.41986773155E+01  0.29545615195E+02  0.51100000000E-03 0.  1.
         12    1    3    3    0    0 -0.24622727173E+02  0.59871391119E+01  0.12299327537E+02  0.28167321243E+02  0.00000000000E+00 0. -1.
</event>
<event>
 7    1  0.1749439E-013  0.7246152E+02  0.7816164E-02  0.1226708E+00
        -11   -1    0    0    0    0  0.00000000000E+00  0.00000000000E+00  0.45593999997E+02  0.45594000000E+02  0.51100000000E-03 0. -1.
         11   -1    0    0    0    0 -0.00000000000E+00 -0.00000000000E+00 -0.45593999997E+02  0.45594000000E+02  0.51100000000E-03 0.  1.
    9900012    2    1    2    0    0 -0.10997955761E+02 -0.35598927882E+00  0.15152537526E+02  0.72461517342E+02  0.69999931019E+02 0.  0.
        -12    1    1    2    0    0  0.10997955761E+02  0.35598927882E+00 -0.15152537526E+02  0.18726482658E+02  0.00000000000E+00 0.  1.
         11    1    3    3    0    0  0.24200122023E+02 -0.37703566850E+01  0.15783826862E+02  0.29137444743E+02  0.51100000000E-03 0. -1.
        -11    1    3    3    0    0 -0.34814450190E+01 -0.36346526326E+01  0.82298831013E+01  0.96468717884E+01  0.51100000000E-03 0.  1.
        -12    1    3    3    0    0 -0.31716632765E+02  0.70490200387E+01 -0.88611724373E+01  0.33677200810E+02  0.00000000000E+00 0.  1.
</event>
<event>
 7    1  0.1749439E-013  0.7246156E+02  0.7816164E-02  0.1226708E+00
        -11   -1    0    0    0    0  0.00000000000E+00  0.00000000000E+00  0.45593999997E+02  0.45594000000E+02  0.51100000000E-03 0. -1.
         11   -1    0    0    0    0 -0.00000000000E+00 -0.00000000000E+00 -0.45593999997E+02  0.45594000000E+02  0.51100000000E-03 0.  1.
    9900012    2    1    2    0    0 -0.18407787176E+02 -0.11595197627E+01  0.32386108290E+01  0.72461555732E+02  0.69999981030E+02 0.  0.
        -12    1    1    2    0    0  0.18407787176E+02  0.11595197627E+01 -0.32386108290E+01  0.18726444268E+02  0.00000000000E+00 0.  1.
         11    1    3    3    0    0 -0.95488040950E+01 -0.98563841762E+01 -0.68983700780E-01  0.13723437167E+02  0.51100000000E-03 0. -1.
        -11    1    3    3    0    0  0.68888258219E+00 -0.10752800004E+02 -0.22556522538E+02  0.24997879438E+02  0.51100000000E-03 0.  1.
         12    1    3    3    0    0 -0.95478656637E+01  0.19449664417E+02  0.25864117067E+02  0.33740239127E+02  0.00000000000E+00 0. -1.
</event>
<event>
 7    1  0.1749439E-013  0.7246164E+02  0.7816164E-02  0.1226708E+00
        -11   -1    0    0    0    0  0.00000000000E+00  0.00000000000E+00  0.45593999997E+02  0.45594000000E+02  0.51100000000E-03 0.  1.
         11   -1    0    0    0    0 -0.00000000000E+00 -0.00000000000E+00 -0.45593999997E+02  0.45594000000E+02  0.51100000000E-03 0. -1.
    9900012    2    1    2    0    0 -0.18137656327E+02  0.45771552532E+01  0.86689251726E+00  0.72461643443E+02  0.70000095290E+02 0.  0.
        -12    1    1    2    0    0  0.18137656327E+02 -0.45771552532E+01 -0.86689251726E+00  0.18726356557E+02  0.00000000000E+00 0.  1.
         11    1    3    3    0    0 -0.49316824329E+00  0.12390442459E+02  0.11316762905E+02  0.16787954079E+02  0.51100000000E-03 0. -1.
        -11    1    3    3    0    0  0.10294542162E+02  0.13345542242E+02  0.46920969777E+01  0.17495624321E+02  0.51100000000E-03 0.  1.
         12    1    3    3    0    0 -0.27939030246E+02 -0.21158829448E+02 -0.15141967366E+02  0.38178065043E+02  0.00000000000E+00 0. -1.
</event>
<event>
 7    1  0.1749439E-013  0.7246156E+02  0.7816164E-02  0.1226708E+00
        -11   -1    0    0    0    0  0.00000000000E+00  0.00000000000E+00  0.45593999997E+02  0.45594000000E+02  0.51100000000E-03 0.  1.
         11   -1    0    0    0    0 -0.00000000000E+00 -0.00000000000E+00 -0.45593999997E+02  0.45594000000E+02  0.51100000000E-03 0. -1.
    9900012    2    1    2    0    0 -0.11878768592E+02  0.36467071212E-01 -0.14476639615E+02  0.72461559664E+02  0.69999986152E+02 0.  0.
        -12    1    1    2    0    0  0.11878768592E+02 -0.36467071212E-01  0.14476639615E+02  0.18726440336E+02  0.00000000000E+00 0.  1.
         11    1    3    3    0    0  0.74524278009E+01 -0.18151006657E+02 -0.25882058711E+02  0.32478896012E+02  0.51100000000E-03 0. -1.
        -11    1    3    3    0    0  0.64460561609E+01 -0.24212177893E+00  0.34334826308E+01  0.73074664708E+01  0.51100000000E-03 0.  1.
        -12    1    3    3    0    0 -0.25777252554E+02  0.18429595507E+02  0.79719364653E+01  0.32675197181E+02  0.00000000000E+00 0.  1.
</event>
<event>
 7    1  0.1749439E-013  0.7246152E+02  0.7816164E-02  0.1226708E+00
        -11   -1    0    0    0    0  0.00000000000E+00  0.00000000000E+00  0.45593999997E+02  0.45594000000E+02  0.51100000000E-03 0.  1.
         11   -1    0    0    0    0 -0.00000000000E+00 -0.00000000000E+00 -0.45593999997E+02  0.45594000000E+02  0.51100000000E-03 0. -1.
    9900012    2    1    2    0    0  0.85940639871E+01 -0.12288446452E+02 -0.11216832402E+02  0.72461516584E+02  0.69999930032E+02 0.  0.
        -12    1    1    2    0    0 -0.85940639871E+01  0.12288446452E+02  0.11216832402E+02  0.18726483416E+02  0.00000000000E+00 0.  1.
         11    1    3    3    0    0  0.26608326020E+01  0.16041785652E+02 -0.87559185884E+01  0.18468487421E+02  0.51100000000E-03 0. -1.
        -11    1    3    3    0    0 -0.96854071622E+01  0.88718266553E+01  0.24052622716E+01  0.13352966223E+02  0.51100000000E-03 0.  1.
        -12    1    3    3    0    0  0.15618638547E+02 -0.37202058759E+02 -0.48661760851E+01  0.40640062939E+02  0.00000000000E+00 0.  1.
</event>
<event>
 7    1  0.1749439E-013  0.7246157E+02  0.7816164E-02  0.1226708E+00
        -11   -1    0    0    0    0  0.00000000000E+00  0.00000000000E+00  0.45593999997E+02  0.45594000000E+02  0.51100000000E-03 0.  1.
         11   -1    0    0    0    0 -0.00000000000E+00 -0.00000000000E+00 -0.45593999997E+02  0.45594000000E+02  0.51100000000E-03 0. -1.
    9900012    2    1    2    0    0  0.16951297441E+02  0.16757020069E+01 -0.77797566033E+01  0.72461572819E+02  0.70000003289E+02 0.  0.
        -12    1    1    2    0    0 -0.16951297441E+02 -0.16757020069E+01  0.77797566033E+01  0.18726427181E+02  0.00000000000E+00 0.  1.
         11    1    3    3    0    0 -0.73274080186E+01 -0.73855024613E+01 -0.11125471199E+02  0.15231961940E+02  0.51100000000E-03 0. -1.
        -11    1    3    3    0    0 -0.67773305199E+00  0.25595058808E+02 -0.51375407387E+01  0.26114376933E+02  0.51100000000E-03 0.  1.
        -12    1    3    3    0    0  0.24956438511E+02 -0.16533854340E+02  0.84832553344E+01  0.31115233947E+02  0.00000000000E+00 0.  1.
</event>
<event>
 7    1  0.1749439E-013  0.7246160E+02  0.7816164E-02  0.1226708E+00
        -11   -1    0    0    0    0  0.00000000000E+00  0.00000000000E+00  0.45593999997E+02  0.45594000000E+02  0.51100000000E-03 0. -1.
         11   -1    0    0    0    0 -0.00000000000E+00 -0.00000000000E+00 -0.45593999997E+02  0.45594000000E+02  0.51100000000E-03 0.  1.
    9900012    2    1    2    0    0  0.88799400295E+01  0.13269920948E+02 -0.97843695821E+01  0.72461600853E+02  0.70000039809E+02 0.  0.
        -12    1    1    2    0    0 -0.88799400295E+01 -0.13269920948E+02  0.97843695821E+01  0.18726399147E+02  0.00000000000E+00 0.  1.
         11    1    3    3    0    0  0.14691521622E+02  0.11012553178E+02  0.20638726836E+01  0.18476382379E+02  0.51100000000E-03 0. -1.
        -11    1    3    3    0    0 -0.38457819812E+01 -0.11560646163E+02  0.17594953324E+02  0.21401424287E+02  0.51100000000E-03 0.  1.
        -12    1    3    3    0    0 -0.19657996116E+01  0.13818013933E+02 -0.29443195590E+02  0.32583794188E+02  0.00000000000E+00 0.  1.
</event>
<event>
 7    1  0.1749439E-013  0.7246142E+02  0.7816164E-02  0.1226708E+00
        -11   -1    0    0    0    0  0.00000000000E+00  0.00000000000E+00  0.45593999997E+02  0.45594000000E+02  0.51100000000E-03 0.  1.
         11   -1    0    0    0    0 -0.00000000000E+00 -0.00000000000E+00 -0.45593999997E+02  0.45594000000E+02  0.51100000000E-03 0. -1.
    9900012    2    1    2    0    0 -0.11232645462E+02 -0.11638577892E+02 -0.94369394715E+01  0.72461424071E+02  0.69999809517E+02 0.  0.
        -12    1    1    2    0    0  0.11232645462E+02  0.11638577892E+02  0.94369394715E+01  0.18726575929E+02  0.00000000000E+00 0.  1.
         11    1    3    3    0    0  0.18602878613E+01 -0.17243238440E+02 -0.24983548801E+02  0.30413280879E+02  0.51100000000E-03 0. -1.
        -11    1    3    3    0    0 -0.13413913186E+02 -0.12780525805E+02  0.91691399711E+00  0.18550354130E+02  0.51100000000E-03 0.  1.
        -12    1    3    3    0    0  0.32097986235E+00  0.18385186353E+02  0.14629695333E+02  0.23497789062E+02  0.00000000000E+00 0.  1.
</event>
<event>
 7    1  0.1749439E-013  0.7246157E+02  0.7816164E-02  0.1226708E+00
        -11   -1    0    0    0    0  0.00000000000E+00  0.00000000000E+00  0.45593999997E+02  0.45594000000E+02  0.51100000000E-03 0. -1.
         11   -1    0    0    0    0 -0.00000000000E+00 -0.00000000000E+00 -0.45593999997E+02  0.45594000000E+02  0.51100000000E-03 0.  1.
    9900012    2    1    2    0    0 -0.13533536143E+02  0.11499125080E+02  0.59407790356E+01  0.72461565911E+02  0.69999994290E+02 0.  0.
        -12    1    1    2    0    0  0.13533536143E+02 -0.11499125080E+02 -0.59407790356E+01  0.18726434089E+02  0.00000000000E+00 0.  1.
         11    1    3    3    0    0  0.56530021999E+01  0.37652686326E+01  0.41936887410E+01  0.79825251183E+01  0.51100000000E-03 0. -1.
        -11    1    3    3    0    0  0.89344991018E+01  0.28052389280E+02  0.40060606423E+01  0.29712124472E+02  0.51100000000E-03 0.  1.
         12    1    3    3    0    0 -0.28121037444E+02 -0.20318532833E+02 -0.22589703477E+01  0.34766916321E+02  0.00000000000E+00 0. -1.
</event>
<event>
 7    1  0.1749439E-013  0.7246157E+02  0.7816164E-02  0.1226708E+00
        -11   -1    0    0    0    0  0.00000000000E+00  0.00000000000E+00  0.45593999997E+02  0.45594000000E+02  0.51100000000E-03 0.  1.
         11   -1    0    0    0    0 -0.00000000000E+00 -0.00000000000E+00 -0.45593999997E+02  0.45594000000E+02  0.51100000000E-03 0. -1.
    9900012    2    1    2    0    0  0.95745535418E+01  0.65821946010E+01 -0.14686111810E+02  0.72461568376E+02  0.69999997500E+02 0.  0.
        -12    1    1    2    0    0 -0.95745535418E+01 -0.65821946010E+01  0.14686111810E+02  0.18726431624E+02  0.00000000000E+00 0.  1.
         11    1    3    3    0    0 -0.19802920827E+01  0.98414033080E+01  0.88320859934E+01  0.13370883256E+02  0.51100000000E-03 0. -1.
        -11    1    3    3    0    0  0.21450295514E+02  0.18816285838E+02 -0.58327963595E+01  0.29123689739E+02  0.51100000000E-03 0.  1.
         12    1    3    3    0    0 -0.98954498892E+01 -0.22075494545E+02 -0.17685401444E+02  0.29966995381E+02  0.00000000000E+00 0. -1.
</event>
<event>
 7    1  0.1749439E-013  0.7246157E+02  0.7816164E-02  0.1226708E+00
        -11   -1    0    0    0    0  0.00000000000E+00  0.00000000000E+00  0.45593999997E+02  0.45594000000E+02  0.51100000000E-03 0. -1.
         11   -1    0    0    0    0 -0.00000000000E+00 -0.00000000000E+00 -0.45593999997E+02  0.45594000000E+02  0.51100000000E-03 0.  1.
    9900012    2    1    2    0    0  0.11463642473E+02 -0.19152506622E+01  0.14683184934E+02  0.72461569383E+02  0.69999998813E+02 0.  0.
        -12    1    1    2    0    0 -0.11463642473E+02  0.19152506622E+01 -0.14683184934E+02  0.18726430617E+02  0.00000000000E+00 0.  1.
         11    1    3    3    0    0 -0.28694880063E+01 -0.52823303724E+01 -0.28603722527E+01  0.66572295489E+01  0.51100000000E-03 0. -1.
        -11    1    3    3    0    0 -0.93250580746E+01 -0.86419437101E+00  0.34915542471E+02  0.36149670072E+02  0.51100000000E-03 0.  1.
         12    1    3    3    0    0  0.23658188554E+02  0.42312740812E+01 -0.17371985284E+02  0.29654669763E+02  0.00000000000E+00 0. -1.
</event>
<event>
 7    1  0.1749439E-013  0.7246155E+02  0.7816164E-02  0.1226708E+00
        -11   -1    0    0    0    0  0.00000000000E+00  0.00000000000E+00  0.45593999997E+02  0.45594000000E+02  0.51100000000E-03 0. -1.
         11   -1    0    0    0    0 -0.00000000000E+00 -0.00000000000E+00 -0.45593999997E+02  0.45594000000E+02  0.51100000000E-03 0.  1.
    9900012    2    1    2    0    0  0.14940566402E+02  0.96100010121E+00  0.11248811459E+02  0.72461553331E+02  0.69999977902E+02 0.  0.
        -12    1    1    2    0    0 -0.14940566402E+02 -0.96100010121E+00 -0.11248811459E+02  0.18726446669E+02  0.00000000000E+00 0.  1.
         11    1    3    3    0    0  0.17984146273E+01 -0.11857396335E+01 -0.18439269293E+02  0.18564668755E+02  0.51100000000E-03 0. -1.
        -11    1    3    3    0    0 -0.53537113769E+01 -0.14297089887E+02  0.26644809928E-01  0.15266620941E+02  0.51100000000E-03 0.  1.
         12    1    3    3    0    0  0.18495863151E+02  0.16443829622E+02  0.29661435942E+02  0.38630263635E+02  0.00000000000E+00 0. -1.
</event>
<event>
 7    1  0.1749439E-013  0.7246155E+02  0.7816164E-02  0.1226708E+00
        -11   -1    0    0    0    0  0.00000000000E+00  0.00000000000E+00  0.45593999997E+02  0.45594000000E+02  0.51100000000E-03 0.  1.
         11   -1    0    0    0    0 -0.00000000000E+00 -0.00000000000E+00 -0.45593999997E+02  0.45594000000E+02  0.51100000000E-03 0. -1.
    9900012    2    1    2    0    0  0.57819114365E+01  0.12673266163E+02 -0.12515498424E+02  0.72461551434E+02  0.69999975431E+02 0.  0.
        -12    1    1    2    0    0 -0.57819114365E+01 -0.12673266163E+02  0.12515498424E+02  0.18726448566E+02  0.00000000000E+00 0.  1.
         11    1    3    3    0    0  0.22577528138E+02  0.11677315981E+02 -0.76101678856E+01  0.26533359019E+02  0.51100000000E-03 0. -1.
        -11    1    3    3    0    0  0.10347979421E+02  0.11224547940E+02  0.36286711767E+01  0.15691985513E+02  0.51100000000E-03 0.  1.
         12    1    3    3    0    0 -0.27143596123E+02 -0.10228597758E+02 -0.85340017148E+01  0.30236206902E+02  0.00000000000E+00 0. -1.
</event>
<event>
 7    1  0.1749439E-013  0.7246159E+02  0.7816164E-02  0.1226708E+00
        -11   -1    0    0    0    0  0.00000000000E+00  0.00000000000E+00  0.45593999997E+02  0.45594000000E+02  0.51100000000E-03 0.  1.
         11   -1    0    0    0    0 -0.00000000000E+00 -0.00000000000E+00 -0.45593999997E+02  0.45594000000E+02  0.51100000000E-03 0. -1.
    9900012    2    1    2    0    0  0.48496381438E+01  0.92694117393E+01 -0.15531822180E+02  0.72461588589E+02  0.70000023832E+02 0.  0.
        -12    1    1    2    0    0 -0.48496381438E+01 -0.92694117393E+01  0.15531822180E+02  0.18726411411E+02  0.00000000000E+00 0.  1.
         11    1    3    3    0    0 -0.23598121180E+01 -0.12254857441E+02  0.46270410133E+01  0.13310137224E+02  0.51100000000E-03 0. -1.
        -11    1    3    3    0    0 -0.17237916936E+02  0.19328760907E+02  0.21428900664E+01  0.25987280669E+02  0.51100000000E-03 0.  1.
         12    1    3    3    0    0  0.24447367197E+02  0.21955082733E+01 -0.22301753259E+02  0.33164170695E+02  0.00000000000E+00 0. -1.
</event>
<event>
 7    1  0.1749439E-013  0.7246142E+02  0.7816164E-02  0.1226708E+00
        -11   -1    0    0    0    0  0.00000000000E+00  0.00000000000E+00  0.45593999997E+02  0.45594000000E+02  0.51100000000E-03 0.  1.
         11   -1    0    0    0    0 -0.00000000000E+00 -0.00000000000E+00 -0.45593999997E+02  0.45594000000E+02  0.51100000000E-03 0. -1.
    9900012    2    1    2    0    0 -0.16717459973E+02 -0.82745429148E+01 -0.16562279272E+01  0.72461424783E+02  0.69999810445E+02 0.  0.
        -12    1    1    2    0    0  0.16717459973E+02  0.82745429148E+01  0.16562279272E+01  0.18726575217E+02  0.00000000000E+00 0.  1.
         11    1    3    3    0    0 -0.18830641597E+02  0.22402886726E+02 -0.40520718525E+00  0.29268525582E+02  0.51100000000E-03 0. -1.
        -11    1    3    3    0    0 -0.62386050193E+01 -0.31340636373E+01  0.10079436287E+02  0.12261222761E+02  0.51100000000E-03 0.  1.
        -12    1    3    3    0    0  0.83517866437E+01 -0.27543366003E+02 -0.11330457029E+02  0.30931676440E+02  0.00000000000E+00 0.  1.
</event>
<event>
 7    1  0.1749439E-013  0.7246160E+02  0.7816164E-02  0.1226708E+00
        -11   -1    0    0    0    0  0.00000000000E+00  0.00000000000E+00  0.45593999997E+02  0.45594000000E+02  0.51100000000E-03 0.  1.
         11   -1    0    0    0    0 -0.00000000000E+00 -0.00000000000E+00 -0.45593999997E+02  0.45594000000E+02  0.51100000000E-03 0. -1.
    9900012    2    1    2    0    0  0.17407637526E+02 -0.63569648101E+01 -0.26909545195E+01  0.72461599330E+02  0.70000037824E+02 0.  0.
        -12    1    1    2    0    0 -0.17407637526E+02  0.63569648101E+01  0.26909545195E+01  0.18726400670E+02  0.00000000000E+00 0.  1.
         11    1    3    3    0    0  0.34000210565E+02  0.88271445751E+01 -0.12670099576E+02  0.37342525669E+02  0.51100000000E-03 0. -1.
        -11    1    3    3    0    0  0.15086123200E+01  0.38234883169E+01 -0.36914941749E+01  0.55246813072E+01  0.51100000000E-03 0.  1.
        -12    1    3    3    0    0 -0.18101185359E+02 -0.19007597702E+02  0.13670639231E+02  0.29594392354E+02  0.00000000000E+00 0.  1.
</event>
<event>
 7    1  0.1749439E-013  0.7246150E+02  0.7816164E-02  0.1226708E+00
        -11   -1    0    0    0    0  0.00000000000E+00  0.00000000000E+00  0.45593999997E+02  0.45594000000E+02  0.51100000000E-03 0.  1.
         11   -1    0    0    0    0 -0.00000000000E+00 -0.00000000000E+00 -0.45593999997E+02  0.45594000000E+02  0.51100000000E-03 0. -1.
    9900012    2    1    2    0    0 -0.71407956513E+01  0.75528221811E+01 -0.15577093409E+02  0.72461496736E+02  0.69999904177E+02 0.  0.
        -12    1    1    2    0    0  0.71407956513E+01 -0.75528221811E+01  0.15577093409E+02  0.18726503264E+02  0.00000000000E+00 0.  1.
         11    1    3    3    0    0  0.59748501835E+01  0.56029016900E+01  0.89435511652E+01  0.12127590435E+02  0.51100000000E-03 0.  1.
        -11    1    3    3    0    0 -0.35150674683E+01  0.10761008507E+02  0.14958760172E+02  0.18759517838E+02  0.51100000000E-03 0. -1.
         12    1    3    3    0    0 -0.96005783665E+01 -0.88110880156E+01 -0.39479404745E+02  0.41574388463E+02  0.00000000000E+00 0. -1.
</event>
<event>
 7    1  0.1749439E-013  0.7246158E+02  0.7816164E-02  0.1226708E+00
        -11   -1    0    0    0    0  0.00000000000E+00  0.00000000000E+00  0.45593999997E+02  0.45594000000E+02  0.51100000000E-03 0. -1.
         11   -1    0    0    0    0 -0.00000000000E+00 -0.00000000000E+00 -0.45593999997E+02  0.45594000000E+02  0.51100000000E-03 0.  1.
    9900012    2    1    2    0    0  0.17987481607E+01  0.12751891436E+02 -0.13595318453E+02  0.72461577118E+02  0.70000008889E+02 0.  0.
        -12    1    1    2    0    0 -0.17987481607E+01 -0.12751891436E+02  0.13595318453E+02  0.18726422882E+02  0.00000000000E+00 0.  1.
         11    1    3    3    0    0 -0.15214556102E+02 -0.16217453325E+02  0.44629717291E+01  0.22680534091E+02  0.51100000000E-03 0. -1.
        -11    1    3    3    0    0 -0.61929047657E+01  0.47619130982E+01 -0.13960514680E+02  0.15997620329E+02  0.51100000000E-03 0.  1.
        -12    1    3    3    0    0  0.23206209028E+02  0.24207431662E+02 -0.40977755017E+01  0.33783422698E+02  0.00000000000E+00 0.  1.
</event>
<event>
 7    1  0.1749439E-013  0.7246161E+02  0.7816164E-02  0.1226708E+00
        -11   -1    0    0    0    0  0.00000000000E+00  0.00000000000E+00  0.45593999997E+02  0.45594000000E+02  0.51100000000E-03 0. -1.
         11   -1    0    0    0    0 -0.00000000000E+00 -0.00000000000E+00 -0.45593999997E+02  0.45594000000E+02  0.51100000000E-03 0.  1.
    9900012    2    1    2    0    0 -0.10497833367E+02  0.12150952186E+02  0.96347057479E+01  0.72461609550E+02  0.70000051138E+02 0.  0.
        -12    1    1    2    0    0  0.10497833367E+02 -0.12150952186E+02 -0.96347057479E+01  0.18726390450E+02  0.00000000000E+00 0.  1.
         11    1    3    3    0    0  0.97803212064E+01  0.64572135028E+01  0.77868506894E+01  0.14070726102E+02  0.51100000000E-03 0. -1.
        -11    1    3    3    0    0 -0.15956030782E+02  0.29692188049E+02 -0.16941641365E+01  0.33750424321E+02  0.51100000000E-03 0.  1.
         12    1    3    3    0    0 -0.43221237918E+01 -0.23998449366E+02  0.35420191950E+01  0.24640459127E+02  0.00000000000E+00 0. -1.
</event>
<event>
 7    1  0.1749439E-013  0.7246148E+02  0.7816164E-02  0.1226708E+00
        -11   -1    0    0    0    0  0.00000000000E+00  0.00000000000E+00  0.45593999997E+02  0.45594000000E+02  0.51100000000E-03 0. -1.
         11   -1    0    0    0    0 -0.00000000000E+00 -0.00000000000E+00 -0.45593999997E+02  0.45594000000E+02  0.51100000000E-03 0.  1.
    9900012    2    1    2    0    0 -0.18432684784E+02  0.28304224014E+01 -0.17051550205E+01  0.72461475684E+02  0.69999876752E+02 0.  0.
        -12    1    1    2    0    0  0.18432684784E+02 -0.28304224014E+01  0.17051550205E+01  0.18726524316E+02  0.00000000000E+00 0.  1.
         11    1    3    3    0    0 -0.20204760779E+01 -0.10869079375E+02  0.95952188984E+01  0.14638559902E+02  0.51100000000E-03 0. -1.
        -11    1    3    3    0    0  0.85541211829E+01 -0.92451591919E+01  0.11423691790E+02  0.17004313926E+02  0.51100000000E-03 0.  1.
         12    1    3    3    0    0 -0.24966329889E+02  0.22944660969E+02 -0.22724065709E+02  0.40818601856E+02  0.00000000000E+00 0. -1.
</event>
<event>
 7    1  0.1749439E-013  0.7246152E+02  0.7816164E-02  0.1226708E+00
        -11   -1    0    0    0    0  0.00000000000E+00  0.00000000000E+00  0.45593999997E+02  0.45594000000E+02  0.51100000000E-03 0.  1.
         11   -1    0    0    0    0 -0.00000000000E+00 -0.00000000000E+00 -0.45593999997E+02  0.45594000000E+02  0.51100000000E-03 0. -1.
    9900012    2    1    2    0    0  0.48253614617E+01 -0.82046698658E+01 -0.16127003296E+02  0.72461522591E+02  0.69999937857E+02 0.  0.
        -12    1    1    2    0    0 -0.48253614617E+01  0.82046698658E+01  0.16127003296E+02  0.18726477409E+02  0.00000000000E+00 0.  1.
         11    1    3    3    0    0  0.47520847481E+01 -0.12508107342E+02 -0.30083781725E+02  0.32925202837E+02  0.51100000000E-03 0. -1.
        -11    1    3    3    0    0  0.96921850211E+01 -0.40918046901E+01 -0.86190929942E+01  0.13600370598E+02  0.51100000000E-03 0.  1.
        -12    1    3    3    0    0 -0.96189083074E+01  0.83952421661E+01  0.22575871424E+02  0.25935949155E+02  0.00000000000E+00 0.  1.
</event>
<event>
 7    1  0.1749439E-013  0.7246157E+02  0.7816164E-02  0.1226708E+00
        -11   -1    0    0    0    0  0.00000000000E+00  0.00000000000E+00  0.45593999997E+02  0.45594000000E+02  0.51100000000E-03 0. -1.
         11   -1    0    0    0    0 -0.00000000000E+00 -0.00000000000E+00 -0.45593999997E+02  0.45594000000E+02  0.51100000000E-03 0.  1.
    9900012    2    1    2    0    0 -0.13721379637E+02  0.12294414085E+02  0.33541532000E+01  0.72461568932E+02  0.69999998225E+02 0.  0.
        -12    1    1    2    0    0  0.13721379637E+02 -0.12294414085E+02 -0.33541532000E+01  0.18726431068E+02  0.00000000000E+00 0.  1.
         11    1    3    3    0    0  0.13431393023E+02 -0.12715325845E+02  0.91302386717E+01  0.20626271800E+02  0.51100000000E-03 0. -1.
        -11    1    3    3    0    0  0.25333167165E+00 -0.33006316582E+01 -0.11547096882E+02  0.12012235135E+02  0.51100000000E-03 0.  1.
        -12    1    3    3    0    0 -0.27406104332E+02  0.28310371589E+02  0.57710114100E+01  0.39823061997E+02  0.00000000000E+00 0.  1.
</event>
<event>
 7    1  0.1749439E-013  0.7246157E+02  0.7816164E-02  0.1226708E+00
        -11   -1    0    0    0    0  0.00000000000E+00  0.00000000000E+00  0.45593999997E+02  0.45594000000E+02  0.51100000000E-03 0. -1.
         11   -1    0    0    0    0 -0.00000000000E+00 -0.00000000000E+00 -0.45593999997E+02  0.45594000000E+02  0.51100000000E-03 0.  1.
    9900012    2    1    2    0    0  0.13262361058E+02  0.84800471859E+01  0.10142862129E+02  0.72461572864E+02  0.70000003348E+02 0.  0.
        -12    1    1    2    0    0 -0.13262361058E+02 -0.84800471859E+01 -0.10142862129E+02  0.18726427136E+02  0.00000000000E+00 0.  1.
         11    1    3    3    0    0  0.15448454505E+02 -0.83294714024E+01  0.26995554270E+02  0.32199297990E+02  0.51100000000E-03 0. -1.
        -11    1    3    3    0    0 -0.10982374539E+02 -0.46830110282E+01 -0.67160563950E+00  0.11958018114E+02  0.51100000000E-03 0.  1.
         12    1    3    3    0    0  0.87962810923E+01  0.21492529617E+02 -0.16181086502E+02  0.28304256760E+02  0.00000000000E+00 0. -1.
</event>
<event>
 7    1  0.1749439E-013  0.7246164E+02  0.7816164E-02  0.1226708E+00
        -11   -1    0    0    0    0  0.00000000000E+00  0.00000000000E+00  0.45593999997E+02  0.45594000000E+02  0.51100000000E-03 0.  1.
         11   -1    0    0    0    0 -0.00000000000E+00 -0.00000000000E+00 -0.45593999997E+02  0.45594000000E+02  0.51100000000E-03 0. -1.
    9900012    2    1    2    0    0 -0.17268394906E+02 -0.67643466914E+01  0.25928520549E+01  0.72461635415E+02  0.70000084832E+02 0.  0.
        -12    1    1    2    0    0  0.17268394906E+02  0.67643466914E+01 -0.25928520549E+01  0.18726364585E+02  0.00000000000E+00 0.  1.
         11    1    3    3    0    0  0.65751105568E+01  0.76745640369E+01 -0.19038286369E+02  0.21554288671E+02  0.51100000000E-03 0. -1.
        -11    1    3    3    0    0 -0.57163150818E+01 -0.68948305431E+00 -0.10240485136E+02  0.11748156497E+02  0.51100000000E-03 0.  1.
        -12    1    3    3    0    0 -0.18127190381E+02 -0.13749427674E+02  0.31871623560E+02  0.39159190247E+02  0.00000000000E+00 0.  1.
</event>
<event>
 7    1  0.1749439E-013  0.7246160E+02  0.7816164E-02  0.1226708E+00
        -11   -1    0    0    0    0  0.00000000000E+00  0.00000000000E+00  0.45593999997E+02  0.45594000000E+02  0.51100000000E-03 0.  1.
         11   -1    0    0    0    0 -0.00000000000E+00 -0.00000000000E+00 -0.45593999997E+02  0.45594000000E+02  0.51100000000E-03 0. -1.
    9900012    2    1    2    0    0 -0.63957798589E+01 -0.17134862146E+01 -0.17516734920E+02  0.72461600526E+02  0.70000039382E+02 0.  0.
        -12    1    1    2    0    0  0.63957798589E+01  0.17134862146E+01  0.17516734920E+02  0.18726399474E+02  0.00000000000E+00 0.  1.
         11    1    3    3    0    0 -0.16489500893E+02  0.12308663469E+00 -0.25650957830E+02  0.30494104805E+02  0.51100000000E-03 0. -1.
        -11    1    3    3    0    0 -0.10228081521E+01  0.17408791782E+02 -0.19766372997E+01  0.17550477575E+02  0.51100000000E-03 0.  1.
        -12    1    3    3    0    0  0.11116529186E+02 -0.19245364632E+02  0.10110860210E+02  0.24417018146E+02  0.00000000000E+00 0.  1.
</event>
<event>
 7    1  0.1749439E-013  0.7246157E+02  0.7816164E-02  0.1226708E+00
        -11   -1    0    0    0    0  0.00000000000E+00  0.00000000000E+00  0.45593999997E+02  0.45594000000E+02  0.51100000000E-03 0.  1.
         11   -1    0    0    0    0 -0.00000000000E+00 -0.00000000000E+00 -0.45593999997E+02  0.45594000000E+02  0.51100000000E-03 0. -1.
    9900012    2    1    2    0    0 -0.14044728314E+02  0.96006495056E+01 -0.78263739919E+01  0.72461574975E+02  0.70000006098E+02 0.  0.
        -12    1    1    2    0    0  0.14044728314E+02 -0.96006495056E+01  0.78263739919E+01  0.18726425025E+02  0.00000000000E+00 0.  1.
         11    1    3    3    0    0 -0.83564567627E+01 -0.12564366750E+02  0.60194939324E+01  0.16245860670E+02  0.51100000000E-03 0. -1.
        -11    1    3    3    0    0 -0.26683252016E+02  0.98085972400E+01 -0.14358252767E+02  0.31849080689E+02  0.51100000000E-03 0.  1.
         12    1    3    3    0    0  0.20994980464E+02  0.12356419015E+02  0.51238484268E+00  0.24366633616E+02  0.00000000000E+00 0. -1.
</event>
<event>
 7    1  0.1749439E-013  0.7246158E+02  0.7816164E-02  0.1226708E+00
        -11   -1    0    0    0    0  0.00000000000E+00  0.00000000000E+00  0.45593999997E+02  0.45594000000E+02  0.51100000000E-03 0.  1.
         11   -1    0    0    0    0 -0.00000000000E+00 -0.00000000000E+00 -0.45593999997E+02  0.45594000000E+02  0.51100000000E-03 0. -1.
    9900012    2    1    2    0    0 -0.53588866264E+01  0.16408627713E+02 -0.72607300816E+01  0.72461576673E+02  0.70000008309E+02 0.  0.
        -12    1    1    2    0    0  0.53588866264E+01 -0.16408627713E+02  0.72607300816E+01  0.18726423327E+02  0.00000000000E+00 0.  1.
         11    1    3    3    0    0 -0.22767289321E+01  0.81912235922E+01  0.58735872879E+01  0.10333376334E+02  0.51100000000E-03 0. -1.
        -11    1    3    3    0    0  0.14541203437E+02  0.19235906284E+02  0.14050328185E+02  0.27908393188E+02  0.51100000000E-03 0.  1.
         12    1    3    3    0    0 -0.17623361132E+02 -0.11018502163E+02 -0.27184645555E+02  0.34219807151E+02  0.00000000000E+00 0. -1.
</event>
<event>
 7    1  0.1749439E-013  0.7246163E+02  0.7816164E-02  0.1226708E+00
        -11   -1    0    0    0    0  0.00000000000E+00  0.00000000000E+00  0.45593999997E+02  0.45594000000E+02  0.51100000000E-03 0. -1.
         11   -1    0    0    0    0 -0.00000000000E+00 -0.00000000000E+00 -0.45593999997E+02  0.45594000000E+02  0.51100000000E-03 0.  1.
    9900012    2    1    2    0    0  0.73328705734E+01  0.22448457967E+01  0.17084102371E+02  0.72461631497E+02  0.70000079728E+02 0.  0.
        -12    1    1    2    0    0 -0.73328705734E+01 -0.22448457967E+01 -0.17084102371E+02  0.18726368503E+02  0.00000000000E+00 0.  1.
         11    1    3    3    0    0 -0.82712550087E+00 -0.13357884188E+02  0.84236464520E+00  0.13409950971E+02  0.51100000000E-03 0. -1.
        -11    1    3    3    0    0 -0.18080810038E+02 -0.95020150256E+01  0.68145925060E+01  0.21532362909E+02  0.51100000000E-03 0.  1.
         12    1    3    3    0    0  0.26240806112E+02  0.25104745010E+02  0.94271452194E+01  0.37519317617E+02  0.00000000000E+00 0. -1.
</event>
<event>
 7    1  0.1749439E-013  0.7246152E+02  0.7816164E-02  0.1226708E+00
        -11   -1    0    0    0    0  0.00000000000E+00  0.00000000000E+00  0.45593999997E+02  0.45594000000E+02  0.51100000000E-03 0. -1.
         11   -1    0    0    0    0 -0.00000000000E+00 -0.00000000000E+00 -0.45593999997E+02  0.45594000000E+02  0.51100000000E-03 0.  1.
    9900012    2    1    2    0    0 -0.13222222081E+02 -0.12019501104E+02  0.56022696677E+01  0.72461521714E+02  0.69999936716E+02 0.  0.
        -12    1    1    2    0    0  0.13222222081E+02  0.12019501104E+02 -0.56022696677E+01  0.18726478286E+02  0.00000000000E+00 0.  1.
         11    1    3    3    0    0  0.19958782035E+01  0.41885516876E+01 -0.80906428456E+01  0.93266283811E+01  0.51100000000E-03 0. -1.
        -11    1    3    3    0    0  0.42678531539E+01 -0.29995891846E+02  0.22449608492E+02  0.37708792342E+02  0.51100000000E-03 0.  1.
         12    1    3    3    0    0 -0.19485953438E+02  0.13787839054E+02 -0.87566959788E+01  0.25426100992E+02  0.00000000000E+00 0. -1.
</event>
<event>
 7    1  0.1749439E-013  0.7246167E+02  0.7816164E-02  0.1226708E+00
        -11   -1    0    0    0    0  0.00000000000E+00  0.00000000000E+00  0.45593999997E+02  0.45594000000E+02  0.51100000000E-03 0.  1.
         11   -1    0    0    0    0 -0.00000000000E+00 -0.00000000000E+00 -0.45593999997E+02  0.45594000000E+02  0.51100000000E-03 0. -1.
    9900012    2    1    2    0    0  0.81895723802E+01 -0.28296980494E+01 -0.16601178046E+02  0.72461670959E+02  0.70000131135E+02 0.  0.
        -12    1    1    2    0    0 -0.81895723802E+01  0.28296980494E+01  0.16601178046E+02  0.18726329041E+02  0.00000000000E+00 0.  1.
         11    1    3    3    0    0  0.15608805924E+02  0.11378508822E+02  0.45161068750E+01  0.19836847203E+02  0.51100000000E-03 0. -1.
        -11    1    3    3    0    0  0.80030659686E+01 -0.88539403486E+01  0.11232381027E+02  0.16389255883E+02  0.51100000000E-03 0.  1.
         12    1    3    3    0    0 -0.15422299512E+02 -0.53542665228E+01 -0.32349665948E+02  0.36235567874E+02  0.00000000000E+00 0. -1.
</event>
<event>
 7    1  0.1749439E-013  0.7246161E+02  0.7816164E-02  0.1226708E+00
        -11   -1    0    0    0    0  0.00000000000E+00  0.00000000000E+00  0.45593999997E+02  0.45594000000E+02  0.51100000000E-03 0.  1.
         11   -1    0    0    0    0 -0.00000000000E+00 -0.00000000000E+00 -0.45593999997E+02  0.45594000000E+02  0.51100000000E-03 0. -1.
    9900012    2    1    2    0    0  0.78250927265E+01  0.15826095394E+02  0.62434305369E+01  0.72461606955E+02  0.70000047758E+02 0.  0.
        -12    1    1    2    0    0 -0.78250927265E+01 -0.15826095394E+02 -0.62434305369E+01  0.18726393045E+02  0.00000000000E+00 0.  1.
         11    1    3    3    0    0 -0.62008832277E+01 -0.39269391029E+01  0.24989542929E+01  0.77534880112E+01  0.51100000000E-03 0. -1.
        -11    1    3    3    0    0 -0.37181048917E+01  0.37731613876E+02  0.88582124424E+01  0.38935419833E+02  0.51100000000E-03 0.  1.
         12    1    3    3    0    0  0.17744080846E+02 -0.17978579379E+02 -0.51137361984E+01  0.25772699111E+02  0.00000000000E+00 0. -1.
</event>
<event>
 7    1  0.1749439E-013  0.7246132E+02  0.7816164E-02  0.1226709E+00
        -11   -1    0    0    0    0  0.00000000000E+00  0.00000000000E+00  0.45593999997E+02  0.45594000000E+02  0.51100000000E-03 0. -1.
         11   -1    0    0    0    0 -0.00000000000E+00 -0.00000000000E+00 -0.45593999997E+02  0.45594000000E+02  0.51100000000E-03 0.  1.
    9900012    2    1    2    0    0  0.24570888407E+01  0.86869544095E+01  0.16406954377E+02  0.72461318115E+02  0.69999671489E+02 0.  0.
        -12    1    1    2    0    0 -0.24570888407E+01 -0.86869544095E+01 -0.16406954377E+02  0.18726681885E+02  0.00000000000E+00 0.  1.
         11    1    3    3    0    0  0.18296494752E+02  0.27574515066E+02  0.10999595137E+02  0.34872721356E+02  0.51100000000E-03 0. -1.
        -11    1    3    3    0    0 -0.55211379420E+00 -0.18520093468E+02 -0.48779932117E+01  0.19159684489E+02  0.51100000000E-03 0.  1.
        -12    1    3    3    0    0 -0.15287292117E+02 -0.36746718853E+00  0.10285352451E+02  0.18428912270E+02  0.00000000000E+00 0.  1.
</event>
<event>
 7    1  0.1749439E-013  0.7246149E+02  0.7816164E-02  0.1226708E+00
        -11   -1    0    0    0    0  0.00000000000E+00  0.00000000000E+00  0.45593999997E+02  0.45594000000E+02  0.51100000000E-03 0.  1.
         11   -1    0    0    0    0 -0.00000000000E+00 -0.00000000000E+00 -0.45593999997E+02  0.45594000000E+02  0.51100000000E-03 0. -1.
    9900012    2    1    2    0    0 -0.14446397234E+02  0.11897145781E+02  0.66452122253E+00  0.72461493139E+02  0.69999899490E+02 0.  0.
        -12    1    1    2    0    0  0.14446397234E+02 -0.11897145781E+02 -0.66452122253E+00  0.18726506861E+02  0.00000000000E+00 0.  1.
         11    1    3    3    0    0  0.36082647959E+01  0.16130577987E+01  0.25992850009E+01  0.47305193242E+01  0.51100000000E-03 0. -1.
        -11    1    3    3    0    0 -0.27415973763E+02 -0.17888041082E+02 -0.14106803174E+02  0.35645750479E+02  0.51100000000E-03 0.  1.
         12    1    3    3    0    0  0.93613117339E+01  0.28172129065E+02  0.12172039396E+02  0.32085223335E+02  0.00000000000E+00 0. -1.
</event>
<event>
 7    1  0.1749439E-013  0.7246159E+02  0.7816164E-02  0.1226708E+00
        -11   -1    0    0    0    0  0.00000000000E+00  0.00000000000E+00  0.45593999997E+02  0.45594000000E+02  0.51100000000E-03 0.  1.
         11   -1    0    0    0    0 -0.00000000000E+00 -0.00000000000E+00 -0.45593999997E+02  0.45594000000E+02  0.51100000000E-03 0. -1.
    9900012    2    1    2    0    0  0.36739063735E+01  0.16551316567E+02 -0.79520384960E+01  0.72461585918E+02  0.70000020352E+02 0.  0.
        -12    1    1    2    0    0 -0.36739063735E+01 -0.16551316567E+02  0.79520384960E+01  0.18726414082E+02  0.00000000000E+00 0.  1.
         11    1    3    3    0    0  0.55838769436E+01  0.89158212735E+01 -0.62887467003E+00  0.10538834580E+02  0.51100000000E-03 0. -1.
        -11    1    3    3    0    0  0.23305383699E+02 -0.49341860949E+01 -0.19926876162E+02  0.31057486949E+02  0.51100000000E-03 0.  1.
         12    1    3    3    0    0 -0.25215354269E+02  0.12569681388E+02  0.12603712336E+02  0.30865264388E+02  0.00000000000E+00 0. -1.
</event>
<event>
 7    1  0.1749439E-013  0.7246157E+02  0.7816164E-02  0.1226708E+00
        -11   -1    0    0    0    0  0.00000000000E+00  0.00000000000E+00  0.45593999997E+02  0.45594000000E+02  0.51100000000E-03 0. -1.
         11   -1    0    0    0    0 -0.00000000000E+00 -0.00000000000E+00 -0.45593999997E+02  0.45594000000E+02  0.51100000000E-03 0.  1.
    9900012    2    1    2    0    0 -0.15900458831E+02  0.83824745689E+01  0.52524990249E+01  0.72461569028E+02  0.69999998351E+02 0.  0.
        -12    1    1    2    0    0  0.15900458831E+02 -0.83824745689E+01 -0.52524990249E+01  0.18726430972E+02  0.00000000000E+00 0.  1.
         11    1    3    3    0    0  0.13254617293E+02 -0.11841269776E+02  0.11263074547E+02  0.21041801206E+02  0.51100000000E-03 0. -1.
        -11    1    3    3    0    0 -0.14350787055E+02 -0.15675190055E+01  0.12602732787E+02  0.19163274222E+02  0.51100000000E-03 0.  1.
        -12    1    3    3    0    0 -0.14804289068E+02  0.21791263350E+02 -0.18613308309E+02  0.32256493601E+02  0.00000000000E+00 0.  1.
</event>
<event>
 7    1  0.1749439E-013  0.7246158E+02  0.7816164E-02  0.1226708E+00
        -11   -1    0    0    0    0  0.00000000000E+00  0.00000000000E+00  0.45593999997E+02  0.45594000000E+02  0.51100000000E-03 0. -1.
         11   -1    0    0    0    0 -0.00000000000E+00 -0.00000000000E+00 -0.45593999997E+02  0.45594000000E+02  0.51100000000E-03 0.  1.
    9900012    2    1    2    0    0  0.94934738928E+01  0.12193943379E+02  0.10576406443E+02  0.72461583500E+02  0.70000017203E+02 0.  0.
        -12    1    1    2    0    0 -0.94934738928E+01 -0.12193943379E+02 -0.10576406443E+02  0.18726416500E+02  0.00000000000E+00 0.  1.
         11    1    3    3    0    0 -0.73064739321E+00  0.35582507436E+02  0.33337209586E+01  0.35745802225E+02  0.51100000000E-03 0. -1.
        -11    1    3    3    0    0  0.31764404507E+01  0.46692020654E+01 -0.25193863378E+01  0.61837310456E+01  0.51100000000E-03 0.  1.
        -12    1    3    3    0    0  0.70476808353E+01 -0.28057766123E+02  0.97620718221E+01  0.30532050229E+02  0.00000000000E+00 0.  1.
</event>
<event>
 7    1  0.1749439E-013  0.7246154E+02  0.7816164E-02  0.1226708E+00
        -11   -1    0    0    0    0  0.00000000000E+00  0.00000000000E+00  0.45593999997E+02  0.45594000000E+02  0.51100000000E-03 0.  1.
         11   -1    0    0    0    0 -0.00000000000E+00 -0.00000000000E+00 -0.45593999997E+02  0.45594000000E+02  0.51100000000E-03 0. -1.
    9900012    2    1    2    0    0  0.20810831088E+01  0.17682636649E+02 -0.58029165435E+01  0.72461537809E+02  0.69999957682E+02 0.  0.
        -12    1    1    2    0    0 -0.20810831088E+01 -0.17682636649E+02  0.58029165435E+01  0.18726462191E+02  0.00000000000E+00 0.  1.
         11    1    3    3    0    0 -0.28206406574E+02  0.97021129841E+01 -0.15662553424E+02  0.33690472662E+02  0.51100000000E-03 0. -1.
        -11    1    3    3    0    0 -0.90848748218E+00  0.51895767823E+01 -0.14611064956E+01  0.54673475413E+01  0.51100000000E-03 0.  1.
        -12    1    3    3    0    0  0.31195977165E+02  0.27909468829E+01  0.11320743376E+02  0.33303717606E+02  0.00000000000E+00 0.  1.
</event>
<event>
 7    1  0.1749439E-013  0.7246164E+02  0.7816164E-02  0.1226708E+00
        -11   -1    0    0    0    0  0.00000000000E+00  0.00000000000E+00  0.45593999997E+02  0.45594000000E+02  0.51100000000E-03 0.  1.
         11   -1    0    0    0    0 -0.00000000000E+00 -0.00000000000E+00 -0.45593999997E+02  0.45594000000E+02  0.51100000000E-03 0. -1.
    9900012    2    1    2    0    0 -0.64534628631E+00 -0.70044535205E+01 -0.17355048221E+02  0.72461640511E+02  0.70000091471E+02 0.  0.
        -12    1    1    2    0    0  0.64534628631E+00  0.70044535205E+01  0.17355048221E+02  0.18726359489E+02  0.00000000000E+00 0.  1.
         11    1    3    3    0    0 -0.13677696382E+02  0.19936063005E+02 -0.10910549696E+02  0.26524820101E+02  0.51100000000E-03 0. -1.
        -11    1    3    3    0    0 -0.21901217476E+01 -0.22708949756E+02  0.83475136443E+01  0.24293497413E+02  0.51100000000E-03 0.  1.
        -12    1    3    3    0    0  0.15222471843E+02 -0.42315667699E+01 -0.14792012169E+02  0.21643322997E+02  0.00000000000E+00 0.  1.
</event>
<event>
 7    1  0.1749439E-013  0.7246212E+02  0.7816164E-02  0.1226707E+00
        -11   -1    0    0    0    0  0.00000000000E+00  0.00000000000E+00  0.45593999997E+02  0.45594000000E+02  0.51100000000E-03 0.  1.
         11   -1    0    0    0    0 -0.00000000000E+00 -0.00000000000E+00 -0.45593999997E+02  0.45594000000E+02  0.51100000000E-03 0. -1.
    9900012    2    1    2    0    0  0.34876023009E+00 -0.52577322265E+01 -0.17969226570E+02  0.72462122574E+02  0.70000719443E+02 0.  0.
        -12    1    1    2    0    0 -0.34876023009E+00  0.52577322265E+01  0.17969226570E+02  0.18725877426E+02  0.00000000000E+00 0.  1.
         11    1    3    3    0    0 -0.31309092433E+00 -0.17214922966E+01 -0.39707732220E+02  0.39746264730E+02  0.51100000000E-03 0. -1.
        -11    1    3    3    0    0 -0.41800193137E+01 -0.67530632490E+01 -0.20704696597E+01  0.82075129961E+01  0.51100000000E-03 0.  1.
        -12    1    3    3    0    0  0.48418704681E+01  0.32168233190E+01  0.23808975310E+02  0.24508344848E+02  0.00000000000E+00 0.  1.
</event>
<event>
 7    1  0.1749439E-013  0.7246157E+02  0.7816164E-02  0.1226708E+00
        -11   -1    0    0    0    0  0.00000000000E+00  0.00000000000E+00  0.45593999997E+02  0.45594000000E+02  0.51100000000E-03 0. -1.
         11   -1    0    0    0    0 -0.00000000000E+00 -0.00000000000E+00 -0.45593999997E+02  0.45594000000E+02  0.51100000000E-03 0.  1.
    9900012    2    1    2    0    0 -0.16143502875E+02 -0.20941579713E+01  0.92564074540E+01  0.72461567835E+02  0.69999996796E+02 0.  0.
        -12    1    1    2    0    0  0.16143502875E+02  0.20941579713E+01 -0.92564074540E+01  0.18726432165E+02  0.00000000000E+00 0.  1.
         11    1    3    3    0    0 -0.21121738733E+02 -0.53430875643E+01  0.21743083117E+02  0.30780482380E+02  0.51100000000E-03 0. -1.
        -11    1    3    3    0    0  0.16588641231E+01  0.18468440144E+02  0.40319594802E+01  0.18976085188E+02  0.51100000000E-03 0.  1.
         12    1    3    3    0    0  0.33193717353E+01 -0.15219510552E+02 -0.16518635143E+02  0.22705000267E+02  0.00000000000E+00 0. -1.
</event>
<event>
 7    1  0.1749439E-013  0.7246158E+02  0.7816164E-02  0.1226708E+00
        -11   -1    0    0    0    0  0.00000000000E+00  0.00000000000E+00  0.45593999997E+02  0.45594000000E+02  0.51100000000E-03 0.  1.
         11   -1    0    0    0    0 -0.00000000000E+00 -0.00000000000E+00 -0.45593999997E+02  0.45594000000E+02  0.51100000000E-03 0. -1.
    9900012    2    1    2    0    0 -0.12174228727E+02 -0.59959587688E+01 -0.12904091877E+02  0.72461576053E+02  0.70000007502E+02 0.  0.
        -12    1    1    2    0    0  0.12174228727E+02  0.59959587688E+01  0.12904091877E+02  0.18726423947E+02  0.00000000000E+00 0.  1.
         11    1    3    3    0    0 -0.10665449112E+02 -0.13526513708E+02  0.25618524552E+01  0.17414978212E+02  0.51100000000E-03 0. -1.
        -11    1    3    3    0    0 -0.17774593912E+02 -0.57580740205E+01  0.10670532282E+02  0.21516316242E+02  0.51100000000E-03 0.  1.
        -12    1    3    3    0    0  0.16265814297E+02  0.13288628959E+02 -0.26136476614E+02  0.33530281600E+02  0.00000000000E+00 0.  1.
</event>
<event>
 7    1  0.1749439E-013  0.7246158E+02  0.7816164E-02  0.1226708E+00
        -11   -1    0    0    0    0  0.00000000000E+00  0.00000000000E+00  0.45593999997E+02  0.45594000000E+02  0.51100000000E-03 0.  1.
         11   -1    0    0    0    0 -0.00000000000E+00 -0.00000000000E+00 -0.45593999997E+02  0.45594000000E+02  0.51100000000E-03 0. -1.
    9900012    2    1    2    0    0 -0.70321239973E+01 -0.17354824045E+02 -0.19506008762E+00  0.72461581923E+02  0.70000015148E+02 0.  0.
        -12    1    1    2    0    0  0.70321239973E+01  0.17354824045E+02  0.19506008762E+00  0.18726418077E+02  0.00000000000E+00 0.  1.
         11    1    3    3    0    0 -0.70542507907E+01  0.61191962532E+01 -0.76290313807E+00  0.93695804849E+01  0.51100000000E-03 0. -1.
        -11    1    3    3    0    0 -0.10685146211E+01  0.19570163456E+02  0.36007135170E+01  0.19927321930E+02  0.51100000000E-03 0.  1.
         12    1    3    3    0    0  0.10906414145E+01 -0.43044183755E+02 -0.30328704666E+01  0.43164679508E+02  0.00000000000E+00 0. -1.
</event>
<event>
 7    1  0.1749439E-013  0.7246155E+02  0.7816164E-02  0.1226708E+00
        -11   -1    0    0    0    0  0.00000000000E+00  0.00000000000E+00  0.45593999997E+02  0.45594000000E+02  0.51100000000E-03 0.  1.
         11   -1    0    0    0    0 -0.00000000000E+00 -0.00000000000E+00 -0.45593999997E+02  0.45594000000E+02  0.51100000000E-03 0. -1.
    9900012    2    1    2    0    0 -0.38487434832E+01  0.11835889364E+02 -0.13992095692E+02  0.72461552251E+02  0.69999976495E+02 0.  0.
        -12    1    1    2    0    0  0.38487434832E+01 -0.11835889364E+02  0.13992095692E+02  0.18726447749E+02  0.00000000000E+00 0.  1.
         11    1    3    3    0    0 -0.37712902137E+01  0.17219290920E+01 -0.37479027884E+01  0.55887785110E+01  0.51100000000E-03 0. -1.
        -11    1    3    3    0    0 -0.14883680666E+02 -0.21820532694E+02  0.74943511885E+01  0.27455871817E+02  0.51100000000E-03 0.  1.
        -12    1    3    3    0    0  0.14806227396E+02  0.31934492966E+02 -0.17738544092E+02  0.39416901923E+02  0.00000000000E+00 0.  1.
</event>
<event>
 7    1  0.1749439E-013  0.7246157E+02  0.7816164E-02  0.1226708E+00
        -11   -1    0    0    0    0  0.00000000000E+00  0.00000000000E+00  0.45593999997E+02  0.45594000000E+02  0.51100000000E-03 0.  1.
         11   -1    0    0    0    0 -0.00000000000E+00 -0.00000000000E+00 -0.45593999997E+02  0.45594000000E+02  0.51100000000E-03 0. -1.
    9900012    2    1    2    0    0 -0.18192851616E+02  0.21121204298E+01  0.39036182331E+01  0.72461571137E+02  0.70000001098E+02 0.  0.
        -12    1    1    2    0    0  0.18192851616E+02 -0.21121204298E+01 -0.39036182331E+01  0.18726428863E+02  0.00000000000E+00 0.  1.
         11    1    3    3    0    0  0.20526698513E+01 -0.75486525449E+01  0.20525194300E+01  0.80875487654E+01  0.51100000000E-03 0. -1.
        -11    1    3    3    0    0  0.68394505966E+01  0.21140449824E+02  0.19927843436E+02  0.29846534933E+02  0.51100000000E-03 0.  1.
         12    1    3    3    0    0 -0.27084972064E+02 -0.11479676849E+02 -0.18076744633E+02  0.34527487439E+02  0.00000000000E+00 0. -1.
</event>
<event>
 7    1  0.1749439E-013  0.7246157E+02  0.7816164E-02  0.1226708E+00
        -11   -1    0    0    0    0  0.00000000000E+00  0.00000000000E+00  0.45593999997E+02  0.45594000000E+02  0.51100000000E-03 0.  1.
         11   -1    0    0    0    0 -0.00000000000E+00 -0.00000000000E+00 -0.45593999997E+02  0.45594000000E+02  0.51100000000E-03 0. -1.
    9900012    2    1    2    0    0  0.63932453897E+01  0.87603692711E+01 -0.15266349491E+02  0.72461572600E+02  0.70000003003E+02 0.  0.
        -12    1    1    2    0    0 -0.63932453897E+01 -0.87603692711E+01  0.15266349491E+02  0.18726427400E+02  0.00000000000E+00 0.  1.
         11    1    3    3    0    0  0.74126616684E+01  0.12036227434E+02 -0.36548199767E+01  0.14600549071E+02  0.51100000000E-03 0. -1.
        -11    1    3    3    0    0  0.19553033639E+02 -0.12930418668E+02 -0.22650109127E+02  0.32596691476E+02  0.51100000000E-03 0.  1.
         12    1    3    3    0    0 -0.20572449918E+02  0.96545605051E+01  0.11038579613E+02  0.25264332052E+02  0.00000000000E+00 0. -1.
</event>
<event>
 7    1  0.1749439E-013  0.7246158E+02  0.7816164E-02  0.1226708E+00
        -11   -1    0    0    0    0  0.00000000000E+00  0.00000000000E+00  0.45593999997E+02  0.45594000000E+02  0.51100000000E-03 0. -1.
         11   -1    0    0    0    0 -0.00000000000E+00 -0.00000000000E+00 -0.45593999997E+02  0.45594000000E+02  0.51100000000E-03 0.  1.
    9900012    2    1    2    0    0  0.21946862205E+01  0.15410677591E+02  0.10410249151E+02  0.72461576989E+02  0.70000008721E+02 0.  0.
        -12    1    1    2    0    0 -0.21946862205E+01 -0.15410677591E+02 -0.10410249151E+02  0.18726423011E+02  0.00000000000E+00 0.  1.
         11    1    3    3    0    0  0.20463085261E+02 -0.57092070214E+01  0.79861676164E+01  0.22696074037E+02  0.51100000000E-03 0. -1.
        -11    1    3    3    0    0  0.58810207323E+01 -0.35708691400E+01 -0.10781382143E+02  0.12789672100E+02  0.51100000000E-03 0.  1.
         12    1    3    3    0    0 -0.24149419773E+02  0.24690753752E+02  0.13205463677E+02  0.36975830852E+02  0.00000000000E+00 0. -1.
</event>
<event>
 7    1  0.1749439E-013  0.7246157E+02  0.7816164E-02  0.1226708E+00
        -11   -1    0    0    0    0  0.00000000000E+00  0.00000000000E+00  0.45593999997E+02  0.45594000000E+02  0.51100000000E-03 0.  1.
         11   -1    0    0    0    0 -0.00000000000E+00 -0.00000000000E+00 -0.45593999997E+02  0.45594000000E+02  0.51100000000E-03 0. -1.
    9900012    2    1    2    0    0 -0.11571441365E+02  0.91910721660E+01 -0.11502394480E+02  0.72461571039E+02  0.70000000971E+02 0.  0.
        -12    1    1    2    0    0  0.11571441365E+02 -0.91910721660E+01  0.11502394480E+02  0.18726428961E+02  0.00000000000E+00 0.  1.
         11    1    3    3    0    0  0.32270731615E+01  0.71740593967E+01 -0.47635881425E+01  0.91963526286E+01  0.51100000000E-03 0. -1.
        -11    1    3    3    0    0  0.52774052997E+01  0.22655085140E+02 -0.20816593991E+02  0.31215933032E+02  0.51100000000E-03 0.  1.
        -12    1    3    3    0    0 -0.20075919827E+02 -0.20638072371E+02  0.14077787653E+02  0.32049285379E+02  0.00000000000E+00 0.  1.
</event>
<event>
 7    1  0.1749439E-013  0.7246157E+02  0.7816164E-02  0.1226708E+00
        -11   -1    0    0    0    0  0.00000000000E+00  0.00000000000E+00  0.45593999997E+02  0.45594000000E+02  0.51100000000E-03 0.  1.
         11   -1    0    0    0    0 -0.00000000000E+00 -0.00000000000E+00 -0.45593999997E+02  0.45594000000E+02  0.51100000000E-03 0. -1.
    9900012    2    1    2    0    0  0.59501178166E+00  0.16625419371E+02 -0.85977117307E+01  0.72461568005E+02  0.69999997017E+02 0.  0.
        -12    1    1    2    0    0 -0.59501178166E+00 -0.16625419371E+02  0.85977117307E+01  0.18726431995E+02  0.00000000000E+00 0.  1.
         11    1    3    3    0    0  0.18968281304E+02 -0.97561551797E+01 -0.23825105041E+02  0.31978334697E+02  0.51100000000E-03 0. -1.
        -11    1    3    3    0    0  0.40710125196E+01  0.55538160367E+01  0.30497951564E+01  0.75312194406E+01  0.51100000000E-03 0.  1.
        -12    1    3    3    0    0 -0.22444282042E+02  0.20827758514E+02  0.12177598154E+02  0.32952013867E+02  0.00000000000E+00 0.  1.
</event>
<event>
 7    1  0.1749439E-013  0.7246115E+02  0.7816164E-02  0.1226709E+00
        -11   -1    0    0    0    0  0.00000000000E+00  0.00000000000E+00  0.45593999997E+02  0.45594000000E+02  0.51100000000E-03 0.  1.
         11   -1    0    0    0    0 -0.00000000000E+00 -0.00000000000E+00 -0.45593999997E+02  0.45594000000E+02  0.51100000000E-03 0. -1.
    9900012    2    1    2    0    0  0.16038144534E+01  0.18425738648E+02 -0.29350883221E+01  0.72461152722E+02  0.69999456033E+02 0.  0.
        -12    1    1    2    0    0 -0.16038144534E+01 -0.18425738648E+02  0.29350883221E+01  0.18726847278E+02  0.00000000000E+00 0.  1.
         11    1    3    3    0    0 -0.53520897829E+01  0.17278170951E+00 -0.22248487833E+02  0.22883835554E+02  0.51100000000E-03 0. -1.
        -11    1    3    3    0    0 -0.71800540026E+01  0.12393314414E+02 -0.93362206066E+01  0.17097146930E+02  0.51100000000E-03 0.  1.
        -12    1    3    3    0    0  0.14135958239E+02  0.58596425236E+01  0.28649620117E+02  0.32480170238E+02  0.00000000000E+00 0.  1.
</event>
<event>
 7    1  0.1749439E-013  0.7246158E+02  0.7816164E-02  0.1226708E+00
        -11   -1    0    0    0    0  0.00000000000E+00  0.00000000000E+00  0.45593999997E+02  0.45594000000E+02  0.51100000000E-03 0.  1.
         11   -1    0    0    0    0 -0.00000000000E+00 -0.00000000000E+00 -0.45593999997E+02  0.45594000000E+02  0.51100000000E-03 0. -1.
    9900012    2    1    2    0    0 -0.95992271398E+00  0.80981150672E+01 -0.16857578925E+02  0.72461577852E+02  0.70000009845E+02 0.  0.
        -12    1    1    2    0    0  0.95992271398E+00 -0.80981150672E+01  0.16857578925E+02  0.18726422148E+02  0.00000000000E+00 0.  1.
         11    1    3    3    0    0 -0.12490882018E+02 -0.15539606496E+02 -0.24591126824E+02  0.31657937746E+02  0.51100000000E-03 0. -1.
        -11    1    3    3    0    0 -0.23807862848E+01  0.22900500117E+02 -0.29979311565E+01  0.23218282461E+02  0.51100000000E-03 0.  1.
        -12    1    3    3    0    0  0.13911745589E+02  0.73722144624E+00  0.10731479055E+02  0.17585357645E+02  0.00000000000E+00 0.  1.
</event>
<event>
 7    1  0.1749439E-013  0.7246162E+02  0.7816164E-02  0.1226708E+00
        -11   -1    0    0    0    0  0.00000000000E+00  0.00000000000E+00  0.45593999997E+02  0.45594000000E+02  0.51100000000E-03 0. -1.
         11   -1    0    0    0    0 -0.00000000000E+00 -0.00000000000E+00 -0.45593999997E+02  0.45594000000E+02  0.51100000000E-03 0.  1.
    9900012    2    1    2    0    0  0.15282924332E+02  0.60604753993E+01  0.89655026884E+01  0.72461618164E+02  0.70000062359E+02 0.  0.
        -12    1    1    2    0    0 -0.15282924332E+02 -0.60604753993E+01 -0.89655026884E+01  0.18726381836E+02  0.00000000000E+00 0.  1.
         11    1    3    3    0    0  0.88000048662E+01 -0.79935428115E+01  0.96620224872E+01  0.15319643962E+02  0.51100000000E-03 0. -1.
        -11    1    3    3    0    0 -0.21462673078E+02  0.19063306957E+02  0.72334505568E+00  0.28715487740E+02  0.51100000000E-03 0.  1.
         12    1    3    3    0    0  0.27945592544E+02 -0.50092887467E+01 -0.14198648545E+01  0.28426486462E+02  0.00000000000E+00 0. -1.
</event>
<event>
 7    1  0.1749439E-013  0.7246168E+02  0.7816164E-02  0.1226708E+00
        -11   -1    0    0    0    0  0.00000000000E+00  0.00000000000E+00  0.45593999997E+02  0.45594000000E+02  0.51100000000E-03 0.  1.
         11   -1    0    0    0    0 -0.00000000000E+00 -0.00000000000E+00 -0.45593999997E+02  0.45594000000E+02  0.51100000000E-03 0. -1.
    9900012    2    1    2    0    0 -0.17037048603E+02 -0.41030764318E+01  0.66014227947E+01  0.72461680441E+02  0.70000143486E+02 0.  0.
        -12    1    1    2    0    0  0.17037048603E+02  0.41030764318E+01 -0.66014227947E+01  0.18726319559E+02  0.00000000000E+00 0.  1.
         11    1    3    3    0    0 -0.16739696481E+02  0.12561297365E+02 -0.22723922110E+02  0.30893045594E+02  0.51100000000E-03 0. -1.
        -11    1    3    3    0    0 -0.52341367383E+00 -0.55879540981E+01 -0.37081967493E+01  0.67268057999E+01  0.51100000000E-03 0.  1.
        -12    1    3    3    0    0  0.22606155194E+00 -0.11076419699E+02  0.33033541654E+02  0.34841829047E+02  0.00000000000E+00 0.  1.
</event>
<event>
 7    1  0.1749439E-013  0.7246156E+02  0.7816164E-02  0.1226708E+00
        -11   -1    0    0    0    0  0.00000000000E+00  0.00000000000E+00  0.45593999997E+02  0.45594000000E+02  0.51100000000E-03 0. -1.
         11   -1    0    0    0    0 -0.00000000000E+00 -0.00000000000E+00 -0.45593999997E+02  0.45594000000E+02  0.51100000000E-03 0.  1.
    9900012    2    1    2    0    0  0.17406460302E+02  0.52310684165E+01 -0.45089422991E+01  0.72461561532E+02  0.69999988586E+02 0.  0.
        -12    1    1    2    0    0 -0.17406460302E+02 -0.52310684165E+01  0.45089422991E+01  0.18726438468E+02  0.00000000000E+00 0.  1.
         11    1    3    3    0    0  0.27640177950E+02 -0.98011810126E+01 -0.22289118934E+02  0.36835409723E+02  0.51100000000E-03 0. -1.
        -11    1    3    3    0    0  0.28787388785E+01  0.42150653760E+01 -0.50383552598E+01  0.71720943691E+01  0.51100000000E-03 0.  1.
        -12    1    3    3    0    0 -0.13112456526E+02  0.10817184053E+02  0.22818531895E+02  0.28454057440E+02  0.00000000000E+00 0.  1.
</event>
<event>
 7    1  0.1749439E-013  0.7246156E+02  0.7816164E-02  0.1226708E+00
        -11   -1    0    0    0    0  0.00000000000E+00  0.00000000000E+00  0.45593999997E+02  0.45594000000E+02  0.51100000000E-03 0. -1.
         11   -1    0    0    0    0 -0.00000000000E+00 -0.00000000000E+00 -0.45593999997E+02  0.45594000000E+02  0.51100000000E-03 0.  1.
    9900012    2    1    2    0    0  0.17386894402E+02  0.69465938263E+01 -0.34694672026E+00  0.72461557872E+02  0.69999983818E+02 0.  0.
        -12    1    1    2    0    0 -0.17386894402E+02 -0.69465938263E+01  0.34694672026E+00  0.18726442128E+02  0.00000000000E+00 0.  1.
         11    1    3    3    0    0  0.93699541188E+01 -0.13280760694E+01  0.22370467495E+02  0.24289867074E+02  0.51100000000E-03 0. -1.
        -11    1    3    3    0    0  0.20646074176E+02  0.95119697834E+01 -0.68014993324E+00  0.22742043712E+02  0.51100000000E-03 0.  1.
        -12    1    3    3    0    0 -0.12629133892E+02 -0.12372998877E+01 -0.22037264282E+02  0.25429647086E+02  0.00000000000E+00 0.  1.
</event>
<event>
 7    1  0.1749439E-013  0.7246159E+02  0.7816164E-02  0.1226708E+00
        -11   -1    0    0    0    0  0.00000000000E+00  0.00000000000E+00  0.45593999997E+02  0.45594000000E+02  0.51100000000E-03 0. -1.
         11   -1    0    0    0    0 -0.00000000000E+00 -0.00000000000E+00 -0.45593999997E+02  0.45594000000E+02  0.51100000000E-03 0.  1.
    9900012    2    1    2    0    0  0.16403635412E+02 -0.19723638367E+01  0.88152733649E+01  0.72461587682E+02  0.70000022650E+02 0.  0.
        -12    1    1    2    0    0 -0.16403635412E+02  0.19723638367E+01 -0.88152733649E+01  0.18726412318E+02  0.00000000000E+00 0.  1.
         11    1    3    3    0    0  0.26256711108E+02  0.11836086923E+02  0.24402498089E+02  0.37749036347E+02  0.51100000000E-03 0. -1.
        -11    1    3    3    0    0  0.24450873611E+01 -0.13894060771E+02  0.90852795277E+00  0.14136788894E+02  0.51100000000E-03 0.  1.
         12    1    3    3    0    0 -0.12298163058E+02  0.85610011820E-01 -0.16495752677E+02  0.20575762441E+02  0.00000000000E+00 0. -1.
</event>
<event>
 7    1  0.1749439E-013  0.7246157E+02  0.7816164E-02  0.1226708E+00
        -11   -1    0    0    0    0  0.00000000000E+00  0.00000000000E+00  0.45593999997E+02  0.45594000000E+02  0.51100000000E-03 0.  1.
         11   -1    0    0    0    0 -0.00000000000E+00 -0.00000000000E+00 -0.45593999997E+02  0.45594000000E+02  0.51100000000E-03 0. -1.
    9900012    2    1    2    0    0 -0.11343974823E+02  0.14665361311E+02 -0.26306861604E+01  0.72461572235E+02  0.70000002528E+02 0.  0.
        -12    1    1    2    0    0  0.11343974823E+02 -0.14665361311E+02  0.26306861604E+01  0.18726427765E+02  0.00000000000E+00 0.  1.
         11    1    3    3    0    0 -0.19658819796E+01 -0.62658832372E+01 -0.71416810766E+01  0.97020406905E+01  0.51100000000E-03 0. -1.
        -11    1    3    3    0    0  0.48497127860E-01 -0.20299862364E+02  0.12106934677E+01  0.20335991319E+02  0.51100000000E-03 0.  1.
         12    1    3    3    0    0 -0.94265899710E+01  0.41231106912E+02  0.33003014485E+01  0.42423540226E+02  0.00000000000E+00 0. -1.
</event>
<event>
 7    1  0.1749439E-013  0.7246160E+02  0.7816164E-02  0.1226708E+00
        -11   -1    0    0    0    0  0.00000000000E+00  0.00000000000E+00  0.45593999997E+02  0.45594000000E+02  0.51100000000E-03 0.  1.
         11   -1    0    0    0    0 -0.00000000000E+00 -0.00000000000E+00 -0.45593999997E+02  0.45594000000E+02  0.51100000000E-03 0. -1.
    9900012    2    1    2    0    0  0.77201764776E+01  0.77056422735E+01 -0.15221695344E+02  0.72461600003E+02  0.70000038701E+02 0.  0.
        -12    1    1    2    0    0 -0.77201764776E+01 -0.77056422735E+01  0.15221695344E+02  0.18726399997E+02  0.00000000000E+00 0.  1.
         11    1    3    3    0    0 -0.32294710118E+01 -0.15326461147E+02 -0.17623681406E+02  0.23578041498E+02  0.51100000000E-03 0. -1.
        -11    1    3    3    0    0 -0.64998328863E+01 -0.95278290459E+01  0.30744845573E+01  0.11936490667E+02  0.51100000000E-03 0.  1.
        -12    1    3    3    0    0  0.17449480376E+02  0.32559932467E+02 -0.67249849531E+00  0.36947067838E+02  0.00000000000E+00 0.  1.
</event>
<event>
 7    1  0.1749439E-013  0.7246158E+02  0.7816164E-02  0.1226708E+00
        -11   -1    0    0    0    0  0.00000000000E+00  0.00000000000E+00  0.45593999997E+02  0.45594000000E+02  0.51100000000E-03 0.  1.
         11   -1    0    0    0    0 -0.00000000000E+00 -0.00000000000E+00 -0.45593999997E+02  0.45594000000E+02  0.51100000000E-03 0. -1.
    9900012    2    1    2    0    0 -0.17293423501E+02  0.69239885950E+01 -0.19169188127E+01  0.72461583039E+02  0.70000016602E+02 0.  0.
        -12    1    1    2    0    0  0.17293423501E+02 -0.69239885950E+01  0.19169188127E+01  0.18726416961E+02  0.00000000000E+00 0.  1.
         11    1    3    3    0    0  0.14106468549E+02 -0.27433513266E+01  0.69598234891E+01  0.15967390979E+02  0.51100000000E-03 0. -1.
        -11    1    3    3    0    0 -0.24249042301E+02 -0.11719080606E+02  0.82609139965E+01  0.28170828938E+02  0.51100000000E-03 0.  1.
         12    1    3    3    0    0 -0.71508497493E+01  0.21386420527E+02 -0.17137656298E+02  0.28323363121E+02  0.00000000000E+00 0. -1.
</event>
<event>
 7    1  0.1749439E-013  0.7246158E+02  0.7816164E-02  0.1226708E+00
        -11   -1    0    0    0    0  0.00000000000E+00  0.00000000000E+00  0.45593999997E+02  0.45594000000E+02  0.51100000000E-03 0. -1.
         11   -1    0    0    0    0 -0.00000000000E+00 -0.00000000000E+00 -0.45593999997E+02  0.45594000000E+02  0.51100000000E-03 0.  1.
    9900012    2    1    2    0    0 -0.13997465556E+02 -0.98691464440E+01  0.75729694020E+01  0.72461575913E+02  0.70000007319E+02 0.  0.
        -12    1    1    2    0    0  0.13997465556E+02  0.98691464440E+01 -0.75729694020E+01  0.18726424087E+02  0.00000000000E+00 0.  1.
         11    1    3    3    0    0 -0.18483776548E+02  0.33082568097E+01  0.17658605919E+01  0.18860350540E+02  0.51100000000E-03 0. -1.
        -11    1    3    3    0    0  0.14483187853E+02  0.11949593813E+02 -0.10999945965E+02  0.21761303596E+02  0.51100000000E-03 0.  1.
         12    1    3    3    0    0 -0.99968768616E+01 -0.25126997067E+02  0.16807054775E+02  0.31839921777E+02  0.00000000000E+00 0. -1.
</event>
<event>
 7    1  0.1749439E-013  0.7246154E+02  0.7816164E-02  0.1226708E+00
        -11   -1    0    0    0    0  0.00000000000E+00  0.00000000000E+00  0.45593999997E+02  0.45594000000E+02  0.51100000000E-03 0.  1.
         11   -1    0    0    0    0 -0.00000000000E+00 -0.00000000000E+00 -0.45593999997E+02  0.45594000000E+02  0.51100000000E-03 0. -1.
    9900012    2    1    2    0    0 -0.13786885127E+02 -0.12581086022E+02 -0.15226698940E+01  0.72461536089E+02  0.69999955441E+02 0.  0.
        -12    1    1    2    0    0  0.13786885127E+02  0.12581086022E+02  0.15226698940E+01  0.18726463911E+02  0.00000000000E+00 0.  1.
         11    1    3    3    0    0 -0.15255594201E+02  0.39537281171E+01  0.41635546459E+01  0.16300316193E+02  0.51100000000E-03 0. -1.
        -11    1    3    3    0    0 -0.18124379921E+02 -0.26900638228E+02  0.24972652406E+01  0.32532657723E+02  0.51100000000E-03 0.  1.
         12    1    3    3    0    0  0.19593088995E+02  0.10365824089E+02 -0.81834897805E+01  0.23628562173E+02  0.00000000000E+00 0. -1.
</event>
<event>
 7    1  0.1749439E-013  0.7246158E+02  0.7816164E-02  0.1226708E+00
        -11   -1    0    0    0    0  0.00000000000E+00  0.00000000000E+00  0.45593999997E+02  0.45594000000E+02  0.51100000000E-03 0.  1.
         11   -1    0    0    0    0 -0.00000000000E+00 -0.00000000000E+00 -0.45593999997E+02  0.45594000000E+02  0.51100000000E-03 0. -1.
    9900012    2    1    2    0    0 -0.36788675690E+01 -0.18360252921E+02  0.21396662522E+00  0.72461581879E+02  0.70000015091E+02 0.  0.
        -12    1    1    2    0    0  0.36788675690E+01  0.18360252921E+02 -0.21396662522E+00  0.18726418121E+02  0.00000000000E+00 0.  1.
         11    1    3    3    0    0  0.74054298807E+01  0.24023261983E+01 -0.35085937953E+00  0.77932448599E+01  0.51100000000E-03 0. -1.
        -11    1    3    3    0    0 -0.10489062579E+02  0.58775552000E+01  0.25488553955E+02  0.28182130364E+02  0.51100000000E-03 0.  1.
         12    1    3    3    0    0 -0.59523487100E+00 -0.26640134320E+02 -0.24923727950E+02  0.36486206655E+02  0.00000000000E+00 0. -1.
</event>
<event>
 7    1  0.1749439E-013  0.7246160E+02  0.7816164E-02  0.1226708E+00
        -11   -1    0    0    0    0  0.00000000000E+00  0.00000000000E+00  0.45593999997E+02  0.45594000000E+02  0.51100000000E-03 0.  1.
         11   -1    0    0    0    0 -0.00000000000E+00 -0.00000000000E+00 -0.45593999997E+02  0.45594000000E+02  0.51100000000E-03 0. -1.
    9900012    2    1    2    0    0 -0.15637538391E+02 -0.85664992844E+01  0.57236936568E+01  0.72461596555E+02  0.70000034209E+02 0.  0.
        -12    1    1    2    0    0  0.15637538391E+02  0.85664992844E+01 -0.57236936568E+01  0.18726403445E+02  0.00000000000E+00 0.  1.
         11    1    3    3    0    0 -0.31833749463E+01 -0.58582278407E+01  0.17114322417E+01  0.68834373725E+01  0.51100000000E-03 0. -1.
        -11    1    3    3    0    0  0.12321245467E+01 -0.43947324752E+01  0.33086296835E+02  0.33399623395E+02  0.51100000000E-03 0.  1.
         12    1    3    3    0    0 -0.13686287991E+02  0.16864610314E+01 -0.29074035420E+02  0.32178535787E+02  0.00000000000E+00 0. -1.
</event>
<event>
 7    1  0.1749439E-013  0.7246156E+02  0.7816164E-02  0.1226708E+00
        -11   -1    0    0    0    0  0.00000000000E+00  0.00000000000E+00  0.45593999997E+02  0.45594000000E+02  0.51100000000E-03 0.  1.
         11   -1    0    0    0    0 -0.00000000000E+00 -0.00000000000E+00 -0.45593999997E+02  0.45594000000E+02  0.51100000000E-03 0. -1.
    9900012    2    1    2    0    0 -0.14888543661E+02  0.49189709655E+01 -0.10237906173E+02  0.72461555315E+02  0.69999980487E+02 0.  0.
        -12    1    1    2    0    0  0.14888543661E+02 -0.49189709655E+01  0.10237906173E+02  0.18726444685E+02  0.00000000000E+00 0.  1.
         11    1    3    3    0    0  0.35076878268E+01  0.16981199888E+01 -0.14341975036E+02  0.14862023200E+02  0.51100000000E-03 0. -1.
        -11    1    3    3    0    0  0.10020673688E+02 -0.16552363052E+02  0.11061572794E+02  0.22287956764E+02  0.51100000000E-03 0.  1.
        -12    1    3    3    0    0 -0.28416905177E+02  0.19773214029E+02 -0.69575039311E+01  0.35311575351E+02  0.00000000000E+00 0.  1.
</event>
<event>
 7    1  0.1749439E-013  0.7246182E+02  0.7816164E-02  0.1226707E+00
        -11   -1    0    0    0    0  0.00000000000E+00  0.00000000000E+00  0.45593999997E+02  0.45594000000E+02  0.51100000000E-03 0.  1.
         11   -1    0    0    0    0 -0.00000000000E+00 -0.00000000000E+00 -0.45593999997E+02  0.45594000000E+02  0.51100000000E-03 0. -1.
    9900012    2    1    2    0    0  0.13475834786E+02  0.72112410536E+01 -0.10819874616E+02  0.72461820267E+02  0.70000325634E+02 0.  0.
        -12    1    1    2    0    0 -0.13475834786E+02 -0.72112410536E+01  0.10819874616E+02  0.18726179733E+02  0.00000000000E+00 0.  1.
         11    1    3    3    0    0  0.50324314228E+01 -0.17722511598E+01 -0.37145720523E+02  0.37526934242E+02  0.51100000000E-03 0. -1.
        -11    1    3    3    0    0  0.52471478977E+01  0.13287981000E+02  0.92072833308E+01  0.16996383930E+02  0.51100000000E-03 0.  1.
        -12    1    3    3    0    0  0.31962554654E+01 -0.43044887865E+01  0.17118562576E+02  0.17938502094E+02  0.00000000000E+00 0.  1.
</event>
<event>
 7    1  0.1749439E-013  0.7246159E+02  0.7816164E-02  0.1226708E+00
        -11   -1    0    0    0    0  0.00000000000E+00  0.00000000000E+00  0.45593999997E+02  0.45594000000E+02  0.51100000000E-03 0.  1.
         11   -1    0    0    0    0 -0.00000000000E+00 -0.00000000000E+00 -0.45593999997E+02  0.45594000000E+02  0.51100000000E-03 0. -1.
    9900012    2    1    2    0    0 -0.12680157756E+02 -0.10937316325E+02 -0.83825481920E+01  0.72461590752E+02  0.70000026650E+02 0.  0.
        -12    1    1    2    0    0  0.12680157756E+02  0.10937316325E+02  0.83825481920E+01  0.18726409248E+02  0.00000000000E+00 0.  1.
         11    1    3    3    0    0  0.84275013595E+01 -0.25339887767E+02 -0.23752292645E+02  0.35739391396E+02  0.51100000000E-03 0. -1.
        -11    1    3    3    0    0 -0.50782121251E+01 -0.18221948169E+01 -0.40666675557E+01  0.67562132595E+01  0.51100000000E-03 0.  1.
        -12    1    3    3    0    0 -0.16029446991E+02  0.16224766259E+02  0.19436412008E+02  0.29965986097E+02  0.00000000000E+00 0.  1.
</event>
<event>
 7    1  0.1749439E-013  0.7246154E+02  0.7816164E-02  0.1226708E+00
        -11   -1    0    0    0    0  0.00000000000E+00  0.00000000000E+00  0.45593999997E+02  0.45594000000E+02  0.51100000000E-03 0. -1.
         11   -1    0    0    0    0 -0.00000000000E+00 -0.00000000000E+00 -0.45593999997E+02  0.45594000000E+02  0.51100000000E-03 0.  1.
    9900012    2    1    2    0    0  0.92729671671E+01  0.13383898286E+02  0.92500544966E+01  0.72461543806E+02  0.69999965493E+02 0.  0.
        -12    1    1    2    0    0 -0.92729671671E+01 -0.13383898286E+02 -0.92500544966E+01  0.18726456194E+02  0.00000000000E+00 0.  1.
         11    1    3    3    0    0 -0.36532461025E+01 -0.85498700178E+01  0.56852870966E+01  0.10898117913E+02  0.51100000000E-03 0. -1.
        -11    1    3    3    0    0 -0.17064167712E+02  0.19737577352E+02 -0.10799552935E+02  0.28238061607E+02  0.51100000000E-03 0.  1.
         12    1    3    3    0    0  0.29990380982E+02  0.21961909515E+01  0.14364320335E+02  0.33325364286E+02  0.00000000000E+00 0. -1.
</event>
<event>
 7    1  0.1749439E-013  0.7246156E+02  0.7816164E-02  0.1226708E+00
        -11   -1    0    0    0    0  0.00000000000E+00  0.00000000000E+00  0.45593999997E+02  0.45594000000E+02  0.51100000000E-03 0. -1.
         11   -1    0    0    0    0 -0.00000000000E+00 -0.00000000000E+00 -0.45593999997E+02  0.45594000000E+02  0.51100000000E-03 0.  1.
    9900012    2    1    2    0    0  0.10624025805E+02 -0.13227770215E+02  0.79268925714E+01  0.72461562672E+02  0.69999990070E+02 0.  0.
        -12    1    1    2    0    0 -0.10624025805E+02  0.13227770215E+02 -0.79268925714E+01  0.18726437328E+02  0.00000000000E+00 0.  1.
         11    1    3    3    0    0  0.62206107339E+00 -0.22136815078E+01  0.80874394600E+01  0.84079737796E+01  0.51100000000E-03 0. -1.
        -11    1    3    3    0    0  0.33734496177E+02 -0.17805790332E+02 -0.61860206432E+01  0.38643618532E+02  0.51100000000E-03 0.  1.
         12    1    3    3    0    0 -0.23732531445E+02  0.67917016247E+01  0.60254737546E+01  0.25409970360E+02  0.00000000000E+00 0. -1.
</event>
<event>
 7    1  0.1749439E-013  0.7246160E+02  0.7816164E-02  0.1226708E+00
        -11   -1    0    0    0    0  0.00000000000E+00  0.00000000000E+00  0.45593999997E+02  0.45594000000E+02  0.51100000000E-03 0.  1.
         11   -1    0    0    0    0 -0.00000000000E+00 -0.00000000000E+00 -0.45593999997E+02  0.45594000000E+02  0.51100000000E-03 0. -1.
    9900012    2    1    2    0    0  0.60715031221E+01 -0.11021933689E+02 -0.13868380194E+02  0.72461597740E+02  0.70000035753E+02 0.  0.
        -12    1    1    2    0    0 -0.60715031221E+01  0.11021933689E+02  0.13868380194E+02  0.18726402260E+02  0.00000000000E+00 0.  1.
         11    1    3    3    0    0 -0.18372360264E+01 -0.24849900128E+02 -0.20958757852E+02  0.32560136725E+02  0.51100000000E-03 0. -1.
        -11    1    3    3    0    0 -0.92544372719E+01 -0.12522694407E+01 -0.81852199359E+01  0.12418156612E+02  0.51100000000E-03 0.  1.
        -12    1    3    3    0    0  0.17163176420E+02  0.15080235880E+02  0.15275597595E+02  0.27483304403E+02  0.00000000000E+00 0.  1.
</event>
<event>
 7    1  0.1749439E-013  0.7246160E+02  0.7816164E-02  0.1226708E+00
        -11   -1    0    0    0    0  0.00000000000E+00  0.00000000000E+00  0.45593999997E+02  0.45594000000E+02  0.51100000000E-03 0.  1.
         11   -1    0    0    0    0 -0.00000000000E+00 -0.00000000000E+00 -0.45593999997E+02  0.45594000000E+02  0.51100000000E-03 0. -1.
    9900012    2    1    2    0    0 -0.37496106919E+00  0.17815900176E+02 -0.57559654291E+01  0.72461600642E+02  0.70000039534E+02 0.  0.
        -12    1    1    2    0    0  0.37496106919E+00 -0.17815900176E+02  0.57559654291E+01  0.18726399358E+02  0.00000000000E+00 0.  1.
         11    1    3    3    0    0 -0.14398510602E+02  0.17320410109E+02  0.18967797338E+02  0.29446409798E+02  0.51100000000E-03 0. -1.
        -11    1    3    3    0    0  0.96410341267E+01  0.11721661007E+02  0.36560204071E+00  0.15181585586E+02  0.51100000000E-03 0.  1.
         12    1    3    3    0    0  0.43825154059E+01 -0.11226170940E+02 -0.25089364807E+02  0.27833605259E+02  0.00000000000E+00 0. -1.
</event>
<event>
 7    1  0.1749439E-013  0.7246153E+02  0.7816164E-02  0.1226708E+00
        -11   -1    0    0    0    0  0.00000000000E+00  0.00000000000E+00  0.45593999997E+02  0.45594000000E+02  0.51100000000E-03 0. -1.
         11   -1    0    0    0    0 -0.00000000000E+00 -0.00000000000E+00 -0.45593999997E+02  0.45594000000E+02  0.51100000000E-03 0.  1.
    9900012    2    1    2    0    0 -0.66520757990E+01 -0.93342385799E+01  0.14808870460E+02  0.72461527652E+02  0.69999944450E+02 0.  0.
        -12    1    1    2    0    0  0.66520757990E+01  0.93342385799E+01 -0.14808870460E+02  0.18726472348E+02  0.00000000000E+00 0.  1.
         11    1    3    3    0    0  0.12137807861E+02  0.10117371590E+02  0.14399917919E+01  0.15866983462E+02  0.51100000000E-03 0. -1.
        -11    1    3    3    0    0 -0.13013638074E+02  0.14376194387E+02 -0.93827514473E+00  0.19414172696E+02  0.51100000000E-03 0.  1.
        -12    1    3    3    0    0 -0.57762455862E+01 -0.33827804557E+02  0.14307153813E+02  0.37180371494E+02  0.00000000000E+00 0.  1.
</event>
<event>
 7    1  0.1749439E-013  0.7246160E+02  0.7816164E-02  0.1226708E+00
        -11   -1    0    0    0    0  0.00000000000E+00  0.00000000000E+00  0.45593999997E+02  0.45594000000E+02  0.51100000000E-03 0.  1.
         11   -1    0    0    0    0 -0.00000000000E+00 -0.00000000000E+00 -0.45593999997E+02  0.45594000000E+02  0.51100000000E-03 0. -1.
    9900012    2    1    2    0    0 -0.86097050806E+01 -0.12976136371E+02 -0.10400526843E+02  0.72461598976E+02  0.70000037364E+02 0.  0.
        -12    1    1    2    0    0  0.86097050806E+01  0.12976136371E+02  0.10400526843E+02  0.18726401024E+02  0.00000000000E+00 0.  1.
         11    1    3    3    0    0  0.64985324848E+01  0.50464309590E+01  0.14609837226E+01  0.83565461513E+01  0.51100000000E-03 0. -1.
        -11    1    3    3    0    0  0.10272247803E+02  0.23035966588E+01  0.17415749974E+02  0.20350282060E+02  0.51100000000E-03 0.  1.
         12    1    3    3    0    0 -0.25380485368E+02 -0.20326163988E+02 -0.29277260540E+02  0.43754770765E+02  0.00000000000E+00 0. -1.
</event>
<event>
 7    1  0.1749439E-013  0.7246153E+02  0.7816164E-02  0.1226708E+00
        -11   -1    0    0    0    0  0.00000000000E+00  0.00000000000E+00  0.45593999997E+02  0.45594000000E+02  0.51100000000E-03 0. -1.
         11   -1    0    0    0    0 -0.00000000000E+00 -0.00000000000E+00 -0.45593999997E+02  0.45594000000E+02  0.51100000000E-03 0.  1.
    9900012    2    1    2    0    0 -0.72931360755E+01 -0.17134032548E+02 -0.19787886339E+01  0.72461534513E+02  0.69999953389E+02 0.  0.
        -12    1    1    2    0    0  0.72931360755E+01  0.17134032548E+02  0.19787886339E+01  0.18726465487E+02  0.00000000000E+00 0.  1.
         11    1    3    3    0    0 -0.25013732412E+02 -0.30182891173E+02  0.14689163980E+01  0.39228197058E+02  0.51100000000E-03 0. -1.
        -11    1    3    3    0    0 -0.45596009306E+01 -0.89650559808E+00  0.37609392294E+01  0.59781558262E+01  0.51100000000E-03 0.  1.
        -12    1    3    3    0    0  0.22280197267E+02  0.13945364223E+02 -0.72086442612E+01  0.27255181630E+02  0.00000000000E+00 0.  1.
</event>
<event>
 7    1  0.1749439E-013  0.7246157E+02  0.7816164E-02  0.1226708E+00
        -11   -1    0    0    0    0  0.00000000000E+00  0.00000000000E+00  0.45593999997E+02  0.45594000000E+02  0.51100000000E-03 0. -1.
         11   -1    0    0    0    0 -0.00000000000E+00 -0.00000000000E+00 -0.45593999997E+02  0.45594000000E+02  0.51100000000E-03 0.  1.
    9900012    2    1    2    0    0 -0.12681513369E+01 -0.18161425330E+02 -0.43855982497E+01  0.72461573490E+02  0.70000004163E+02 0.  0.
        -12    1    1    2    0    0  0.12681513369E+01  0.18161425330E+02  0.43855982497E+01  0.18726426510E+02  0.00000000000E+00 0.  1.
         11    1    3    3    0    0 -0.26454608847E+01 -0.31437451079E+01 -0.55734178855E+01  0.69242027544E+01  0.51100000000E-03 0. -1.
        -11    1    3    3    0    0  0.11427508850E+02 -0.10626818665E+02 -0.29267293549E+02  0.33167630386E+02  0.51100000000E-03 0.  1.
         12    1    3    3    0    0 -0.10050199302E+02 -0.43908615566E+01  0.30455113185E+02  0.32369740350E+02  0.00000000000E+00 0. -1.
</event>
<event>
 7    1  0.1749439E-013  0.7246163E+02  0.7816164E-02  0.1226708E+00
        -11   -1    0    0    0    0  0.00000000000E+00  0.00000000000E+00  0.45593999997E+02  0.45594000000E+02  0.51100000000E-03 0. -1.
         11   -1    0    0    0    0 -0.00000000000E+00 -0.00000000000E+00 -0.45593999997E+02  0.45594000000E+02  0.51100000000E-03 0.  1.
    9900012    2    1    2    0    0 -0.78923441633E+01 -0.12488058376E+02  0.11508102246E+02  0.72461625132E+02  0.70000071436E+02 0.  0.
        -12    1    1    2    0    0  0.78923441633E+01  0.12488058376E+02 -0.11508102246E+02  0.18726374868E+02  0.00000000000E+00 0.  1.
         11    1    3    3    0    0  0.18777935497E+02 -0.50422262298E+01 -0.16281218268E+02  0.25359672227E+02  0.51100000000E-03 0. -1.
        -11    1    3    3    0    0 -0.14426046148E+02 -0.16666353920E+02  0.12003837102E+02  0.25099208471E+02  0.51100000000E-03 0.  1.
        -12    1    3    3    0    0 -0.12244233512E+02  0.92205217735E+01  0.15785483413E+02  0.22002744434E+02  0.00000000000E+00 0.  1.
</event>
<event>
 7    1  0.1749439E-013  0.7246152E+02  0.7816164E-02  0.1226708E+00
        -11   -1    0    0    0    0  0.00000000000E+00  0.00000000000E+00  0.45593999997E+02  0.45594000000E+02  0.51100000000E-03 0. -1.
         11   -1    0    0    0    0 -0.00000000000E+00 -0.00000000000E+00 -0.45593999997E+02  0.45594000000E+02  0.51100000000E-03 0.  1.
    9900012    2    1    2    0    0 -0.17807198281E+02 -0.10189334532E+01  0.57049416443E+01  0.72461524219E+02  0.69999939979E+02 0.  0.
        -12    1    1    2    0    0  0.17807198281E+02  0.10189334532E+01 -0.57049416443E+01  0.18726475781E+02  0.00000000000E+00 0.  1.
         11    1    3    3    0    0 -0.90610542499E+01  0.19624896942E+02  0.10121421456E+02  0.23868021633E+02  0.51100000000E-03 0. -1.
        -11    1    3    3    0    0  0.86266202431E+01  0.99731913626E+01 -0.14611967982E+01  0.13267185802E+02  0.51100000000E-03 0.  1.
         12    1    3    3    0    0 -0.17372764274E+02 -0.30617021758E+02 -0.29552830136E+01  0.35326316784E+02  0.00000000000E+00 0. -1.
</event>
<event>
 7    1  0.1749439E-013  0.7246157E+02  0.7816164E-02  0.1226708E+00
        -11   -1    0    0    0    0  0.00000000000E+00  0.00000000000E+00  0.45593999997E+02  0.45594000000E+02  0.51100000000E-03 0.  1.
         11   -1    0    0    0    0 -0.00000000000E+00 -0.00000000000E+00 -0.45593999997E+02  0.45594000000E+02  0.51100000000E-03 0. -1.
    9900012    2    1    2    0    0  0.70858913005E+01  0.84911366530E+01  0.15111913076E+02  0.72461570174E+02  0.69999999844E+02 0.  0.
        -12    1    1    2    0    0 -0.70858913005E+01 -0.84911366530E+01 -0.15111913076E+02  0.18726429826E+02  0.00000000000E+00 0.  1.
         11    1    3    3    0    0 -0.15371645131E+02  0.99276377144E+01 -0.10303032966E+02  0.20999951266E+02  0.51100000000E-03 0. -1.
        -11    1    3    3    0    0 -0.77324170496E+01 -0.96489110526E+01  0.12594615216E+02  0.17649818431E+02  0.51100000000E-03 0.  1.
        -12    1    3    3    0    0  0.30189953481E+02  0.82124099912E+01  0.12820330826E+02  0.33811800478E+02  0.00000000000E+00 0.  1.
</event>
<event>
 7    1  0.1749439E-013  0.7246154E+02  0.7816164E-02  0.1226708E+00
        -11   -1    0    0    0    0  0.00000000000E+00  0.00000000000E+00  0.45593999997E+02  0.45594000000E+02  0.51100000000E-03 0.  1.
         11   -1    0    0    0    0 -0.00000000000E+00 -0.00000000000E+00 -0.45593999997E+02  0.45594000000E+02  0.51100000000E-03 0. -1.
    9900012    2    1    2    0    0 -0.14968034026E+02  0.13158505755E+01 -0.11176163148E+02  0.72461544701E+02  0.69999966660E+02 0.  0.
        -12    1    1    2    0    0  0.14968034026E+02 -0.13158505755E+01  0.11176163148E+02  0.18726455299E+02  0.00000000000E+00 0.  1.
         11    1    3    3    0    0 -0.26682926582E+02  0.18026407098E+01 -0.25597529794E+02  0.37019746303E+02  0.51100000000E-03 0. -1.
        -11    1    3    3    0    0 -0.53693175975E+01 -0.10938587818E+02  0.37549010996E+01  0.12750747329E+02  0.51100000000E-03 0.  1.
        -12    1    3    3    0    0  0.17084210153E+02  0.10451797684E+02  0.10666465546E+02  0.22691051069E+02  0.00000000000E+00 0.  1.
</event>
<event>
 7    1  0.1749439E-013  0.7246149E+02  0.7816164E-02  0.1226708E+00
        -11   -1    0    0    0    0  0.00000000000E+00  0.00000000000E+00  0.45593999997E+02  0.45594000000E+02  0.51100000000E-03 0.  1.
         11   -1    0    0    0    0 -0.00000000000E+00 -0.00000000000E+00 -0.45593999997E+02  0.45594000000E+02  0.51100000000E-03 0. -1.
    9900012    2    1    2    0    0  0.12141764746E+02  0.82209127917E+01 -0.11648010943E+02  0.72461494261E+02  0.69999900952E+02 0.  0.
        -12    1    1    2    0    0 -0.12141764746E+02 -0.82209127917E+01  0.11648010943E+02  0.18726505739E+02  0.00000000000E+00 0.  1.
         11    1    3    3    0    0 -0.97709888978E+01  0.85215519953E+01  0.15920100855E+01  0.13062295695E+02  0.51100000000E-03 0. -1.
        -11    1    3    3    0    0  0.22955490917E+01 -0.43009631921E+01  0.20005337762E+02  0.20590807882E+02  0.51100000000E-03 0.  1.
         12    1    3    3    0    0  0.19617204552E+02  0.40003239885E+01 -0.33245358790E+02  0.38808390684E+02  0.00000000000E+00 0. -1.
</event>
<event>
 7    1  0.1749439E-013  0.7246154E+02  0.7816164E-02  0.1226708E+00
        -11   -1    0    0    0    0  0.00000000000E+00  0.00000000000E+00  0.45593999997E+02  0.45594000000E+02  0.51100000000E-03 0. -1.
         11   -1    0    0    0    0 -0.00000000000E+00 -0.00000000000E+00 -0.45593999997E+02  0.45594000000E+02  0.51100000000E-03 0.  1.
    9900012    2    1    2    0    0  0.70809572329E+01  0.16019516945E+02 -0.66268828928E+01  0.72461535962E+02  0.69999955275E+02 0.  0.
        -12    1    1    2    0    0 -0.70809572329E+01 -0.16019516945E+02  0.66268828928E+01  0.18726464038E+02  0.00000000000E+00 0.  1.
         11    1    3    3    0    0  0.46209824392E+01  0.32752757014E+01  0.21762387752E+01  0.60676952042E+01  0.51100000000E-03 0. -1.
        -11    1    3    3    0    0  0.35323881542E+01  0.39181077094E+02 -0.47220168355E+01  0.39622367566E+02  0.51100000000E-03 0.  1.
         12    1    3    3    0    0 -0.10724133605E+01 -0.26436835850E+02 -0.40811048326E+01  0.26771473191E+02  0.00000000000E+00 0. -1.
</event>
<event>
 7    1  0.1749439E-013  0.7246157E+02  0.7816164E-02  0.1226708E+00
        -11   -1    0    0    0    0  0.00000000000E+00  0.00000000000E+00  0.45593999997E+02  0.45594000000E+02  0.51100000000E-03 0. -1.
         11   -1    0    0    0    0 -0.00000000000E+00 -0.00000000000E+00 -0.45593999997E+02  0.45594000000E+02  0.51100000000E-03 0.  1.
    9900012    2    1    2    0    0  0.17118661427E+02 -0.73355458400E+01  0.19546162900E+01  0.72461566099E+02  0.69999994535E+02 0.  0.
        -12    1    1    2    0    0 -0.17118661427E+02  0.73355458400E+01 -0.19546162900E+01  0.18726433901E+02  0.00000000000E+00 0.  1.
         11    1    3    3    0    0  0.49200639983E+01  0.26107923011E+02  0.52743523509E+01  0.27085964386E+02  0.51100000000E-03 0. -1.
        -11    1    3    3    0    0  0.77637419958E+01  0.31531969561E+01 -0.24538574770E+00  0.83832305973E+01  0.51100000000E-03 0.  1.
        -12    1    3    3    0    0  0.44348554324E+01 -0.36596665808E+02 -0.30743503132E+01  0.36992371116E+02  0.00000000000E+00 0.  1.
</event>
<event>
 7    1  0.1749439E-013  0.7246173E+02  0.7816164E-02  0.1226708E+00
        -11   -1    0    0    0    0  0.00000000000E+00  0.00000000000E+00  0.45593999997E+02  0.45594000000E+02  0.51100000000E-03 0.  1.
         11   -1    0    0    0    0 -0.00000000000E+00 -0.00000000000E+00 -0.45593999997E+02  0.45594000000E+02  0.51100000000E-03 0. -1.
    9900012    2    1    2    0    0 -0.16929927371E+02 -0.39885317019E+00  0.79932238749E+01  0.72461730950E+02  0.70000209283E+02 0.  0.
        -12    1    1    2    0    0  0.16929927371E+02  0.39885317019E+00 -0.79932238749E+01  0.18726269050E+02  0.00000000000E+00 0.  1.
         11    1    3    3    0    0 -0.17422160932E+01 -0.19028077112E+02  0.57066780493E+00  0.19116189409E+02  0.51100000000E-03 0. -1.
        -11    1    3    3    0    0 -0.38375639581E+01 -0.13643214828E+02  0.12329652354E+02  0.18785221197E+02  0.51100000000E-03 0.  1.
         12    1    3    3    0    0 -0.11350147319E+02  0.32272438770E+02 -0.49070962836E+01  0.34560320344E+02  0.00000000000E+00 0. -1.
</event>
<event>
 7    1  0.1749439E-013  0.7246155E+02  0.7816164E-02  0.1226708E+00
        -11   -1    0    0    0    0  0.00000000000E+00  0.00000000000E+00  0.45593999997E+02  0.45594000000E+02  0.51100000000E-03 0. -1.
         11   -1    0    0    0    0 -0.00000000000E+00 -0.00000000000E+00 -0.45593999997E+02  0.45594000000E+02  0.51100000000E-03 0.  1.
    9900012    2    1    2    0    0  0.16002766396E+02 -0.56048895407E+01 -0.79483632861E+01  0.72461553513E+02  0.69999978140E+02 0.  0.
        -12    1    1    2    0    0 -0.16002766396E+02  0.56048895407E+01  0.79483632861E+01  0.18726446487E+02  0.00000000000E+00 0.  1.
         11    1    3    3    0    0  0.26656876891E+01 -0.59836241123E+01  0.67035665145E+01  0.93726971918E+01  0.51100000000E-03 0. -1.
        -11    1    3    3    0    0  0.35793006814E+02 -0.63485401458E+01 -0.15759480615E+02  0.39620758805E+02  0.51100000000E-03 0.  1.
        -12    1    3    3    0    0 -0.22455928107E+02  0.67272747174E+01  0.11075508141E+01  0.23468097517E+02  0.00000000000E+00 0.  1.
</event>
<event>
 7    1  0.1749439E-013  0.7246158E+02  0.7816164E-02  0.1226708E+00
        -11   -1    0    0    0    0  0.00000000000E+00  0.00000000000E+00  0.45593999997E+02  0.45594000000E+02  0.51100000000E-03 0. -1.
         11   -1    0    0    0    0 -0.00000000000E+00 -0.00000000000E+00 -0.45593999997E+02  0.45594000000E+02  0.51100000000E-03 0.  1.
    9900012    2    1    2    0    0  0.76016000140E+01 -0.74579253628E+01  0.15403697581E+02  0.72461578221E+02  0.70000010326E+02 0.  0.
        -12    1    1    2    0    0 -0.76016000140E+01  0.74579253628E+01 -0.15403697581E+02  0.18726421779E+02  0.00000000000E+00 0.  1.
         11    1    3    3    0    0 -0.91651400807E+00 -0.82169154749E+01  0.44544969033E+01  0.93914983241E+01  0.51100000000E-03 0. -1.
        -11    1    3    3    0    0  0.21486369988E+02 -0.23851169348E+02 -0.24458913042E+01  0.32195104582E+02  0.51100000000E-03 0.  1.
         12    1    3    3    0    0 -0.12968255966E+02  0.24610159460E+02  0.13395091982E+02  0.30874975314E+02  0.00000000000E+00 0. -1.
</event>
<event>
 7    1  0.1749439E-013  0.7246166E+02  0.7816164E-02  0.1226708E+00
        -11   -1    0    0    0    0  0.00000000000E+00  0.00000000000E+00  0.45593999997E+02  0.45594000000E+02  0.51100000000E-03 0.  1.
         11   -1    0    0    0    0 -0.00000000000E+00 -0.00000000000E+00 -0.45593999997E+02  0.45594000000E+02  0.51100000000E-03 0. -1.
    9900012    2    1    2    0    0 -0.38279183440E+01  0.66922439394E+01 -0.17065661275E+02  0.72461658057E+02  0.70000114327E+02 0.  0.
        -12    1    1    2    0    0  0.38279183440E+01 -0.66922439394E+01  0.17065661275E+02  0.18726341943E+02  0.00000000000E+00 0.  1.
         11    1    3    3    0    0 -0.18943664822E+01  0.13960315617E+02 -0.48111592861E+01  0.14887118272E+02  0.51100000000E-03 0. -1.
        -11    1    3    3    0    0  0.38452836128E+01  0.75885894902E+01  0.19923841658E+02  0.21664080022E+02  0.51100000000E-03 0.  1.
        -12    1    3    3    0    0 -0.57788354746E+01 -0.14856661168E+02 -0.32178343648E+02  0.35910459763E+02  0.00000000000E+00 0.  1.
</event>
<event>
 7    1  0.1749439E-013  0.7246133E+02  0.7816164E-02  0.1226709E+00
        -11   -1    0    0    0    0  0.00000000000E+00  0.00000000000E+00  0.45593999997E+02  0.45594000000E+02  0.51100000000E-03 0.  1.
         11   -1    0    0    0    0 -0.00000000000E+00 -0.00000000000E+00 -0.45593999997E+02  0.45594000000E+02  0.51100000000E-03 0. -1.
    9900012    2    1    2    0    0  0.26501478989E+01  0.15401695402E+01 -0.18474110724E+02  0.72461329897E+02  0.69999686837E+02 0.  0.
        -12    1    1    2    0    0 -0.26501478989E+01 -0.15401695402E+01  0.18474110724E+02  0.18726670103E+02  0.00000000000E+00 0.  1.
         11    1    3    3    0    0 -0.25519931956E+01 -0.13829596107E+02  0.14905635694E+02  0.20492641934E+02  0.51100000000E-03 0.  1.
        -11    1    3    3    0    0 -0.12972875555E+02  0.14608970386E+02 -0.25550788965E+02  0.32164581964E+02  0.51100000000E-03 0. -1.
         12    1    3    3    0    0  0.18175016649E+02  0.76079526102E+00 -0.78289574529E+01  0.19804105999E+02  0.00000000000E+00 0. -1.
</event>
<event>
 7    1  0.1749439E-013  0.7246169E+02  0.7816164E-02  0.1226708E+00
        -11   -1    0    0    0    0  0.00000000000E+00  0.00000000000E+00  0.45593999997E+02  0.45594000000E+02  0.51100000000E-03 0.  1.
         11   -1    0    0    0    0 -0.00000000000E+00 -0.00000000000E+00 -0.45593999997E+02  0.45594000000E+02  0.51100000000E-03 0. -1.
    9900012    2    1    2    0    0  0.10152246768E+01 -0.17817328858E+02  0.56733278296E+01  0.72461693972E+02  0.70000161113E+02 0.  0.
        -12    1    1    2    0    0 -0.10152246768E+01  0.17817328858E+02 -0.56733278296E+01  0.18726306028E+02  0.00000000000E+00 0.  1.
         11    1    3    3    0    0  0.90909646955E+01  0.13150870846E+02 -0.19813051659E+02  0.25458752118E+02  0.51100000000E-03 0. -1.
        -11    1    3    3    0    0  0.63394528850E+00 -0.93316601430E+01 -0.33318015375E+01  0.99288805714E+01  0.51100000000E-03 0.  1.
        -12    1    3    3    0    0 -0.87096853072E+01 -0.21636539561E+02  0.28818181026E+02  0.37074061283E+02  0.00000000000E+00 0.  1.
</event>
<event>
 7    1  0.1749439E-013  0.7246156E+02  0.7816164E-02  0.1226708E+00
        -11   -1    0    0    0    0  0.00000000000E+00  0.00000000000E+00  0.45593999997E+02  0.45594000000E+02  0.51100000000E-03 0.  1.
         11   -1    0    0    0    0 -0.00000000000E+00 -0.00000000000E+00 -0.45593999997E+02  0.45594000000E+02  0.51100000000E-03 0. -1.
    9900012    2    1    2    0    0 -0.21662039711E+00 -0.16740989688E+02 -0.83887896824E+01  0.72461562739E+02  0.69999990158E+02 0.  0.
        -12    1    1    2    0    0  0.21662039711E+00  0.16740989688E+02  0.83887896824E+01  0.18726437261E+02  0.00000000000E+00 0.  1.
         11    1    3    3    0    0  0.28774291236E+01  0.69163655292E+01  0.35280636549E+01  0.82802743861E+01  0.51100000000E-03 0. -1.
        -11    1    3    3    0    0 -0.18181173710E+02  0.12811787138E+02  0.20029515675E+01  0.22331788607E+02  0.51100000000E-03 0.  1.
         12    1    3    3    0    0  0.15087124189E+02 -0.36469142355E+02 -0.13919804905E+02  0.41849499746E+02  0.00000000000E+00 0. -1.
</event>
<event>
 7    1  0.1749439E-013  0.7246164E+02  0.7816164E-02  0.1226708E+00
        -11   -1    0    0    0    0  0.00000000000E+00  0.00000000000E+00  0.45593999997E+02  0.45594000000E+02  0.51100000000E-03 0.  1.
         11   -1    0    0    0    0 -0.00000000000E+00 -0.00000000000E+00 -0.45593999997E+02  0.45594000000E+02  0.51100000000E-03 0. -1.
    9900012    2    1    2    0    0  0.98544211103E+01 -0.78500107332E+01 -0.13854393602E+02  0.72461641411E+02  0.70000092642E+02 0.  0.
        -12    1    1    2    0    0 -0.98544211103E+01  0.78500107332E+01  0.13854393602E+02  0.18726358589E+02  0.00000000000E+00 0.  1.
         11    1    3    3    0    0  0.17652412525E+02 -0.72757853795E+01 -0.49772375024E+01  0.19731133122E+02  0.51100000000E-03 0. -1.
        -11    1    3    3    0    0  0.20126728626E+02 -0.81821746042E+01  0.19849679565E+01  0.21816811969E+02  0.51100000000E-03 0.  1.
         12    1    3    3    0    0 -0.27924720041E+02  0.76079492505E+01 -0.10862124056E+02  0.30913696320E+02  0.00000000000E+00 0. -1.
</event>
<event>
 7    1  0.1749439E-013  0.7246158E+02  0.7816164E-02  0.1226708E+00
        -11   -1    0    0    0    0  0.00000000000E+00  0.00000000000E+00  0.45593999997E+02  0.45594000000E+02  0.51100000000E-03 0.  1.
         11   -1    0    0    0    0 -0.00000000000E+00 -0.00000000000E+00 -0.45593999997E+02  0.45594000000E+02  0.51100000000E-03 0. -1.
    9900012    2    1    2    0    0 -0.91286491676E+01  0.59392333756E+00 -0.16339949364E+02  0.72461576803E+02  0.70000008478E+02 0.  0.
        -12    1    1    2    0    0  0.91286491676E+01 -0.59392333756E+00  0.16339949364E+02  0.18726423197E+02  0.00000000000E+00 0.  1.
         11    1    3    3    0    0 -0.14142596820E+02 -0.66758512590E+01 -0.20361400399E+02  0.25674241202E+02  0.51100000000E-03 0. -1.
        -11    1    3    3    0    0  0.16986543526E+01 -0.98344110122E+01 -0.16859855835E+02  0.19592238402E+02  0.51100000000E-03 0.  1.
        -12    1    3    3    0    0  0.33152932996E+01  0.17104185609E+02  0.20881306870E+02  0.27195097198E+02  0.00000000000E+00 0.  1.
</event>
<event>
 7    1  0.1749439E-013  0.7246155E+02  0.7816164E-02  0.1226708E+00
        -11   -1    0    0    0    0  0.00000000000E+00  0.00000000000E+00  0.45593999997E+02  0.45594000000E+02  0.51100000000E-03 0. -1.
         11   -1    0    0    0    0 -0.00000000000E+00 -0.00000000000E+00 -0.45593999997E+02  0.45594000000E+02  0.51100000000E-03 0.  1.
    9900012    2    1    2    0    0  0.26562929143E+01 -0.47973294622E+01  0.17905581023E+02  0.72461545617E+02  0.69999967853E+02 0.  0.
        -12    1    1    2    0    0 -0.26562929143E+01  0.47973294622E+01 -0.17905581023E+02  0.18726454383E+02  0.00000000000E+00 0.  1.
         11    1    3    3    0    0 -0.17283897656E+02 -0.62823341297E+01 -0.50393739517E+00  0.18397140904E+02  0.51100000000E-03 0. -1.
        -11    1    3    3    0    0 -0.33729007276E+01 -0.15435911487E+02 -0.53941588908E+01  0.16695531532E+02  0.51100000000E-03 0.  1.
        -12    1    3    3    0    0  0.23313091297E+02  0.16920916154E+02  0.23803677309E+02  0.37368873180E+02  0.00000000000E+00 0.  1.
</event>
<event>
 7    1  0.1749439E-013  0.7246160E+02  0.7816164E-02  0.1226708E+00
        -11   -1    0    0    0    0  0.00000000000E+00  0.00000000000E+00  0.45593999997E+02  0.45594000000E+02  0.51100000000E-03 0.  1.
         11   -1    0    0    0    0 -0.00000000000E+00 -0.00000000000E+00 -0.45593999997E+02  0.45594000000E+02  0.51100000000E-03 0. -1.
    9900012    2    1    2    0    0 -0.10545388355E+02 -0.15338632316E+02 -0.20491736576E+01  0.72461602334E+02  0.70000041737E+02 0.  0.
        -12    1    1    2    0    0  0.10545388355E+02  0.15338632316E+02  0.20491736576E+01  0.18726397666E+02  0.00000000000E+00 0.  1.
         11    1    3    3    0    0  0.10059841959E+02 -0.58756588366E+01 -0.19293133682E+02  0.22537719373E+02  0.51100000000E-03 0. -1.
        -11    1    3    3    0    0 -0.27279154413E+02 -0.18764854461E+02  0.55738821431E+01  0.33575887045E+02  0.51100000000E-03 0.  1.
         12    1    3    3    0    0  0.66739240995E+01  0.93018809819E+01  0.11670077881E+02  0.16347995915E+02  0.00000000000E+00 0. -1.
</event>
<event>
 7    1  0.1749439E-013  0.7246157E+02  0.7816164E-02  0.1226708E+00
        -11   -1    0    0    0    0  0.00000000000E+00  0.00000000000E+00  0.45593999997E+02  0.45594000000E+02  0.51100000000E-03 0.  1.
         11   -1    0    0    0    0 -0.00000000000E+00 -0.00000000000E+00 -0.45593999997E+02  0.45594000000E+02  0.51100000000E-03 0. -1.
    9900012    2    1    2    0    0 -0.17917210176E+02 -0.54454283099E+01 -0.12412379997E-01  0.72461567771E+02  0.69999996713E+02 0.  0.
        -12    1    1    2    0    0  0.17917210176E+02  0.54454283099E+01  0.12412379997E-01  0.18726432229E+02  0.00000000000E+00 0.  1.
         11    1    3    3    0    0 -0.86535980933E+01  0.19327907631E+02  0.27629951408E+01  0.21356191509E+02  0.51100000000E-03 0. -1.
        -11    1    3    3    0    0 -0.17782853515E+01  0.11274915389E+02 -0.79729006230E+01  0.13923116046E+02  0.51100000000E-03 0.  1.
        -12    1    3    3    0    0 -0.74853267313E+01 -0.36048251330E+02  0.51974931023E+01  0.37182260216E+02  0.00000000000E+00 0.  1.
</event>
<event>
 7    1  0.1749439E-013  0.7246157E+02  0.7816164E-02  0.1226708E+00
        -11   -1    0    0    0    0  0.00000000000E+00  0.00000000000E+00  0.45593999997E+02  0.45594000000E+02  0.51100000000E-03 0.  1.
         11   -1    0    0    0    0 -0.00000000000E+00 -0.00000000000E+00 -0.45593999997E+02  0.45594000000E+02  0.51100000000E-03 0. -1.
    9900012    2    1    2    0    0 -0.85692271554E+01 -0.15475927840E+02 -0.61435330207E+01  0.72461574967E+02  0.70000006087E+02 0.  0.
        -12    1    1    2    0    0  0.85692271554E+01  0.15475927840E+02  0.61435330207E+01  0.18726425033E+02  0.00000000000E+00 0.  1.
         11    1    3    3    0    0 -0.41840321070E+00  0.54861884457E+00 -0.84559286152E+01  0.84840304625E+01  0.51100000000E-03 0. -1.
        -11    1    3    3    0    0 -0.16218037574E+02 -0.27176925147E+02 -0.20232647491E+02  0.37562880985E+02  0.51100000000E-03 0.  1.
        -12    1    3    3    0    0  0.80672136288E+01  0.11152378462E+02  0.22545043085E+02  0.26414663519E+02  0.00000000000E+00 0.  1.
</event>
<event>
 7    1  0.1749439E-013  0.7246161E+02  0.7816164E-02  0.1226708E+00
        -11   -1    0    0    0    0  0.00000000000E+00  0.00000000000E+00  0.45593999997E+02  0.45594000000E+02  0.51100000000E-03 0. -1.
         11   -1    0    0    0    0 -0.00000000000E+00 -0.00000000000E+00 -0.45593999997E+02  0.45594000000E+02  0.51100000000E-03 0.  1.
    9900012    2    1    2    0    0 -0.84759763426E+01  0.88447686960E+01 -0.14163535307E+02  0.72461605776E+02  0.70000046221E+02 0.  0.
        -12    1    1    2    0    0  0.84759763426E+01 -0.88447686960E+01  0.14163535307E+02  0.18726394224E+02  0.00000000000E+00 0.  1.
         11    1    3    3    0    0 -0.14037871998E+02  0.17389500709E+02 -0.22889394968E+02  0.31990326466E+02  0.51100000000E-03 0. -1.
        -11    1    3    3    0    0  0.64884072427E+01  0.13828765953E+02 -0.24071220489E+01  0.15463778101E+02  0.51100000000E-03 0.  1.
        -12    1    3    3    0    0 -0.92651158728E+00 -0.22373497966E+02  0.11132981710E+02  0.25007501209E+02  0.00000000000E+00 0.  1.
</event>
<event>
 7    1  0.1749439E-013  0.7246162E+02  0.7816164E-02  0.1226708E+00
        -11   -1    0    0    0    0  0.00000000000E+00  0.00000000000E+00  0.45593999997E+02  0.45594000000E+02  0.51100000000E-03 0.  1.
         11   -1    0    0    0    0 -0.00000000000E+00 -0.00000000000E+00 -0.45593999997E+02  0.45594000000E+02  0.51100000000E-03 0. -1.
    9900012    2    1    2    0    0 -0.12640304289E+02 -0.12060126744E+02  0.67419185336E+01  0.72461617137E+02  0.70000061022E+02 0.  0.
        -12    1    1    2    0    0  0.12640304289E+02  0.12060126744E+02 -0.67419185336E+01  0.18726382863E+02  0.00000000000E+00 0.  1.
         11    1    3    3    0    0 -0.69668745948E+01  0.44280242052E+01  0.13836595153E+01  0.83701406139E+01  0.51100000000E-03 0. -1.
        -11    1    3    3    0    0 -0.13260340833E+02  0.19969418863E+02  0.11093759657E+02  0.26413743247E+02  0.51100000000E-03 0.  1.
         12    1    3    3    0    0  0.75869111391E+01 -0.36457569813E+02 -0.57355006386E+01  0.37677733276E+02  0.00000000000E+00 0. -1.
</event>
<event>
 7    1  0.1749439E-013  0.7246151E+02  0.7816164E-02  0.1226708E+00
        -11   -1    0    0    0    0  0.00000000000E+00  0.00000000000E+00  0.45593999997E+02  0.45594000000E+02  0.51100000000E-03 0. -1.
         11   -1    0    0    0    0 -0.00000000000E+00 -0.00000000000E+00 -0.45593999997E+02  0.45594000000E+02  0.51100000000E-03 0.  1.
    9900012    2    1    2    0    0  0.89825993941E+01 -0.11052717646E+02 -0.12158612384E+02  0.72461507688E+02  0.69999918443E+02 0.  0.
        -12    1    1    2    0    0 -0.89825993941E+01  0.11052717646E+02  0.12158612384E+02  0.18726492312E+02  0.00000000000E+00 0.  1.
         11    1    3    3    0    0 -0.92425630958E+00 -0.18841942390E+02  0.21233240974E+02  0.28402879525E+02  0.51100000000E-03 0. -1.
        -11    1    3    3    0    0 -0.73592799290E+01  0.56593317672E+00 -0.19201162965E+02  0.20570948955E+02  0.51100000000E-03 0.  1.
        -12    1    3    3    0    0  0.17266135633E+02  0.72232915678E+01 -0.14190690392E+02  0.23487679208E+02  0.00000000000E+00 0.  1.
</event>
<event>
 7    1  0.1749439E-013  0.7246158E+02  0.7816164E-02  0.1226708E+00
        -11   -1    0    0    0    0  0.00000000000E+00  0.00000000000E+00  0.45593999997E+02  0.45594000000E+02  0.51100000000E-03 0.  1.
         11   -1    0    0    0    0 -0.00000000000E+00 -0.00000000000E+00 -0.45593999997E+02  0.45594000000E+02  0.51100000000E-03 0. -1.
    9900012    2    1    2    0    0  0.13817843930E+02  0.90283503077E+01 -0.88450506495E+01  0.72461579062E+02  0.70000011421E+02 0.  0.
        -12    1    1    2    0    0 -0.13817843930E+02 -0.90283503077E+01  0.88450506495E+01  0.18726420938E+02  0.00000000000E+00 0.  1.
         11    1    3    3    0    0  0.98312362467E+01 -0.56776550484E+01 -0.13320742272E+02  0.17502318359E+02  0.51100000000E-03 0. -1.
        -11    1    3    3    0    0  0.75888398621E+01 -0.18806182125E+02  0.62108994769E+01  0.21209390589E+02  0.51100000000E-03 0.  1.
        -12    1    3    3    0    0 -0.36022321785E+01  0.33512187481E+02 -0.17352078539E+01  0.33749870114E+02  0.00000000000E+00 0.  1.
</event>
<event>
 7    1  0.1749439E-013  0.7246157E+02  0.7816164E-02  0.1226708E+00
        -11   -1    0    0    0    0  0.00000000000E+00  0.00000000000E+00  0.45593999997E+02  0.45594000000E+02  0.51100000000E-03 0.  1.
         11   -1    0    0    0    0 -0.00000000000E+00 -0.00000000000E+00 -0.45593999997E+02  0.45594000000E+02  0.51100000000E-03 0. -1.
    9900012    2    1    2    0    0 -0.18693344505E+02 -0.99261527281E-01 -0.11081956468E+01  0.72461572705E+02  0.70000003141E+02 0.  0.
        -12    1    1    2    0    0  0.18693344505E+02  0.99261527281E-01  0.11081956468E+01  0.18726427295E+02  0.00000000000E+00 0.  1.
         11    1    3    3    0    0  0.33967787512E+00  0.14386769750E+01  0.19035162741E+01  0.24100927294E+01  0.51100000000E-03 0. -1.
        -11    1    3    3    0    0  0.23090626635E+02 -0.12557948890E+02  0.11646774633E+01  0.26310370438E+02  0.51100000000E-03 0.  1.
         12    1    3    3    0    0 -0.42123649015E+02  0.11020010388E+02 -0.41763893842E+01  0.43741109538E+02  0.00000000000E+00 0. -1.
</event>
<event>
 7    1  0.1749439E-013  0.7246160E+02  0.7816164E-02  0.1226708E+00
        -11   -1    0    0    0    0  0.00000000000E+00  0.00000000000E+00  0.45593999997E+02  0.45594000000E+02  0.51100000000E-03 0.  1.
         11   -1    0    0    0    0 -0.00000000000E+00 -0.00000000000E+00 -0.45593999997E+02  0.45594000000E+02  0.51100000000E-03 0. -1.
    9900012    2    1    2    0    0  0.52044911744E+01 -0.90321803027E+01 -0.15556705863E+02  0.72461598672E+02  0.70000036967E+02 0.  0.
        -12    1    1    2    0    0 -0.52044911744E+01  0.90321803027E+01  0.15556705863E+02  0.18726401328E+02  0.00000000000E+00 0.  1.
         11    1    3    3    0    0 -0.19746928873E+01 -0.89884755000E+01 -0.19200622731E+02  0.21292158588E+02  0.51100000000E-03 0. -1.
        -11    1    3    3    0    0  0.22993021237E+02 -0.16391484020E+02  0.81456912071E+00  0.28249306135E+02  0.51100000000E-03 0.  1.
         12    1    3    3    0    0 -0.15813837176E+02  0.16347779217E+02  0.28293477474E+01  0.22920133949E+02  0.00000000000E+00 0. -1.
</event>
<event>
 7    1  0.1749439E-013  0.7246151E+02  0.7816164E-02  0.1226708E+00
        -11   -1    0    0    0    0  0.00000000000E+00  0.00000000000E+00  0.45593999997E+02  0.45594000000E+02  0.51100000000E-03 0. -1.
         11   -1    0    0    0    0 -0.00000000000E+00 -0.00000000000E+00 -0.45593999997E+02  0.45594000000E+02  0.51100000000E-03 0.  1.
    9900012    2    1    2    0    0  0.10607704021E+02  0.15291165434E+02  0.20828932876E+01  0.72461506218E+02  0.69999916528E+02 0.  0.
        -12    1    1    2    0    0 -0.10607704021E+02 -0.15291165434E+02 -0.20828932876E+01  0.18726493782E+02  0.00000000000E+00 0.  1.
         11    1    3    3    0    0 -0.71475168796E+01  0.17935063892E+02  0.72740178752E+00  0.19320523492E+02  0.51100000000E-03 0. -1.
        -11    1    3    3    0    0  0.42647321901E+01  0.21961525995E+02 -0.76924225534E+01  0.23657344096E+02  0.51100000000E-03 0.  1.
         12    1    3    3    0    0  0.13490488711E+02 -0.24605424453E+02  0.90479140535E+01  0.29483638630E+02  0.00000000000E+00 0. -1.
</event>
<event>
 7    1  0.1749439E-013  0.7246157E+02  0.7816164E-02  0.1226708E+00
        -11   -1    0    0    0    0  0.00000000000E+00  0.00000000000E+00  0.45593999997E+02  0.45594000000E+02  0.51100000000E-03 0.  1.
         11   -1    0    0    0    0 -0.00000000000E+00 -0.00000000000E+00 -0.45593999997E+02  0.45594000000E+02  0.51100000000E-03 0. -1.
    9900012    2    1    2    0    0  0.38536462019E+01 -0.13819475622E+02 -0.12035394826E+02  0.72461568836E+02  0.69999998100E+02 0.  0.
        -12    1    1    2    0    0 -0.38536462019E+01  0.13819475622E+02  0.12035394826E+02  0.18726431164E+02  0.00000000000E+00 0.  1.
         11    1    3    3    0    0 -0.58439767087E+01  0.70950446462E+01 -0.14342007601E+02  0.17034814486E+02  0.51100000000E-03 0. -1.
        -11    1    3    3    0    0  0.21824421470E+02  0.84241018342E+01 -0.15615193062E+01  0.23445878252E+02  0.51100000000E-03 0.  1.
         12    1    3    3    0    0 -0.12126798559E+02 -0.29338622103E+02  0.38681320814E+01  0.31980876098E+02  0.00000000000E+00 0. -1.
</event>
<event>
 7    1  0.1749439E-013  0.7246163E+02  0.7816164E-02  0.1226708E+00
        -11   -1    0    0    0    0  0.00000000000E+00  0.00000000000E+00  0.45593999997E+02  0.45594000000E+02  0.51100000000E-03 0.  1.
         11   -1    0    0    0    0 -0.00000000000E+00 -0.00000000000E+00 -0.45593999997E+02  0.45594000000E+02  0.51100000000E-03 0. -1.
    9900012    2    1    2    0    0 -0.56864123929E+01 -0.10751233243E+02 -0.14239124197E+02  0.72461629288E+02  0.70000076850E+02 0.  0.
        -12    1    1    2    0    0  0.56864123929E+01  0.10751233243E+02  0.14239124197E+02  0.18726370712E+02  0.00000000000E+00 0.  1.
         11    1    3    3    0    0  0.44402767956E+01  0.50355700341E+01 -0.27515302228E+00  0.67192806934E+01  0.51100000000E-03 0. -1.
        -11    1    3    3    0    0 -0.20650071169E+02  0.18420636730E+02 -0.11178226117E+02  0.29844564601E+02  0.51100000000E-03 0.  1.
         12    1    3    3    0    0  0.10523381980E+02 -0.34207440008E+02 -0.27857450575E+01  0.35897783994E+02  0.00000000000E+00 0. -1.
</event>
<event>
 7    1  0.1749439E-013  0.7246138E+02  0.7816164E-02  0.1226709E+00
        -11   -1    0    0    0    0  0.00000000000E+00  0.00000000000E+00  0.45593999997E+02  0.45594000000E+02  0.51100000000E-03 0.  1.
         11   -1    0    0    0    0 -0.00000000000E+00 -0.00000000000E+00 -0.45593999997E+02  0.45594000000E+02  0.51100000000E-03 0. -1.
    9900012    2    1    2    0    0 -0.14867458249E+00  0.16379267125E+02 -0.90765526474E+01  0.72461379813E+02  0.69999751862E+02 0.  0.
        -12    1    1    2    0    0  0.14867458249E+00 -0.16379267125E+02  0.90765526474E+01  0.18726620187E+02  0.00000000000E+00 0.  1.
         11    1    3    3    0    0 -0.58205685883E+01  0.26975663168E+02 -0.24128451106E+02  0.36657162671E+02  0.51100000000E-03 0. -1.
        -11    1    3    3    0    0 -0.14886489646E+01  0.10162317913E+02  0.69360000146E+01  0.12393420737E+02  0.51100000000E-03 0.  1.
        -12    1    3    3    0    0  0.71605429704E+01 -0.20758713956E+02  0.81158984440E+01  0.23410796404E+02  0.00000000000E+00 0.  1.
</event>
<event>
 7    1  0.1749439E-013  0.7246156E+02  0.7816164E-02  0.1226708E+00
        -11   -1    0    0    0    0  0.00000000000E+00  0.00000000000E+00  0.45593999997E+02  0.45594000000E+02  0.51100000000E-03 0.  1.
         11   -1    0    0    0    0 -0.00000000000E+00 -0.00000000000E+00 -0.45593999997E+02  0.45594000000E+02  0.51100000000E-03 0. -1.
    9900012    2    1    2    0    0  0.15987175221E+02  0.97294325899E+01  0.65407967507E+00  0.72461562798E+02  0.69999990235E+02 0.  0.
        -12    1    1    2    0    0 -0.15987175221E+02 -0.97294325899E+01 -0.65407967507E+00  0.18726437202E+02  0.00000000000E+00 0.  1.
         11    1    3    3    0    0  0.68453150335E+01  0.77149850140E+01  0.15244094440E+01  0.10426080572E+02  0.51100000000E-03 0. -1.
        -11    1    3    3    0    0  0.21567168722E+02  0.71159755503E+01  0.24451673107E+02  0.33371607584E+02  0.51100000000E-03 0.  1.
         12    1    3    3    0    0 -0.12425308535E+02 -0.51015279744E+01 -0.25322002876E+02  0.28663874642E+02  0.00000000000E+00 0. -1.
</event>
<event>
 7    1  0.1749439E-013  0.7246154E+02  0.7816164E-02  0.1226708E+00
        -11   -1    0    0    0    0  0.00000000000E+00  0.00000000000E+00  0.45593999997E+02  0.45594000000E+02  0.51100000000E-03 0.  1.
         11   -1    0    0    0    0 -0.00000000000E+00 -0.00000000000E+00 -0.45593999997E+02  0.45594000000E+02  0.51100000000E-03 0. -1.
    9900012    2    1    2    0    0 -0.86564867183E+01  0.72928089270E+01 -0.14918458572E+02  0.72461541966E+02  0.69999963097E+02 0.  0.
        -12    1    1    2    0    0  0.86564867183E+01 -0.72928089270E+01  0.14918458572E+02  0.18726458034E+02  0.00000000000E+00 0.  1.
         11    1    3    3    0    0  0.10983359776E+02  0.21012903714E+02 -0.22341392056E+02  0.32577816283E+02  0.51100000000E-03 0. -1.
        -11    1    3    3    0    0  0.10496904653E+01  0.86347813548E+01  0.22872161810E+01  0.89940345361E+01  0.51100000000E-03 0.  1.
        -12    1    3    3    0    0 -0.20689536960E+02 -0.22354876142E+02  0.51357173040E+01  0.30889691147E+02  0.00000000000E+00 0.  1.
</event>
<event>
 7    1  0.1749439E-013  0.7246155E+02  0.7816164E-02  0.1226708E+00
        -11   -1    0    0    0    0  0.00000000000E+00  0.00000000000E+00  0.45593999997E+02  0.45594000000E+02  0.51100000000E-03 0. -1.
         11   -1    0    0    0    0 -0.00000000000E+00 -0.00000000000E+00 -0.45593999997E+02  0.45594000000E+02  0.51100000000E-03 0.  1.
    9900012    2    1    2    0    0 -0.11019027518E+02  0.10715718811E+01  0.15103405524E+02  0.72461545660E+02  0.69999967909E+02 0.  0.
        -12    1    1    2    0    0  0.11019027518E+02 -0.10715718811E+01 -0.15103405524E+02  0.18726454340E+02  0.00000000000E+00 0.  1.
         11    1    3    3    0    0 -0.14794288368E+02  0.23732571569E+01  0.29088069082E+02  0.32720316029E+02  0.51100000000E-03 0. -1.
        -11    1    3    3    0    0 -0.56245367762E+01  0.15233173657E+02 -0.17961075133E+00  0.16239373568E+02  0.51100000000E-03 0.  1.
        -12    1    3    3    0    0  0.93997976268E+01 -0.16534858933E+02 -0.13805052807E+02  0.23501856062E+02  0.00000000000E+00 0.  1.
</event>
<event>
 7    1  0.1749439E-013  0.7246157E+02  0.7816164E-02  0.1226708E+00
        -11   -1    0    0    0    0  0.00000000000E+00  0.00000000000E+00  0.45593999997E+02  0.45594000000E+02  0.51100000000E-03 0. -1.
         11   -1    0    0    0    0 -0.00000000000E+00 -0.00000000000E+00 -0.45593999997E+02  0.45594000000E+02  0.51100000000E-03 0.  1.
    9900012    2    1    2    0    0 -0.55642798972E+01 -0.17574526475E+02  0.32945645620E+01  0.72461565549E+02  0.69999993818E+02 0.  0.
        -12    1    1    2    0    0  0.55642798972E+01  0.17574526475E+02 -0.32945645620E+01  0.18726434451E+02  0.00000000000E+00 0.  1.
         11    1    3    3    0    0 -0.11527204045E+02 -0.22483985994E+02  0.77833815120E+01  0.26438363930E+02  0.51100000000E-03 0. -1.
        -11    1    3    3    0    0 -0.52600693763E+01  0.31200442166E+01  0.18983503297E+02  0.19944332615E+02  0.51100000000E-03 0.  1.
        -12    1    3    3    0    0  0.11222993524E+02  0.17894153026E+01 -0.23472320247E+02  0.26078869004E+02  0.00000000000E+00 0.  1.
</event>
<event>
 7    1  0.1749439E-013  0.7246158E+02  0.7816164E-02  0.1226708E+00
        -11   -1    0    0    0    0  0.00000000000E+00  0.00000000000E+00  0.45593999997E+02  0.45594000000E+02  0.51100000000E-03 0.  1.
         11   -1    0    0    0    0 -0.00000000000E+00 -0.00000000000E+00 -0.45593999997E+02  0.45594000000E+02  0.51100000000E-03 0. -1.
    9900012    2    1    2    0    0  0.10511064089E+02 -0.73354871947E+01 -0.13652357193E+02  0.72461582895E+02  0.70000016414E+02 0.  0.
        -12    1    1    2    0    0 -0.10511064089E+02  0.73354871947E+01  0.13652357193E+02  0.18726417105E+02  0.00000000000E+00 0.  1.
         11    1    3    3    0    0 -0.29606954308E+01  0.11684562112E+02  0.13852557438E+01  0.12133162940E+02  0.51100000000E-03 0. -1.
        -11    1    3    3    0    0  0.56304133903E+00  0.17408281017E+02  0.30078665077E+01  0.17675195181E+02  0.51100000000E-03 0.  1.
         12    1    3    3    0    0  0.12908718181E+02 -0.36428330323E+02 -0.18045479445E+02  0.42653224774E+02  0.00000000000E+00 0. -1.
</event>
<event>
 7    1  0.1749439E-013  0.7246181E+02  0.7816164E-02  0.1226707E+00
        -11   -1    0    0    0    0  0.00000000000E+00  0.00000000000E+00  0.45593999997E+02  0.45594000000E+02  0.51100000000E-03 0.  1.
         11   -1    0    0    0    0 -0.00000000000E+00 -0.00000000000E+00 -0.45593999997E+02  0.45594000000E+02  0.51100000000E-03 0. -1.
    9900012    2    1    2    0    0 -0.17300906132E+02 -0.70016870161E+01 -0.15249246070E+01  0.72461805269E+02  0.70000306097E+02 0.  0.
        -12    1    1    2    0    0  0.17300906132E+02  0.70016870161E+01  0.15249246070E+01  0.18726194731E+02  0.00000000000E+00 0.  1.
         11    1    3    3    0    0 -0.21219156246E+02 -0.29250802398E+02 -0.84259052551E+01  0.37106036064E+02  0.51100000000E-03 0. -1.
        -11    1    3    3    0    0 -0.99425260597E+01  0.12403571679E+02 -0.22382263301E+01  0.16053413101E+02  0.51100000000E-03 0.  1.
        -12    1    3    3    0    0  0.13860776174E+02  0.98455437031E+01  0.91392069782E+01  0.19302356103E+02  0.00000000000E+00 0.  1.
</event>
<event>
 7    1  0.1749439E-013  0.7246158E+02  0.7816164E-02  0.1226708E+00
        -11   -1    0    0    0    0  0.00000000000E+00  0.00000000000E+00  0.45593999997E+02  0.45594000000E+02  0.51100000000E-03 0.  1.
         11   -1    0    0    0    0 -0.00000000000E+00 -0.00000000000E+00 -0.45593999997E+02  0.45594000000E+02  0.51100000000E-03 0. -1.
    9900012    2    1    2    0    0 -0.98343352522E+01 -0.99175915435E+01 -0.12474220022E+02  0.72461576502E+02  0.70000008087E+02 0.  0.
        -12    1    1    2    0    0  0.98343352522E+01  0.99175915435E+01  0.12474220022E+02  0.18726423498E+02  0.00000000000E+00 0.  1.
         11    1    3    3    0    0  0.66738499667E+01 -0.36088535342E+01 -0.62628426998E+01  0.98380534738E+01  0.51100000000E-03 0. -1.
        -11    1    3    3    0    0 -0.15227190452E+02  0.25411518799E+02 -0.84281663608E+01  0.30800107227E+02  0.51100000000E-03 0.  1.
         12    1    3    3    0    0 -0.12809947665E+01 -0.31720256808E+02  0.22167890389E+01  0.31823415801E+02  0.00000000000E+00 0. -1.
</event>
<event>
 7    1  0.1749439E-013  0.7246161E+02  0.7816164E-02  0.1226708E+00
        -11   -1    0    0    0    0  0.00000000000E+00  0.00000000000E+00  0.45593999997E+02  0.45594000000E+02  0.51100000000E-03 0.  1.
         11   -1    0    0    0    0 -0.00000000000E+00 -0.00000000000E+00 -0.45593999997E+02  0.45594000000E+02  0.51100000000E-03 0. -1.
    9900012    2    1    2    0    0 -0.72079894173E+01  0.23335627074E+01 -0.17125331873E+02  0.72461611718E+02  0.70000053962E+02 0.  0.
        -12    1    1    2    0    0  0.72079894173E+01 -0.23335627074E+01  0.17125331873E+02  0.18726388282E+02  0.00000000000E+00 0.  1.
         11    1    3    3    0    0  0.14370726275E+01  0.14175955939E+02  0.36284829812E+01  0.14703359940E+02  0.51100000000E-03 0. -1.
        -11    1    3    3    0    0 -0.18061479772E+02  0.10008096814E+02  0.64352729295E+01  0.21628494893E+02  0.51100000000E-03 0.  1.
         12    1    3    3    0    0  0.94164177273E+01 -0.21850490046E+02 -0.27189087783E+02  0.36129756885E+02  0.00000000000E+00 0. -1.
</event>
<event>
 7    1  0.1749439E-013  0.7246156E+02  0.7816164E-02  0.1226708E+00
        -11   -1    0    0    0    0  0.00000000000E+00  0.00000000000E+00  0.45593999997E+02  0.45594000000E+02  0.51100000000E-03 0. -1.
         11   -1    0    0    0    0 -0.00000000000E+00 -0.00000000000E+00 -0.45593999997E+02  0.45594000000E+02  0.51100000000E-03 0.  1.
    9900012    2    1    2    0    0  0.83968298111E+01 -0.16698723922E+02 -0.11512590385E+01  0.72461560700E+02  0.69999987501E+02 0.  0.
        -12    1    1    2    0    0 -0.83968298111E+01  0.16698723922E+02  0.11512590385E+01  0.18726439300E+02  0.00000000000E+00 0.  1.
         11    1    3    3    0    0  0.27597594662E+02  0.92796368997E+01  0.72405620949E+01  0.30002743739E+02  0.51100000000E-03 0. -1.
        -11    1    3    3    0    0  0.93463321845E+00 -0.12894318983E+02  0.62230611278E+01  0.14347943802E+02  0.51100000000E-03 0.  1.
        -12    1    3    3    0    0 -0.20135398070E+02 -0.13084041838E+02 -0.14614882261E+02  0.28110873159E+02  0.00000000000E+00 0.  1.
</event>
<event>
 7    1  0.1749439E-013  0.7246154E+02  0.7816164E-02  0.1226708E+00
        -11   -1    0    0    0    0  0.00000000000E+00  0.00000000000E+00  0.45593999997E+02  0.45594000000E+02  0.51100000000E-03 0. -1.
         11   -1    0    0    0    0 -0.00000000000E+00 -0.00000000000E+00 -0.45593999997E+02  0.45594000000E+02  0.51100000000E-03 0.  1.
    9900012    2    1    2    0    0  0.45561245618E+01 -0.13668075519E+02  0.11962680374E+02  0.72461540614E+02  0.69999961335E+02 0.  0.
        -12    1    1    2    0    0 -0.45561245618E+01  0.13668075519E+02 -0.11962680374E+02  0.18726459386E+02  0.00000000000E+00 0.  1.
         11    1    3    3    0    0  0.61371050555E+01  0.86213026823E+00 -0.41506674029E+01  0.74589119322E+01  0.51100000000E-03 0. -1.
        -11    1    3    3    0    0 -0.63956172077E+01  0.21390569615E+02  0.18048444107E+02  0.28709000729E+02  0.51100000000E-03 0.  1.
         12    1    3    3    0    0  0.48146367140E+01 -0.35920775402E+02 -0.19350963295E+01  0.36293627953E+02  0.00000000000E+00 0. -1.
</event>
<event>
 7    1  0.1749439E-013  0.7246159E+02  0.7816164E-02  0.1226708E+00
        -11   -1    0    0    0    0  0.00000000000E+00  0.00000000000E+00  0.45593999997E+02  0.45594000000E+02  0.51100000000E-03 0.  1.
         11   -1    0    0    0    0 -0.00000000000E+00 -0.00000000000E+00 -0.45593999997E+02  0.45594000000E+02  0.51100000000E-03 0. -1.
    9900012    2    1    2    0    0 -0.46593212313E+01 -0.11914092919E+02 -0.13675656432E+02  0.72461589152E+02  0.70000024565E+02 0.  0.
        -12    1    1    2    0    0  0.46593212313E+01  0.11914092919E+02  0.13675656432E+02  0.18726410848E+02  0.00000000000E+00 0.  1.
         11    1    3    3    0    0 -0.20358852202E+02  0.20014887933E+02 -0.16738977795E+02  0.33094893561E+02  0.51100000000E-03 0. -1.
        -11    1    3    3    0    0  0.76469139950E+01 -0.16158874640E+01 -0.30621613561E+00  0.78217743848E+01  0.51100000000E-03 0.  1.
        -12    1    3    3    0    0  0.80526169756E+01 -0.30313093388E+02  0.33695374985E+01  0.31544921206E+02  0.00000000000E+00 0.  1.
</event>
<event>
 7    1  0.1749439E-013  0.7246158E+02  0.7816164E-02  0.1226708E+00
        -11   -1    0    0    0    0  0.00000000000E+00  0.00000000000E+00  0.45593999997E+02  0.45594000000E+02  0.51100000000E-03 0. -1.
         11   -1    0    0    0    0 -0.00000000000E+00 -0.00000000000E+00 -0.45593999997E+02  0.45594000000E+02  0.51100000000E-03 0.  1.
    9900012    2    1    2    0    0 -0.78286473277E+01 -0.15484669702E+02 -0.70438710294E+01  0.72461579257E+02  0.70000011675E+02 0.  0.
        -12    1    1    2    0    0  0.78286473277E+01  0.15484669702E+02  0.70438710294E+01  0.18726420743E+02  0.00000000000E+00 0.  1.
         11    1    3    3    0    0 -0.11093914479E+02 -0.14637069075E+02  0.15748343550E+02  0.24193574651E+02  0.51100000000E-03 0. -1.
        -11    1    3    3    0    0 -0.19462719174E+02  0.24289040668E+00 -0.13510195095E+02  0.23693497107E+02  0.51100000000E-03 0.  1.
        -12    1    3    3    0    0  0.22727986325E+02 -0.10904910337E+01 -0.92820194842E+01  0.24574507499E+02  0.00000000000E+00 0.  1.
</event>
<event>
 7    1  0.1749439E-013  0.7246155E+02  0.7816164E-02  0.1226708E+00
        -11   -1    0    0    0    0  0.00000000000E+00  0.00000000000E+00  0.45593999997E+02  0.45594000000E+02  0.51100000000E-03 0. -1.
         11   -1    0    0    0    0 -0.00000000000E+00 -0.00000000000E+00 -0.45593999997E+02  0.45594000000E+02  0.51100000000E-03 0.  1.
    9900012    2    1    2    0    0  0.11609661829E+02  0.73862261850E+00  0.14674810126E+02  0.72461551768E+02  0.69999975865E+02 0.  0.
        -12    1    1    2    0    0 -0.11609661829E+02 -0.73862261850E+00 -0.14674810126E+02  0.18726448232E+02  0.00000000000E+00 0.  1.
         11    1    3    3    0    0 -0.21492169001E+02  0.45558858862E+01  0.16669532281E+02  0.27577939214E+02  0.51100000000E-03 0. -1.
        -11    1    3    3    0    0 -0.14031968557E+01 -0.73338833254E+01 -0.65111028197E+01  0.99070311514E+01  0.51100000000E-03 0.  1.
        -12    1    3    3    0    0  0.34505027686E+02  0.35166200577E+01  0.45163806652E+01  0.34976581402E+02  0.00000000000E+00 0.  1.
</event>
<event>
 7    1  0.1749439E-013  0.7246156E+02  0.7816164E-02  0.1226708E+00
        -11   -1    0    0    0    0  0.00000000000E+00  0.00000000000E+00  0.45593999997E+02  0.45594000000E+02  0.51100000000E-03 0.  1.
         11   -1    0    0    0    0 -0.00000000000E+00 -0.00000000000E+00 -0.45593999997E+02  0.45594000000E+02  0.51100000000E-03 0. -1.
    9900012    2    1    2    0    0 -0.40404134996E+01 -0.10677937952E+02 -0.14843732862E+02  0.72461555985E+02  0.69999981360E+02 0.  0.
        -12    1    1    2    0    0  0.40404134996E+01  0.10677937952E+02  0.14843732862E+02  0.18726444015E+02  0.00000000000E+00 0.  1.
         11    1    3    3    0    0 -0.82811511309E+01 -0.40061756919E+01 -0.56344421346E+01  0.10787671026E+02  0.51100000000E-03 0. -1.
        -11    1    3    3    0    0  0.40932546326E+00 -0.30246196085E+02  0.90905240539E+01  0.31585400944E+02  0.51100000000E-03 0.  1.
         12    1    3    3    0    0  0.38314121680E+01  0.23574433825E+02 -0.18299814781E+02  0.30088484016E+02  0.00000000000E+00 0. -1.
</event>
<event>
 7    1  0.1749439E-013  0.7246157E+02  0.7816164E-02  0.1226708E+00
        -11   -1    0    0    0    0  0.00000000000E+00  0.00000000000E+00  0.45593999997E+02  0.45594000000E+02  0.51100000000E-03 0.  1.
         11   -1    0    0    0    0 -0.00000000000E+00 -0.00000000000E+00 -0.45593999997E+02  0.45594000000E+02  0.51100000000E-03 0. -1.
    9900012    2    1    2    0    0 -0.17402694402E+02  0.38653895830E+01 -0.57344604612E+01  0.72461573596E+02  0.70000004301E+02 0.  0.
        -12    1    1    2    0    0  0.17402694402E+02 -0.38653895830E+01  0.57344604612E+01  0.18726426404E+02  0.00000000000E+00 0.  1.
         11    1    3    3    0    0  0.52832299216E+01  0.16268143668E+02  0.50533184644E+01  0.17835387424E+02  0.51100000000E-03 0. -1.
        -11    1    3    3    0    0 -0.11613087057E+02  0.16481928815E+02  0.36474856367E+01  0.20489556369E+02  0.51100000000E-03 0.  1.
        -12    1    3    3    0    0 -0.11072837267E+02 -0.28884682900E+02 -0.14435264562E+02  0.34136629803E+02  0.00000000000E+00 0.  1.
</event>
<event>
 7    1  0.1749439E-013  0.7246157E+02  0.7816164E-02  0.1226708E+00
        -11   -1    0    0    0    0  0.00000000000E+00  0.00000000000E+00  0.45593999997E+02  0.45594000000E+02  0.51100000000E-03 0.  1.
         11   -1    0    0    0    0 -0.00000000000E+00 -0.00000000000E+00 -0.45593999997E+02  0.45594000000E+02  0.51100000000E-03 0. -1.
    9900012    2    1    2    0    0  0.16287736078E+02 -0.89083290303E+00 -0.91975636196E+01  0.72461571981E+02  0.70000002198E+02 0.  0.
        -12    1    1    2    0    0 -0.16287736078E+02  0.89083290303E+00  0.91975636196E+01  0.18726428019E+02  0.00000000000E+00 0.  1.
         11    1    3    3    0    0  0.12240018637E+02  0.13485024772E+02  0.50729934325E+01  0.18905004945E+02  0.51100000000E-03 0. -1.
        -11    1    3    3    0    0  0.77730640388E+01  0.17698205153E+02 -0.54771266054E+01  0.20090940902E+02  0.51100000000E-03 0.  1.
         12    1    3    3    0    0 -0.37253465981E+01 -0.32074062828E+02 -0.87934304467E+01  0.33465626135E+02  0.00000000000E+00 0. -1.
</event>
<event>
 7    1  0.1749439E-013  0.7246154E+02  0.7816164E-02  0.1226708E+00
        -11   -1    0    0    0    0  0.00000000000E+00  0.00000000000E+00  0.45593999997E+02  0.45594000000E+02  0.51100000000E-03 0.  1.
         11   -1    0    0    0    0 -0.00000000000E+00 -0.00000000000E+00 -0.45593999997E+02  0.45594000000E+02  0.51100000000E-03 0. -1.
    9900012    2    1    2    0    0 -0.77936839872E+01 -0.79727731804E+01 -0.15045721559E+02  0.72461538521E+02  0.69999958610E+02 0.  0.
        -12    1    1    2    0    0  0.77936839872E+01  0.79727731804E+01  0.15045721559E+02  0.18726461479E+02  0.00000000000E+00 0.  1.
         11    1    3    3    0    0  0.25546837964E+01  0.24345899524E+02 -0.16184031464E+02  0.29345734061E+02  0.51100000000E-03 0. -1.
        -11    1    3    3    0    0 -0.37104426110E+01  0.35806193813E+01  0.39564632582E+01  0.64993708386E+01  0.51100000000E-03 0.  1.
        -12    1    3    3    0    0 -0.66379251726E+01 -0.35899292085E+02 -0.28181533535E+01  0.36616433621E+02  0.00000000000E+00 0.  1.
</event>
<event>
 7    1  0.1749439E-013  0.7246158E+02  0.7816164E-02  0.1226708E+00
        -11   -1    0    0    0    0  0.00000000000E+00  0.00000000000E+00  0.45593999997E+02  0.45594000000E+02  0.51100000000E-03 0. -1.
         11   -1    0    0    0    0 -0.00000000000E+00 -0.00000000000E+00 -0.45593999997E+02  0.45594000000E+02  0.51100000000E-03 0.  1.
    9900012    2    1    2    0    0 -0.77307397605E+01 -0.16970276287E+02 -0.17099861303E+01  0.72461583710E+02  0.70000017477E+02 0.  0.
        -12    1    1    2    0    0  0.77307397605E+01  0.16970276287E+02  0.17099861303E+01  0.18726416290E+02  0.00000000000E+00 0.  1.
         11    1    3    3    0    0  0.51698422133E+01  0.15399050951E+02 -0.16337429015E+02  0.23038438007E+02  0.51100000000E-03 0. -1.
        -11    1    3    3    0    0 -0.39402598827E+01  0.69959919629E+00 -0.75957773136E+01  0.85855064054E+01  0.51100000000E-03 0.  1.
         12    1    3    3    0    0 -0.89603220910E+01 -0.33068926434E+02  0.22223220199E+02  0.40837639298E+02  0.00000000000E+00 0. -1.
</event>
<event>
 7    1  0.1749439E-013  0.7246158E+02  0.7816164E-02  0.1226708E+00
        -11   -1    0    0    0    0  0.00000000000E+00  0.00000000000E+00  0.45593999997E+02  0.45594000000E+02  0.51100000000E-03 0. -1.
         11   -1    0    0    0    0 -0.00000000000E+00 -0.00000000000E+00 -0.45593999997E+02  0.45594000000E+02  0.51100000000E-03 0.  1.
    9900012    2    1    2    0    0  0.17159967793E+02  0.67297727260E+01  0.33052186428E+01  0.72461580003E+02  0.70000012648E+02 0.  0.
        -12    1    1    2    0    0 -0.17159967793E+02 -0.67297727260E+01 -0.33052186428E+01  0.18726419997E+02  0.00000000000E+00 0.  1.
         11    1    3    3    0    0  0.15731135587E+02 -0.38545160775E+01  0.15131875058E+02  0.22165278345E+02  0.51100000000E-03 0. -1.
        -11    1    3    3    0    0 -0.24837876351E+00 -0.95501592677E+01  0.14343910830E+02  0.17234123483E+02  0.51100000000E-03 0.  1.
        -12    1    3    3    0    0  0.16772109696E+01  0.20134448071E+02 -0.26170567246E+02  0.33062178176E+02  0.00000000000E+00 0.  1.
</event>
<event>
 7    1  0.1749439E-013  0.7246164E+02  0.7816164E-02  0.1226708E+00
        -11   -1    0    0    0    0  0.00000000000E+00  0.00000000000E+00  0.45593999997E+02  0.45594000000E+02  0.51100000000E-03 0. -1.
         11   -1    0    0    0    0 -0.00000000000E+00 -0.00000000000E+00 -0.45593999997E+02  0.45594000000E+02  0.51100000000E-03 0.  1.
    9900012    2    1    2    0    0 -0.22903997965E+01 -0.17414045672E+02  0.64947510684E+01  0.72461635982E+02  0.70000085570E+02 0.  0.
        -12    1    1    2    0    0  0.22903997965E+01  0.17414045672E+02 -0.64947510684E+01  0.18726364018E+02  0.00000000000E+00 0.  1.
         11    1    3    3    0    0  0.18610977387E+01 -0.21807164164E+02  0.15105368985E+02  0.26593011602E+02  0.51100000000E-03 0. -1.
        -11    1    3    3    0    0  0.10396277299E+02 -0.10730717606E+02 -0.17559067954E+02  0.23055406084E+02  0.51100000000E-03 0.  1.
         12    1    3    3    0    0 -0.14547774834E+02  0.15123836097E+02  0.89484500378E+01  0.22813218296E+02  0.00000000000E+00 0. -1.
</event>
<event>
 7    1  0.1749439E-013  0.7246159E+02  0.7816164E-02  0.1226708E+00
        -11   -1    0    0    0    0  0.00000000000E+00  0.00000000000E+00  0.45593999997E+02  0.45594000000E+02  0.51100000000E-03 0. -1.
         11   -1    0    0    0    0 -0.00000000000E+00 -0.00000000000E+00 -0.45593999997E+02  0.45594000000E+02  0.51100000000E-03 0.  1.
    9900012    2    1    2    0    0  0.52944724097E+01  0.16638006370E+02 -0.67693302200E+01  0.72461587485E+02  0.70000022394E+02 0.  0.
        -12    1    1    2    0    0 -0.52944724097E+01 -0.16638006370E+02  0.67693302200E+01  0.18726412515E+02  0.00000000000E+00 0.  1.
         11    1    3    3    0    0 -0.15511948282E+02 -0.12624946126E+02 -0.31008929435E+01  0.20239203084E+02  0.51100000000E-03 0. -1.
        -11    1    3    3    0    0 -0.64640144960E+01  0.82651765224E+01 -0.12860896939E+02  0.16598171486E+02  0.51100000000E-03 0.  1.
         12    1    3    3    0    0  0.27270435188E+02  0.20997775973E+02  0.91924596623E+01  0.35624212915E+02  0.00000000000E+00 0. -1.
</event>
<event>
 7    1  0.1749439E-013  0.7246159E+02  0.7816164E-02  0.1226708E+00
        -11   -1    0    0    0    0  0.00000000000E+00  0.00000000000E+00  0.45593999997E+02  0.45594000000E+02  0.51100000000E-03 0.  1.
         11   -1    0    0    0    0 -0.00000000000E+00 -0.00000000000E+00 -0.45593999997E+02  0.45594000000E+02  0.51100000000E-03 0. -1.
    9900012    2    1    2    0    0 -0.13446361750E+02 -0.99075339162E+01  0.84684526286E+01  0.72461586501E+02  0.70000021112E+02 0.  0.
        -12    1    1    2    0    0  0.13446361750E+02  0.99075339162E+01 -0.84684526286E+01  0.18726413499E+02  0.00000000000E+00 0.  1.
         11    1    3    3    0    0 -0.10777327826E+02 -0.16490906963E+02 -0.13023989165E+02  0.23616204216E+02  0.51100000000E-03 0. -1.
        -11    1    3    3    0    0  0.14314095719E+02 -0.10691766805E+02  0.16049015289E+02  0.24016205064E+02  0.51100000000E-03 0.  1.
         12    1    3    3    0    0 -0.16983129642E+02  0.17275139852E+02  0.54434265049E+01  0.24829177221E+02  0.00000000000E+00 0. -1.
</event>
<event>
 7    1  0.1749439E-013  0.7246159E+02  0.7816164E-02  0.1226708E+00
        -11   -1    0    0    0    0  0.00000000000E+00  0.00000000000E+00  0.45593999997E+02  0.45594000000E+02  0.51100000000E-03 0.  1.
         11   -1    0    0    0    0 -0.00000000000E+00 -0.00000000000E+00 -0.45593999997E+02  0.45594000000E+02  0.51100000000E-03 0. -1.
    9900012    2    1    2    0    0 -0.14633777731E+01  0.13681749017E+02 -0.12702234066E+02  0.72461588679E+02  0.70000023950E+02 0.  0.
        -12    1    1    2    0    0  0.14633777731E+01 -0.13681749017E+02  0.12702234066E+02  0.18726411321E+02  0.00000000000E+00 0.  1.
         11    1    3    3    0    0  0.67957778158E+01  0.85589799579E+01  0.11441743303E+02  0.15822522685E+02  0.51100000000E-03 0. -1.
        -11    1    3    3    0    0  0.22514783182E+01  0.64699927539E+01  0.14784285240E+02  0.16294325735E+02  0.51100000000E-03 0.  1.
         12    1    3    3    0    0 -0.10510633907E+02 -0.13472236944E+01 -0.38928262609E+02  0.40344740259E+02  0.00000000000E+00 0. -1.
</event>
<event>
 7    1  0.1749439E-013  0.7246161E+02  0.7816164E-02  0.1226708E+00
        -11   -1    0    0    0    0  0.00000000000E+00  0.00000000000E+00  0.45593999997E+02  0.45594000000E+02  0.51100000000E-03 0.  1.
         11   -1    0    0    0    0 -0.00000000000E+00 -0.00000000000E+00 -0.45593999997E+02  0.45594000000E+02  0.51100000000E-03 0. -1.
    9900012    2    1    2    0    0 -0.16632042826E+02  0.33998171649E+01 -0.79053238272E+01  0.72461608192E+02  0.70000049369E+02 0.  0.
        -12    1    1    2    0    0  0.16632042826E+02 -0.33998171649E+01  0.79053238272E+01  0.18726391808E+02  0.00000000000E+00 0.  1.
         11    1    3    3    0    0  0.16398728002E+02  0.21980852330E+02 -0.13579357687E+01  0.27457606214E+02  0.51100000000E-03 0. -1.
        -11    1    3    3    0    0  0.94049931126E+00 -0.66671714025E+00 -0.64971441336E+01  0.65986311348E+01  0.51100000000E-03 0.  1.
        -12    1    3    3    0    0 -0.33971270139E+02 -0.17914318024E+02 -0.50243924830E-01  0.38405370843E+02  0.00000000000E+00 0.  1.
</event>
<event>
 7    1  0.1749439E-013  0.7246158E+02  0.7816164E-02  0.1226708E+00
        -11   -1    0    0    0    0  0.00000000000E+00  0.00000000000E+00  0.45593999997E+02  0.45594000000E+02  0.51100000000E-03 0.  1.
         11   -1    0    0    0    0 -0.00000000000E+00 -0.00000000000E+00 -0.45593999997E+02  0.45594000000E+02  0.51100000000E-03 0. -1.
    9900012    2    1    2    0    0 -0.13710873107E+02  0.65540068262E+01 -0.10942380170E+02  0.72461582013E+02  0.70000015266E+02 0.  0.
        -12    1    1    2    0    0  0.13710873107E+02 -0.65540068262E+01  0.10942380170E+02  0.18726417987E+02  0.00000000000E+00 0.  1.
         11    1    3    3    0    0 -0.11606937041E+02  0.74729978462E+01  0.11541390649E+02  0.17993620610E+02  0.51100000000E-03 0. -1.
        -11    1    3    3    0    0 -0.40072377231E+01 -0.13121685704E+02  0.11756795413E+02  0.18068171698E+02  0.51100000000E-03 0.  1.
        -12    1    3    3    0    0  0.19033016568E+01  0.12202694684E+02 -0.34240566231E+02  0.36399789705E+02  0.00000000000E+00 0.  1.
</event>
<event>
 7    1  0.1749439E-013  0.7246165E+02  0.7816164E-02  0.1226708E+00
        -11   -1    0    0    0    0  0.00000000000E+00  0.00000000000E+00  0.45593999997E+02  0.45594000000E+02  0.51100000000E-03 0.  1.
         11   -1    0    0    0    0 -0.00000000000E+00 -0.00000000000E+00 -0.45593999997E+02  0.45594000000E+02  0.51100000000E-03 0. -1.
    9900012    2    1    2    0    0  0.72999682512E+00 -0.23354431420E+00 -0.18710661997E+02  0.72461646626E+02  0.70000099436E+02 0.  0.
        -12    1    1    2    0    0 -0.72999682512E+00  0.23354431420E+00  0.18710661997E+02  0.18726353374E+02  0.00000000000E+00 0.  1.
         11    1    3    3    0    0 -0.12477543683E+02 -0.18795485264E+02 -0.34555720218E+02  0.41268113147E+02  0.51100000000E-03 0. -1.
        -11    1    3    3    0    0  0.14635367675E+01  0.12650724163E+01 -0.26492692221E+01  0.32803926229E+01  0.51100000000E-03 0.  1.
        -12    1    3    3    0    0  0.11744003740E+02  0.17296868533E+02  0.18494327442E+02  0.27913140856E+02  0.00000000000E+00 0.  1.
</event>
<event>
 7    1  0.1749439E-013  0.7246157E+02  0.7816164E-02  0.1226708E+00
        -11   -1    0    0    0    0  0.00000000000E+00  0.00000000000E+00  0.45593999997E+02  0.45594000000E+02  0.51100000000E-03 0.  1.
         11   -1    0    0    0    0 -0.00000000000E+00 -0.00000000000E+00 -0.45593999997E+02  0.45594000000E+02  0.51100000000E-03 0. -1.
    9900012    2    1    2    0    0  0.73304490121E+01  0.16704198881E+02 -0.42324440581E+01  0.72461566125E+02  0.69999994568E+02 0.  0.
        -12    1    1    2    0    0 -0.73304490121E+01 -0.16704198881E+02  0.42324440581E+01  0.18726433875E+02  0.00000000000E+00 0.  1.
         11    1    3    3    0    0 -0.69559564704E+01 -0.17023908020E+01 -0.77876386333E+01  0.10579734430E+02  0.51100000000E-03 0. -1.
        -11    1    3    3    0    0  0.17266148295E+02 -0.17566877964E+02  0.70385055777E+01  0.25617486984E+02  0.51100000000E-03 0.  1.
        -12    1    3    3    0    0 -0.29797428122E+01  0.35973467647E+02 -0.34833110025E+01  0.36264344711E+02  0.00000000000E+00 0.  1.
</event>
<event>
 7    1  0.1749439E-013  0.7246156E+02  0.7816164E-02  0.1226708E+00
        -11   -1    0    0    0    0  0.00000000000E+00  0.00000000000E+00  0.45593999997E+02  0.45594000000E+02  0.51100000000E-03 0.  1.
         11   -1    0    0    0    0 -0.00000000000E+00 -0.00000000000E+00 -0.45593999997E+02  0.45594000000E+02  0.51100000000E-03 0. -1.
    9900012    2    1    2    0    0 -0.98249230842E+01 -0.11822470785E+02 -0.10694842943E+02  0.72461558944E+02  0.69999985213E+02 0.  0.
        -12    1    1    2    0    0  0.98249230842E+01  0.11822470785E+02  0.10694842943E+02  0.18726441056E+02  0.00000000000E+00 0.  1.
         11    1    3    3    0    0  0.11021219735E+02 -0.23382178915E+02 -0.14818943481E+02  0.29795883296E+02  0.51100000000E-03 0. -1.
        -11    1    3    3    0    0 -0.15424802336E+02 -0.10914037378E+02  0.49479287475E+01  0.19532607049E+02  0.51100000000E-03 0.  1.
        -12    1    3    3    0    0 -0.54213404839E+01  0.22473745509E+02 -0.82382820980E+00  0.23133068598E+02  0.00000000000E+00 0.  1.
</event>
<event>
 7    1  0.1749439E-013  0.7246158E+02  0.7816164E-02  0.1226708E+00
        -11   -1    0    0    0    0  0.00000000000E+00  0.00000000000E+00  0.45593999997E+02  0.45594000000E+02  0.51100000000E-03 0.  1.
         11   -1    0    0    0    0 -0.00000000000E+00 -0.00000000000E+00 -0.45593999997E+02  0.45594000000E+02  0.51100000000E-03 0. -1.
    9900012    2    1    2    0    0  0.17101419883E+02  0.14412981653E+01  0.74928632933E+01  0.72461577417E+02  0.70000009279E+02 0.  0.
        -12    1    1    2    0    0 -0.17101419883E+02 -0.14412981653E+01 -0.74928632933E+01  0.18726422583E+02  0.00000000000E+00 0.  1.
         11    1    3    3    0    0  0.12473165285E+02  0.19368004028E+02 -0.79671082096E-01  0.23037052329E+02  0.51100000000E-03 0. -1.
        -11    1    3    3    0    0  0.41681442965E+01  0.73712058441E+01 -0.13875274039E+02  0.16255194013E+02  0.51100000000E-03 0.  1.
        -12    1    3    3    0    0  0.46011030163E+00 -0.25297911707E+02  0.21447808415E+02  0.33169331076E+02  0.00000000000E+00 0.  1.
</event>
<event>
 7    1  0.1749439E-013  0.7246156E+02  0.7816164E-02  0.1226708E+00
        -11   -1    0    0    0    0  0.00000000000E+00  0.00000000000E+00  0.45593999997E+02  0.45594000000E+02  0.51100000000E-03 0. -1.
         11   -1    0    0    0    0 -0.00000000000E+00 -0.00000000000E+00 -0.45593999997E+02  0.45594000000E+02  0.51100000000E-03 0.  1.
    9900012    2    1    2    0    0 -0.99334824946E+01 -0.15814611961E+02 -0.13796430442E+01  0.72461563049E+02  0.69999990562E+02 0.  0.
        -12    1    1    2    0    0  0.99334824946E+01  0.15814611961E+02  0.13796430442E+01  0.18726436951E+02  0.00000000000E+00 0.  1.
         11    1    3    3    0    0  0.90066337836E+01 -0.45288750371E+01 -0.33788191607E+01  0.10632336544E+02  0.51100000000E-03 0. -1.
        -11    1    3    3    0    0  0.82009731997E+01  0.17917570130E+02 -0.70831959844E+01  0.20939602346E+02  0.51100000000E-03 0.  1.
         12    1    3    3    0    0 -0.27141089478E+02 -0.29203307053E+02  0.90823721010E+01  0.40889624159E+02  0.00000000000E+00 0. -1.
</event>
<event>
 7    1  0.1749439E-013  0.7246167E+02  0.7816164E-02  0.1226708E+00
        -11   -1    0    0    0    0  0.00000000000E+00  0.00000000000E+00  0.45593999997E+02  0.45594000000E+02  0.51100000000E-03 0.  1.
         11   -1    0    0    0    0 -0.00000000000E+00 -0.00000000000E+00 -0.45593999997E+02  0.45594000000E+02  0.51100000000E-03 0. -1.
    9900012    2    1    2    0    0 -0.12523003492E+02 -0.13546726167E+02 -0.32149540023E+01  0.72461672663E+02  0.70000133354E+02 0.  0.
        -12    1    1    2    0    0  0.12523003492E+02  0.13546726167E+02  0.32149540023E+01  0.18726327337E+02  0.00000000000E+00 0.  1.
         11    1    3    3    0    0  0.41564436400E+01  0.82255523674E+01 -0.13689392474E+02  0.16502581679E+02  0.51100000000E-03 0.  1.
        -11    1    3    3    0    0 -0.21565284958E+02 -0.15670358550E+02 -0.14110248811E+02  0.30161577780E+02  0.51100000000E-03 0. -1.
        -12    1    3    3    0    0  0.48858378256E+01 -0.61019199838E+01  0.24584687283E+02  0.25797513205E+02  0.00000000000E+00 0.  1.
</event>
<event>
 7    1  0.1749439E-013  0.7246159E+02  0.7816164E-02  0.1226708E+00
        -11   -1    0    0    0    0  0.00000000000E+00  0.00000000000E+00  0.45593999997E+02  0.45594000000E+02  0.51100000000E-03 0.  1.
         11   -1    0    0    0    0 -0.00000000000E+00 -0.00000000000E+00 -0.45593999997E+02  0.45594000000E+02  0.51100000000E-03 0. -1.
    9900012    2    1    2    0    0 -0.60025665132E+01 -0.18127980117E+01 -0.17645438497E+02  0.72461587073E+02  0.70000021857E+02 0.  0.
        -12    1    1    2    0    0  0.60025665132E+01  0.18127980117E+01  0.17645438497E+02  0.18726412927E+02  0.00000000000E+00 0.  1.
         11    1    3    3    0    0  0.66648391594E+01 -0.42158316033E+00  0.11440543408E+01  0.67754464043E+01  0.51100000000E-03 0. -1.
        -11    1    3    3    0    0  0.13893436427E+02 -0.19947919712E+02  0.58229204953E+01  0.24997069428E+02  0.51100000000E-03 0.  1.
         12    1    3    3    0    0 -0.26560842100E+02  0.18556704861E+02 -0.24612413333E+02  0.40689071241E+02  0.00000000000E+00 0. -1.
</event>
<event>
 7    1  0.1749439E-013  0.7246159E+02  0.7816164E-02  0.1226708E+00
        -11   -1    0    0    0    0  0.00000000000E+00  0.00000000000E+00  0.45593999997E+02  0.45594000000E+02  0.51100000000E-03 0.  1.
         11   -1    0    0    0    0 -0.00000000000E+00 -0.00000000000E+00 -0.45593999997E+02  0.45594000000E+02  0.51100000000E-03 0. -1.
    9900012    2    1    2    0    0  0.45774237287E+01  0.57608974480E+01 -0.17220269359E+02  0.72461590195E+02  0.70000025924E+02 0.  0.
        -12    1    1    2    0    0 -0.45774237287E+01 -0.57608974480E+01  0.17220269359E+02  0.18726409805E+02  0.00000000000E+00 0.  1.
         11    1    3    3    0    0  0.25496988185E+02  0.17938899256E+01  0.10005201073E+02  0.27448469836E+02  0.51100000000E-03 0. -1.
        -11    1    3    3    0    0  0.33999178383E+01  0.65158670281E+01 -0.16977096723E+02  0.18499669668E+02  0.51100000000E-03 0.  1.
        -12    1    3    3    0    0 -0.24319482294E+02 -0.25488595057E+01 -0.10248373709E+02  0.26513450691E+02  0.00000000000E+00 0.  1.
</event>
<event>
 7    1  0.1749439E-013  0.7246159E+02  0.7816164E-02  0.1226708E+00
        -11   -1    0    0    0    0  0.00000000000E+00  0.00000000000E+00  0.45593999997E+02  0.45594000000E+02  0.51100000000E-03 0. -1.
         11   -1    0    0    0    0 -0.00000000000E+00 -0.00000000000E+00 -0.45593999997E+02  0.45594000000E+02  0.51100000000E-03 0.  1.
    9900012    2    1    2    0    0  0.42080042351E+01 -0.18210870142E+02 -0.11556036463E+01  0.72461587884E+02  0.70000022913E+02 0.  0.
        -12    1    1    2    0    0 -0.42080042351E+01  0.18210870142E+02  0.11556036463E+01  0.18726412116E+02  0.00000000000E+00 0.  1.
         11    1    3    3    0    0  0.35206589142E+01 -0.87619787911E+01  0.56423565279E+01  0.11000159043E+02  0.51100000000E-03 0. -1.
        -11    1    3    3    0    0 -0.25717193405E+02  0.56887172449E+01  0.81254471423E+01  0.27563715861E+02  0.51100000000E-03 0.  1.
         12    1    3    3    0    0  0.26404538726E+02 -0.15137608596E+02 -0.14923407316E+02  0.33897712980E+02  0.00000000000E+00 0. -1.
</event>
<event>
 7    1  0.1749439E-013  0.7246158E+02  0.7816164E-02  0.1226708E+00
        -11   -1    0    0    0    0  0.00000000000E+00  0.00000000000E+00  0.45593999997E+02  0.45594000000E+02  0.51100000000E-03 0.  1.
         11   -1    0    0    0    0 -0.00000000000E+00 -0.00000000000E+00 -0.45593999997E+02  0.45594000000E+02  0.51100000000E-03 0. -1.
    9900012    2    1    2    0    0  0.69440740153E+00 -0.13403893193E+02 -0.13058800953E+02  0.72461579181E+02  0.70000011577E+02 0.  0.
        -12    1    1    2    0    0 -0.69440740153E+00  0.13403893193E+02  0.13058800953E+02  0.18726420819E+02  0.00000000000E+00 0.  1.
         11    1    3    3    0    0  0.44880420760E+01  0.28450802852E+01 -0.42738832704E+01  0.68193168261E+01  0.51100000000E-03 0. -1.
        -11    1    3    3    0    0 -0.17320022825E+02  0.19692136792E+02  0.10099212179E+00  0.26225438829E+02  0.51100000000E-03 0.  1.
         12    1    3    3    0    0  0.13526388150E+02 -0.35941110270E+02 -0.88859098042E+01  0.39416823526E+02  0.00000000000E+00 0. -1.
</event>
<event>
 7    1  0.1749439E-013  0.7246163E+02  0.7816164E-02  0.1226708E+00
        -11   -1    0    0    0    0  0.00000000000E+00  0.00000000000E+00  0.45593999997E+02  0.45594000000E+02  0.51100000000E-03 0. -1.
         11   -1    0    0    0    0 -0.00000000000E+00 -0.00000000000E+00 -0.45593999997E+02  0.45594000000E+02  0.51100000000E-03 0.  1.
    9900012    2    1    2    0    0 -0.95470252323E+01  0.87393237372E+00  0.16086256840E+02  0.72461625346E+02  0.70000071715E+02 0.  0.
        -12    1    1    2    0    0  0.95470252323E+01 -0.87393237372E+00 -0.16086256840E+02  0.18726374654E+02  0.00000000000E+00 0.  1.
         11    1    3    3    0    0 -0.94745747871E+01  0.53356716749E+01 -0.32659179273E+01  0.11353553619E+02  0.51100000000E-03 0. -1.
        -11    1    3    3    0    0 -0.11438177417E+02 -0.20302743110E+02 -0.10414787703E+02  0.25524519262E+02  0.51100000000E-03 0.  1.
         12    1    3    3    0    0  0.11365726972E+02  0.15841003809E+02  0.29766962470E+02  0.35583552464E+02  0.00000000000E+00 0. -1.
</event>
<event>
 7    1  0.1749439E-013  0.7246181E+02  0.7816164E-02  0.1226707E+00
        -11   -1    0    0    0    0  0.00000000000E+00  0.00000000000E+00  0.45593999997E+02  0.45594000000E+02  0.51100000000E-03 0.  1.
         11   -1    0    0    0    0 -0.00000000000E+00 -0.00000000000E+00 -0.45593999997E+02  0.45594000000E+02  0.51100000000E-03 0. -1.
    9900012    2    1    2    0    0 -0.16233116619E+02 -0.17686075105E+01  0.91666767739E+01  0.72461814837E+02  0.70000318561E+02 0.  0.
        -12    1    1    2    0    0  0.16233116619E+02  0.17686075105E+01 -0.91666767739E+01  0.18726185163E+02  0.00000000000E+00 0.  1.
         11    1    3    3    0    0  0.99674715781E+01  0.43338901501E+01  0.42035808678E+01  0.11653462398E+02  0.51100000000E-03 0. -1.
        -11    1    3    3    0    0  0.11803064637E+02  0.10847988922E+02 -0.70262785388E+01  0.17503136543E+02  0.51100000000E-03 0.  1.
         12    1    3    3    0    0 -0.38003652834E+02 -0.16950486583E+02  0.11989374445E+02  0.43305215895E+02  0.00000000000E+00 0. -1.
</event>
<event>
 7    1  0.1749439E-013  0.7246159E+02  0.7816164E-02  0.1226708E+00
        -11   -1    0    0    0    0  0.00000000000E+00  0.00000000000E+00  0.45593999997E+02  0.45594000000E+02  0.51100000000E-03 0. -1.
         11   -1    0    0    0    0 -0.00000000000E+00 -0.00000000000E+00 -0.45593999997E+02  0.45594000000E+02  0.51100000000E-03 0.  1.
    9900012    2    1    2    0    0  0.23951895866E+01 -0.11428274970E+02  0.14640224091E+02  0.72461586479E+02  0.70000021083E+02 0.  0.
        -12    1    1    2    0    0 -0.23951895866E+01  0.11428274970E+02 -0.14640224091E+02  0.18726413521E+02  0.00000000000E+00 0.  1.
         11    1    3    3    0    0 -0.24415172238E+01  0.84060283461E+01  0.10072664568E+02  0.13344695226E+02  0.51100000000E-03 0. -1.
        -11    1    3    3    0    0 -0.75040414759E+01 -0.17286947758E+02 -0.22446411604E+02  0.29308541339E+02  0.51100000000E-03 0.  1.
         12    1    3    3    0    0  0.12340748286E+02 -0.25473555585E+01  0.27013971126E+02  0.29808349914E+02  0.00000000000E+00 0. -1.
</event>
<event>
 7    1  0.1749439E-013  0.7246162E+02  0.7816164E-02  0.1226708E+00
        -11   -1    0    0    0    0  0.00000000000E+00  0.00000000000E+00  0.45593999997E+02  0.45594000000E+02  0.51100000000E-03 0.  1.
         11   -1    0    0    0    0 -0.00000000000E+00 -0.00000000000E+00 -0.45593999997E+02  0.45594000000E+02  0.51100000000E-03 0. -1.
    9900012    2    1    2    0    0  0.67371171498E-01 -0.12044522435E+02 -0.14338833156E+02  0.72461622992E+02  0.70000068649E+02 0.  0.
        -12    1    1    2    0    0 -0.67371171498E-01  0.12044522435E+02  0.14338833156E+02  0.18726377008E+02  0.00000000000E+00 0.  1.
         11    1    3    3    0    0 -0.28651897743E+01  0.11078319774E+02 -0.13436721747E+01  0.11521455491E+02  0.51100000000E-03 0. -1.
        -11    1    3    3    0    0  0.24072060857E+02 -0.33758999742E+01  0.75564985734E+01  0.25455087615E+02  0.51100000000E-03 0.  1.
         12    1    3    3    0    0 -0.21139499911E+02 -0.19746942235E+02 -0.20551659554E+02  0.35485079887E+02  0.00000000000E+00 0. -1.
</event>
<event>
 7    1  0.1749439E-013  0.7246157E+02  0.7816164E-02  0.1226708E+00
        -11   -1    0    0    0    0  0.00000000000E+00  0.00000000000E+00  0.45593999997E+02  0.45594000000E+02  0.51100000000E-03 0.  1.
         11   -1    0    0    0    0 -0.00000000000E+00 -0.00000000000E+00 -0.45593999997E+02  0.45594000000E+02  0.51100000000E-03 0. -1.
    9900012    2    1    2    0    0  0.11192469356E+02  0.11362529657E+02 -0.98133000414E+01  0.72461566592E+02  0.69999995177E+02 0.  0.
        -12    1    1    2    0    0 -0.11192469356E+02 -0.11362529657E+02  0.98133000414E+01  0.18726433408E+02  0.00000000000E+00 0.  1.
         11    1    3    3    0    0 -0.17836987121E+02  0.19512581267E+02  0.46434705668E+01  0.26841400046E+02  0.51100000000E-03 0. -1.
        -11    1    3    3    0    0 -0.39394892032E+01 -0.42721776808E+01  0.45384414473E+01  0.73735017699E+01  0.51100000000E-03 0.  1.
         12    1    3    3    0    0  0.32968945680E+02 -0.38778739293E+01 -0.18995212056E+02  0.38246664776E+02  0.00000000000E+00 0. -1.
</event>
<event>
 7    1  0.1749439E-013  0.7246152E+02  0.7816164E-02  0.1226708E+00
        -11   -1    0    0    0    0  0.00000000000E+00  0.00000000000E+00  0.45593999997E+02  0.45594000000E+02  0.51100000000E-03 0.  1.
         11   -1    0    0    0    0 -0.00000000000E+00 -0.00000000000E+00 -0.45593999997E+02  0.45594000000E+02  0.51100000000E-03 0. -1.
    9900012    2    1    2    0    0  0.12158665847E+02 -0.14124526973E+02  0.18291238146E+01  0.72461518448E+02  0.69999932460E+02 0.  0.
        -12    1    1    2    0    0 -0.12158665847E+02  0.14124526973E+02 -0.18291238146E+01  0.18726481552E+02  0.00000000000E+00 0.  1.
         11    1    3    3    0    0 -0.76788065729E+01  0.55191621622E+01 -0.63881466837E+01  0.11411995429E+02  0.51100000000E-03 0. -1.
        -11    1    3    3    0    0 -0.16943996238E+02 -0.16122027144E+02  0.53240240652E+01  0.23986746346E+02  0.51100000000E-03 0.  1.
        -12    1    3    3    0    0  0.36781468658E+02 -0.35216619914E+01  0.28932464332E+01  0.37062776673E+02  0.00000000000E+00 0.  1.
</event>
<event>
 7    1  0.1749439E-013  0.7246159E+02  0.7816164E-02  0.1226708E+00
        -11   -1    0    0    0    0  0.00000000000E+00  0.00000000000E+00  0.45593999997E+02  0.45594000000E+02  0.51100000000E-03 0.  1.
         11   -1    0    0    0    0 -0.00000000000E+00 -0.00000000000E+00 -0.45593999997E+02  0.45594000000E+02  0.51100000000E-03 0. -1.
    9900012    2    1    2    0    0 -0.89977909784E+01  0.71898740188E+01  0.14765633502E+02  0.72461589142E+02  0.70000024553E+02 0.  0.
        -12    1    1    2    0    0  0.89977909784E+01 -0.71898740188E+01 -0.14765633502E+02  0.18726410858E+02  0.00000000000E+00 0.  1.
         11    1    3    3    0    0 -0.18722274892E+02  0.27303598025E+02  0.42748811559E+01  0.33380902496E+02  0.51100000000E-03 0. -1.
        -11    1    3    3    0    0  0.54755320310E+01 -0.44325890397E+01 -0.10433785619E+02  0.12589407421E+02  0.51100000000E-03 0.  1.
        -12    1    3    3    0    0  0.42489518828E+01 -0.15681134967E+02  0.20924537965E+02  0.26491279225E+02  0.00000000000E+00 0.  1.
</event>
<event>
 7    1  0.1749439E-013  0.7246162E+02  0.7816164E-02  0.1226708E+00
        -11   -1    0    0    0    0  0.00000000000E+00  0.00000000000E+00  0.45593999997E+02  0.45594000000E+02  0.51100000000E-03 0.  1.
         11   -1    0    0    0    0 -0.00000000000E+00 -0.00000000000E+00 -0.45593999997E+02  0.45594000000E+02  0.51100000000E-03 0. -1.
    9900012    2    1    2    0    0 -0.13198150912E+02 -0.13133254340E+02 -0.20009596775E+01  0.72461617629E+02  0.70000061663E+02 0.  0.
        -12    1    1    2    0    0  0.13198150912E+02  0.13133254340E+02  0.20009596775E+01  0.18726382371E+02  0.00000000000E+00 0.  1.
         11    1    3    3    0    0 -0.14075664884E+02  0.85200739581E+01  0.92166164350E+01  0.18859003710E+02  0.51100000000E-03 0. -1.
        -11    1    3    3    0    0  0.33767992899E+01 -0.98282554863E+00  0.17657119321E+02  0.18003960189E+02  0.51100000000E-03 0.  1.
         12    1    3    3    0    0 -0.24992853181E+01 -0.20670502750E+02 -0.28874695433E+02  0.35598653730E+02  0.00000000000E+00 0. -1.
</event>
<event>
 7    1  0.1749439E-013  0.7246156E+02  0.7816164E-02  0.1226708E+00
        -11   -1    0    0    0    0  0.00000000000E+00  0.00000000000E+00  0.45593999997E+02  0.45594000000E+02  0.51100000000E-03 0.  1.
         11   -1    0    0    0    0 -0.00000000000E+00 -0.00000000000E+00 -0.45593999997E+02  0.45594000000E+02  0.51100000000E-03 0. -1.
    9900012    2    1    2    0    0 -0.48693862920E+01  0.40028069367E+01 -0.17633662302E+02  0.72461563275E+02  0.69999990855E+02 0.  0.
        -12    1    1    2    0    0  0.48693862920E+01 -0.40028069367E+01  0.17633662302E+02  0.18726436725E+02  0.00000000000E+00 0.  1.
         11    1    3    3    0    0  0.15998671736E+02  0.44521653859E+01  0.32627227910E+01  0.16924084442E+02  0.51100000000E-03 0. -1.
        -11    1    3    3    0    0 -0.20534503513E+00  0.14744203197E+02  0.81016648827E+01  0.16824704117E+02  0.51100000000E-03 0.  1.
         12    1    3    3    0    0 -0.20662712993E+02 -0.15193561646E+02 -0.28998049976E+02  0.38712774715E+02  0.00000000000E+00 0. -1.
</event>
<event>
 7    1  0.1749439E-013  0.7246157E+02  0.7816164E-02  0.1226708E+00
        -11   -1    0    0    0    0  0.00000000000E+00  0.00000000000E+00  0.45593999997E+02  0.45594000000E+02  0.51100000000E-03 0.  1.
         11   -1    0    0    0    0 -0.00000000000E+00 -0.00000000000E+00 -0.45593999997E+02  0.45594000000E+02  0.51100000000E-03 0. -1.
    9900012    2    1    2    0    0  0.13432600194E+02  0.50666191695E+01  0.12023877682E+02  0.72461574493E+02  0.70000005469E+02 0.  0.
        -12    1    1    2    0    0 -0.13432600194E+02 -0.50666191695E+01 -0.12023877682E+02  0.18726425507E+02  0.00000000000E+00 0.  1.
         11    1    3    3    0    0 -0.42162516086E+00  0.33626266859E+01 -0.16167027239E+01  0.37548307503E+01  0.51100000000E-03 0. -1.
        -11    1    3    3    0    0  0.19388178881E+02  0.26323203142E+02  0.24880126336E+02  0.41083247081E+02  0.51100000000E-03 0.  1.
         12    1    3    3    0    0 -0.55339535269E+01 -0.24619210658E+02 -0.11239545930E+02  0.27623496661E+02  0.00000000000E+00 0. -1.
</event>
<event>
 7    1  0.1749439E-013  0.7246158E+02  0.7816164E-02  0.1226708E+00
        -11   -1    0    0    0    0  0.00000000000E+00  0.00000000000E+00  0.45593999997E+02  0.45594000000E+02  0.51100000000E-03 0. -1.
         11   -1    0    0    0    0 -0.00000000000E+00 -0.00000000000E+00 -0.45593999997E+02  0.45594000000E+02  0.51100000000E-03 0.  1.
    9900012    2    1    2    0    0 -0.25720494013E+01 -0.97217973392E+00  0.18523453539E+02  0.72461577422E+02  0.70000009285E+02 0.  0.
        -12    1    1    2    0    0  0.25720494013E+01  0.97217973392E+00 -0.18523453539E+02  0.18726422578E+02  0.00000000000E+00 0.  1.
         11    1    3    3    0    0 -0.37458824574E+01 -0.72832105730E+01  0.37220091781E+01  0.89961182862E+01  0.51100000000E-03 0. -1.
        -11    1    3    3    0    0 -0.64180683973E+01 -0.15156768619E+02 -0.17448480327E+02  0.23986844372E+02  0.51100000000E-03 0.  1.
         12    1    3    3    0    0  0.75919014534E+01  0.21467799458E+02  0.32249924688E+02  0.39478614764E+02  0.00000000000E+00 0. -1.
</event>
<event>
 7    1  0.1749439E-013  0.7246150E+02  0.7816164E-02  0.1226708E+00
        -11   -1    0    0    0    0  0.00000000000E+00  0.00000000000E+00  0.45593999997E+02  0.45594000000E+02  0.51100000000E-03 0.  1.
         11   -1    0    0    0    0 -0.00000000000E+00 -0.00000000000E+00 -0.45593999997E+02  0.45594000000E+02  0.51100000000E-03 0. -1.
    9900012    2    1    2    0    0  0.12781419457E+02  0.53416710480E+01 -0.12600937279E+02  0.72461501309E+02  0.69999910133E+02 0.  0.
        -12    1    1    2    0    0 -0.12781419457E+02 -0.53416710480E+01  0.12600937279E+02  0.18726498691E+02  0.00000000000E+00 0.  1.
         11    1    3    3    0    0  0.73550185029E+01  0.19037673606E+02 -0.17555446088E+02  0.26920679805E+02  0.51100000000E-03 0. -1.
        -11    1    3    3    0    0  0.17794220497E+02 -0.97187186773E+01  0.18012583348E+02  0.27120857932E+02  0.51100000000E-03 0.  1.
         12    1    3    3    0    0 -0.12367819543E+02 -0.39772838808E+01 -0.13058074539E+02  0.18419963572E+02  0.00000000000E+00 0. -1.
</event>
<event>
 7    1  0.1749439E-013  0.7246156E+02  0.7816164E-02  0.1226708E+00
        -11   -1    0    0    0    0  0.00000000000E+00  0.00000000000E+00  0.45593999997E+02  0.45594000000E+02  0.51100000000E-03 0.  1.
         11   -1    0    0    0    0 -0.00000000000E+00 -0.00000000000E+00 -0.45593999997E+02  0.45594000000E+02  0.51100000000E-03 0. -1.
    9900012    2    1    2    0    0 -0.14592307763E+02  0.68792631280E+01 -0.95089350803E+01  0.72461560045E+02  0.69999986648E+02 0.  0.
        -12    1    1    2    0    0  0.14592307763E+02 -0.68792631280E+01  0.95089350803E+01  0.18726439955E+02  0.00000000000E+00 0.  1.
         11    1    3    3    0    0  0.17721363411E+02 -0.84293922217E+01  0.27083926956E+01  0.19810016800E+02  0.51100000000E-03 0. -1.
        -11    1    3    3    0    0  0.15990787519E+01 -0.92070087205E+01 -0.16166139473E+01  0.94836439911E+01  0.51100000000E-03 0.  1.
         12    1    3    3    0    0 -0.33912749925E+02  0.24515664070E+02 -0.10600713829E+02  0.43167899254E+02  0.00000000000E+00 0. -1.
</event>
<event>
 7    1  0.1749439E-013  0.7246184E+02  0.7816164E-02  0.1226707E+00
        -11   -1    0    0    0    0  0.00000000000E+00  0.00000000000E+00  0.45593999997E+02  0.45594000000E+02  0.51100000000E-03 0.  1.
         11   -1    0    0    0    0 -0.00000000000E+00 -0.00000000000E+00 -0.45593999997E+02  0.45594000000E+02  0.51100000000E-03 0. -1.
    9900012    2    1    2    0    0  0.21915183730E+01  0.18511562334E+02  0.17855907251E+01  0.72461841102E+02  0.70000352776E+02 0.  0.
        -12    1    1    2    0    0 -0.21915183730E+01 -0.18511562334E+02 -0.17855907251E+01  0.18726158898E+02  0.00000000000E+00 0.  1.
         11    1    3    3    0    0  0.19610023412E+02  0.22281321633E+02  0.88610867074E+01  0.30976267849E+02  0.51100000000E-03 0. -1.
        -11    1    3    3    0    0 -0.43965761936E+01  0.11082800261E+02  0.98560303597E+01  0.15469314095E+02  0.51100000000E-03 0.  1.
         12    1    3    3    0    0 -0.13021928845E+02 -0.14852559560E+02 -0.16931526342E+02  0.26016259158E+02  0.00000000000E+00 0. -1.
</event>
<event>
 7    1  0.1749439E-013  0.7246157E+02  0.7816164E-02  0.1226708E+00
        -11   -1    0    0    0    0  0.00000000000E+00  0.00000000000E+00  0.45593999997E+02  0.45594000000E+02  0.51100000000E-03 0.  1.
         11   -1    0    0    0    0 -0.00000000000E+00 -0.00000000000E+00 -0.45593999997E+02  0.45594000000E+02  0.51100000000E-03 0. -1.
    9900012    2    1    2    0    0 -0.22461260713E+01 -0.17090424501E+02 -0.73178989923E+01  0.72461565807E+02  0.69999994154E+02 0.  0.
        -12    1    1    2    0    0  0.22461260713E+01  0.17090424501E+02  0.73178989923E+01  0.18726434193E+02  0.00000000000E+00 0.  1.
         11    1    3    3    0    0 -0.52576204208E+01 -0.31403744184E+01 -0.30085309307E+01  0.68231798012E+01  0.51100000000E-03 0. -1.
        -11    1    3    3    0    0 -0.26553484363E+02 -0.21485999851E+01  0.12736685825E+02  0.29528413093E+02  0.51100000000E-03 0.  1.
         12    1    3    3    0    0  0.29564978712E+02 -0.11801450097E+02 -0.17046053887E+02  0.36109972913E+02  0.00000000000E+00 0. -1.
</event>
<event>
 7    1  0.1749439E-013  0.7246151E+02  0.7816164E-02  0.1226708E+00
        -11   -1    0    0    0    0  0.00000000000E+00  0.00000000000E+00  0.45593999997E+02  0.45594000000E+02  0.51100000000E-03 0.  1.
         11   -1    0    0    0    0 -0.00000000000E+00 -0.00000000000E+00 -0.45593999997E+02  0.45594000000E+02  0.51100000000E-03 0. -1.
    9900012    2    1    2    0    0  0.10284866124E+02  0.71489539448E+01 -0.13921042814E+02  0.72461509493E+02  0.69999920795E+02 0.  0.
        -12    1    1    2    0    0 -0.10284866124E+02 -0.71489539448E+01  0.13921042814E+02  0.18726490507E+02  0.00000000000E+00 0.  1.
         11    1    3    3    0    0 -0.82674813357E+00  0.23063797214E+02 -0.27318079701E+02  0.35761707639E+02  0.51100000000E-03 0. -1.
        -11    1    3    3    0    0  0.71598405002E+01  0.24062847911E+01 -0.60600638180E+01  0.96838988132E+01  0.51100000000E-03 0.  1.
        -12    1    3    3    0    0  0.39517737570E+01 -0.18321128061E+02  0.19457100706E+02  0.27015903041E+02  0.00000000000E+00 0.  1.
</event>
<event>
 7    1  0.1749439E-013  0.7246152E+02  0.7816164E-02  0.1226708E+00
        -11   -1    0    0    0    0  0.00000000000E+00  0.00000000000E+00  0.45593999997E+02  0.45594000000E+02  0.51100000000E-03 0.  1.
         11   -1    0    0    0    0 -0.00000000000E+00 -0.00000000000E+00 -0.45593999997E+02  0.45594000000E+02  0.51100000000E-03 0. -1.
    9900012    2    1    2    0    0  0.11115867030E+02 -0.14196806628E+02 -0.50565915811E+01  0.72461523111E+02  0.69999938535E+02 0.  0.
        -12    1    1    2    0    0 -0.11115867030E+02  0.14196806628E+02  0.50565915811E+01  0.18726476889E+02  0.00000000000E+00 0.  1.
         11    1    3    3    0    0 -0.12016219974E+02 -0.14023190842E+02  0.71357443510E+01  0.19797936043E+02  0.51100000000E-03 0. -1.
        -11    1    3    3    0    0  0.94271213358E+01 -0.87410069049E+01  0.15782200073E+02  0.20355678760E+02  0.51100000000E-03 0.  1.
        -12    1    3    3    0    0  0.13704965668E+02  0.85673911186E+01 -0.27974536005E+02  0.32307908308E+02  0.00000000000E+00 0.  1.
</event>
<event>
 7    1  0.1749439E-013  0.7246157E+02  0.7816164E-02  0.1226708E+00
        -11   -1    0    0    0    0  0.00000000000E+00  0.00000000000E+00  0.45593999997E+02  0.45594000000E+02  0.51100000000E-03 0.  1.
         11   -1    0    0    0    0 -0.00000000000E+00 -0.00000000000E+00 -0.45593999997E+02  0.45594000000E+02  0.51100000000E-03 0. -1.
    9900012    2    1    2    0    0  0.11430212260E+02 -0.61872313646E+01 -0.13481375008E+02  0.72461573316E+02  0.70000003936E+02 0.  0.
        -12    1    1    2    0    0 -0.11430212260E+02  0.61872313646E+01  0.13481375008E+02  0.18726426684E+02  0.00000000000E+00 0.  1.
         11    1    3    3    0    0  0.38225826009E+02 -0.78741021384E+01 -0.11995040122E+00  0.39028574749E+02  0.51100000000E-03 0. -1.
        -11    1    3    3    0    0  0.92916609771E+00  0.20060744480E+01  0.73364532185E+00  0.23293604374E+01  0.51100000000E-03 0.  1.
        -12    1    3    3    0    0 -0.27724779847E+02 -0.31920367420E+00 -0.14095069929E+02  0.31103638129E+02  0.00000000000E+00 0.  1.
</event>
<event>
 7    1  0.1749439E-013  0.7246147E+02  0.7816164E-02  0.1226708E+00
        -11   -1    0    0    0    0  0.00000000000E+00  0.00000000000E+00  0.45593999997E+02  0.45594000000E+02  0.51100000000E-03 0.  1.
         11   -1    0    0    0    0 -0.00000000000E+00 -0.00000000000E+00 -0.45593999997E+02  0.45594000000E+02  0.51100000000E-03 0. -1.
    9900012    2    1    2    0    0  0.12847720273E+00 -0.57592304969E+01 -0.17818466116E+02  0.72461468633E+02  0.69999867567E+02 0.  0.
        -12    1    1    2    0    0 -0.12847720273E+00  0.57592304969E+01  0.17818466116E+02  0.18726531367E+02  0.00000000000E+00 0.  1.
         11    1    3    3    0    0 -0.19461044668E+02 -0.12880966367E+02 -0.23115952046E+02  0.32848117044E+02  0.51100000000E-03 0. -1.
        -11    1    3    3    0    0  0.12392731467E+02 -0.79002904031E+01 -0.93611271467E+01  0.17424840986E+02  0.51100000000E-03 0.  1.
        -12    1    3    3    0    0  0.71967904035E+01  0.15022026273E+02  0.14658613076E+02  0.22188510603E+02  0.00000000000E+00 0.  1.
</event>
<event>
 7    1  0.1749439E-013  0.7246163E+02  0.7816164E-02  0.1226708E+00
        -11   -1    0    0    0    0  0.00000000000E+00  0.00000000000E+00  0.45593999997E+02  0.45594000000E+02  0.51100000000E-03 0. -1.
         11   -1    0    0    0    0 -0.00000000000E+00 -0.00000000000E+00 -0.45593999997E+02  0.45594000000E+02  0.51100000000E-03 0.  1.
    9900012    2    1    2    0    0  0.17285982809E+01  0.33952061032E+01  0.18334707203E+02  0.72461629163E+02  0.70000076688E+02 0.  0.
        -12    1    1    2    0    0 -0.17285982809E+01 -0.33952061032E+01 -0.18334707203E+02  0.18726370837E+02  0.00000000000E+00 0.  1.
         11    1    3    3    0    0  0.88958594063E+01 -0.84434073132E+01  0.26221930310E+02  0.28948524506E+02  0.51100000000E-03 0. -1.
        -11    1    3    3    0    0  0.10008671113E+02  0.17441341748E+01  0.11754258257E+02  0.15536347348E+02  0.51100000000E-03 0.  1.
        -12    1    3    3    0    0 -0.17175932238E+02  0.10094479242E+02 -0.19641481364E+02  0.27976757310E+02  0.00000000000E+00 0.  1.
</event>
<event>
 7    1  0.1749439E-013  0.7246159E+02  0.7816164E-02  0.1226708E+00
        -11   -1    0    0    0    0  0.00000000000E+00  0.00000000000E+00  0.45593999997E+02  0.45594000000E+02  0.51100000000E-03 0.  1.
         11   -1    0    0    0    0 -0.00000000000E+00 -0.00000000000E+00 -0.45593999997E+02  0.45594000000E+02  0.51100000000E-03 0. -1.
    9900012    2    1    2    0    0 -0.58607748541E+01 -0.74912097501E+01 -0.16131076607E+02  0.72461587158E+02  0.70000021968E+02 0.  0.
        -12    1    1    2    0    0  0.58607748541E+01  0.74912097501E+01  0.16131076607E+02  0.18726412842E+02  0.00000000000E+00 0.  1.
         11    1    3    3    0    0 -0.15218757651E+02 -0.16780342323E+01 -0.47054934539E+00  0.15318217920E+02  0.51100000000E-03 0. -1.
        -11    1    3    3    0    0  0.16056542052E+02 -0.82169229123E+01  0.16354123844E+02  0.24347232528E+02  0.51100000000E-03 0.  1.
         12    1    3    3    0    0 -0.66985592560E+01  0.24037473945E+01 -0.32014651106E+02  0.32796136709E+02  0.00000000000E+00 0. -1.
</event>
<event>
 7    1  0.1749439E-013  0.7246152E+02  0.7816164E-02  0.1226708E+00
        -11   -1    0    0    0    0  0.00000000000E+00  0.00000000000E+00  0.45593999997E+02  0.45594000000E+02  0.51100000000E-03 0.  1.
         11   -1    0    0    0    0 -0.00000000000E+00 -0.00000000000E+00 -0.45593999997E+02  0.45594000000E+02  0.51100000000E-03 0. -1.
    9900012    2    1    2    0    0 -0.90133344726E+01  0.32847647464E+01 -0.16082637821E+02  0.72461518295E+02  0.69999932261E+02 0.  0.
        -12    1    1    2    0    0  0.90133344726E+01 -0.32847647464E+01  0.16082637821E+02  0.18726481705E+02  0.00000000000E+00 0.  1.
         11    1    3    3    0    0  0.25432048029E+02  0.34871234627E+01 -0.23550713833E+02  0.34836550049E+02  0.51100000000E-03 0. -1.
        -11    1    3    3    0    0  0.53927418706E+00 -0.17759783229E+01  0.40821016542E+00  0.19004082331E+01  0.51100000000E-03 0.  1.
        -12    1    3    3    0    0 -0.34984656689E+02  0.15736196066E+01  0.70598658466E+01  0.35724560013E+02  0.00000000000E+00 0.  1.
</event>
<event>
 7    1  0.1749439E-013  0.7246153E+02  0.7816164E-02  0.1226708E+00
        -11   -1    0    0    0    0  0.00000000000E+00  0.00000000000E+00  0.45593999997E+02  0.45594000000E+02  0.51100000000E-03 0.  1.
         11   -1    0    0    0    0 -0.00000000000E+00 -0.00000000000E+00 -0.45593999997E+02  0.45594000000E+02  0.51100000000E-03 0. -1.
    9900012    2    1    2    0    0 -0.16579943132E+02 -0.75561048691E+01 -0.43233475056E+01  0.72461532936E+02  0.69999951334E+02 0.  0.
        -12    1    1    2    0    0  0.16579943132E+02  0.75561048691E+01  0.43233475056E+01  0.18726467064E+02  0.00000000000E+00 0.  1.
         11    1    3    3    0    0 -0.17989446814E+02 -0.93383617033E+01 -0.46942872081E+01  0.20805324526E+02  0.51100000000E-03 0. -1.
        -11    1    3    3    0    0 -0.23649083791E+02 -0.55374452208E+01  0.58463072180E+01  0.24982429267E+02  0.51100000000E-03 0.  1.
         12    1    3    3    0    0  0.25058587473E+02  0.73197020551E+01 -0.54753675155E+01  0.26673779143E+02  0.00000000000E+00 0. -1.
</event>
<event>
 7    1  0.1749439E-013  0.7246167E+02  0.7816164E-02  0.1226708E+00
        -11   -1    0    0    0    0  0.00000000000E+00  0.00000000000E+00  0.45593999997E+02  0.45594000000E+02  0.51100000000E-03 0. -1.
         11   -1    0    0    0    0 -0.00000000000E+00 -0.00000000000E+00 -0.45593999997E+02  0.45594000000E+02  0.51100000000E-03 0.  1.
    9900012    2    1    2    0    0  0.48012224427E+01 -0.13519184044E+02  0.12035591690E+02  0.72461667164E+02  0.70000126190E+02 0.  0.
        -12    1    1    2    0    0 -0.48012224427E+01  0.13519184044E+02 -0.12035591690E+02  0.18726332836E+02  0.00000000000E+00 0.  1.
         11    1    3    3    0    0 -0.10172420607E+02 -0.21780426327E+02 -0.42579997496E+01  0.24413022634E+02  0.51100000000E-03 0. -1.
        -11    1    3    3    0    0 -0.11381952210E+02 -0.79452225319E+01  0.22149494204E+01  0.14056365049E+02  0.51100000000E-03 0.  1.
        -12    1    3    3    0    0  0.26355595259E+02  0.16206464814E+02  0.14078642019E+02  0.33992279482E+02  0.00000000000E+00 0.  1.
</event>
<event>
 7    1  0.1749439E-013  0.7246158E+02  0.7816164E-02  0.1226708E+00
        -11   -1    0    0    0    0  0.00000000000E+00  0.00000000000E+00  0.45593999997E+02  0.45594000000E+02  0.51100000000E-03 0. -1.
         11   -1    0    0    0    0 -0.00000000000E+00 -0.00000000000E+00 -0.45593999997E+02  0.45594000000E+02  0.51100000000E-03 0.  1.
    9900012    2    1    2    0    0  0.17108203544E+02  0.73974361449E+01  0.18072444194E+01  0.72461579562E+02  0.70000012073E+02 0.  0.
        -12    1    1    2    0    0 -0.17108203544E+02 -0.73974361449E+01 -0.18072444194E+01  0.18726420438E+02  0.00000000000E+00 0.  1.
         11    1    3    3    0    0  0.15325948184E+02  0.93374564690E+01 -0.88161945737E+00  0.17968028110E+02  0.51100000000E-03 0. -1.
        -11    1    3    3    0    0  0.25047295162E+02 -0.12513265811E+02  0.62598035533E+01  0.28690311204E+02  0.51100000000E-03 0.  1.
        -12    1    3    3    0    0 -0.23265039802E+02  0.10573245487E+02 -0.35709396765E+01  0.25803240248E+02  0.00000000000E+00 0.  1.
</event>
<event>
 7    1  0.1749439E-013  0.7246110E+02  0.7816164E-02  0.1226709E+00
        -11   -1    0    0    0    0  0.00000000000E+00  0.00000000000E+00  0.45593999997E+02  0.45594000000E+02  0.51100000000E-03 0.  1.
         11   -1    0    0    0    0 -0.00000000000E+00 -0.00000000000E+00 -0.45593999997E+02  0.45594000000E+02  0.51100000000E-03 0. -1.
    9900012    2    1    2    0    0  0.36460832292E+01 -0.70752536411E+01 -0.16951215852E+02  0.72461098071E+02  0.69999384839E+02 0.  0.
        -12    1    1    2    0    0 -0.36460832292E+01  0.70752536411E+01  0.16951215852E+02  0.18726901929E+02  0.00000000000E+00 0.  1.
         11    1    3    3    0    0  0.27751843312E+02 -0.12374610276E+02 -0.13029382347E+02  0.33061466866E+02  0.51100000000E-03 0. -1.
        -11    1    3    3    0    0  0.35254993844E+01 -0.27740391553E+01  0.72463364856E+01  0.85225484374E+01  0.51100000000E-03 0.  1.
        -12    1    3    3    0    0 -0.27631259467E+02  0.80733957900E+01 -0.11168169990E+02  0.30877082768E+02  0.00000000000E+00 0.  1.
</event>
<event>
 7    1  0.1749439E-013  0.7246157E+02  0.7816164E-02  0.1226708E+00
        -11   -1    0    0    0    0  0.00000000000E+00  0.00000000000E+00  0.45593999997E+02  0.45594000000E+02  0.51100000000E-03 0.  1.
         11   -1    0    0    0    0 -0.00000000000E+00 -0.00000000000E+00 -0.45593999997E+02  0.45594000000E+02  0.51100000000E-03 0. -1.
    9900012    2    1    2    0    0  0.60181901228E+01 -0.48760513957E+01 -0.17049474115E+02  0.72461573295E+02  0.70000003908E+02 0.  0.
        -12    1    1    2    0    0 -0.60181901228E+01  0.48760513957E+01  0.17049474115E+02  0.18726426705E+02  0.00000000000E+00 0.  1.
         11    1    3    3    0    0  0.25656056242E+01  0.12377030165E+02  0.15079093158E+02  0.19676185063E+02  0.51100000000E-03 0. -1.
        -11    1    3    3    0    0  0.12140411439E+02 -0.23434877614E+02 -0.10003537896E+02  0.28225057120E+02  0.51100000000E-03 0.  1.
         12    1    3    3    0    0 -0.86878269407E+01  0.61817960536E+01 -0.22125029377E+02  0.24560331112E+02  0.00000000000E+00 0. -1.
</event>
<event>
 7    1  0.1749439E-013  0.7246176E+02  0.7816164E-02  0.1226708E+00
        -11   -1    0    0    0    0  0.00000000000E+00  0.00000000000E+00  0.45593999997E+02  0.45594000000E+02  0.51100000000E-03 0.  1.
         11   -1    0    0    0    0 -0.00000000000E+00 -0.00000000000E+00 -0.45593999997E+02  0.45594000000E+02  0.51100000000E-03 0. -1.
    9900012    2    1    2    0    0  0.10798911807E+02 -0.79495361719E+01 -0.13071358036E+02  0.72461761123E+02  0.70000248589E+02 0.  0.
        -12    1    1    2    0    0 -0.10798911807E+02  0.79495361719E+01  0.13071358036E+02  0.18726238877E+02  0.00000000000E+00 0.  1.
         11    1    3    3    0    0 -0.82336473519E-01 -0.68659974608E+01 -0.17115511872E+01  0.70765887371E+01  0.51100000000E-03 0. -1.
        -11    1    3    3    0    0  0.14600007877E+02  0.18194456446E+02 -0.30209274210E+02  0.38168032749E+02  0.51100000000E-03 0.  1.
         12    1    3    3    0    0 -0.37187595967E+01 -0.19277995158E+02  0.18849467360E+02  0.27217139637E+02  0.00000000000E+00 0. -1.
</event>
<event>
 7    1  0.1749439E-013  0.7246158E+02  0.7816164E-02  0.1226708E+00
        -11   -1    0    0    0    0  0.00000000000E+00  0.00000000000E+00  0.45593999997E+02  0.45594000000E+02  0.51100000000E-03 0.  1.
         11   -1    0    0    0    0 -0.00000000000E+00 -0.00000000000E+00 -0.45593999997E+02  0.45594000000E+02  0.51100000000E-03 0. -1.
    9900012    2    1    2    0    0  0.18446332029E+02 -0.34819123064E+00 -0.32078425886E+01  0.72461583991E+02  0.70000017842E+02 0.  0.
        -12    1    1    2    0    0 -0.18446332029E+02  0.34819123064E+00  0.32078425886E+01  0.18726416009E+02  0.00000000000E+00 0.  1.
         11    1    3    3    0    0 -0.15020063160E+02 -0.58718494236E+01 -0.60895657492E+00  0.16138517322E+02  0.51100000000E-03 0.  1.
        -11    1    3    3    0    0  0.30822674738E+02  0.22062495124E+02 -0.79704982720E+01  0.38733961998E+02  0.51100000000E-03 0. -1.
         12    1    3    3    0    0  0.26437204512E+01 -0.16538836931E+02  0.53716122583E+01  0.17589104671E+02  0.00000000000E+00 0. -1.
</event>
<event>
 7    1  0.1749439E-013  0.7246139E+02  0.7816164E-02  0.1226708E+00
        -11   -1    0    0    0    0  0.00000000000E+00  0.00000000000E+00  0.45593999997E+02  0.45594000000E+02  0.51100000000E-03 0.  1.
         11   -1    0    0    0    0 -0.00000000000E+00 -0.00000000000E+00 -0.45593999997E+02  0.45594000000E+02  0.51100000000E-03 0. -1.
    9900012    2    1    2    0    0  0.17073366515E+02  0.58791363400E+01 -0.49620335350E+01  0.72461391523E+02  0.69999767116E+02 0.  0.
        -12    1    1    2    0    0 -0.17073366515E+02 -0.58791363400E+01  0.49620335350E+01  0.18726608477E+02  0.00000000000E+00 0.  1.
         11    1    3    3    0    0  0.24922171862E+01  0.16761098608E+01  0.77974319387E+01  0.83558623653E+01  0.51100000000E-03 0. -1.
        -11    1    3    3    0    0  0.20913001310E+02  0.27455275169E+02 -0.18744220592E+02  0.39274566379E+02  0.51100000000E-03 0.  1.
         12    1    3    3    0    0 -0.63318519815E+01 -0.23252248690E+02  0.59847551182E+01  0.24830962778E+02  0.00000000000E+00 0. -1.
</event>
<event>
 7    1  0.1749439E-013  0.7246160E+02  0.7816164E-02  0.1226708E+00
        -11   -1    0    0    0    0  0.00000000000E+00  0.00000000000E+00  0.45593999997E+02  0.45594000000E+02  0.51100000000E-03 0.  1.
         11   -1    0    0    0    0 -0.00000000000E+00 -0.00000000000E+00 -0.45593999997E+02  0.45594000000E+02  0.51100000000E-03 0. -1.
    9900012    2    1    2    0    0 -0.69007418123E+01 -0.59940527136E+01 -0.16344085770E+02  0.72461600316E+02  0.70000039108E+02 0.  0.
        -12    1    1    2    0    0  0.69007418123E+01  0.59940527136E+01  0.16344085770E+02  0.18726399684E+02  0.00000000000E+00 0.  1.
         11    1    3    3    0    0 -0.91257236280E+01  0.28177082571E+02 -0.64446146573E+01  0.30311051982E+02  0.51100000000E-03 0. -1.
        -11    1    3    3    0    0 -0.82866990324E+01 -0.82342632435E+01 -0.78808094317E+01  0.14091828468E+02  0.51100000000E-03 0.  1.
        -12    1    3    3    0    0  0.10511680848E+02 -0.25936872041E+02 -0.20186616806E+01  0.28058719865E+02  0.00000000000E+00 0.  1.
</event>
<event>
 7    1  0.1749439E-013  0.7246162E+02  0.7816164E-02  0.1226708E+00
        -11   -1    0    0    0    0  0.00000000000E+00  0.00000000000E+00  0.45593999997E+02  0.45594000000E+02  0.51100000000E-03 0. -1.
         11   -1    0    0    0    0 -0.00000000000E+00 -0.00000000000E+00 -0.45593999997E+02  0.45594000000E+02  0.51100000000E-03 0.  1.
    9900012    2    1    2    0    0  0.12968609919E+02  0.12492681385E+02 -0.51405533520E+01  0.72461622342E+02  0.70000067801E+02 0.  0.
        -12    1    1    2    0    0 -0.12968609919E+02 -0.12492681385E+02  0.51405533520E+01  0.18726377658E+02  0.00000000000E+00 0.  1.
         11    1    3    3    0    0  0.31046629506E+02  0.14251777086E+01 -0.98629373377E+01  0.32606776418E+02  0.51100000000E-03 0. -1.
        -11    1    3    3    0    0  0.36590361040E+01 -0.83924325655E+01 -0.30710121681E+01  0.96567378330E+01  0.51100000000E-03 0.  1.
        -12    1    3    3    0    0 -0.21737055691E+02  0.19459936242E+02  0.77933961539E+01  0.30198108091E+02  0.00000000000E+00 0.  1.
</event>
<event>
 7    1  0.1749439E-013  0.7246188E+02  0.7816164E-02  0.1226707E+00
        -11   -1    0    0    0    0  0.00000000000E+00  0.00000000000E+00  0.45593999997E+02  0.45594000000E+02  0.51100000000E-03 0. -1.
         11   -1    0    0    0    0 -0.00000000000E+00 -0.00000000000E+00 -0.45593999997E+02  0.45594000000E+02  0.51100000000E-03 0.  1.
    9900012    2    1    2    0    0 -0.15858137411E+02  0.10227191438E+01  0.99066200539E+01  0.72461879273E+02  0.70000402501E+02 0.  0.
        -12    1    1    2    0    0  0.15858137411E+02 -0.10227191438E+01 -0.99066200539E+01  0.18726120727E+02  0.00000000000E+00 0.  1.
         11    1    3    3    0    0 -0.17197663599E+02  0.51795511812E+01 -0.52406344446E+01  0.18709666842E+02  0.51100000000E-03 0. -1.
        -11    1    3    3    0    0  0.18119167858E+02  0.29348673203E+01 -0.11361892214E+02  0.21587271365E+02  0.51100000000E-03 0.  1.
         12    1    3    3    0    0 -0.16779641669E+02 -0.70916993578E+01  0.26509146713E+02  0.32164941066E+02  0.00000000000E+00 0. -1.
</event>
<event>
 7    1  0.1749439E-013  0.7246155E+02  0.7816164E-02  0.1226708E+00
        -11   -1    0    0    0    0  0.00000000000E+00  0.00000000000E+00  0.45593999997E+02  0.45594000000E+02  0.51100000000E-03 0.  1.
         11   -1    0    0    0    0 -0.00000000000E+00 -0.00000000000E+00 -0.45593999997E+02  0.45594000000E+02  0.51100000000E-03 0. -1.
    9900012    2    1    2    0    0  0.87580717954E+01 -0.14416388207E+02 -0.81328859904E+01  0.72461550655E+02  0.69999974417E+02 0.  0.
        -12    1    1    2    0    0 -0.87580717954E+01  0.14416388207E+02  0.81328859904E+01  0.18726449345E+02  0.00000000000E+00 0.  1.
         11    1    3    3    0    0 -0.95789091907E+01  0.82607393507E+01 -0.29336369869E+01  0.12984665654E+02  0.51100000000E-03 0. -1.
        -11    1    3    3    0    0  0.41248382799E+01  0.13663364185E+02  0.10184074013E+02  0.17533316157E+02  0.51100000000E-03 0.  1.
         12    1    3    3    0    0  0.14212142706E+02 -0.36340491743E+02 -0.15383323016E+02  0.41943568845E+02  0.00000000000E+00 0. -1.
</event>
<event>
 7    1  0.1749439E-013  0.7246155E+02  0.7816164E-02  0.1226708E+00
        -11   -1    0    0    0    0  0.00000000000E+00  0.00000000000E+00  0.45593999997E+02  0.45594000000E+02  0.51100000000E-03 0.  1.
         11   -1    0    0    0    0 -0.00000000000E+00 -0.00000000000E+00 -0.45593999997E+02  0.45594000000E+02  0.51100000000E-03 0. -1.
    9900012    2    1    2    0    0  0.14947309577E+02 -0.47192730268E+00 -0.11270994526E+02  0.72461545542E+02  0.69999967756E+02 0.  0.
        -12    1    1    2    0    0 -0.14947309577E+02  0.47192730268E+00  0.11270994526E+02  0.18726454458E+02  0.00000000000E+00 0.  1.
         11    1    3    3    0    0  0.25744888478E+02 -0.22390418611E+02 -0.88172964258E+01  0.35240244676E+02  0.51100000000E-03 0. -1.
        -11    1    3    3    0    0  0.18758436187E+01  0.90269345247E-01  0.92218501124E+01  0.94111347665E+01  0.51100000000E-03 0.  1.
        -12    1    3    3    0    0 -0.12673422520E+02  0.21828221963E+02 -0.11675548212E+02  0.27810166100E+02  0.00000000000E+00 0.  1.
</event>
<event>
 7    1  0.1749439E-013  0.7246157E+02  0.7816164E-02  0.1226708E+00
        -11   -1    0    0    0    0  0.00000000000E+00  0.00000000000E+00  0.45593999997E+02  0.45594000000E+02  0.51100000000E-03 0.  1.
         11   -1    0    0    0    0 -0.00000000000E+00 -0.00000000000E+00 -0.45593999997E+02  0.45594000000E+02  0.51100000000E-03 0. -1.
    9900012    2    1    2    0    0 -0.63862672560E+01  0.14768563247E+02 -0.95804198558E+01  0.72461566424E+02  0.69999994958E+02 0.  0.
        -12    1    1    2    0    0  0.63862672560E+01 -0.14768563247E+02  0.95804198558E+01  0.18726433576E+02  0.00000000000E+00 0.  1.
         11    1    3    3    0    0 -0.16332499144E+02 -0.13600769976E+01 -0.17583894349E+02  0.24037339256E+02  0.51100000000E-03 0. -1.
        -11    1    3    3    0    0 -0.13739466298E+01  0.28719421915E+02  0.11788098352E+02  0.31074944690E+02  0.51100000000E-03 0.  1.
         12    1    3    3    0    0  0.11320178518E+02 -0.12590781670E+02 -0.37846238589E+01  0.17349282478E+02  0.00000000000E+00 0. -1.
</event>
<event>
 7    1  0.1749439E-013  0.7246161E+02  0.7816164E-02  0.1226708E+00
        -11   -1    0    0    0    0  0.00000000000E+00  0.00000000000E+00  0.45593999997E+02  0.45594000000E+02  0.51100000000E-03 0.  1.
         11   -1    0    0    0    0 -0.00000000000E+00 -0.00000000000E+00 -0.45593999997E+02  0.45594000000E+02  0.51100000000E-03 0. -1.
    9900012    2    1    2    0    0 -0.17101720848E+02 -0.69431951817E+01  0.31624008601E+01  0.72461612348E+02  0.70000054783E+02 0.  0.
        -12    1    1    2    0    0  0.17101720848E+02  0.69431951817E+01 -0.31624008601E+01  0.18726387652E+02  0.00000000000E+00 0.  1.
         11    1    3    3    0    0  0.81248183973E+01  0.77831737638E+01 -0.24617339966E+01  0.11517404324E+02  0.51100000000E-03 0. -1.
        -11    1    3    3    0    0  0.14536897000E+02 -0.76159868122E+01 -0.80751908473E+01  0.18290252513E+02  0.51100000000E-03 0.  1.
         12    1    3    3    0    0 -0.39763436245E+02 -0.71103821332E+01  0.13699325704E+02  0.42653955512E+02  0.00000000000E+00 0. -1.
</event>
<event>
 7    1  0.1749439E-013  0.7246155E+02  0.7816164E-02  0.1226708E+00
        -11   -1    0    0    0    0  0.00000000000E+00  0.00000000000E+00  0.45593999997E+02  0.45594000000E+02  0.51100000000E-03 0.  1.
         11   -1    0    0    0    0 -0.00000000000E+00 -0.00000000000E+00 -0.45593999997E+02  0.45594000000E+02  0.51100000000E-03 0. -1.
    9900012    2    1    2    0    0 -0.14152465419E+02  0.95199234508E+01 -0.77303859798E+01  0.72461545789E+02  0.69999968077E+02 0.  0.
        -12    1    1    2    0    0  0.14152465419E+02 -0.95199234508E+01  0.77303859798E+01  0.18726454211E+02  0.00000000000E+00 0.  1.
         11    1    3    3    0    0 -0.14832572787E+01  0.32240693247E+01  0.11654712535E+02  0.12183062000E+02  0.51100000000E-03 0.  1.
        -11    1    3    3    0    0 -0.37314813566E+01 -0.10905041011E+02 -0.34065481632E+02  0.35962493123E+02  0.51100000000E-03 0. -1.
         12    1    3    3    0    0 -0.89377267832E+01  0.17200895137E+02  0.14680383118E+02  0.24315990665E+02  0.00000000000E+00 0. -1.
</event>
<event>
 7    1  0.1749439E-013  0.7246157E+02  0.7816164E-02  0.1226708E+00
        -11   -1    0    0    0    0  0.00000000000E+00  0.00000000000E+00  0.45593999997E+02  0.45594000000E+02  0.51100000000E-03 0. -1.
         11   -1    0    0    0    0 -0.00000000000E+00 -0.00000000000E+00 -0.45593999997E+02  0.45594000000E+02  0.51100000000E-03 0.  1.
    9900012    2    1    2    0    0  0.10080123236E+02 -0.50075686214E+00  0.15774018741E+02  0.72461566567E+02  0.69999995144E+02 0.  0.
        -12    1    1    2    0    0 -0.10080123236E+02  0.50075686214E+00 -0.15774018741E+02  0.18726433433E+02  0.00000000000E+00 0.  1.
         11    1    3    3    0    0  0.12100486244E+02 -0.66198942388E+00  0.30878987934E+02  0.33171853934E+02  0.51100000000E-03 0. -1.
        -11    1    3    3    0    0 -0.13243463202E+02 -0.13133904767E+02 -0.99686485485E+01  0.21148586860E+02  0.51100000000E-03 0.  1.
         12    1    3    3    0    0  0.11223100194E+02  0.13295137329E+02 -0.51363206443E+01  0.18141125773E+02  0.00000000000E+00 0. -1.
</event>
<event>
 7    1  0.1749439E-013  0.7246150E+02  0.7816164E-02  0.1226708E+00
        -11   -1    0    0    0    0  0.00000000000E+00  0.00000000000E+00  0.45593999997E+02  0.45594000000E+02  0.51100000000E-03 0.  1.
         11   -1    0    0    0    0 -0.00000000000E+00 -0.00000000000E+00 -0.45593999997E+02  0.45594000000E+02  0.51100000000E-03 0. -1.
    9900012    2    1    2    0    0  0.30435285820E+00 -0.17211681073E+02  0.73720564865E+01  0.72461499717E+02  0.69999908059E+02 0.  0.
        -12    1    1    2    0    0 -0.30435285820E+00  0.17211681073E+02 -0.73720564865E+01  0.18726500283E+02  0.00000000000E+00 0.  1.
         11    1    3    3    0    0 -0.20986281559E+01  0.39061817949E+01  0.48152675101E+01  0.65459375040E+01  0.51100000000E-03 0.  1.
        -11    1    3    3    0    0  0.99469428119E+01 -0.41657041227E+02 -0.41531394197E+01  0.43029052074E+02  0.51100000000E-03 0. -1.
         12    1    3    3    0    0 -0.75439617979E+01  0.20539178359E+02  0.67099283960E+01  0.22886510139E+02  0.00000000000E+00 0. -1.
</event>
<event>
 7    1  0.1749439E-013  0.7246157E+02  0.7816164E-02  0.1226708E+00
        -11   -1    0    0    0    0  0.00000000000E+00  0.00000000000E+00  0.45593999997E+02  0.45594000000E+02  0.51100000000E-03 0. -1.
         11   -1    0    0    0    0 -0.00000000000E+00 -0.00000000000E+00 -0.45593999997E+02  0.45594000000E+02  0.51100000000E-03 0.  1.
    9900012    2    1    2    0    0 -0.66487662533E+01 -0.73650872855E+01  0.15881710387E+02  0.72461566057E+02  0.69999994480E+02 0.  0.
        -12    1    1    2    0    0  0.66487662533E+01  0.73650872855E+01 -0.15881710387E+02  0.18726433943E+02  0.00000000000E+00 0.  1.
         11    1    3    3    0    0 -0.18566340255E+02  0.66036518108E+01 -0.22633533357E+01  0.19835321432E+02  0.51100000000E-03 0. -1.
        -11    1    3    3    0    0 -0.61631692682E+01 -0.27703602444E+01 -0.13152294640E+02  0.14786561665E+02  0.51100000000E-03 0.  1.
        -12    1    3    3    0    0  0.18080743270E+02 -0.11198378852E+02  0.31297358362E+02  0.37839682961E+02  0.00000000000E+00 0.  1.
</event>
<event>
 7    1  0.1749439E-013  0.7246155E+02  0.7816164E-02  0.1226708E+00
        -11   -1    0    0    0    0  0.00000000000E+00  0.00000000000E+00  0.45593999997E+02  0.45594000000E+02  0.51100000000E-03 0.  1.
         11   -1    0    0    0    0 -0.00000000000E+00 -0.00000000000E+00 -0.45593999997E+02  0.45594000000E+02  0.51100000000E-03 0. -1.
    9900012    2    1    2    0    0 -0.11386829274E+02  0.14824067342E+02  0.11255650186E+01  0.72461554793E+02  0.69999979807E+02 0.  0.
        -12    1    1    2    0    0  0.11386829274E+02 -0.14824067342E+02 -0.11255650186E+01  0.18726445207E+02  0.00000000000E+00 0.  1.
         11    1    3    3    0    0 -0.56260802545E+01  0.38201327546E+01 -0.24424339747E+02  0.25353393572E+02  0.51100000000E-03 0. -1.
        -11    1    3    3    0    0  0.14460325025E+02 -0.85981364295E+00  0.34535068957E+01  0.14891843051E+02  0.51100000000E-03 0.  1.
        -12    1    3    3    0    0 -0.20221074045E+02  0.11863748230E+02  0.22096397870E+02  0.32216318170E+02  0.00000000000E+00 0.  1.
</event>
<event>
 7    1  0.1749439E-013  0.7246156E+02  0.7816164E-02  0.1226708E+00
        -11   -1    0    0    0    0  0.00000000000E+00  0.00000000000E+00  0.45593999997E+02  0.45594000000E+02  0.51100000000E-03 0. -1.
         11   -1    0    0    0    0 -0.00000000000E+00 -0.00000000000E+00 -0.45593999997E+02  0.45594000000E+02  0.51100000000E-03 0.  1.
    9900012    2    1    2    0    0  0.67776020901E+01  0.46989255464E+01  0.16812606873E+02  0.72461560369E+02  0.69999987070E+02 0.  0.
        -12    1    1    2    0    0 -0.67776020901E+01 -0.46989255464E+01 -0.16812606873E+02  0.18726439631E+02  0.00000000000E+00 0.  1.
         11    1    3    3    0    0 -0.10107889191E+02 -0.63560636636E+01  0.32814453997E+02  0.34919297825E+02  0.51100000000E-03 0. -1.
        -11    1    3    3    0    0  0.41081355315E+01  0.16829756449E+01  0.77842629627E+01  0.89612462694E+01  0.51100000000E-03 0.  1.
        -12    1    3    3    0    0  0.12777355749E+02  0.93720135651E+01 -0.23786110087E+02  0.28581016274E+02  0.00000000000E+00 0.  1.
</event>
<event>
 7    1  0.1749439E-013  0.7246162E+02  0.7816164E-02  0.1226708E+00
        -11   -1    0    0    0    0  0.00000000000E+00  0.00000000000E+00  0.45593999997E+02  0.45594000000E+02  0.51100000000E-03 0.  1.
         11   -1    0    0    0    0 -0.00000000000E+00 -0.00000000000E+00 -0.45593999997E+02  0.45594000000E+02  0.51100000000E-03 0. -1.
    9900012    2    1    2    0    0 -0.10102598661E+01  0.12322669067E+01 -0.18658457159E+02  0.72461624743E+02  0.70000070929E+02 0.  0.
        -12    1    1    2    0    0  0.10102598661E+01 -0.12322669067E+01  0.18658457159E+02  0.18726375257E+02  0.00000000000E+00 0.  1.
         11    1    3    3    0    0 -0.47095624708E+00 -0.15857638001E+02 -0.83239515994E+01  0.17915765495E+02  0.51100000000E-03 0. -1.
        -11    1    3    3    0    0 -0.10400880257E+01 -0.98437188695E+01  0.14732346414E+02  0.17748876455E+02  0.51100000000E-03 0.  1.
         12    1    3    3    0    0  0.50078440670E+00  0.26933623778E+02 -0.25066851974E+02  0.36796982793E+02  0.00000000000E+00 0. -1.
</event>
<event>
 7    1  0.1749439E-013  0.7246177E+02  0.7816164E-02  0.1226707E+00
        -11   -1    0    0    0    0  0.00000000000E+00  0.00000000000E+00  0.45593999997E+02  0.45594000000E+02  0.51100000000E-03 0.  1.
         11   -1    0    0    0    0 -0.00000000000E+00 -0.00000000000E+00 -0.45593999997E+02  0.45594000000E+02  0.51100000000E-03 0. -1.
    9900012    2    1    2    0    0  0.15162035938E+02 -0.10700675706E+02 -0.25060033469E+01  0.72461765805E+02  0.70000254688E+02 0.  0.
        -12    1    1    2    0    0 -0.15162035938E+02  0.10700675706E+02  0.25060033469E+01  0.18726234195E+02  0.00000000000E+00 0.  1.
         11    1    3    3    0    0  0.45695630612E+01 -0.13956473088E+02 -0.10161007783E+02  0.17858054963E+02  0.51100000000E-03 0. -1.
        -11    1    3    3    0    0 -0.17288288537E+02 -0.39785120792E+01 -0.10443245817E+02  0.20585792730E+02  0.51100000000E-03 0.  1.
        -12    1    3    3    0    0  0.27880761414E+02  0.72343094612E+01  0.18098250253E+02  0.34017918111E+02  0.00000000000E+00 0.  1.
</event>
<event>
 7    1  0.1749439E-013  0.7246157E+02  0.7816164E-02  0.1226708E+00
        -11   -1    0    0    0    0  0.00000000000E+00  0.00000000000E+00  0.45593999997E+02  0.45594000000E+02  0.51100000000E-03 0.  1.
         11   -1    0    0    0    0 -0.00000000000E+00 -0.00000000000E+00 -0.45593999997E+02  0.45594000000E+02  0.51100000000E-03 0. -1.
    9900012    2    1    2    0    0 -0.17471146511E+02 -0.33390201181E+01 -0.58556971212E+01  0.72461569360E+02  0.69999998782E+02 0.  0.
        -12    1    1    2    0    0  0.17471146511E+02  0.33390201181E+01  0.58556971212E+01  0.18726430640E+02  0.00000000000E+00 0.  1.
         11    1    3    3    0    0 -0.29994536422E+02 -0.68114474680E+01 -0.10740936767E+02  0.32579683158E+02  0.51100000000E-03 0. -1.
        -11    1    3    3    0    0 -0.76706903733E+01 -0.15471737406E+01 -0.11142825137E+02  0.13616012253E+02  0.51100000000E-03 0.  1.
        -12    1    3    3    0    0  0.20194080284E+02  0.50196010904E+01  0.16028064782E+02  0.26265873949E+02  0.00000000000E+00 0.  1.
</event>
<event>
 7    1  0.1749439E-013  0.7246159E+02  0.7816164E-02  0.1226708E+00
        -11   -1    0    0    0    0  0.00000000000E+00  0.00000000000E+00  0.45593999997E+02  0.45594000000E+02  0.51100000000E-03 0. -1.
         11   -1    0    0    0    0 -0.00000000000E+00 -0.00000000000E+00 -0.45593999997E+02  0.45594000000E+02  0.51100000000E-03 0.  1.
    9900012    2    1    2    0    0 -0.34300135849E+01  0.12496115524E+02  0.13518901278E+02  0.72461585817E+02  0.70000020221E+02 0.  0.
        -12    1    1    2    0    0  0.34300135849E+01 -0.12496115524E+02 -0.13518901278E+02  0.18726414183E+02  0.00000000000E+00 0.  1.
         11    1    3    3    0    0  0.82286627180E+01 -0.48829092285E+01 -0.61977689009E+01  0.11400264570E+02  0.51100000000E-03 0. -1.
        -11    1    3    3    0    0  0.10661482089E+02  0.15410337829E+02 -0.11982530020E+02  0.22242453513E+02  0.51100000000E-03 0.  1.
         12    1    3    3    0    0 -0.22320158392E+02  0.19686869236E+01  0.31699200199E+02  0.38818867734E+02  0.00000000000E+00 0. -1.
</event>
<event>
 7    1  0.1749439E-013  0.7246176E+02  0.7816164E-02  0.1226708E+00
        -11   -1    0    0    0    0  0.00000000000E+00  0.00000000000E+00  0.45593999997E+02  0.45594000000E+02  0.51100000000E-03 0.  1.
         11   -1    0    0    0    0 -0.00000000000E+00 -0.00000000000E+00 -0.45593999997E+02  0.45594000000E+02  0.51100000000E-03 0. -1.
    9900012    2    1    2    0    0  0.18624147004E+02  0.15177711667E+01  0.12286417740E+01  0.72461760614E+02  0.70000247926E+02 0.  0.
        -12    1    1    2    0    0 -0.18624147004E+02 -0.15177711667E+01 -0.12286417740E+01  0.18726239386E+02  0.00000000000E+00 0.  1.
         11    1    3    3    0    0  0.30094133717E+02 -0.11462815452E+02 -0.21579573180E+01  0.32275529466E+02  0.51100000000E-03 0. -1.
        -11    1    3    3    0    0  0.66763006401E+01  0.95137636012E+01  0.14533544390E+02  0.18609368632E+02  0.51100000000E-03 0.  1.
         12    1    3    3    0    0 -0.18146287353E+02  0.34668230177E+01 -0.11146945298E+02  0.21576862516E+02  0.00000000000E+00 0. -1.
</event>
<event>
 7    1  0.1749439E-013  0.7246139E+02  0.7816164E-02  0.1226708E+00
        -11   -1    0    0    0    0  0.00000000000E+00  0.00000000000E+00  0.45593999997E+02  0.45594000000E+02  0.51100000000E-03 0. -1.
         11   -1    0    0    0    0 -0.00000000000E+00 -0.00000000000E+00 -0.45593999997E+02  0.45594000000E+02  0.51100000000E-03 0.  1.
    9900012    2    1    2    0    0 -0.14075065395E+02  0.76741479095E+01  0.96791465981E+01  0.72461390833E+02  0.69999766218E+02 0.  0.
        -12    1    1    2    0    0  0.14075065395E+02 -0.76741479095E+01 -0.96791465981E+01  0.18726609167E+02  0.00000000000E+00 0.  1.
         11    1    3    3    0    0 -0.16617878840E+02  0.11492681005E+01 -0.59778100743E+01  0.17697709678E+02  0.51100000000E-03 0. -1.
        -11    1    3    3    0    0  0.14065458333E+02  0.22941678153E+02 -0.33665449516E+01  0.27119943580E+02  0.51100000000E-03 0.  1.
         12    1    3    3    0    0 -0.11522644888E+02 -0.16416798345E+02  0.19023501624E+02  0.27643737576E+02  0.00000000000E+00 0. -1.
</event>
<event>
 7    1  0.1749439E-013  0.7246151E+02  0.7816164E-02  0.1226708E+00
        -11   -1    0    0    0    0  0.00000000000E+00  0.00000000000E+00  0.45593999997E+02  0.45594000000E+02  0.51100000000E-03 0.  1.
         11   -1    0    0    0    0 -0.00000000000E+00 -0.00000000000E+00 -0.45593999997E+02  0.45594000000E+02  0.51100000000E-03 0. -1.
    9900012    2    1    2    0    0  0.12383509370E+02  0.29502915318E+01 -0.13734118963E+02  0.72461506785E+02  0.69999917267E+02 0.  0.
        -12    1    1    2    0    0 -0.12383509370E+02 -0.29502915318E+01  0.13734118963E+02  0.18726493215E+02  0.00000000000E+00 0.  1.
         11    1    3    3    0    0  0.17097503237E+02  0.19882360801E+02  0.14068604823E+02  0.29758335469E+02  0.51100000000E-03 0. -1.
        -11    1    3    3    0    0  0.61548414063E+01 -0.86171822786E+01  0.11771443918E+01  0.10654744124E+02  0.51100000000E-03 0.  1.
         12    1    3    3    0    0 -0.10868835273E+02 -0.83148869905E+01 -0.28979868178E+02  0.32048427192E+02  0.00000000000E+00 0. -1.
</event>
<event>
 7    1  0.1749439E-013  0.7246157E+02  0.7816164E-02  0.1226708E+00
        -11   -1    0    0    0    0  0.00000000000E+00  0.00000000000E+00  0.45593999997E+02  0.45594000000E+02  0.51100000000E-03 0. -1.
         11   -1    0    0    0    0 -0.00000000000E+00 -0.00000000000E+00 -0.45593999997E+02  0.45594000000E+02  0.51100000000E-03 0.  1.
    9900012    2    1    2    0    0  0.12993133661E+02 -0.75856030808E+01 -0.11149722496E+02  0.72461569262E+02  0.69999998655E+02 0.  0.
        -12    1    1    2    0    0 -0.12993133661E+02  0.75856030808E+01  0.11149722496E+02  0.18726430738E+02  0.00000000000E+00 0.  1.
         11    1    3    3    0    0  0.93561060520E+01 -0.13737187638E+02 -0.61209780187E+01  0.17711956889E+02  0.51100000000E-03 0. -1.
        -11    1    3    3    0    0  0.22880979958E+02 -0.89146662376E+01 -0.14523782825E+02  0.28529822743E+02  0.51100000000E-03 0.  1.
         12    1    3    3    0    0 -0.19243952348E+02  0.15066250795E+02  0.94950383476E+01  0.26219789630E+02  0.00000000000E+00 0. -1.
</event>
<event>
 7    1  0.1749439E-013  0.7246159E+02  0.7816164E-02  0.1226708E+00
        -11   -1    0    0    0    0  0.00000000000E+00  0.00000000000E+00  0.45593999997E+02  0.45594000000E+02  0.51100000000E-03 0.  1.
         11   -1    0    0    0    0 -0.00000000000E+00 -0.00000000000E+00 -0.45593999997E+02  0.45594000000E+02  0.51100000000E-03 0. -1.
    9900012    2    1    2    0    0 -0.79705078332E+01 -0.10097294248E+02 -0.13608602236E+02  0.72461590812E+02  0.70000026728E+02 0.  0.
        -12    1    1    2    0    0  0.79705078332E+01  0.10097294248E+02  0.13608602236E+02  0.18726409188E+02  0.00000000000E+00 0.  1.
         11    1    3    3    0    0  0.23317263150E+01 -0.32236558381E+02 -0.87618785284E+01  0.33487358204E+02  0.51100000000E-03 0. -1.
        -11    1    3    3    0    0  0.95599202648E+01  0.27856509998E+01 -0.52134310403E+01  0.11239741564E+02  0.51100000000E-03 0.  1.
         12    1    3    3    0    0 -0.19862154413E+02  0.19353613133E+02  0.36670733291E+00  0.27734491044E+02  0.00000000000E+00 0. -1.
</event>
<event>
 7    1  0.1749439E-013  0.7246153E+02  0.7816164E-02  0.1226708E+00
        -11   -1    0    0    0    0  0.00000000000E+00  0.00000000000E+00  0.45593999997E+02  0.45594000000E+02  0.51100000000E-03 0. -1.
         11   -1    0    0    0    0 -0.00000000000E+00 -0.00000000000E+00 -0.45593999997E+02  0.45594000000E+02  0.51100000000E-03 0.  1.
    9900012    2    1    2    0    0 -0.18355701302E+02  0.10822007275E+01  0.35464859785E+01  0.72461534997E+02  0.69999954018E+02 0.  0.
        -12    1    1    2    0    0  0.18355701302E+02 -0.10822007275E+01 -0.35464859785E+01  0.18726465003E+02  0.00000000000E+00 0.  1.
         11    1    3    3    0    0 -0.21645339289E+02 -0.17062459941E+02  0.21650166066E+02  0.35048223109E+02  0.51100000000E-03 0. -1.
        -11    1    3    3    0    0 -0.93911541259E+01  0.23912309192E+01  0.80916082018E+00  0.97245309717E+01  0.51100000000E-03 0.  1.
        -12    1    3    3    0    0  0.12680792112E+02  0.15753429749E+02 -0.18912840907E+02  0.27688780916E+02  0.00000000000E+00 0.  1.
</event>
<event>
 7    1  0.1749439E-013  0.7246166E+02  0.7816164E-02  0.1226708E+00
        -11   -1    0    0    0    0  0.00000000000E+00  0.00000000000E+00  0.45593999997E+02  0.45594000000E+02  0.51100000000E-03 0. -1.
         11   -1    0    0    0    0 -0.00000000000E+00 -0.00000000000E+00 -0.45593999997E+02  0.45594000000E+02  0.51100000000E-03 0.  1.
    9900012    2    1    2    0    0  0.79821735504E+01  0.26043890478E+01  0.16738515050E+02  0.72461659648E+02  0.70000116400E+02 0.  0.
        -12    1    1    2    0    0 -0.79821735504E+01 -0.26043890478E+01 -0.16738515050E+02  0.18726340352E+02  0.00000000000E+00 0.  1.
         11    1    3    3    0    0  0.11674722881E+02  0.36634682007E+01  0.58301316086E+01  0.13553987917E+02  0.51100000000E-03 0. -1.
        -11    1    3    3    0    0  0.22626312195E+02 -0.13644891227E+02 -0.29936194044E+01  0.26591254531E+02  0.51100000000E-03 0.  1.
         12    1    3    3    0    0 -0.26318861525E+02  0.12585812074E+02  0.13902002846E+02  0.32316417201E+02  0.00000000000E+00 0. -1.
</event>
<event>
 7    1  0.1749439E-013  0.7246151E+02  0.7816164E-02  0.1226708E+00
        -11   -1    0    0    0    0  0.00000000000E+00  0.00000000000E+00  0.45593999997E+02  0.45594000000E+02  0.51100000000E-03 0.  1.
         11   -1    0    0    0    0 -0.00000000000E+00 -0.00000000000E+00 -0.45593999997E+02  0.45594000000E+02  0.51100000000E-03 0. -1.
    9900012    2    1    2    0    0 -0.10247673076E+02  0.48322226959E+01 -0.14910276105E+02  0.72461507718E+02  0.69999918483E+02 0.  0.
        -12    1    1    2    0    0  0.10247673076E+02 -0.48322226959E+01  0.14910276105E+02  0.18726492282E+02  0.00000000000E+00 0.  1.
         11    1    3    3    0    0 -0.59157293410E+01  0.96962813758E+01 -0.24670561708E+01  0.11623256539E+02  0.51100000000E-03 0. -1.
        -11    1    3    3    0    0  0.22646136277E+01  0.19549441961E+02  0.14074507766E+02  0.24195059930E+02  0.51100000000E-03 0.  1.
         12    1    3    3    0    0 -0.65965573629E+01 -0.24413500641E+02 -0.26517727700E+02  0.36643191250E+02  0.00000000000E+00 0. -1.
</event>
<event>
 7    1  0.1749439E-013  0.7246133E+02  0.7816164E-02  0.1226709E+00
        -11   -1    0    0    0    0  0.00000000000E+00  0.00000000000E+00  0.45593999997E+02  0.45594000000E+02  0.51100000000E-03 0. -1.
         11   -1    0    0    0    0 -0.00000000000E+00 -0.00000000000E+00 -0.45593999997E+02  0.45594000000E+02  0.51100000000E-03 0.  1.
    9900012    2    1    2    0    0 -0.42090620168E+01 -0.12301698515E+02  0.13477398118E+02  0.72461327860E+02  0.69999684184E+02 0.  0.
        -12    1    1    2    0    0  0.42090620168E+01  0.12301698515E+02 -0.13477398118E+02  0.18726672140E+02  0.00000000000E+00 0.  1.
         11    1    3    3    0    0  0.10385215527E+02  0.21749844227E+02  0.14579149747E+02  0.28168422622E+02  0.51100000000E-03 0. -1.
        -11    1    3    3    0    0 -0.96312842418E+01 -0.56989429281E+01  0.83875248974E+01  0.13985355226E+02  0.51100000000E-03 0.  1.
        -12    1    3    3    0    0 -0.49629933018E+01 -0.28352599814E+02 -0.94892765262E+01  0.30307550011E+02  0.00000000000E+00 0.  1.
</event>
<event>
 7    1  0.1749439E-013  0.7246149E+02  0.7816164E-02  0.1226708E+00
        -11   -1    0    0    0    0  0.00000000000E+00  0.00000000000E+00  0.45593999997E+02  0.45594000000E+02  0.51100000000E-03 0.  1.
         11   -1    0    0    0    0 -0.00000000000E+00 -0.00000000000E+00 -0.45593999997E+02  0.45594000000E+02  0.51100000000E-03 0. -1.
    9900012    2    1    2    0    0 -0.18688285781E+02  0.41223752703E+00  0.11226435979E+01  0.72461486874E+02  0.69999891330E+02 0.  0.
        -12    1    1    2    0    0  0.18688285781E+02 -0.41223752703E+00 -0.11226435979E+01  0.18726513126E+02  0.00000000000E+00 0.  1.
         11    1    3    3    0    0 -0.21990671396E+02  0.24667857044E+01 -0.15289153153E+02  0.26896707318E+02  0.51100000000E-03 0. -1.
        -11    1    3    3    0    0 -0.10401683809E+02  0.85112776778E+01  0.23333517802E+02  0.26927493888E+02  0.51100000000E-03 0.  1.
        -12    1    3    3    0    0  0.13704069424E+02 -0.10565825855E+02 -0.69217210509E+01  0.18637285669E+02  0.00000000000E+00 0.  1.
</event>
<event>
 7    1  0.1749439E-013  0.7246158E+02  0.7816164E-02  0.1226708E+00
        -11   -1    0    0    0    0  0.00000000000E+00  0.00000000000E+00  0.45593999997E+02  0.45594000000E+02  0.51100000000E-03 0. -1.
         11   -1    0    0    0    0 -0.00000000000E+00 -0.00000000000E+00 -0.45593999997E+02  0.45594000000E+02  0.51100000000E-03 0.  1.
    9900012    2    1    2    0    0 -0.64825283985E+01  0.15833347424E+02  0.76131879678E+01  0.72461582934E+02  0.70000016465E+02 0.  0.
        -12    1    1    2    0    0  0.64825283985E+01 -0.15833347424E+02 -0.76131879678E+01  0.18726417066E+02  0.00000000000E+00 0.  1.
         11    1    3    3    0    0 -0.10456540668E+02 -0.55633792727E+01  0.12270039058E+02  0.17054157570E+02  0.51100000000E-03 0. -1.
        -11    1    3    3    0    0 -0.21477646342E+02  0.64220105128E+01  0.72598713353E+01  0.23563472654E+02  0.51100000000E-03 0.  1.
         12    1    3    3    0    0  0.25451658611E+02  0.14974716184E+02 -0.11916722425E+02  0.31843952711E+02  0.00000000000E+00 0. -1.
</event>
<event>
 7    1  0.1749439E-013  0.7246150E+02  0.7816164E-02  0.1226708E+00
        -11   -1    0    0    0    0  0.00000000000E+00  0.00000000000E+00  0.45593999997E+02  0.45594000000E+02  0.51100000000E-03 0.  1.
         11   -1    0    0    0    0 -0.00000000000E+00 -0.00000000000E+00 -0.45593999997E+02  0.45594000000E+02  0.51100000000E-03 0. -1.
    9900012    2    1    2    0    0  0.38016513911E+01 -0.17616508070E+02 -0.50880128053E+01  0.72461500482E+02  0.69999909057E+02 0.  0.
        -12    1    1    2    0    0 -0.38016513911E+01  0.17616508070E+02  0.50880128053E+01  0.18726499518E+02  0.00000000000E+00 0.  1.
         11    1    3    3    0    0  0.11530026241E+02  0.46197881129E+01 -0.10260762605E+02  0.16111089250E+02  0.51100000000E-03 0. -1.
        -11    1    3    3    0    0  0.17958511469E+02 -0.61154599692E+00  0.12618930789E+02  0.21957220617E+02  0.51100000000E-03 0.  1.
         12    1    3    3    0    0 -0.25686886319E+02 -0.21624750186E+02 -0.74461809896E+01  0.34393190615E+02  0.00000000000E+00 0. -1.
</event>
<event>
 7    1  0.1749439E-013  0.7246156E+02  0.7816164E-02  0.1226708E+00
        -11   -1    0    0    0    0  0.00000000000E+00  0.00000000000E+00  0.45593999997E+02  0.45594000000E+02  0.51100000000E-03 0.  1.
         11   -1    0    0    0    0 -0.00000000000E+00 -0.00000000000E+00 -0.45593999997E+02  0.45594000000E+02  0.51100000000E-03 0. -1.
    9900012    2    1    2    0    0  0.59534555188E+01  0.16547739107E+01 -0.17677598685E+02  0.72461564018E+02  0.69999991824E+02 0.  0.
        -12    1    1    2    0    0 -0.59534555188E+01 -0.16547739107E+01  0.17677598685E+02  0.18726435982E+02  0.00000000000E+00 0.  1.
         11    1    3    3    0    0  0.15756604049E+02 -0.17535607615E+02  0.44850217676E+01  0.23997573337E+02  0.51100000000E-03 0. -1.
        -11    1    3    3    0    0 -0.21961310817E+02  0.63224632145E+01 -0.41854499609E+01  0.23233396341E+02  0.51100000000E-03 0.  1.
        -12    1    3    3    0    0  0.12158162286E+02  0.12867918311E+02 -0.17977170492E+02  0.25230594340E+02  0.00000000000E+00 0.  1.
</event>
<event>
 7    1  0.1749439E-013  0.7246160E+02  0.7816164E-02  0.1226708E+00
        -11   -1    0    0    0    0  0.00000000000E+00  0.00000000000E+00  0.45593999997E+02  0.45594000000E+02  0.51100000000E-03 0. -1.
         11   -1    0    0    0    0 -0.00000000000E+00 -0.00000000000E+00 -0.45593999997E+02  0.45594000000E+02  0.51100000000E-03 0.  1.
    9900012    2    1    2    0    0 -0.15626964286E+02 -0.32648971373E+00 -0.10313559752E+02  0.72461598234E+02  0.70000036397E+02 0.  0.
        -12    1    1    2    0    0  0.15626964286E+02  0.32648971373E+00  0.10313559752E+02  0.18726401766E+02  0.00000000000E+00 0.  1.
         11    1    3    3    0    0  0.50539330941E+01 -0.11046906862E+02  0.11132672993E+01  0.12199006323E+02  0.51100000000E-03 0. -1.
        -11    1    3    3    0    0 -0.20540848114E+02  0.69970000081E+01 -0.32381032766E+02  0.38979683601E+02  0.51100000000E-03 0.  1.
         12    1    3    3    0    0 -0.14004926561E+00  0.37234171401E+01  0.20954205715E+02  0.21282908310E+02  0.00000000000E+00 0. -1.
</event>
<event>
 7    1  0.1749439E-013  0.7246158E+02  0.7816164E-02  0.1226708E+00
        -11   -1    0    0    0    0  0.00000000000E+00  0.00000000000E+00  0.45593999997E+02  0.45594000000E+02  0.51100000000E-03 0. -1.
         11   -1    0    0    0    0 -0.00000000000E+00 -0.00000000000E+00 -0.45593999997E+02  0.45594000000E+02  0.51100000000E-03 0.  1.
    9900012    2    1    2    0    0  0.16822730984E+02 -0.82262171140E+01 -0.63380617009E-01  0.72461576346E+02  0.70000007884E+02 0.  0.
        -12    1    1    2    0    0 -0.16822730984E+02  0.82262171140E+01  0.63380617009E-01  0.18726423654E+02  0.00000000000E+00 0.  1.
         11    1    3    3    0    0 -0.97950135641E+01 -0.20827358620E+02 -0.73505662157E+01  0.24160959869E+02  0.51100000000E-03 0.  1.
        -11    1    3    3    0    0  0.84786372079E+01  0.37705209248E+01 -0.15375865867E+02  0.17958879931E+02  0.51100000000E-03 0. -1.
         12    1    3    3    0    0  0.18139107340E+02  0.88306205815E+01  0.22663051466E+02  0.30341736547E+02  0.00000000000E+00 0. -1.
</event>
<event>
 7    1  0.1749439E-013  0.7246156E+02  0.7816164E-02  0.1226708E+00
        -11   -1    0    0    0    0  0.00000000000E+00  0.00000000000E+00  0.45593999997E+02  0.45594000000E+02  0.51100000000E-03 0.  1.
         11   -1    0    0    0    0 -0.00000000000E+00 -0.00000000000E+00 -0.45593999997E+02  0.45594000000E+02  0.51100000000E-03 0. -1.
    9900012    2    1    2    0    0 -0.28085217432E+01  0.18351014180E+02  0.24560231162E+01  0.72461559725E+02  0.69999986232E+02 0.  0.
        -12    1    1    2    0    0  0.28085217432E+01 -0.18351014180E+02 -0.24560231162E+01  0.18726440275E+02  0.00000000000E+00 0.  1.
         11    1    3    3    0    0 -0.68026571372E+00  0.98334120684E+00  0.36276554625E+01  0.38196342477E+01  0.51100000000E-03 0. -1.
        -11    1    3    3    0    0 -0.99545505183E+01 -0.23548427541E+02 -0.71748598531E+01  0.26553721581E+02  0.51100000000E-03 0.  1.
         12    1    3    3    0    0  0.78262944888E+01  0.40916100514E+02  0.60032275068E+01  0.42088203896E+02  0.00000000000E+00 0. -1.
</event>
<event>
 7    1  0.1749439E-013  0.7246157E+02  0.7816164E-02  0.1226708E+00
        -11   -1    0    0    0    0  0.00000000000E+00  0.00000000000E+00  0.45593999997E+02  0.45594000000E+02  0.51100000000E-03 0. -1.
         11   -1    0    0    0    0 -0.00000000000E+00 -0.00000000000E+00 -0.45593999997E+02  0.45594000000E+02  0.51100000000E-03 0.  1.
    9900012    2    1    2    0    0 -0.51575535447E+01 -0.73908050449E+01  0.16415079979E+02  0.72461569254E+02  0.69999998645E+02 0.  0.
        -12    1    1    2    0    0  0.51575535447E+01  0.73908050449E+01 -0.16415079979E+02  0.18726430746E+02  0.00000000000E+00 0.  1.
         11    1    3    3    0    0  0.41655080391E+00 -0.36559855604E+01  0.26891857631E+02  0.27142434528E+02  0.51100000000E-03 0. -1.
        -11    1    3    3    0    0  0.32205037802E+01 -0.11823963560E+01  0.16488339148E+02  0.16841467687E+02  0.51100000000E-03 0.  1.
        -12    1    3    3    0    0 -0.87946081289E+01 -0.25524231286E+01 -0.26965116800E+02  0.28477667039E+02  0.00000000000E+00 0.  1.
</event>
<event>
 7    1  0.1749439E-013  0.7246159E+02  0.7816164E-02  0.1226708E+00
        -11   -1    0    0    0    0  0.00000000000E+00  0.00000000000E+00  0.45593999997E+02  0.45594000000E+02  0.51100000000E-03 0. -1.
         11   -1    0    0    0    0 -0.00000000000E+00 -0.00000000000E+00 -0.45593999997E+02  0.45594000000E+02  0.51100000000E-03 0.  1.
    9900012    2    1    2    0    0  0.11506891535E+01 -0.15601906665E+02  0.10292464797E+02  0.72461590608E+02  0.70000026463E+02 0.  0.
        -12    1    1    2    0    0 -0.11506891535E+01  0.15601906665E+02 -0.10292464797E+02  0.18726409392E+02  0.00000000000E+00 0.  1.
         11    1    3    3    0    0 -0.44878019186E+01 -0.75614305314E+01 -0.87889489008E+01  0.12432265312E+02  0.51100000000E-03 0. -1.
        -11    1    3    3    0    0 -0.23833214251E+02 -0.65127196682E+01  0.17871818098E+02  0.30493269772E+02  0.51100000000E-03 0.  1.
         12    1    3    3    0    0  0.29471705323E+02 -0.15277564650E+01  0.12095955996E+01  0.29536055525E+02  0.00000000000E+00 0. -1.
</event>
<event>
 7    1  0.1749439E-013  0.7246162E+02  0.7816164E-02  0.1226708E+00
        -11   -1    0    0    0    0  0.00000000000E+00  0.00000000000E+00  0.45593999997E+02  0.45594000000E+02  0.51100000000E-03 0. -1.
         11   -1    0    0    0    0 -0.00000000000E+00 -0.00000000000E+00 -0.45593999997E+02  0.45594000000E+02  0.51100000000E-03 0.  1.
    9900012    2    1    2    0    0 -0.11366536244E+02  0.14698183486E+02 -0.23329332266E+01  0.72461619640E+02  0.70000064282E+02 0.  0.
        -12    1    1    2    0    0  0.11366536244E+02 -0.14698183486E+02  0.23329332266E+01  0.18726380360E+02  0.00000000000E+00 0.  1.
         11    1    3    3    0    0 -0.19632191290E+02  0.30523970683E+02  0.12789291272E+01  0.36314892001E+02  0.51100000000E-03 0. -1.
        -11    1    3    3    0    0 -0.11307198615E+01  0.88037931268E+01  0.22171947500E+01  0.91488389233E+01  0.51100000000E-03 0.  1.
        -12    1    3    3    0    0  0.93963749072E+01 -0.24629580324E+02 -0.58290571038E+01  0.26997888715E+02  0.00000000000E+00 0.  1.
</event>
<event>
 7    1  0.1749439E-013  0.7246160E+02  0.7816164E-02  0.1226708E+00
        -11   -1    0    0    0    0  0.00000000000E+00  0.00000000000E+00  0.45593999997E+02  0.45594000000E+02  0.51100000000E-03 0.  1.
         11   -1    0    0    0    0 -0.00000000000E+00 -0.00000000000E+00 -0.45593999997E+02  0.45594000000E+02  0.51100000000E-03 0. -1.
    9900012    2    1    2    0    0 -0.31294136827E+01 -0.11793581530E+02 -0.14205507073E+02  0.72461595472E+02  0.70000032799E+02 0.  0.
        -12    1    1    2    0    0  0.31294136827E+01  0.11793581530E+02  0.14205507073E+02  0.18726404528E+02  0.00000000000E+00 0.  1.
         11    1    3    3    0    0  0.27229915676E+01 -0.61864162822E+01 -0.10934105390E+02  0.12854613585E+02  0.51100000000E-03 0. -1.
        -11    1    3    3    0    0  0.71662313507E+01 -0.27153505056E+02  0.11581849270E+02  0.30377737594E+02  0.51100000000E-03 0.  1.
         12    1    3    3    0    0 -0.13018636601E+02  0.21546339807E+02 -0.14853250954E+02  0.29229244293E+02  0.00000000000E+00 0. -1.
</event>
<event>
 7    1  0.1749439E-013  0.7246164E+02  0.7816164E-02  0.1226708E+00
        -11   -1    0    0    0    0  0.00000000000E+00  0.00000000000E+00  0.45593999997E+02  0.45594000000E+02  0.51100000000E-03 0.  1.
         11   -1    0    0    0    0 -0.00000000000E+00 -0.00000000000E+00 -0.45593999997E+02  0.45594000000E+02  0.51100000000E-03 0. -1.
    9900012    2    1    2    0    0  0.72275326700E+01 -0.17203535916E+02 -0.15740989973E+01  0.72461637188E+02  0.70000087141E+02 0.  0.
        -12    1    1    2    0    0 -0.72275326700E+01  0.17203535916E+02  0.15740989973E+01  0.18726362812E+02  0.00000000000E+00 0.  1.
         11    1    3    3    0    0  0.13632316507E+02 -0.17780270309E+02  0.25867939814E+01  0.22553704108E+02  0.51100000000E-03 0. -1.
        -11    1    3    3    0    0 -0.10007171499E+02 -0.23417297264E+02 -0.17663477849E+01  0.25527108675E+02  0.51100000000E-03 0.  1.
         12    1    3    3    0    0  0.36023876612E+01  0.23994031656E+02 -0.23945451937E+01  0.24380824405E+02  0.00000000000E+00 0. -1.
</event>
<event>
 7    1  0.1749439E-013  0.7246157E+02  0.7816164E-02  0.1226708E+00
        -11   -1    0    0    0    0  0.00000000000E+00  0.00000000000E+00  0.45593999997E+02  0.45594000000E+02  0.51100000000E-03 0.  1.
         11   -1    0    0    0    0 -0.00000000000E+00 -0.00000000000E+00 -0.45593999997E+02  0.45594000000E+02  0.51100000000E-03 0. -1.
    9900012    2    1    2    0    0  0.16150628232E+02  0.93931247854E+01  0.12671813250E+01  0.72461565902E+02  0.69999994278E+02 0.  0.
        -12    1    1    2    0    0 -0.16150628232E+02 -0.93931247854E+01 -0.12671813250E+01  0.18726434098E+02  0.00000000000E+00 0.  1.
         11    1    3    3    0    0  0.16038529489E+02  0.96364637615E+01 -0.17882074409E+02  0.25881739652E+02  0.51100000000E-03 0. -1.
        -11    1    3    3    0    0  0.42597212471E+01 -0.18162617733E+02 -0.17525760038E+01  0.18737594054E+02  0.51100000000E-03 0.  1.
        -12    1    3    3    0    0 -0.41476225040E+01  0.17919278757E+02  0.20901831738E+02  0.27842232195E+02  0.00000000000E+00 0.  1.
</event>
<event>
 7    1  0.1749439E-013  0.7246157E+02  0.7816164E-02  0.1226708E+00
        -11   -1    0    0    0    0  0.00000000000E+00  0.00000000000E+00  0.45593999997E+02  0.45594000000E+02  0.51100000000E-03 0.  1.
         11   -1    0    0    0    0 -0.00000000000E+00 -0.00000000000E+00 -0.45593999997E+02  0.45594000000E+02  0.51100000000E-03 0. -1.
    9900012    2    1    2    0    0  0.48831949174E+01  0.13160339080E+02 -0.12395115881E+02  0.72461574420E+02  0.70000005374E+02 0.  0.
        -12    1    1    2    0    0 -0.48831949174E+01 -0.13160339080E+02  0.12395115881E+02  0.18726425580E+02  0.00000000000E+00 0.  1.
         11    1    3    3    0    0 -0.24151764369E+01 -0.14119984606E+02 -0.21334725694E+02  0.25697812420E+02  0.51100000000E-03 0. -1.
        -11    1    3    3    0    0  0.12448795649E+02  0.16626612931E+02 -0.11055413523E+02  0.23529533338E+02  0.51100000000E-03 0.  1.
        -12    1    3    3    0    0 -0.51504242950E+01  0.10653710755E+02  0.19995023336E+02  0.23234228661E+02  0.00000000000E+00 0.  1.
</event>
<event>
 7    1  0.1749439E-013  0.7246160E+02  0.7816164E-02  0.1226708E+00
        -11   -1    0    0    0    0  0.00000000000E+00  0.00000000000E+00  0.45593999997E+02  0.45594000000E+02  0.51100000000E-03 0.  1.
         11   -1    0    0    0    0 -0.00000000000E+00 -0.00000000000E+00 -0.45593999997E+02  0.45594000000E+02  0.51100000000E-03 0. -1.
    9900012    2    1    2    0    0 -0.67232586873E+01 -0.13890459236E+02 -0.10608062121E+02  0.72461600262E+02  0.70000039039E+02 0.  0.
        -12    1    1    2    0    0  0.67232586873E+01  0.13890459236E+02  0.10608062121E+02  0.18726399738E+02  0.00000000000E+00 0.  1.
         11    1    3    3    0    0  0.11916556090E+02 -0.22174337462E+01  0.31458315441E+01  0.12522682534E+02  0.51100000000E-03 0. -1.
        -11    1    3    3    0    0  0.95809780382E+01  0.81467001865E+01  0.11621431378E+02  0.17123712554E+02  0.51100000000E-03 0.  1.
         12    1    3    3    0    0 -0.28220792816E+02 -0.19819725677E+02 -0.25375325044E+02  0.42815205174E+02  0.00000000000E+00 0. -1.
</event>
<event>
 7    1  0.1749439E-013  0.7246158E+02  0.7816164E-02  0.1226708E+00
        -11   -1    0    0    0    0  0.00000000000E+00  0.00000000000E+00  0.45593999997E+02  0.45594000000E+02  0.51100000000E-03 0.  1.
         11   -1    0    0    0    0 -0.00000000000E+00 -0.00000000000E+00 -0.45593999997E+02  0.45594000000E+02  0.51100000000E-03 0. -1.
    9900012    2    1    2    0    0  0.61210754472E+01 -0.11188213021E+02 -0.13712586993E+02  0.72461582369E+02  0.70000015730E+02 0.  0.
        -12    1    1    2    0    0 -0.61210754472E+01  0.11188213021E+02  0.13712586993E+02  0.18726417631E+02  0.00000000000E+00 0.  1.
         11    1    3    3    0    0  0.13659891982E+02 -0.82868791365E+00 -0.25708117886E+01  0.13924383150E+02  0.51100000000E-03 0. -1.
        -11    1    3    3    0    0  0.16485255910E+02 -0.12919226709E+02  0.12781746076E+02  0.24536566878E+02  0.51100000000E-03 0.  1.
        -12    1    3    3    0    0 -0.24024072444E+02  0.25597016008E+01 -0.23923521280E+02  0.34000632340E+02  0.00000000000E+00 0.  1.
</event>
<event>
 7    1  0.1749439E-013  0.7246159E+02  0.7816164E-02  0.1226708E+00
        -11   -1    0    0    0    0  0.00000000000E+00  0.00000000000E+00  0.45593999997E+02  0.45594000000E+02  0.51100000000E-03 0.  1.
         11   -1    0    0    0    0 -0.00000000000E+00 -0.00000000000E+00 -0.45593999997E+02  0.45594000000E+02  0.51100000000E-03 0. -1.
    9900012    2    1    2    0    0 -0.25638703479E+01  0.74616411691E+01 -0.16983195476E+02  0.72461589541E+02  0.70000025073E+02 0.  0.
        -12    1    1    2    0    0  0.25638703479E+01 -0.74616411691E+01  0.16983195476E+02  0.18726410459E+02  0.00000000000E+00 0.  1.
         11    1    3    3    0    0 -0.11991587495E+02 -0.17734051605E+02 -0.15639079468E+01  0.21464868164E+02  0.51100000000E-03 0. -1.
        -11    1    3    3    0    0  0.10870999512E+02 -0.86076078600E+01 -0.12574893164E+00  0.13866699554E+02  0.51100000000E-03 0.  1.
        -12    1    3    3    0    0 -0.14432823647E+01  0.33803300634E+02 -0.15293538597E+02  0.37130021823E+02  0.00000000000E+00 0.  1.
</event>
<event>
 7    1  0.1749439E-013  0.7246159E+02  0.7816164E-02  0.1226708E+00
        -11   -1    0    0    0    0  0.00000000000E+00  0.00000000000E+00  0.45593999997E+02  0.45594000000E+02  0.51100000000E-03 0.  1.
         11   -1    0    0    0    0 -0.00000000000E+00 -0.00000000000E+00 -0.45593999997E+02  0.45594000000E+02  0.51100000000E-03 0. -1.
    9900012    2    1    2    0    0 -0.83148570987E+01  0.12480104191E+02 -0.11215543024E+02  0.72461594725E+02  0.70000031826E+02 0.  0.
        -12    1    1    2    0    0  0.83148570987E+01 -0.12480104191E+02  0.11215543024E+02  0.18726405275E+02  0.00000000000E+00 0.  1.
         11    1    3    3    0    0 -0.19947512203E+02  0.97635020927E+01 -0.33252104138E+01  0.22456318505E+02  0.51100000000E-03 0. -1.
        -11    1    3    3    0    0 -0.12616627706E+01  0.23939305155E+02 -0.78113502077E-01  0.23972655802E+02  0.51100000000E-03 0.  1.
        -12    1    3    3    0    0  0.12894317875E+02 -0.21222703056E+02 -0.78122191079E+01  0.26032620419E+02  0.00000000000E+00 0.  1.
</event>
<event>
 7    1  0.1749439E-013  0.7246138E+02  0.7816164E-02  0.1226709E+00
        -11   -1    0    0    0    0  0.00000000000E+00  0.00000000000E+00  0.45593999997E+02  0.45594000000E+02  0.51100000000E-03 0.  1.
         11   -1    0    0    0    0 -0.00000000000E+00 -0.00000000000E+00 -0.45593999997E+02  0.45594000000E+02  0.51100000000E-03 0. -1.
    9900012    2    1    2    0    0  0.12559825121E+02  0.16779666249E+01  0.13788462258E+02  0.72461375358E+02  0.69999746058E+02 0.  0.
        -12    1    1    2    0    0 -0.12559825121E+02 -0.16779666249E+01 -0.13788462258E+02  0.18726624642E+02  0.00000000000E+00 0.  1.
         11    1    3    3    0    0 -0.47978353690E+01 -0.22653347105E+02  0.17541362420E+01  0.23222195277E+02  0.51100000000E-03 0. -1.
        -11    1    3    3    0    0 -0.63232573342E+01  0.11893208722E+02  0.17352616047E+02  0.21966913323E+02  0.51100000000E-03 0.  1.
         12    1    3    3    0    0  0.23680917824E+02  0.12438105008E+02 -0.53182900316E+01  0.27272266757E+02  0.00000000000E+00 0. -1.
</event>
<event>
 7    1  0.1749439E-013  0.7246154E+02  0.7816164E-02  0.1226708E+00
        -11   -1    0    0    0    0  0.00000000000E+00  0.00000000000E+00  0.45593999997E+02  0.45594000000E+02  0.51100000000E-03 0.  1.
         11   -1    0    0    0    0 -0.00000000000E+00 -0.00000000000E+00 -0.45593999997E+02  0.45594000000E+02  0.51100000000E-03 0. -1.
    9900012    2    1    2    0    0  0.13916726469E+02 -0.18162023331E+01 -0.12397845131E+02  0.72461536628E+02  0.69999956143E+02 0.  0.
        -12    1    1    2    0    0 -0.13916726469E+02  0.18162023331E+01  0.12397845131E+02  0.18726463372E+02  0.00000000000E+00 0.  1.
         11    1    3    3    0    0  0.76731520046E+01  0.27433044103E+02 -0.12099620947E+02  0.30949151810E+02  0.51100000000E-03 0. -1.
        -11    1    3    3    0    0 -0.28448758097E+01  0.50520099133E+01  0.14770737895E+01  0.59831321042E+01  0.51100000000E-03 0.  1.
        -12    1    3    3    0    0  0.90884502742E+01 -0.34301256349E+02 -0.17752979734E+01  0.35529252714E+02  0.00000000000E+00 0.  1.
</event>
<event>
 7    1  0.1749439E-013  0.7246174E+02  0.7816164E-02  0.1226708E+00
        -11   -1    0    0    0    0  0.00000000000E+00  0.00000000000E+00  0.45593999997E+02  0.45594000000E+02  0.51100000000E-03 0.  1.
         11   -1    0    0    0    0 -0.00000000000E+00 -0.00000000000E+00 -0.45593999997E+02  0.45594000000E+02  0.51100000000E-03 0. -1.
    9900012    2    1    2    0    0  0.11720936800E+02  0.25849543003E+01 -0.14373949197E+02  0.72461741332E+02  0.70000222808E+02 0.  0.
        -12    1    1    2    0    0 -0.11720936800E+02 -0.25849543003E+01  0.14373949197E+02  0.18726258668E+02  0.00000000000E+00 0.  1.
         11    1    3    3    0    0 -0.11476496027E+01 -0.29160024239E+01  0.76030757723E+01  0.82235595217E+01  0.51100000000E-03 0. -1.
        -11    1    3    3    0    0 -0.73315004950E+01 -0.18727986337E+02  0.71080164286E+01  0.21331016608E+02  0.51100000000E-03 0.  1.
         12    1    3    3    0    0  0.20200086897E+02  0.24228943061E+02 -0.29085041398E+02  0.42907165201E+02  0.00000000000E+00 0. -1.
</event>
<event>
 7    1  0.1749439E-013  0.7246158E+02  0.7816164E-02  0.1226708E+00
        -11   -1    0    0    0    0  0.00000000000E+00  0.00000000000E+00  0.45593999997E+02  0.45594000000E+02  0.51100000000E-03 0. -1.
         11   -1    0    0    0    0 -0.00000000000E+00 -0.00000000000E+00 -0.45593999997E+02  0.45594000000E+02  0.51100000000E-03 0.  1.
    9900012    2    1    2    0    0 -0.16095674599E+02  0.94300543931E+01  0.16377126129E+01  0.72461580981E+02  0.70000013922E+02 0.  0.
        -12    1    1    2    0    0  0.16095674599E+02 -0.94300543931E+01 -0.16377126129E+01  0.18726419019E+02  0.00000000000E+00 0.  1.
         11    1    3    3    0    0 -0.90574585117E+01 -0.19207603761E+02  0.21653235462E+02  0.30328735601E+02  0.51100000000E-03 0.  1.
        -11    1    3    3    0    0  0.17898302785E+01  0.21004449524E+02 -0.27017125912E+01  0.21252991400E+02  0.51100000000E-03 0. -1.
        -12    1    3    3    0    0 -0.88280463658E+01  0.76332086298E+01 -0.17313810258E+02  0.20879853981E+02  0.00000000000E+00 0.  1.
</event>
<event>
 7    1  0.1749439E-013  0.7246157E+02  0.7816164E-02  0.1226708E+00
        -11   -1    0    0    0    0  0.00000000000E+00  0.00000000000E+00  0.45593999997E+02  0.45594000000E+02  0.51100000000E-03 0. -1.
         11   -1    0    0    0    0 -0.00000000000E+00 -0.00000000000E+00 -0.45593999997E+02  0.45594000000E+02  0.51100000000E-03 0.  1.
    9900012    2    1    2    0    0 -0.77003064154E+01 -0.16465830423E+02  0.45012024408E+01  0.72461571782E+02  0.70000001938E+02 0.  0.
        -12    1    1    2    0    0  0.77003064154E+01  0.16465830423E+02 -0.45012024408E+01  0.18726428218E+02  0.00000000000E+00 0.  1.
         11    1    3    3    0    0 -0.30104130881E+02 -0.29970988114E+02  0.60426453114E+01  0.42907253318E+02  0.51100000000E-03 0. -1.
        -11    1    3    3    0    0  0.26716086179E+00 -0.21506911339E+01 -0.11157239724E+01  0.24375576964E+01  0.51100000000E-03 0.  1.
        -12    1    3    3    0    0  0.22136663604E+02  0.15655848825E+02 -0.42571889829E+00  0.27116760768E+02  0.00000000000E+00 0.  1.
</event>
<event>
 7    1  0.1749439E-013  0.7246158E+02  0.7816164E-02  0.1226708E+00
        -11   -1    0    0    0    0  0.00000000000E+00  0.00000000000E+00  0.45593999997E+02  0.45594000000E+02  0.51100000000E-03 0.  1.
         11   -1    0    0    0    0 -0.00000000000E+00 -0.00000000000E+00 -0.45593999997E+02  0.45594000000E+02  0.51100000000E-03 0. -1.
    9900012    2    1    2    0    0 -0.14581346203E+02 -0.11502112332E+02  0.24009679365E+01  0.72461577698E+02  0.70000009645E+02 0.  0.
        -12    1    1    2    0    0  0.14581346203E+02  0.11502112332E+02 -0.24009679365E+01  0.18726422302E+02  0.00000000000E+00 0.  1.
         11    1    3    3    0    0 -0.14147441367E+02 -0.38768661167E+02 -0.22575498292E+01  0.41331050282E+02  0.51100000000E-03 0. -1.
        -11    1    3    3    0    0 -0.34600790547E+01  0.26795041628E+01 -0.28769114765E+01  0.52372234560E+01  0.51100000000E-03 0.  1.
        -12    1    3    3    0    0  0.30261742188E+01  0.24587044673E+02  0.75354292422E+01  0.25893303961E+02  0.00000000000E+00 0.  1.
</event>
<event>
 7    1  0.1749439E-013  0.7246155E+02  0.7816164E-02  0.1226708E+00
        -11   -1    0    0    0    0  0.00000000000E+00  0.00000000000E+00  0.45593999997E+02  0.45594000000E+02  0.51100000000E-03 0.  1.
         11   -1    0    0    0    0 -0.00000000000E+00 -0.00000000000E+00 -0.45593999997E+02  0.45594000000E+02  0.51100000000E-03 0. -1.
    9900012    2    1    2    0    0 -0.23072188912E+00  0.18422954315E+02  0.33498509688E+01  0.72461548659E+02  0.69999971817E+02 0.  0.
        -12    1    1    2    0    0  0.23072188912E+00 -0.18422954315E+02 -0.33498509688E+01  0.18726451341E+02  0.00000000000E+00 0.  1.
         11    1    3    3    0    0 -0.42372304871E+01  0.13408338173E+02 -0.18097661791E+02  0.22918617264E+02  0.51100000000E-03 0. -1.
        -11    1    3    3    0    0 -0.38220807584E+01 -0.82201555396E+01 -0.10629845944E+02  0.13970428894E+02  0.51100000000E-03 0.  1.
        -12    1    3    3    0    0  0.78285893564E+01  0.13234771682E+02  0.32077358704E+02  0.35572502501E+02  0.00000000000E+00 0.  1.
</event>
<event>
 7    1  0.1749439E-013  0.7246155E+02  0.7816164E-02  0.1226708E+00
        -11   -1    0    0    0    0  0.00000000000E+00  0.00000000000E+00  0.45593999997E+02  0.45594000000E+02  0.51100000000E-03 0.  1.
         11   -1    0    0    0    0 -0.00000000000E+00 -0.00000000000E+00 -0.45593999997E+02  0.45594000000E+02  0.51100000000E-03 0. -1.
    9900012    2    1    2    0    0  0.15025231108E+02  0.46125216974E+00 -0.11167340969E+02  0.72461552720E+02  0.69999977106E+02 0.  0.
        -12    1    1    2    0    0 -0.15025231108E+02 -0.46125216974E+00  0.11167340969E+02  0.18726447280E+02  0.00000000000E+00 0.  1.
         11    1    3    3    0    0  0.10313853098E+02  0.85037522346E+01 -0.12900444013E+02  0.18577158658E+02  0.51100000000E-03 0. -1.
        -11    1    3    3    0    0  0.88359373685E+00  0.22546040723E+02 -0.27601469027E+01  0.22731544192E+02  0.51100000000E-03 0.  1.
        -12    1    3    3    0    0  0.38277842734E+01 -0.30588540788E+02  0.44932499470E+01  0.31152849870E+02  0.00000000000E+00 0.  1.
</event>
<event>
 7    1  0.1749439E-013  0.7246162E+02  0.7816164E-02  0.1226708E+00
        -11   -1    0    0    0    0  0.00000000000E+00  0.00000000000E+00  0.45593999997E+02  0.45594000000E+02  0.51100000000E-03 0.  1.
         11   -1    0    0    0    0 -0.00000000000E+00 -0.00000000000E+00 -0.45593999997E+02  0.45594000000E+02  0.51100000000E-03 0. -1.
    9900012    2    1    2    0    0 -0.12381536095E+02  0.49800898821E+01 -0.13136725097E+02  0.72461620810E+02  0.70000065806E+02 0.  0.
        -12    1    1    2    0    0  0.12381536095E+02 -0.49800898821E+01  0.13136725097E+02  0.18726379190E+02  0.00000000000E+00 0.  1.
         11    1    3    3    0    0  0.31619168667E+01 -0.26369614074E+01  0.59333148422E+01  0.72218771115E+01  0.51100000000E-03 0. -1.
        -11    1    3    3    0    0  0.10435252737E+02 -0.19155422075E+02  0.28068922226E+01  0.21993256666E+02  0.51100000000E-03 0.  1.
         12    1    3    3    0    0 -0.25978705699E+02  0.26772473365E+02 -0.21876932162E+02  0.43246487032E+02  0.00000000000E+00 0. -1.
</event>
<event>
 7    1  0.1749439E-013  0.7246158E+02  0.7816164E-02  0.1226708E+00
        -11   -1    0    0    0    0  0.00000000000E+00  0.00000000000E+00  0.45593999997E+02  0.45594000000E+02  0.51100000000E-03 0. -1.
         11   -1    0    0    0    0 -0.00000000000E+00 -0.00000000000E+00 -0.45593999997E+02  0.45594000000E+02  0.51100000000E-03 0.  1.
    9900012    2    1    2    0    0 -0.13651767066E+02  0.30254195947E+01  0.12456118038E+02  0.72461580580E+02  0.70000013398E+02 0.  0.
        -12    1    1    2    0    0  0.13651767066E+02 -0.30254195947E+01 -0.12456118038E+02  0.18726419420E+02  0.00000000000E+00 0.  1.
         11    1    3    3    0    0  0.72552879934E+01  0.11134568665E+02  0.10176002526E+01  0.13328665866E+02  0.51100000000E-03 0. -1.
        -11    1    3    3    0    0  0.61512580746E+00 -0.28283240738E+02  0.82128677709E+01  0.29457957901E+02  0.51100000000E-03 0.  1.
         12    1    3    3    0    0 -0.21522180867E+02  0.20174091668E+02  0.32256500141E+01  0.29674956813E+02  0.00000000000E+00 0. -1.
</event>
<event>
 7    1  0.1749439E-013  0.7246180E+02  0.7816164E-02  0.1226707E+00
        -11   -1    0    0    0    0  0.00000000000E+00  0.00000000000E+00  0.45593999997E+02  0.45594000000E+02  0.51100000000E-03 0.  1.
         11   -1    0    0    0    0 -0.00000000000E+00 -0.00000000000E+00 -0.45593999997E+02  0.45594000000E+02  0.51100000000E-03 0. -1.
    9900012    2    1    2    0    0 -0.48852792061E+01 -0.17509396657E+02 -0.44972864212E+01  0.72461801524E+02  0.70000301219E+02 0.  0.
        -12    1    1    2    0    0  0.48852792061E+01  0.17509396657E+02  0.44972864212E+01  0.18726198476E+02  0.00000000000E+00 0.  1.
         11    1    3    3    0    0  0.42836372387E+01 -0.19078073375E+02 -0.24773167432E+01  0.19709376707E+02  0.51100000000E-03 0. -1.
        -11    1    3    3    0    0  0.14392908933E+02 -0.43310518277E+01  0.16417044573E+02  0.22258328560E+02  0.51100000000E-03 0.  1.
         12    1    3    3    0    0 -0.23561825378E+02  0.58997285453E+01 -0.18437014251E+02  0.30494096257E+02  0.00000000000E+00 0. -1.
</event>
<event>
 7    1  0.1749439E-013  0.7246155E+02  0.7816164E-02  0.1226708E+00
        -11   -1    0    0    0    0  0.00000000000E+00  0.00000000000E+00  0.45593999997E+02  0.45594000000E+02  0.51100000000E-03 0.  1.
         11   -1    0    0    0    0 -0.00000000000E+00 -0.00000000000E+00 -0.45593999997E+02  0.45594000000E+02  0.51100000000E-03 0. -1.
    9900012    2    1    2    0    0  0.11958616867E+02  0.10950395367E+02 -0.93680515380E+01  0.72461546367E+02  0.69999968830E+02 0.  0.
        -12    1    1    2    0    0 -0.11958616867E+02 -0.10950395367E+02  0.93680515380E+01  0.18726453633E+02  0.00000000000E+00 0.  1.
         11    1    3    3    0    0  0.25365751133E+02  0.59505097955E+01  0.71823625297E+01  0.27026213740E+02  0.51100000000E-03 0. -1.
        -11    1    3    3    0    0  0.52391394943E+01 -0.52760437652E+01  0.93252700473E+01  0.11926687812E+02  0.51100000000E-03 0.  1.
         12    1    3    3    0    0 -0.18646273760E+02  0.10275929336E+02 -0.25875684115E+02  0.33508644814E+02  0.00000000000E+00 0. -1.
</event>
<event>
 7    1  0.1749439E-013  0.7246159E+02  0.7816164E-02  0.1226708E+00
        -11   -1    0    0    0    0  0.00000000000E+00  0.00000000000E+00  0.45593999997E+02  0.45594000000E+02  0.51100000000E-03 0.  1.
         11   -1    0    0    0    0 -0.00000000000E+00 -0.00000000000E+00 -0.45593999997E+02  0.45594000000E+02  0.51100000000E-03 0. -1.
    9900012    2    1    2    0    0 -0.15256643154E+02  0.80068965361E+01  0.73350545711E+01  0.72461586087E+02  0.70000020573E+02 0.  0.
        -12    1    1    2    0    0  0.15256643154E+02 -0.80068965361E+01 -0.73350545711E+01  0.18726413913E+02  0.00000000000E+00 0.  1.
         11    1    3    3    0    0 -0.11051551674E+02 -0.35079938658E+01 -0.18389515560E+02  0.21739758466E+02  0.51100000000E-03 0. -1.
        -11    1    3    3    0    0  0.11702523857E+02  0.63806087403E+01 -0.61888886753E+01  0.14695699229E+02  0.51100000000E-03 0.  1.
         12    1    3    3    0    0 -0.15907615338E+02  0.51342816616E+01  0.31913458807E+02  0.36026128392E+02  0.00000000000E+00 0. -1.
</event>
<event>
 7    1  0.1749439E-013  0.7246155E+02  0.7816164E-02  0.1226708E+00
        -11   -1    0    0    0    0  0.00000000000E+00  0.00000000000E+00  0.45593999997E+02  0.45594000000E+02  0.51100000000E-03 0.  1.
         11   -1    0    0    0    0 -0.00000000000E+00 -0.00000000000E+00 -0.45593999997E+02  0.45594000000E+02  0.51100000000E-03 0. -1.
    9900012    2    1    2    0    0 -0.59292642493E+01 -0.14455818589E+02 -0.10322460149E+02  0.72461546808E+02  0.69999969405E+02 0.  0.
        -12    1    1    2    0    0  0.59292642493E+01  0.14455818589E+02  0.10322460149E+02  0.18726453192E+02  0.00000000000E+00 0.  1.
         11    1    3    3    0    0 -0.14846718000E+02 -0.29242448138E+01 -0.43062516996E+01  0.15732769847E+02  0.51100000000E-03 0. -1.
        -11    1    3    3    0    0 -0.10756738044E+02 -0.14904739351E+02  0.17845503855E+02  0.25618756343E+02  0.51100000000E-03 0.  1.
        -12    1    3    3    0    0  0.19674191794E+02  0.33731655760E+01 -0.23861712304E+02  0.31110020618E+02  0.00000000000E+00 0.  1.
</event>
<event>
 7    1  0.1749439E-013  0.7246112E+02  0.7816164E-02  0.1226709E+00
        -11   -1    0    0    0    0  0.00000000000E+00  0.00000000000E+00  0.45593999997E+02  0.45594000000E+02  0.51100000000E-03 0.  1.
         11   -1    0    0    0    0 -0.00000000000E+00 -0.00000000000E+00 -0.45593999997E+02  0.45594000000E+02  0.51100000000E-03 0. -1.
    9900012    2    1    2    0    0  0.14481084354E+02  0.11507115877E+02 -0.29292805468E+01  0.72461115464E+02  0.69999407497E+02 0.  0.
        -12    1    1    2    0    0 -0.14481084354E+02 -0.11507115877E+02  0.29292805468E+01  0.18726884536E+02  0.00000000000E+00 0.  1.
         11    1    3    3    0    0 -0.37752821289E+01 -0.12426558394E+02  0.55646671965E+01  0.14129318099E+02  0.51100000000E-03 0. -1.
        -11    1    3    3    0    0  0.44547255026E+01  0.26861552899E+02  0.14880558868E+02  0.31029318973E+02  0.51100000000E-03 0.  1.
         12    1    3    3    0    0  0.13801640981E+02 -0.29278786275E+01 -0.23374506611E+02  0.27302478392E+02  0.00000000000E+00 0. -1.
</event>
<event>
 7    1  0.1749439E-013  0.7246157E+02  0.7816164E-02  0.1226708E+00
        -11   -1    0    0    0    0  0.00000000000E+00  0.00000000000E+00  0.45593999997E+02  0.45594000000E+02  0.51100000000E-03 0.  1.
         11   -1    0    0    0    0 -0.00000000000E+00 -0.00000000000E+00 -0.45593999997E+02  0.45594000000E+02  0.51100000000E-03 0. -1.
    9900012    2    1    2    0    0 -0.18035766177E+02 -0.50080029039E+01  0.55703788110E+00  0.72461568255E+02  0.69999997344E+02 0.  0.
        -12    1    1    2    0    0  0.18035766177E+02  0.50080029039E+01 -0.55703788110E+00  0.18726431745E+02  0.00000000000E+00 0.  1.
         11    1    3    3    0    0  0.17515309647E+02  0.35125518229E+01  0.16456314143E-01  0.17864052267E+02  0.51100000000E-03 0.  1.
        -11    1    3    3    0    0 -0.10408348390E+02  0.15075432625E+02 -0.64376184018E+01  0.19417654750E+02  0.51100000000E-03 0. -1.
         12    1    3    3    0    0 -0.25142727434E+02 -0.23595987352E+02  0.69781999688E+01  0.35179861238E+02  0.00000000000E+00 0. -1.
</event>
<event>
 7    1  0.1749439E-013  0.7246168E+02  0.7816164E-02  0.1226708E+00
        -11   -1    0    0    0    0  0.00000000000E+00  0.00000000000E+00  0.45593999997E+02  0.45594000000E+02  0.51100000000E-03 0.  1.
         11   -1    0    0    0    0 -0.00000000000E+00 -0.00000000000E+00 -0.45593999997E+02  0.45594000000E+02  0.51100000000E-03 0. -1.
    9900012    2    1    2    0    0 -0.85913401151E+01 -0.79666860621E+01 -0.14608080793E+02  0.72461675314E+02  0.70000136807E+02 0.  0.
        -12    1    1    2    0    0  0.85913401151E+01  0.79666860621E+01  0.14608080793E+02  0.18726324686E+02  0.00000000000E+00 0.  1.
         11    1    3    3    0    0  0.20909647362E+01 -0.11105170221E+01 -0.35928135175E+02  0.36006058921E+02  0.51100000000E-03 0. -1.
        -11    1    3    3    0    0 -0.25972739970E+01 -0.42798450067E+01 -0.60196213065E+01  0.78293515971E+01  0.51100000000E-03 0.  1.
        -12    1    3    3    0    0 -0.80850308543E+01 -0.25763240333E+01  0.27339675688E+02  0.28626264796E+02  0.00000000000E+00 0.  1.
</event>
<event>
 7    1  0.1749439E-013  0.7246159E+02  0.7816164E-02  0.1226708E+00
        -11   -1    0    0    0    0  0.00000000000E+00  0.00000000000E+00  0.45593999997E+02  0.45594000000E+02  0.51100000000E-03 0. -1.
         11   -1    0    0    0    0 -0.00000000000E+00 -0.00000000000E+00 -0.45593999997E+02  0.45594000000E+02  0.51100000000E-03 0.  1.
    9900012    2    1    2    0    0  0.58625695220E+00 -0.65123257014E+01  0.17547772676E+02  0.72461590597E+02  0.70000026448E+02 0.  0.
        -12    1    1    2    0    0 -0.58625695220E+00  0.65123257014E+01 -0.17547772676E+02  0.18726409403E+02  0.00000000000E+00 0.  1.
         11    1    3    3    0    0 -0.10019687873E+02  0.12027113692E+02  0.25960012269E+02  0.30314482448E+02  0.51100000000E-03 0. -1.
        -11    1    3    3    0    0  0.14007209207E+02  0.54351252806E+01  0.30904400521E+01  0.15339273665E+02  0.51100000000E-03 0.  1.
        -12    1    3    3    0    0 -0.34012643824E+01 -0.23974564674E+02 -0.11502679645E+02  0.26807834484E+02  0.00000000000E+00 0.  1.
</event>
<event>
 7    1  0.1749439E-013  0.7246154E+02  0.7816164E-02  0.1226708E+00
        -11   -1    0    0    0    0  0.00000000000E+00  0.00000000000E+00  0.45593999997E+02  0.45594000000E+02  0.51100000000E-03 0.  1.
         11   -1    0    0    0    0 -0.00000000000E+00 -0.00000000000E+00 -0.45593999997E+02  0.45594000000E+02  0.51100000000E-03 0. -1.
    9900012    2    1    2    0    0 -0.18086020899E+02 -0.21873016903E+01  0.43349566951E+01  0.72461540372E+02  0.69999961020E+02 0.  0.
        -12    1    1    2    0    0  0.18086020899E+02  0.21873016903E+01 -0.43349566951E+01  0.18726459628E+02  0.00000000000E+00 0.  1.
         11    1    3    3    0    0  0.15361723516E+02 -0.14159396226E+02 -0.18631993788E+02  0.27993253538E+02  0.51100000000E-03 0.  1.
        -11    1    3    3    0    0 -0.17800123444E+02  0.57461401516E+01  0.40441293529E+01  0.19136810177E+02  0.51100000000E-03 0. -1.
        -12    1    3    3    0    0 -0.15647620971E+02  0.62259543845E+01  0.18922821130E+02  0.25331476657E+02  0.00000000000E+00 0.  1.
</event>
<event>
 7    1  0.1749439E-013  0.7246152E+02  0.7816164E-02  0.1226708E+00
        -11   -1    0    0    0    0  0.00000000000E+00  0.00000000000E+00  0.45593999997E+02  0.45594000000E+02  0.51100000000E-03 0. -1.
         11   -1    0    0    0    0 -0.00000000000E+00 -0.00000000000E+00 -0.45593999997E+02  0.45594000000E+02  0.51100000000E-03 0.  1.
    9900012    2    1    2    0    0  0.95354931941E+01 -0.15306452329E+02  0.50465777969E+01  0.72461519796E+02  0.69999934217E+02 0.  0.
        -12    1    1    2    0    0 -0.95354931941E+01  0.15306452329E+02 -0.50465777969E+01  0.18726480204E+02  0.00000000000E+00 0.  1.
         11    1    3    3    0    0  0.35638113512E+02  0.19969645304E+01  0.10569032860E+02  0.37225897678E+02  0.51100000000E-03 0. -1.
        -11    1    3    3    0    0 -0.10936478104E+02  0.67516863645E+00  0.45551283481E+00  0.10966763343E+02  0.51100000000E-03 0.  1.
        -12    1    3    3    0    0 -0.15166142214E+02 -0.17978585496E+02 -0.59779678982E+01  0.24268858776E+02  0.00000000000E+00 0.  1.
</event>
<event>
 7    1  0.1749439E-013  0.7246169E+02  0.7816164E-02  0.1226708E+00
        -11   -1    0    0    0    0  0.00000000000E+00  0.00000000000E+00  0.45593999997E+02  0.45594000000E+02  0.51100000000E-03 0.  1.
         11   -1    0    0    0    0 -0.00000000000E+00 -0.00000000000E+00 -0.45593999997E+02  0.45594000000E+02  0.51100000000E-03 0. -1.
    9900012    2    1    2    0    0 -0.16768205989E+02 -0.81722425091E+01  0.16480987545E+01  0.72461694726E+02  0.70000162095E+02 0.  0.
        -12    1    1    2    0    0  0.16768205989E+02  0.81722425091E+01 -0.16480987545E+01  0.18726305274E+02  0.00000000000E+00 0.  1.
         11    1    3    3    0    0 -0.64861610664E+01 -0.11984296447E+02 -0.79797906307E+01  0.15791475722E+02  0.51100000000E-03 0. -1.
        -11    1    3    3    0    0 -0.14110538761E+02 -0.16532065808E+02  0.23298232368E+02  0.31862582063E+02  0.51100000000E-03 0.  1.
         12    1    3    3    0    0  0.38284938385E+01  0.20344119746E+02 -0.13670342983E+02  0.24807636940E+02  0.00000000000E+00 0. -1.
</event>
<event>
 7    1  0.1749439E-013  0.7246162E+02  0.7816164E-02  0.1226708E+00
        -11   -1    0    0    0    0  0.00000000000E+00  0.00000000000E+00  0.45593999997E+02  0.45594000000E+02  0.51100000000E-03 0. -1.
         11   -1    0    0    0    0 -0.00000000000E+00 -0.00000000000E+00 -0.45593999997E+02  0.45594000000E+02  0.51100000000E-03 0.  1.
    9900012    2    1    2    0    0 -0.18441526669E+02  0.19751374465E+01 -0.25857454836E+01  0.72461624122E+02  0.70000070121E+02 0.  0.
        -12    1    1    2    0    0  0.18441526669E+02 -0.19751374465E+01  0.25857454836E+01  0.18726375878E+02  0.00000000000E+00 0.  1.
         11    1    3    3    0    0 -0.27266669103E+01 -0.48487422571E+00 -0.79911962641E+01  0.84574838722E+01  0.51100000000E-03 0. -1.
        -11    1    3    3    0    0  0.76497461179E+01  0.24971556590E+02 -0.10153718727E+02  0.28021335772E+02  0.51100000000E-03 0.  1.
         12    1    3    3    0    0 -0.23364605877E+02 -0.22511544918E+02  0.15559169507E+02  0.35982804478E+02  0.00000000000E+00 0. -1.
</event>
<event>
 7    1  0.1749439E-013  0.7246155E+02  0.7816164E-02  0.1226708E+00
        -11   -1    0    0    0    0  0.00000000000E+00  0.00000000000E+00  0.45593999997E+02  0.45594000000E+02  0.51100000000E-03 0. -1.
         11   -1    0    0    0    0 -0.00000000000E+00 -0.00000000000E+00 -0.45593999997E+02  0.45594000000E+02  0.51100000000E-03 0.  1.
    9900012    2    1    2    0    0  0.17340215975E+02  0.43517304602E+01 -0.55730975907E+01  0.72461546389E+02  0.69999968859E+02 0.  0.
        -12    1    1    2    0    0 -0.17340215975E+02 -0.43517304602E+01  0.55730975907E+01  0.18726453611E+02  0.00000000000E+00 0.  1.
         11    1    3    3    0    0  0.13424918268E+01  0.10441060992E+01  0.17218839612E+02  0.17302626382E+02  0.51100000000E-03 0. -1.
        -11    1    3    3    0    0 -0.51068493435E+01 -0.18357166072E+02 -0.14055010494E+02  0.23677178393E+02  0.51100000000E-03 0.  1.
         12    1    3    3    0    0  0.21104573492E+02  0.21664790433E+02 -0.87369267090E+01  0.31481741615E+02  0.00000000000E+00 0. -1.
</event>
<event>
 7    1  0.1749439E-013  0.7246156E+02  0.7816164E-02  0.1226708E+00
        -11   -1    0    0    0    0  0.00000000000E+00  0.00000000000E+00  0.45593999997E+02  0.45594000000E+02  0.51100000000E-03 0.  1.
         11   -1    0    0    0    0 -0.00000000000E+00 -0.00000000000E+00 -0.45593999997E+02  0.45594000000E+02  0.51100000000E-03 0. -1.
    9900012    2    1    2    0    0  0.35661694969E+01 -0.12549317523E+01 -0.18340863529E+02  0.72461556302E+02  0.69999981772E+02 0.  0.
        -12    1    1    2    0    0 -0.35661694969E+01  0.12549317523E+01  0.18340863529E+02  0.18726443698E+02  0.00000000000E+00 0.  1.
         11    1    3    3    0    0  0.63272971024E+01 -0.43421046706E+01 -0.16656149479E+02  0.18338917016E+02  0.51100000000E-03 0. -1.
        -11    1    3    3    0    0  0.10279174915E+02 -0.19318050711E+02  0.11842684661E+02  0.24881673988E+02  0.51100000000E-03 0.  1.
         12    1    3    3    0    0 -0.13040302520E+02  0.22405223629E+02 -0.13527398711E+02  0.29240965298E+02  0.00000000000E+00 0. -1.
</event>
<event>
 7    1  0.1749439E-013  0.7246156E+02  0.7816164E-02  0.1226708E+00
        -11   -1    0    0    0    0  0.00000000000E+00  0.00000000000E+00  0.45593999997E+02  0.45594000000E+02  0.51100000000E-03 0. -1.
         11   -1    0    0    0    0 -0.00000000000E+00 -0.00000000000E+00 -0.45593999997E+02  0.45594000000E+02  0.51100000000E-03 0.  1.
    9900012    2    1    2    0    0  0.12341829681E+02 -0.21578684339E+01 -0.13917699204E+02  0.72461561279E+02  0.69999988256E+02 0.  0.
        -12    1    1    2    0    0 -0.12341829681E+02  0.21578684339E+01  0.13917699204E+02  0.18726438721E+02  0.00000000000E+00 0.  1.
         11    1    3    3    0    0  0.17415362126E+02 -0.57702466541E+00 -0.56906141115E+01  0.18330599681E+02  0.51100000000E-03 0. -1.
        -11    1    3    3    0    0  0.12480397930E+02 -0.27901120318E+01 -0.26091023847E+02  0.29056609976E+02  0.51100000000E-03 0.  1.
        -12    1    3    3    0    0 -0.17553930376E+02  0.12092682633E+01  0.17863938755E+02  0.25074351621E+02  0.00000000000E+00 0.  1.
</event>
<event>
 7    1  0.1749439E-013  0.7246156E+02  0.7816164E-02  0.1226708E+00
        -11   -1    0    0    0    0  0.00000000000E+00  0.00000000000E+00  0.45593999997E+02  0.45594000000E+02  0.51100000000E-03 0. -1.
         11   -1    0    0    0    0 -0.00000000000E+00 -0.00000000000E+00 -0.45593999997E+02  0.45594000000E+02  0.51100000000E-03 0.  1.
    9900012    2    1    2    0    0  0.16984173036E+02 -0.23994311141E-01 -0.78877716235E+01  0.72461557449E+02  0.69999983266E+02 0.  0.
        -12    1    1    2    0    0 -0.16984173036E+02  0.23994311141E-01  0.78877716235E+01  0.18726442551E+02  0.00000000000E+00 0.  1.
         11    1    3    3    0    0 -0.98113807096E+01 -0.16795553504E+02 -0.18475909169E+02  0.26827467805E+02  0.51100000000E-03 0. -1.
        -11    1    3    3    0    0  0.15305131493E+02  0.57755958979E+01 -0.10337036929E+02  0.19350940306E+02  0.51100000000E-03 0.  1.
        -12    1    3    3    0    0  0.11490422253E+02  0.10995963295E+02  0.20925174474E+02  0.26283149338E+02  0.00000000000E+00 0.  1.
</event>
<event>
 7    1  0.1749439E-013  0.7246160E+02  0.7816164E-02  0.1226708E+00
        -11   -1    0    0    0    0  0.00000000000E+00  0.00000000000E+00  0.45593999997E+02  0.45594000000E+02  0.51100000000E-03 0.  1.
         11   -1    0    0    0    0 -0.00000000000E+00 -0.00000000000E+00 -0.45593999997E+02  0.45594000000E+02  0.51100000000E-03 0. -1.
    9900012    2    1    2    0    0 -0.22256417175E+01  0.17932969995E+02 -0.49125679839E+01  0.72461595698E+02  0.70000033093E+02 0.  0.
        -12    1    1    2    0    0  0.22256417175E+01 -0.17932969995E+02  0.49125679839E+01  0.18726404302E+02  0.00000000000E+00 0.  1.
         11    1    3    3    0    0  0.23587579596E+02  0.12045925182E+02  0.14388118238E+00  0.26485825015E+02  0.51100000000E-03 0. -1.
        -11    1    3    3    0    0  0.17728181249E+01  0.43902749813E+01  0.12415639113E+02  0.13287794902E+02  0.51100000000E-03 0.  1.
        -12    1    3    3    0    0 -0.27586039438E+02  0.14967698321E+01 -0.17472088279E+02  0.32687975781E+02  0.00000000000E+00 0.  1.
</event>
<event>
 7    1  0.1749439E-013  0.7246157E+02  0.7816164E-02  0.1226708E+00
        -11   -1    0    0    0    0  0.00000000000E+00  0.00000000000E+00  0.45593999997E+02  0.45594000000E+02  0.51100000000E-03 0. -1.
         11   -1    0    0    0    0 -0.00000000000E+00 -0.00000000000E+00 -0.45593999997E+02  0.45594000000E+02  0.51100000000E-03 0.  1.
    9900012    2    1    2    0    0  0.16162371845E+02 -0.68794107754E+01  0.64908095159E+01  0.72461570430E+02  0.70000000177E+02 0.  0.
        -12    1    1    2    0    0 -0.16162371845E+02  0.68794107754E+01 -0.64908095159E+01  0.18726429570E+02  0.00000000000E+00 0.  1.
         11    1    3    3    0    0 -0.45943505389E+01  0.20710743070E+02  0.84541994568E+01  0.22836734095E+02  0.51100000000E-03 0. -1.
        -11    1    3    3    0    0 -0.14676812743E+01 -0.29902628384E+01  0.12878152770E+02  0.13301976515E+02  0.51100000000E-03 0.  1.
         12    1    3    3    0    0  0.22224403658E+02 -0.24599891007E+02 -0.14841542711E+02  0.36322859821E+02  0.00000000000E+00 0. -1.
</event>
<event>
 7    1  0.1749439E-013  0.7246161E+02  0.7816164E-02  0.1226708E+00
        -11   -1    0    0    0    0  0.00000000000E+00  0.00000000000E+00  0.45593999997E+02  0.45594000000E+02  0.51100000000E-03 0.  1.
         11   -1    0    0    0    0 -0.00000000000E+00 -0.00000000000E+00 -0.45593999997E+02  0.45594000000E+02  0.51100000000E-03 0. -1.
    9900012    2    1    2    0    0  0.17291048088E+02 -0.15353667819E+01 -0.70242440366E+01  0.72461609546E+02  0.70000051132E+02 0.  0.
        -12    1    1    2    0    0 -0.17291048088E+02  0.15353667819E+01  0.70242440366E+01  0.18726390454E+02  0.00000000000E+00 0.  1.
         11    1    3    3    0    0 -0.23147281208E+01 -0.89486738855E+01 -0.18429500359E+01  0.94251363745E+01  0.51100000000E-03 0. -1.
        -11    1    3    3    0    0  0.16574591098E+02 -0.57982814017E+01  0.24653013426E+02  0.30267279503E+02  0.51100000000E-03 0.  1.
         12    1    3    3    0    0  0.30311851113E+01  0.13211588505E+02 -0.29834307427E+02  0.32769193668E+02  0.00000000000E+00 0. -1.
</event>
<event>
 7    1  0.1749439E-013  0.7246156E+02  0.7816164E-02  0.1226708E+00
        -11   -1    0    0    0    0  0.00000000000E+00  0.00000000000E+00  0.45593999997E+02  0.45594000000E+02  0.51100000000E-03 0. -1.
         11   -1    0    0    0    0 -0.00000000000E+00 -0.00000000000E+00 -0.45593999997E+02  0.45594000000E+02  0.51100000000E-03 0.  1.
    9900012    2    1    2    0    0  0.16727820742E+01  0.16370609310E+02  0.89378175144E+01  0.72461557974E+02  0.69999983950E+02 0.  0.
        -12    1    1    2    0    0 -0.16727820742E+01 -0.16370609310E+02 -0.89378175144E+01  0.18726442026E+02  0.00000000000E+00 0.  1.
         11    1    3    3    0    0 -0.82747255142E+01  0.22810511751E+02 -0.82030492338E+01  0.25614069291E+02  0.51100000000E-03 0. -1.
        -11    1    3    3    0    0  0.23058448039E+01  0.17679885473E+02  0.10489920683E+02  0.20686558602E+02  0.51100000000E-03 0.  1.
         12    1    3    3    0    0  0.76416627844E+01 -0.24119787914E+02  0.66509460649E+01  0.26160930080E+02  0.00000000000E+00 0. -1.
</event>
<event>
 7    1  0.1749439E-013  0.7246133E+02  0.7816164E-02  0.1226709E+00
        -11   -1    0    0    0    0  0.00000000000E+00  0.00000000000E+00  0.45593999997E+02  0.45594000000E+02  0.51100000000E-03 0.  1.
         11   -1    0    0    0    0 -0.00000000000E+00 -0.00000000000E+00 -0.45593999997E+02  0.45594000000E+02  0.51100000000E-03 0. -1.
    9900012    2    1    2    0    0  0.57420516409E+01  0.17724366123E+02  0.18877910137E+01  0.72461332747E+02  0.69999690550E+02 0.  0.
        -12    1    1    2    0    0 -0.57420516409E+01 -0.17724366123E+02 -0.18877910137E+01  0.18726667253E+02  0.00000000000E+00 0.  1.
         11    1    3    3    0    0 -0.15238547809E+02  0.33659802409E+01  0.96038728422E+01  0.18324233575E+02  0.51100000000E-03 0. -1.
        -11    1    3    3    0    0  0.23823243960E+00 -0.16146118912E+02  0.11800280645E+01  0.16190935029E+02  0.51100000000E-03 0.  1.
        -12    1    3    3    0    0  0.20742367010E+02  0.30504504794E+02 -0.88961098930E+01  0.37946164142E+02  0.00000000000E+00 0.  1.
</event>
<event>
 7    1  0.1749439E-013  0.7246163E+02  0.7816164E-02  0.1226708E+00
        -11   -1    0    0    0    0  0.00000000000E+00  0.00000000000E+00  0.45593999997E+02  0.45594000000E+02  0.51100000000E-03 0.  1.
         11   -1    0    0    0    0 -0.00000000000E+00 -0.00000000000E+00 -0.45593999997E+02  0.45594000000E+02  0.51100000000E-03 0. -1.
    9900012    2    1    2    0    0  0.32340137934E+01 -0.18173886068E+02  0.31508642445E+01  0.72461630210E+02  0.70000078052E+02 0.  0.
        -12    1    1    2    0    0 -0.32340137934E+01  0.18173886068E+02 -0.31508642445E+01  0.18726369790E+02  0.00000000000E+00 0.  1.
         11    1    3    3    0    0 -0.29126078903E+01 -0.74711660180E+01  0.78463671151E+01  0.11219050029E+02  0.51100000000E-03 0. -1.
        -11    1    3    3    0    0  0.14313000738E+01 -0.33589852983E+02  0.81259546143E+01  0.34588408203E+02  0.51100000000E-03 0.  1.
         12    1    3    3    0    0  0.47153216100E+01  0.22887132934E+02 -0.12821457485E+02  0.26654171978E+02  0.00000000000E+00 0. -1.
</event>
<event>
 7    1  0.1749439E-013  0.7246160E+02  0.7816164E-02  0.1226708E+00
        -11   -1    0    0    0    0  0.00000000000E+00  0.00000000000E+00  0.45593999997E+02  0.45594000000E+02  0.51100000000E-03 0. -1.
         11   -1    0    0    0    0 -0.00000000000E+00 -0.00000000000E+00 -0.45593999997E+02  0.45594000000E+02  0.51100000000E-03 0.  1.
    9900012    2    1    2    0    0 -0.24250546806E+01  0.18266468643E+02  0.33366726432E+01  0.72461597483E+02  0.70000035418E+02 0.  0.
        -12    1    1    2    0    0  0.24250546806E+01 -0.18266468643E+02 -0.33366726432E+01  0.18726402517E+02  0.00000000000E+00 0.  1.
         11    1    3    3    0    0  0.13950949488E+00 -0.41393413523E+01  0.13888444907E+02  0.14492843473E+02  0.51100000000E-03 0. -1.
        -11    1    3    3    0    0 -0.18907560315E+02 -0.46800948333E+01 -0.16800927592E+02  0.25722952648E+02  0.51100000000E-03 0.  1.
         12    1    3    3    0    0  0.16342996139E+02  0.27085904829E+02  0.62491553283E+01  0.32245801363E+02  0.00000000000E+00 0. -1.
</event>
<event>
 7    1  0.1749439E-013  0.7246124E+02  0.7816164E-02  0.1226709E+00
        -11   -1    0    0    0    0  0.00000000000E+00  0.00000000000E+00  0.45593999997E+02  0.45594000000E+02  0.51100000000E-03 0. -1.
         11   -1    0    0    0    0 -0.00000000000E+00 -0.00000000000E+00 -0.45593999997E+02  0.45594000000E+02  0.51100000000E-03 0.  1.
    9900012    2    1    2    0    0 -0.10826044717E+02 -0.14782018899E+01 -0.15208652394E+02  0.72461242868E+02  0.69999573465E+02 0.  0.
        -12    1    1    2    0    0  0.10826044717E+02  0.14782018899E+01  0.15208652394E+02  0.18726757132E+02  0.00000000000E+00 0.  1.
         11    1    3    3    0    0 -0.25922643931E+02  0.15484535041E+02  0.11809299486E+02  0.32422428169E+02  0.51100000000E-03 0. -1.
        -11    1    3    3    0    0 -0.47919901661E+00 -0.65944561306E+01  0.64369608826E+00  0.66431038131E+01  0.51100000000E-03 0.  1.
        -12    1    3    3    0    0  0.15575798230E+02 -0.10368280800E+02 -0.27661647968E+02  0.33395710885E+02  0.00000000000E+00 0.  1.
</event>
<event>
 7    1  0.1749439E-013  0.7246159E+02  0.7816164E-02  0.1226708E+00
        -11   -1    0    0    0    0  0.00000000000E+00  0.00000000000E+00  0.45593999997E+02  0.45594000000E+02  0.51100000000E-03 0. -1.
         11   -1    0    0    0    0 -0.00000000000E+00 -0.00000000000E+00 -0.45593999997E+02  0.45594000000E+02  0.51100000000E-03 0.  1.
    9900012    2    1    2    0    0  0.12085239735E+02  0.68448627223E+01  0.12560778477E+02  0.72461592948E+02  0.70000029510E+02 0.  0.
        -12    1    1    2    0    0 -0.12085239735E+02 -0.68448627223E+01 -0.12560778477E+02  0.18726407052E+02  0.00000000000E+00 0.  1.
         11    1    3    3    0    0  0.21248255583E+02 -0.44700372058E+01  0.22956732076E+02  0.31598752283E+02  0.51100000000E-03 0. -1.
        -11    1    3    3    0    0  0.36017275355E+01 -0.11828958572E+02 -0.70161981456E+01  0.14217022853E+02  0.51100000000E-03 0.  1.
        -12    1    3    3    0    0 -0.12764743384E+02  0.23143858500E+02 -0.33797554533E+01  0.26645817812E+02  0.00000000000E+00 0.  1.
</event>
<event>
 7    1  0.1749439E-013  0.7246157E+02  0.7816164E-02  0.1226708E+00
        -11   -1    0    0    0    0  0.00000000000E+00  0.00000000000E+00  0.45593999997E+02  0.45594000000E+02  0.51100000000E-03 0. -1.
         11   -1    0    0    0    0 -0.00000000000E+00 -0.00000000000E+00 -0.45593999997E+02  0.45594000000E+02  0.51100000000E-03 0.  1.
    9900012    2    1    2    0    0 -0.31695986993E+01  0.32766832930E+01  0.18163044577E+02  0.72461569544E+02  0.69999999023E+02 0.  0.
        -12    1    1    2    0    0  0.31695986993E+01 -0.32766832930E+01 -0.18163044577E+02  0.18726430456E+02  0.00000000000E+00 0.  1.
         11    1    3    3    0    0 -0.46297045832E+01  0.10532808342E+02  0.24687258182E+02  0.27236646873E+02  0.51100000000E-03 0. -1.
        -11    1    3    3    0    0  0.17064027266E+02 -0.33961505952E+01  0.11667780681E+02  0.20948794039E+02  0.51100000000E-03 0.  1.
         12    1    3    3    0    0 -0.15603921382E+02 -0.38599744537E+01 -0.18191994286E+02  0.24276128633E+02  0.00000000000E+00 0. -1.
</event>
<event>
 7    1  0.1749439E-013  0.7246155E+02  0.7816164E-02  0.1226708E+00
        -11   -1    0    0    0    0  0.00000000000E+00  0.00000000000E+00  0.45593999997E+02  0.45594000000E+02  0.51100000000E-03 0.  1.
         11   -1    0    0    0    0 -0.00000000000E+00 -0.00000000000E+00 -0.45593999997E+02  0.45594000000E+02  0.51100000000E-03 0. -1.
    9900012    2    1    2    0    0  0.15714347269E+02 -0.89933697070E+01 -0.47810558502E+01  0.72461550688E+02  0.69999974459E+02 0.  0.
        -12    1    1    2    0    0 -0.15714347269E+02  0.89933697070E+01  0.47810558502E+01  0.18726449312E+02  0.00000000000E+00 0.  1.
         11    1    3    3    0    0  0.30763080186E+02 -0.13198339346E+02  0.14756267497E+01  0.33507323656E+02  0.51100000000E-03 0. -1.
        -11    1    3    3    0    0  0.59537973808E+00 -0.12365045924E+02  0.52250659123E+01  0.13436895169E+02  0.51100000000E-03 0.  1.
        -12    1    3    3    0    0 -0.15644112655E+02  0.16570015563E+02 -0.11481748512E+02  0.25517331863E+02  0.00000000000E+00 0.  1.
</event>
<event>
 7    1  0.1749439E-013  0.7246159E+02  0.7816164E-02  0.1226708E+00
        -11   -1    0    0    0    0  0.00000000000E+00  0.00000000000E+00  0.45593999997E+02  0.45594000000E+02  0.51100000000E-03 0. -1.
         11   -1    0    0    0    0 -0.00000000000E+00 -0.00000000000E+00 -0.45593999997E+02  0.45594000000E+02  0.51100000000E-03 0.  1.
    9900012    2    1    2    0    0  0.13137854493E+02 -0.34608284751E+01 -0.12887890744E+02  0.72461593985E+02  0.70000030861E+02 0.  0.
        -12    1    1    2    0    0 -0.13137854493E+02  0.34608284751E+01  0.12887890744E+02  0.18726406015E+02  0.00000000000E+00 0.  1.
         11    1    3    3    0    0 -0.56062460680E+01  0.73433379359E+01 -0.95998971234E+01  0.13323386659E+02  0.51100000000E-03 0. -1.
        -11    1    3    3    0    0 -0.16934029274E+02 -0.10964103779E+02  0.80219596747E+01  0.21710015117E+02  0.51100000000E-03 0.  1.
         12    1    3    3    0    0  0.35678129835E+02  0.15993736790E+00 -0.11309953295E+02  0.37428192209E+02  0.00000000000E+00 0. -1.
</event>
<event>
 7    1  0.1749439E-013  0.7246155E+02  0.7816164E-02  0.1226708E+00
        -11   -1    0    0    0    0  0.00000000000E+00  0.00000000000E+00  0.45593999997E+02  0.45594000000E+02  0.51100000000E-03 0. -1.
         11   -1    0    0    0    0 -0.00000000000E+00 -0.00000000000E+00 -0.45593999997E+02  0.45594000000E+02  0.51100000000E-03 0.  1.
    9900012    2    1    2    0    0  0.22919043048E+01  0.16083158722E+02  0.93144664080E+01  0.72461545336E+02  0.69999967487E+02 0.  0.
        -12    1    1    2    0    0 -0.22919043048E+01 -0.16083158722E+02 -0.93144664080E+01  0.18726454664E+02  0.00000000000E+00 0.  1.
         11    1    3    3    0    0 -0.15477626515E+02 -0.39573851623E+01  0.15936419213E+02  0.22565178427E+02  0.51100000000E-03 0. -1.
        -11    1    3    3    0    0 -0.12383415039E+02  0.33482471050E+01  0.46347860316E+01  0.13639683593E+02  0.51100000000E-03 0.  1.
         12    1    3    3    0    0  0.30152945859E+02  0.16692296780E+02 -0.11256738837E+02  0.36256683315E+02  0.00000000000E+00 0. -1.
</event>
<event>
 7    1  0.1749439E-013  0.7246157E+02  0.7816164E-02  0.1226708E+00
        -11   -1    0    0    0    0  0.00000000000E+00  0.00000000000E+00  0.45593999997E+02  0.45594000000E+02  0.51100000000E-03 0.  1.
         11   -1    0    0    0    0 -0.00000000000E+00 -0.00000000000E+00 -0.45593999997E+02  0.45594000000E+02  0.51100000000E-03 0. -1.
    9900012    2    1    2    0    0 -0.46755942432E+01 -0.62599302522E+00 -0.18122527520E+02  0.72461573419E+02  0.70000004070E+02 0.  0.
        -12    1    1    2    0    0  0.46755942432E+01  0.62599302522E+00  0.18122527520E+02  0.18726426581E+02  0.00000000000E+00 0.  1.
         11    1    3    3    0    0 -0.11048543014E+02 -0.61122716674E+01 -0.48120729124E+01  0.13512446619E+02  0.51100000000E-03 0. -1.
        -11    1    3    3    0    0  0.86988891730E+01 -0.23814612043E+02  0.26681989745E+01  0.25493640494E+02  0.51100000000E-03 0.  1.
        -12    1    3    3    0    0 -0.23259404025E+01  0.29300890685E+02 -0.15978653582E+02  0.33455486306E+02  0.00000000000E+00 0.  1.
</event>
<event>
 7    1  0.1749439E-013  0.7246158E+02  0.7816164E-02  0.1226708E+00
        -11   -1    0    0    0    0  0.00000000000E+00  0.00000000000E+00  0.45593999997E+02  0.45594000000E+02  0.51100000000E-03 0. -1.
         11   -1    0    0    0    0 -0.00000000000E+00 -0.00000000000E+00 -0.45593999997E+02  0.45594000000E+02  0.51100000000E-03 0.  1.
    9900012    2    1    2    0    0 -0.15525557268E+02  0.10465018948E+02 -0.34550943940E+00  0.72461576774E+02  0.70000008441E+02 0.  0.
        -12    1    1    2    0    0  0.15525557268E+02 -0.10465018948E+02  0.34550943940E+00  0.18726423226E+02  0.00000000000E+00 0.  1.
         11    1    3    3    0    0 -0.96262663598E+01  0.62176375959E+00 -0.17437940166E+01  0.98026737187E+01  0.51100000000E-03 0. -1.
        -11    1    3    3    0    0  0.14092994150E+02 -0.43502411674E+01 -0.23480782415E+02  0.27728761700E+02  0.51100000000E-03 0.  1.
         12    1    3    3    0    0 -0.19992285058E+02  0.14193496356E+02  0.24879066993E+02  0.34930141355E+02  0.00000000000E+00 0. -1.
</event>
<event>
 7    1  0.1749439E-013  0.7246146E+02  0.7816164E-02  0.1226708E+00
        -11   -1    0    0    0    0  0.00000000000E+00  0.00000000000E+00  0.45593999997E+02  0.45594000000E+02  0.51100000000E-03 0. -1.
         11   -1    0    0    0    0 -0.00000000000E+00 -0.00000000000E+00 -0.45593999997E+02  0.45594000000E+02  0.51100000000E-03 0.  1.
    9900012    2    1    2    0    0 -0.17355405677E+01 -0.62706137587E+01  0.17559918585E+02  0.72461456307E+02  0.69999851510E+02 0.  0.
        -12    1    1    2    0    0  0.17355405677E+01  0.62706137587E+01 -0.17559918585E+02  0.18726543693E+02  0.00000000000E+00 0.  1.
         11    1    3    3    0    0  0.19832464191E+02 -0.17325834730E+02  0.22767664323E+02  0.34812034183E+02  0.51100000000E-03 0. -1.
        -11    1    3    3    0    0 -0.15074530254E+02 -0.77354753589E+01  0.54707801004E+00  0.16952236903E+02  0.51100000000E-03 0.  1.
        -12    1    3    3    0    0 -0.64934745047E+01  0.18790696330E+02 -0.57548237473E+01  0.20697185221E+02  0.00000000000E+00 0.  1.
</event>
<event>
 7    1  0.1749439E-013  0.7246148E+02  0.7816164E-02  0.1226708E+00
        -11   -1    0    0    0    0  0.00000000000E+00  0.00000000000E+00  0.45593999997E+02  0.45594000000E+02  0.51100000000E-03 0.  1.
         11   -1    0    0    0    0 -0.00000000000E+00 -0.00000000000E+00 -0.45593999997E+02  0.45594000000E+02  0.51100000000E-03 0. -1.
    9900012    2    1    2    0    0 -0.29903713201E+00  0.72760668614E+01 -0.17252597514E+02  0.72461476212E+02  0.69999877441E+02 0.  0.
        -12    1    1    2    0    0  0.29903713201E+00 -0.72760668614E+01  0.17252597514E+02  0.18726523788E+02  0.00000000000E+00 0.  1.
         11    1    3    3    0    0 -0.36424835830E+01  0.78021551716E+01  0.60566541911E+01  0.10527315528E+02  0.51100000000E-03 0. -1.
        -11    1    3    3    0    0  0.78363614146E+01 -0.10232851076E+02  0.16372025076E+02  0.20836578575E+02  0.51100000000E-03 0.  1.
         12    1    3    3    0    0 -0.44929149636E+01  0.97067627662E+01 -0.39681276781E+02  0.41097582109E+02  0.00000000000E+00 0. -1.
</event>
<event>
 7    1  0.1749439E-013  0.7246156E+02  0.7816164E-02  0.1226708E+00
        -11   -1    0    0    0    0  0.00000000000E+00  0.00000000000E+00  0.45593999997E+02  0.45594000000E+02  0.51100000000E-03 0.  1.
         11   -1    0    0    0    0 -0.00000000000E+00 -0.00000000000E+00 -0.45593999997E+02  0.45594000000E+02  0.51100000000E-03 0. -1.
    9900012    2    1    2    0    0 -0.99717043329E+01 -0.15809736726E+02 -0.11387425044E+01  0.72461564217E+02  0.69999992083E+02 0.  0.
        -12    1    1    2    0    0  0.99717043329E+01  0.15809736726E+02  0.11387425044E+01  0.18726435783E+02  0.00000000000E+00 0.  1.
         11    1    3    3    0    0  0.14067474664E+02 -0.96098782681E+01 -0.49370745013E+01  0.17737483154E+02  0.51100000000E-03 0. -1.
        -11    1    3    3    0    0  0.68760985516E-03  0.19428677884E+02  0.56630296044E+00  0.19436929390E+02  0.51100000000E-03 0.  1.
        -12    1    3    3    0    0 -0.24039866607E+02 -0.25628536342E+02  0.32320290365E+01  0.35287151673E+02  0.00000000000E+00 0.  1.
</event>
<event>
 7    1  0.1749439E-013  0.7246153E+02  0.7816164E-02  0.1226708E+00
        -11   -1    0    0    0    0  0.00000000000E+00  0.00000000000E+00  0.45593999997E+02  0.45594000000E+02  0.51100000000E-03 0.  1.
         11   -1    0    0    0    0 -0.00000000000E+00 -0.00000000000E+00 -0.45593999997E+02  0.45594000000E+02  0.51100000000E-03 0. -1.
    9900012    2    1    2    0    0 -0.18267429077E+02 -0.10070009124E+01 -0.39959328542E+01  0.72461534896E+02  0.69999953887E+02 0.  0.
        -12    1    1    2    0    0  0.18267429077E+02  0.10070009124E+01  0.39959328542E+01  0.18726465104E+02  0.00000000000E+00 0.  1.
         11    1    3    3    0    0  0.15258343284E+01  0.14013836303E+02 -0.43395803232E+01  0.14749499516E+02  0.51100000000E-03 0. -1.
        -11    1    3    3    0    0  0.73755389680E+01  0.54849620736E+01 -0.17137573732E+02  0.19446845957E+02  0.51100000000E-03 0.  1.
        -12    1    3    3    0    0 -0.27168802373E+02 -0.20505799289E+02  0.17481221201E+02  0.38265189423E+02  0.00000000000E+00 0.  1.
</event>
<event>
 7    1  0.1749439E-013  0.7246153E+02  0.7816164E-02  0.1226708E+00
        -11   -1    0    0    0    0  0.00000000000E+00  0.00000000000E+00  0.45593999997E+02  0.45594000000E+02  0.51100000000E-03 0.  1.
         11   -1    0    0    0    0 -0.00000000000E+00 -0.00000000000E+00 -0.45593999997E+02  0.45594000000E+02  0.51100000000E-03 0. -1.
    9900012    2    1    2    0    0 -0.39337842115E+01 -0.61530172470E+00 -0.18298294509E+02  0.72461525790E+02  0.69999942024E+02 0.  0.
        -12    1    1    2    0    0  0.39337842115E+01  0.61530172470E+00  0.18298294509E+02  0.18726474210E+02  0.00000000000E+00 0.  1.
         11    1    3    3    0    0 -0.44346127378E-01 -0.49224922012E+01  0.93095104073E+00  0.50099467214E+01  0.51100000000E-03 0. -1.
        -11    1    3    3    0    0 -0.17919428306E+02 -0.25216629300E+02 -0.15350590978E+02  0.34534402380E+02  0.51100000000E-03 0.  1.
         12    1    3    3    0    0  0.14029990222E+02  0.29523819777E+02 -0.38786545710E+01  0.32917176688E+02  0.00000000000E+00 0. -1.
</event>
<event>
 7    1  0.1749439E-013  0.7246159E+02  0.7816164E-02  0.1226708E+00
        -11   -1    0    0    0    0  0.00000000000E+00  0.00000000000E+00  0.45593999997E+02  0.45594000000E+02  0.51100000000E-03 0.  1.
         11   -1    0    0    0    0 -0.00000000000E+00 -0.00000000000E+00 -0.45593999997E+02  0.45594000000E+02  0.51100000000E-03 0. -1.
    9900012    2    1    2    0    0  0.15092368422E+02 -0.15533751910E+01 -0.10976602631E+02  0.72461591791E+02  0.70000028004E+02 0.  0.
        -12    1    1    2    0    0 -0.15092368422E+02  0.15533751910E+01  0.10976602631E+02  0.18726408209E+02  0.00000000000E+00 0.  1.
         11    1    3    3    0    0  0.12904900381E+02 -0.25791820954E+02 -0.87364932702E+01  0.30134378986E+02  0.51100000000E-03 0. -1.
        -11    1    3    3    0    0  0.11481275226E+02 -0.42954997869E+01 -0.67602561193E+00  0.12277133628E+02  0.51100000000E-03 0.  1.
        -12    1    3    3    0    0 -0.92938071839E+01  0.28533945550E+02 -0.15640837491E+01  0.30050079177E+02  0.00000000000E+00 0.  1.
</event>
<event>
 7    1  0.1749439E-013  0.7246158E+02  0.7816164E-02  0.1226708E+00
        -11   -1    0    0    0    0  0.00000000000E+00  0.00000000000E+00  0.45593999997E+02  0.45594000000E+02  0.51100000000E-03 0.  1.
         11   -1    0    0    0    0 -0.00000000000E+00 -0.00000000000E+00 -0.45593999997E+02  0.45594000000E+02  0.51100000000E-03 0. -1.
    9900012    2    1    2    0    0 -0.16378709434E+02  0.19681419892E+00 -0.90762250752E+01  0.72461582292E+02  0.70000015629E+02 0.  0.
        -12    1    1    2    0    0  0.16378709434E+02 -0.19681419892E+00  0.90762250752E+01  0.18726417708E+02  0.00000000000E+00 0.  1.
         11    1    3    3    0    0  0.63809589471E+01 -0.83945407888E+01 -0.55265970429E+00  0.10558900755E+02  0.51100000000E-03 0. -1.
        -11    1    3    3    0    0 -0.18531113815E+02 -0.64999017530E+01  0.20829740269E+02  0.28627416614E+02  0.51100000000E-03 0.  1.
        -12    1    3    3    0    0 -0.42285545661E+01  0.15091256741E+02 -0.29353305640E+02  0.33275264924E+02  0.00000000000E+00 0.  1.
</event>
<event>
 7    1  0.1749439E-013  0.7246154E+02  0.7816164E-02  0.1226708E+00
        -11   -1    0    0    0    0  0.00000000000E+00  0.00000000000E+00  0.45593999997E+02  0.45594000000E+02  0.51100000000E-03 0. -1.
         11   -1    0    0    0    0 -0.00000000000E+00 -0.00000000000E+00 -0.45593999997E+02  0.45594000000E+02  0.51100000000E-03 0.  1.
    9900012    2    1    2    0    0  0.17197512315E+02 -0.45315185922E+01  0.58644029071E+01  0.72461539789E+02  0.69999960261E+02 0.  0.
        -12    1    1    2    0    0 -0.17197512315E+02  0.45315185922E+01 -0.58644029071E+01  0.18726460211E+02  0.00000000000E+00 0.  1.
         11    1    3    3    0    0  0.25853655275E+02 -0.25128561626E+02  0.68360444256E+01  0.36695879934E+02  0.51100000000E-03 0. -1.
        -11    1    3    3    0    0 -0.12355758235E+01  0.10231718521E+02  0.13172171320E+02  0.16724856025E+02  0.51100000000E-03 0.  1.
        -12    1    3    3    0    0 -0.74205671366E+01  0.10365324512E+02 -0.14143812839E+02  0.19040803830E+02  0.00000000000E+00 0.  1.
</event>
<event>
 7    1  0.1749439E-013  0.7246153E+02  0.7816164E-02  0.1226708E+00
        -11   -1    0    0    0    0  0.00000000000E+00  0.00000000000E+00  0.45593999997E+02  0.45594000000E+02  0.51100000000E-03 0. -1.
         11   -1    0    0    0    0 -0.00000000000E+00 -0.00000000000E+00 -0.45593999997E+02  0.45594000000E+02  0.51100000000E-03 0.  1.
    9900012    2    1    2    0    0 -0.22519581543E+01 -0.12910598910E+02  0.13376308389E+02  0.72461534614E+02  0.69999953519E+02 0.  0.
        -12    1    1    2    0    0  0.22519581543E+01  0.12910598910E+02 -0.13376308389E+02  0.18726465386E+02  0.00000000000E+00 0.  1.
         11    1    3    3    0    0 -0.68456801203E+01 -0.11401062054E+02 -0.15267370366E+02  0.20246978798E+02  0.51100000000E-03 0. -1.
        -11    1    3    3    0    0  0.15346345521E+01 -0.19505017349E+02  0.16584577309E+01  0.19635459946E+02  0.51100000000E-03 0.  1.
        -12    1    3    3    0    0  0.30590874139E+01  0.17995480493E+02  0.26985221025E+02  0.32579095870E+02  0.00000000000E+00 0.  1.
</event>
<event>
 7    1  0.1749439E-013  0.7246157E+02  0.7816164E-02  0.1226708E+00
        -11   -1    0    0    0    0  0.00000000000E+00  0.00000000000E+00  0.45593999997E+02  0.45594000000E+02  0.51100000000E-03 0. -1.
         11   -1    0    0    0    0 -0.00000000000E+00 -0.00000000000E+00 -0.45593999997E+02  0.45594000000E+02  0.51100000000E-03 0.  1.
    9900012    2    1    2    0    0 -0.16634812689E+02  0.70997524808E+01  0.48534222200E+01  0.72461569862E+02  0.69999999436E+02 0.  0.
        -12    1    1    2    0    0  0.16634812689E+02 -0.70997524808E+01 -0.48534222200E+01  0.18726430138E+02  0.00000000000E+00 0.  1.
         11    1    3    3    0    0 -0.40475521275E+01 -0.24619657052E+01 -0.95755692080E+01  0.10683420767E+02  0.51100000000E-03 0.  1.
        -11    1    3    3    0    0  0.22225534587E+02  0.92089393230E+01 -0.88426356883E-01  0.24057987668E+02  0.51100000000E-03 0. -1.
         12    1    3    3    0    0 -0.34812795148E+02  0.35277886294E+00  0.14517417785E+02  0.37720161427E+02  0.00000000000E+00 0. -1.
</event>
<event>
 7    1  0.1749439E-013  0.7246157E+02  0.7816164E-02  0.1226708E+00
        -11   -1    0    0    0    0  0.00000000000E+00  0.00000000000E+00  0.45593999997E+02  0.45594000000E+02  0.51100000000E-03 0.  1.
         11   -1    0    0    0    0 -0.00000000000E+00 -0.00000000000E+00 -0.45593999997E+02  0.45594000000E+02  0.51100000000E-03 0. -1.
    9900012    2    1    2    0    0 -0.31770787729E+01  0.14842702829E+02 -0.10967206042E+02  0.72461567740E+02  0.69999996673E+02 0.  0.
        -12    1    1    2    0    0  0.31770787729E+01 -0.14842702829E+02  0.10967206042E+02  0.18726432260E+02  0.00000000000E+00 0.  1.
         11    1    3    3    0    0  0.92184707673E+01 -0.70627432713E+01  0.15375735908E+02  0.19268518386E+02  0.51100000000E-03 0. -1.
        -11    1    3    3    0    0 -0.17561163086E+02  0.61632576789E+00  0.16475264034E+01  0.17649041048E+02  0.51100000000E-03 0.  1.
         12    1    3    3    0    0  0.51656135459E+01  0.21289120333E+02 -0.27990468354E+02  0.35544008307E+02  0.00000000000E+00 0. -1.
</event>
<event>
 7    1  0.1749439E-013  0.7246157E+02  0.7816164E-02  0.1226708E+00
        -11   -1    0    0    0    0  0.00000000000E+00  0.00000000000E+00  0.45593999997E+02  0.45594000000E+02  0.51100000000E-03 0.  1.
         11   -1    0    0    0    0 -0.00000000000E+00 -0.00000000000E+00 -0.45593999997E+02  0.45594000000E+02  0.51100000000E-03 0. -1.
    9900012    2    1    2    0    0  0.93128098925E+01 -0.41425678098E+01 -0.15709549091E+02  0.72461568712E+02  0.69999997939E+02 0.  0.
        -12    1    1    2    0    0 -0.93128098925E+01  0.41425678098E+01  0.15709549091E+02  0.18726431288E+02  0.00000000000E+00 0.  1.
         11    1    3    3    0    0  0.78655400101E-01 -0.22318689158E+02 -0.55999331140E+01  0.23010635010E+02  0.51100000000E-03 0. -1.
        -11    1    3    3    0    0 -0.72490082444E+01 -0.70184792143E+01 -0.15861617670E+02  0.18798885243E+02  0.51100000000E-03 0.  1.
        -12    1    3    3    0    0  0.16483162737E+02  0.25194600562E+02  0.57520016930E+01  0.30652048460E+02  0.00000000000E+00 0.  1.
</event>
<event>
 7    1  0.1749439E-013  0.7246157E+02  0.7816164E-02  0.1226708E+00
        -11   -1    0    0    0    0  0.00000000000E+00  0.00000000000E+00  0.45593999997E+02  0.45594000000E+02  0.51100000000E-03 0.  1.
         11   -1    0    0    0    0 -0.00000000000E+00 -0.00000000000E+00 -0.45593999997E+02  0.45594000000E+02  0.51100000000E-03 0. -1.
    9900012    2    1    2    0    0 -0.96118372001E+01  0.16045426881E+02 -0.91439457187E+00  0.72461567996E+02  0.69999997006E+02 0.  0.
        -12    1    1    2    0    0  0.96118372001E+01 -0.16045426881E+02  0.91439457187E+00  0.18726432004E+02  0.00000000000E+00 0.  1.
         11    1    3    3    0    0  0.16221669398E+02 -0.22299083228E+01  0.41431476009E+01  0.16890255223E+02  0.51100000000E-03 0. -1.
        -11    1    3    3    0    0 -0.35605184369E+01 -0.12917106687E+02  0.73530794270E+01  0.15283871042E+02  0.51100000000E-03 0.  1.
         12    1    3    3    0    0 -0.22272988162E+02  0.31192441891E+02 -0.12410621600E+02  0.40287441731E+02  0.00000000000E+00 0. -1.
</event>
<event>
 7    1  0.1749439E-013  0.7246160E+02  0.7816164E-02  0.1226708E+00
        -11   -1    0    0    0    0  0.00000000000E+00  0.00000000000E+00  0.45593999997E+02  0.45594000000E+02  0.51100000000E-03 0.  1.
         11   -1    0    0    0    0 -0.00000000000E+00 -0.00000000000E+00 -0.45593999997E+02  0.45594000000E+02  0.51100000000E-03 0. -1.
    9900012    2    1    2    0    0  0.47500444105E+01 -0.38492475162E+01 -0.17700239723E+02  0.72461598461E+02  0.70000036692E+02 0.  0.
        -12    1    1    2    0    0 -0.47500444105E+01  0.38492475162E+01  0.17700239723E+02  0.18726401539E+02  0.00000000000E+00 0.  1.
         11    1    3    3    0    0  0.97154042852E+01  0.30085745272E+01 -0.14907633922E+01  0.10279249820E+02  0.51100000000E-03 0. -1.
        -11    1    3    3    0    0  0.12238222684E+02  0.12444977761E+02  0.14031116950E+02  0.22394727260E+02  0.51100000000E-03 0.  1.
         12    1    3    3    0    0 -0.17203582559E+02 -0.19302799805E+02 -0.30240593281E+02  0.39787621381E+02  0.00000000000E+00 0. -1.
</event>
<event>
 7    1  0.1749439E-013  0.7246157E+02  0.7816164E-02  0.1226708E+00
        -11   -1    0    0    0    0  0.00000000000E+00  0.00000000000E+00  0.45593999997E+02  0.45594000000E+02  0.51100000000E-03 0.  1.
         11   -1    0    0    0    0 -0.00000000000E+00 -0.00000000000E+00 -0.45593999997E+02  0.45594000000E+02  0.51100000000E-03 0. -1.
    9900012    2    1    2    0    0  0.76885211023E+01 -0.91583428966E+00 -0.17050718582E+02  0.72461571794E+02  0.70000001953E+02 0.  0.
        -12    1    1    2    0    0 -0.76885211023E+01  0.91583428966E+00  0.17050718582E+02  0.18726428206E+02  0.00000000000E+00 0.  1.
         11    1    3    3    0    0 -0.22686943003E+01  0.15370241253E+02 -0.74669402879E+01  0.17237937450E+02  0.51100000000E-03 0. -1.
        -11    1    3    3    0    0 -0.18175872102E+02  0.49125043515E+01 -0.45170994636E+00  0.18833456077E+02  0.51100000000E-03 0.  1.
        -12    1    3    3    0    0  0.28133087504E+02 -0.21198579894E+02 -0.91320683481E+01  0.36390178268E+02  0.00000000000E+00 0.  1.
</event>
<event>
 7    1  0.1749439E-013  0.7246156E+02  0.7816164E-02  0.1226708E+00
        -11   -1    0    0    0    0  0.00000000000E+00  0.00000000000E+00  0.45593999997E+02  0.45594000000E+02  0.51100000000E-03 0. -1.
         11   -1    0    0    0    0 -0.00000000000E+00 -0.00000000000E+00 -0.45593999997E+02  0.45594000000E+02  0.51100000000E-03 0.  1.
    9900012    2    1    2    0    0  0.23875415299E+01 -0.18332754506E+02 -0.29815125960E+01  0.72461557206E+02  0.69999982950E+02 0.  0.
        -12    1    1    2    0    0 -0.23875415299E+01  0.18332754506E+02  0.29815125960E+01  0.18726442794E+02  0.00000000000E+00 0.  1.
         11    1    3    3    0    0  0.28460796807E+01  0.11998025476E+01  0.68160292525E+01  0.74831778500E+01  0.51100000000E-03 0. -1.
        -11    1    3    3    0    0  0.29302212143E+02 -0.16446656664E+01 -0.68038231340E+01  0.30126675408E+02  0.51100000000E-03 0.  1.
         12    1    3    3    0    0 -0.29760750294E+02 -0.17887891388E+02 -0.29937187144E+01  0.34851703948E+02  0.00000000000E+00 0. -1.
</event>
<event>
 7    1  0.1749439E-013  0.7246152E+02  0.7816164E-02  0.1226708E+00
        -11   -1    0    0    0    0  0.00000000000E+00  0.00000000000E+00  0.45593999997E+02  0.45594000000E+02  0.51100000000E-03 0.  1.
         11   -1    0    0    0    0 -0.00000000000E+00 -0.00000000000E+00 -0.45593999997E+02  0.45594000000E+02  0.51100000000E-03 0. -1.
    9900012    2    1    2    0    0  0.12280157956E+02 -0.34836075885E+01 -0.13701943344E+02  0.72461520014E+02  0.69999934501E+02 0.  0.
        -12    1    1    2    0    0 -0.12280157956E+02  0.34836075885E+01  0.13701943344E+02  0.18726479986E+02  0.00000000000E+00 0.  1.
         11    1    3    3    0    0 -0.21709736919E+02  0.95419601696E+01  0.55731701082E+01  0.24360252591E+02  0.51100000000E-03 0. -1.
        -11    1    3    3    0    0  0.23243656183E+01  0.12346632679E+01  0.50544092645E+01  0.56986070392E+01  0.51100000000E-03 0.  1.
         12    1    3    3    0    0  0.31665529257E+02 -0.14260231026E+02 -0.24329522717E+02  0.42402660384E+02  0.00000000000E+00 0. -1.
</event>
<event>
 7    1  0.1749439E-013  0.7246162E+02  0.7816164E-02  0.1226708E+00
        -11   -1    0    0    0    0  0.00000000000E+00  0.00000000000E+00  0.45593999997E+02  0.45594000000E+02  0.51100000000E-03 0. -1.
         11   -1    0    0    0    0 -0.00000000000E+00 -0.00000000000E+00 -0.45593999997E+02  0.45594000000E+02  0.51100000000E-03 0.  1.
    9900012    2    1    2    0    0  0.44771643273E+01  0.17182727938E+02  0.59486170420E+01  0.72461623295E+02  0.70000069043E+02 0.  0.
        -12    1    1    2    0    0 -0.44771643273E+01 -0.17182727938E+02 -0.59486170420E+01  0.18726376705E+02  0.00000000000E+00 0.  1.
         11    1    3    3    0    0 -0.29044630404E+00  0.20305858169E+01  0.16930853528E+02  0.17054660338E+02  0.51100000000E-03 0. -1.
        -11    1    3    3    0    0  0.16150062850E+02 -0.71751297509E+00  0.15570847756E+02  0.22445281353E+02  0.51100000000E-03 0.  1.
        -12    1    3    3    0    0 -0.11382452219E+02  0.15869655096E+02 -0.26553084241E+02  0.32961681603E+02  0.00000000000E+00 0.  1.
</event>
<event>
 7    1  0.1749439E-013  0.7246167E+02  0.7816164E-02  0.1226708E+00
        -11   -1    0    0    0    0  0.00000000000E+00  0.00000000000E+00  0.45593999997E+02  0.45594000000E+02  0.51100000000E-03 0. -1.
         11   -1    0    0    0    0 -0.00000000000E+00 -0.00000000000E+00 -0.45593999997E+02  0.45594000000E+02  0.51100000000E-03 0.  1.
    9900012    2    1    2    0    0  0.11423891316E+02 -0.17557595167E+01  0.14733886542E+02  0.72461671024E+02  0.70000131219E+02 0.  0.
        -12    1    1    2    0    0 -0.11423891316E+02  0.17557595167E+01 -0.14733886542E+02  0.18726328976E+02  0.00000000000E+00 0.  1.
         11    1    3    3    0    0 -0.75109427984E+01 -0.13361366665E+02  0.54759113694E+01  0.16276547129E+02  0.51100000000E-03 0. -1.
        -11    1    3    3    0    0 -0.29514264387E+01 -0.69553636809E+01 -0.16166863781E+02  0.17845321144E+02  0.51100000000E-03 0.  1.
         12    1    3    3    0    0  0.21886260553E+02  0.18560970829E+02  0.25424838954E+02  0.38339802750E+02  0.00000000000E+00 0. -1.
</event>
<event>
 7    1  0.1749439E-013  0.7246158E+02  0.7816164E-02  0.1226708E+00
        -11   -1    0    0    0    0  0.00000000000E+00  0.00000000000E+00  0.45593999997E+02  0.45594000000E+02  0.51100000000E-03 0.  1.
         11   -1    0    0    0    0 -0.00000000000E+00 -0.00000000000E+00 -0.45593999997E+02  0.45594000000E+02  0.51100000000E-03 0. -1.
    9900012    2    1    2    0    0 -0.41510387619E+01 -0.17051066724E+02 -0.65351923363E+01  0.72461581813E+02  0.70000015005E+02 0.  0.
        -12    1    1    2    0    0  0.41510387619E+01  0.17051066724E+02  0.65351923363E+01  0.18726418187E+02  0.00000000000E+00 0.  1.
         11    1    3    3    0    0 -0.13732187924E+02  0.12985044799E+02 -0.55856058867E+01  0.19707444456E+02  0.51100000000E-03 0. -1.
        -11    1    3    3    0    0 -0.16378587457E+02 -0.15414214059E+02  0.30325800938E+01  0.22694771742E+02  0.51100000000E-03 0.  1.
         12    1    3    3    0    0  0.25959736619E+02 -0.14621897465E+02 -0.39821665435E+01  0.30059365615E+02  0.00000000000E+00 0. -1.
</event>
<event>
 7    1  0.1749439E-013  0.7246157E+02  0.7816164E-02  0.1226708E+00
        -11   -1    0    0    0    0  0.00000000000E+00  0.00000000000E+00  0.45593999997E+02  0.45594000000E+02  0.51100000000E-03 0. -1.
         11   -1    0    0    0    0 -0.00000000000E+00 -0.00000000000E+00 -0.45593999997E+02  0.45594000000E+02  0.51100000000E-03 0.  1.
    9900012    2    1    2    0    0 -0.81525229935E+01  0.13401474251E+02  0.10228199606E+02  0.72461569202E+02  0.69999998577E+02 0.  0.
        -12    1    1    2    0    0  0.81525229935E+01 -0.13401474251E+02 -0.10228199606E+02  0.18726430798E+02  0.00000000000E+00 0.  1.
         11    1    3    3    0    0 -0.50226429374E+01  0.33015536028E+01 -0.19350178272E+02  0.20262196270E+02  0.51100000000E-03 0.  1.
        -11    1    3    3    0    0  0.83802754401E+01  0.16819263105E+02 -0.10254188400E+01  0.18819354716E+02  0.51100000000E-03 0. -1.
         12    1    3    3    0    0 -0.11510155496E+02 -0.67193424572E+01  0.30603796718E+02  0.33380018216E+02  0.00000000000E+00 0. -1.
</event>
<event>
 7    1  0.1749439E-013  0.7246159E+02  0.7816164E-02  0.1226708E+00
        -11   -1    0    0    0    0  0.00000000000E+00  0.00000000000E+00  0.45593999997E+02  0.45594000000E+02  0.51100000000E-03 0. -1.
         11   -1    0    0    0    0 -0.00000000000E+00 -0.00000000000E+00 -0.45593999997E+02  0.45594000000E+02  0.51100000000E-03 0.  1.
    9900012    2    1    2    0    0 -0.46311699152E+01  0.17623920612E+02  0.43160443694E+01  0.72461586795E+02  0.70000021495E+02 0.  0.
        -12    1    1    2    0    0  0.46311699152E+01 -0.17623920612E+02 -0.43160443694E+01  0.18726413205E+02  0.00000000000E+00 0.  1.
         11    1    3    3    0    0  0.48135791193E+01  0.13435944608E+01 -0.25378133623E+01  0.56050233662E+01  0.51100000000E-03 0. -1.
        -11    1    3    3    0    0 -0.14826639182E+01  0.49425933252E+01 -0.28459105638E+02  0.28923143243E+02  0.51100000000E-03 0.  1.
         12    1    3    3    0    0 -0.79620851164E+01  0.11337732826E+02  0.35312963370E+02  0.37933420186E+02  0.00000000000E+00 0. -1.
</event>
<event>
 7    1  0.1749439E-013  0.7246161E+02  0.7816164E-02  0.1226708E+00
        -11   -1    0    0    0    0  0.00000000000E+00  0.00000000000E+00  0.45593999997E+02  0.45594000000E+02  0.51100000000E-03 0. -1.
         11   -1    0    0    0    0 -0.00000000000E+00 -0.00000000000E+00 -0.45593999997E+02  0.45594000000E+02  0.51100000000E-03 0.  1.
    9900012    2    1    2    0    0 -0.17646638379E+02  0.41766589648E+01 -0.46721899078E+01  0.72461609939E+02  0.70000051644E+02 0.  0.
        -12    1    1    2    0    0  0.17646638379E+02 -0.41766589648E+01  0.46721899078E+01  0.18726390061E+02  0.00000000000E+00 0.  1.
         11    1    3    3    0    0  0.14984265707E+02  0.29001923872E+01  0.14242855910E+02  0.20875782127E+02  0.51100000000E-03 0. -1.
        -11    1    3    3    0    0 -0.42847730572E+00  0.99703043014E+01 -0.14979188154E+02  0.17999073273E+02  0.51100000000E-03 0.  1.
        -12    1    3    3    0    0 -0.32202426781E+02 -0.86938377238E+01 -0.39358576641E+01  0.33586754539E+02  0.00000000000E+00 0.  1.
</event>
<event>
 7    1  0.1749439E-013  0.7246161E+02  0.7816164E-02  0.1226708E+00
        -11   -1    0    0    0    0  0.00000000000E+00  0.00000000000E+00  0.45593999997E+02  0.45594000000E+02  0.51100000000E-03 0.  1.
         11   -1    0    0    0    0 -0.00000000000E+00 -0.00000000000E+00 -0.45593999997E+02  0.45594000000E+02  0.51100000000E-03 0. -1.
    9900012    2    1    2    0    0 -0.72969170032E+00 -0.80767761458E+01 -0.16879300284E+02  0.72461613777E+02  0.70000056644E+02 0.  0.
        -12    1    1    2    0    0  0.72969170032E+00  0.80767761458E+01  0.16879300284E+02  0.18726386223E+02  0.00000000000E+00 0.  1.
         11    1    3    3    0    0  0.10943535962E+02 -0.14560265380E+02 -0.50608646882E+01  0.18904355555E+02  0.51100000000E-03 0. -1.
        -11    1    3    3    0    0 -0.54604949429E+01 -0.12912558906E+02  0.14572368751E+02  0.20221402370E+02  0.51100000000E-03 0.  1.
         12    1    3    3    0    0 -0.62127327197E+01  0.19396048140E+02 -0.26390804347E+02  0.33335855852E+02  0.00000000000E+00 0. -1.
</event>
<event>
 7    1  0.1749439E-013  0.7246157E+02  0.7816164E-02  0.1226708E+00
        -11   -1    0    0    0    0  0.00000000000E+00  0.00000000000E+00  0.45593999997E+02  0.45594000000E+02  0.51100000000E-03 0. -1.
         11   -1    0    0    0    0 -0.00000000000E+00 -0.00000000000E+00 -0.45593999997E+02  0.45594000000E+02  0.51100000000E-03 0.  1.
    9900012    2    1    2    0    0  0.12361236928E+02 -0.31801630520E+01  0.13702751239E+02  0.72461574636E+02  0.70000005656E+02 0.  0.
        -12    1    1    2    0    0 -0.12361236928E+02  0.31801630520E+01 -0.13702751239E+02  0.18726425364E+02  0.00000000000E+00 0.  1.
         11    1    3    3    0    0  0.57845484003E+01  0.73944605873E+01 -0.54510310980E+01  0.10856002389E+02  0.51100000000E-03 0. -1.
        -11    1    3    3    0    0  0.25274564490E+02 -0.38331662051E+01 -0.90356986096E+01  0.27113476777E+02  0.51100000000E-03 0.  1.
         12    1    3    3    0    0 -0.18697875963E+02 -0.67414574342E+01  0.28189480946E+02  0.34492095470E+02  0.00000000000E+00 0. -1.
</event>
<event>
 7    1  0.1749439E-013  0.7246161E+02  0.7816164E-02  0.1226708E+00
        -11   -1    0    0    0    0  0.00000000000E+00  0.00000000000E+00  0.45593999997E+02  0.45594000000E+02  0.51100000000E-03 0. -1.
         11   -1    0    0    0    0 -0.00000000000E+00 -0.00000000000E+00 -0.45593999997E+02  0.45594000000E+02  0.51100000000E-03 0.  1.
    9900012    2    1    2    0    0 -0.61081651737E+00 -0.13954471612E+02  0.12473057243E+02  0.72461614023E+02  0.70000056964E+02 0.  0.
        -12    1    1    2    0    0  0.61081651737E+00  0.13954471612E+02 -0.12473057243E+02  0.18726385977E+02  0.00000000000E+00 0.  1.
         11    1    3    3    0    0  0.42482496297E+01 -0.94329827323E+01 -0.17583287796E+01  0.10493831927E+02  0.51100000000E-03 0. -1.
        -11    1    3    3    0    0  0.11493662917E+01 -0.75463335394E+01 -0.22948247321E+02  0.24184504298E+02  0.51100000000E-03 0.  1.
         12    1    3    3    0    0 -0.60084324388E+01  0.30248446597E+01  0.37179633344E+02  0.37783277798E+02  0.00000000000E+00 0. -1.
</event>
<event>
 7    1  0.1749439E-013  0.7246135E+02  0.7816164E-02  0.1226709E+00
        -11   -1    0    0    0    0  0.00000000000E+00  0.00000000000E+00  0.45593999997E+02  0.45594000000E+02  0.51100000000E-03 0. -1.
         11   -1    0    0    0    0 -0.00000000000E+00 -0.00000000000E+00 -0.45593999997E+02  0.45594000000E+02  0.51100000000E-03 0.  1.
    9900012    2    1    2    0    0  0.15795514537E+02 -0.98363278237E+01  0.21061003508E+01  0.72461353657E+02  0.69999717790E+02 0.  0.
        -12    1    1    2    0    0 -0.15795514537E+02  0.98363278237E+01 -0.21061003508E+01  0.18726646343E+02  0.00000000000E+00 0.  1.
         11    1    3    3    0    0  0.11959231429E+02 -0.16869951333E+02  0.10785891018E+02  0.23322819720E+02  0.51100000000E-03 0. -1.
        -11    1    3    3    0    0  0.19776276873E+02 -0.11043406092E+02  0.20771871686E+01  0.22745827131E+02  0.51100000000E-03 0.  1.
        -12    1    3    3    0    0 -0.15939993765E+02  0.18077029601E+02 -0.10756977836E+02  0.26392706807E+02  0.00000000000E+00 0.  1.
</event>
<event>
 7    1  0.1749439E-013  0.7246161E+02  0.7816164E-02  0.1226708E+00
        -11   -1    0    0    0    0  0.00000000000E+00  0.00000000000E+00  0.45593999997E+02  0.45594000000E+02  0.51100000000E-03 0.  1.
         11   -1    0    0    0    0 -0.00000000000E+00 -0.00000000000E+00 -0.45593999997E+02  0.45594000000E+02  0.51100000000E-03 0. -1.
    9900012    2    1    2    0    0 -0.14631791388E+02  0.49012507134E+01 -0.10609709961E+02  0.72461614251E+02  0.70000057261E+02 0.  0.
        -12    1    1    2    0    0  0.14631791388E+02 -0.49012507134E+01  0.10609709961E+02  0.18726385749E+02  0.00000000000E+00 0.  1.
         11    1    3    3    0    0 -0.64028997043E+01 -0.10460238012E+02  0.27027095568E+01  0.12558596382E+02  0.51100000000E-03 0. -1.
        -11    1    3    3    0    0  0.33743939739E+01  0.32129745240E+02  0.47604177075E+01  0.32655300349E+02  0.51100000000E-03 0.  1.
         12    1    3    3    0    0 -0.11603285658E+02 -0.16768256515E+02 -0.18072837225E+02  0.27247717519E+02  0.00000000000E+00 0. -1.
</event>
<event>
 7    1  0.1749439E-013  0.7246160E+02  0.7816164E-02  0.1226708E+00
        -11   -1    0    0    0    0  0.00000000000E+00  0.00000000000E+00  0.45593999997E+02  0.45594000000E+02  0.51100000000E-03 0. -1.
         11   -1    0    0    0    0 -0.00000000000E+00 -0.00000000000E+00 -0.45593999997E+02  0.45594000000E+02  0.51100000000E-03 0.  1.
    9900012    2    1    2    0    0  0.71220916536E+01 -0.96458106639E+01  0.14384445647E+02  0.72461598064E+02  0.70000036175E+02 0.  0.
        -12    1    1    2    0    0 -0.71220916536E+01  0.96458106639E+01 -0.14384445647E+02  0.18726401936E+02  0.00000000000E+00 0.  1.
         11    1    3    3    0    0  0.29303214039E+02 -0.17514824803E+02 -0.52186044966E+01  0.34535217881E+02  0.51100000000E-03 0. -1.
        -11    1    3    3    0    0  0.14328680839E+01  0.82010984711E+01  0.22619037586E+01  0.86271279087E+01  0.51100000000E-03 0.  1.
        -12    1    3    3    0    0 -0.23613990470E+02 -0.33208433221E+00  0.17341146385E+02  0.29299252275E+02  0.00000000000E+00 0.  1.
</event>
<event>
 7    1  0.1749439E-013  0.7246153E+02  0.7816164E-02  0.1226708E+00
        -11   -1    0    0    0    0  0.00000000000E+00  0.00000000000E+00  0.45593999997E+02  0.45594000000E+02  0.51100000000E-03 0.  1.
         11   -1    0    0    0    0 -0.00000000000E+00 -0.00000000000E+00 -0.45593999997E+02  0.45594000000E+02  0.51100000000E-03 0. -1.
    9900012    2    1    2    0    0  0.55975318668E+01 -0.13945121708E+02  0.11175064383E+02  0.72461525521E+02  0.69999941675E+02 0.  0.
        -12    1    1    2    0    0 -0.55975318668E+01  0.13945121708E+02 -0.11175064383E+02  0.18726474479E+02  0.00000000000E+00 0.  1.
         11    1    3    3    0    0 -0.11493038600E+02  0.42948480001E+01  0.10588274735E+02  0.16206394347E+02  0.51100000000E-03 0. -1.
        -11    1    3    3    0    0  0.20720837885E+02  0.67472750028E+01  0.15672468934E+02  0.26842226535E+02  0.51100000000E-03 0.  1.
         12    1    3    3    0    0 -0.36302674181E+01 -0.24987244711E+02 -0.15085679286E+02  0.29412904639E+02  0.00000000000E+00 0. -1.
</event>
<event>
 7    1  0.1749439E-013  0.7246155E+02  0.7816164E-02  0.1226708E+00
        -11   -1    0    0    0    0  0.00000000000E+00  0.00000000000E+00  0.45593999997E+02  0.45594000000E+02  0.51100000000E-03 0. -1.
         11   -1    0    0    0    0 -0.00000000000E+00 -0.00000000000E+00 -0.45593999997E+02  0.45594000000E+02  0.51100000000E-03 0.  1.
    9900012    2    1    2    0    0 -0.88871212037E+00 -0.18684084738E+02  0.89169267796E+00  0.72461549520E+02  0.69999972938E+02 0.  0.
        -12    1    1    2    0    0  0.88871212037E+00  0.18684084738E+02 -0.89169267796E+00  0.18726450480E+02  0.00000000000E+00 0.  1.
         11    1    3    3    0    0 -0.14633658285E+02 -0.11157836132E+00  0.17807723805E+02  0.23049326062E+02  0.51100000000E-03 0. -1.
        -11    1    3    3    0    0 -0.11863489750E+01 -0.28447738817E+02 -0.92380475618E+01  0.29933639784E+02  0.51100000000E-03 0.  1.
         12    1    3    3    0    0  0.14931295140E+02  0.98752324403E+01 -0.76779835655E+01  0.19478583674E+02  0.00000000000E+00 0. -1.
</event>
<event>
 7    1  0.1749439E-013  0.7246157E+02  0.7816164E-02  0.1226708E+00
        -11   -1    0    0    0    0  0.00000000000E+00  0.00000000000E+00  0.45593999997E+02  0.45594000000E+02  0.51100000000E-03 0.  1.
         11   -1    0    0    0    0 -0.00000000000E+00 -0.00000000000E+00 -0.45593999997E+02  0.45594000000E+02  0.51100000000E-03 0. -1.
    9900012    2    1    2    0    0  0.23275523627E+01  0.12467556502E+02 -0.13777580644E+02  0.72461569653E+02  0.69999999164E+02 0.  0.
        -12    1    1    2    0    0 -0.23275523627E+01 -0.12467556502E+02  0.13777580644E+02  0.18726430347E+02  0.00000000000E+00 0.  1.
         11    1    3    3    0    0 -0.17032822863E+01 -0.20904950109E+02 -0.11095411109E+02  0.23728174341E+02  0.51100000000E-03 0. -1.
        -11    1    3    3    0    0  0.45161256347E+01 -0.69651008131E+01  0.39244748534E-01  0.83011782595E+01  0.51100000000E-03 0.  1.
         12    1    3    3    0    0 -0.48529098570E+00  0.40337607425E+02 -0.27214142839E+01  0.40432217053E+02  0.00000000000E+00 0. -1.
</event>
<event>
 7    1  0.1749439E-013  0.7246157E+02  0.7816164E-02  0.1226708E+00
        -11   -1    0    0    0    0  0.00000000000E+00  0.00000000000E+00  0.45593999997E+02  0.45594000000E+02  0.51100000000E-03 0. -1.
         11   -1    0    0    0    0 -0.00000000000E+00 -0.00000000000E+00 -0.45593999997E+02  0.45594000000E+02  0.51100000000E-03 0.  1.
    9900012    2    1    2    0    0 -0.32004839945E+01  0.18149126537E+02 -0.33234678583E+01  0.72461565997E+02  0.69999994402E+02 0.  0.
        -12    1    1    2    0    0  0.32004839945E+01 -0.18149126537E+02  0.33234678583E+01  0.18726434003E+02  0.00000000000E+00 0.  1.
         11    1    3    3    0    0 -0.35482944273E+01 -0.51543223311E+01  0.13144889170E+02  0.14558349618E+02  0.51100000000E-03 0. -1.
        -11    1    3    3    0    0 -0.18336031721E+02 -0.71625036281E+01 -0.74153068979E+01  0.21035643422E+02  0.51100000000E-03 0.  1.
        -12    1    3    3    0    0  0.18683842154E+02  0.30465952496E+02 -0.90530501306E+01  0.36867572958E+02  0.00000000000E+00 0.  1.
</event>
<event>
 7    1  0.1749439E-013  0.7246154E+02  0.7816164E-02  0.1226708E+00
        -11   -1    0    0    0    0  0.00000000000E+00  0.00000000000E+00  0.45593999997E+02  0.45594000000E+02  0.51100000000E-03 0. -1.
         11   -1    0    0    0    0 -0.00000000000E+00 -0.00000000000E+00 -0.45593999997E+02  0.45594000000E+02  0.51100000000E-03 0.  1.
    9900012    2    1    2    0    0 -0.68718417364E+01 -0.10983996749E+02 -0.13520722668E+02  0.72461539179E+02  0.69999959466E+02 0.  0.
        -12    1    1    2    0    0  0.68718417364E+01  0.10983996749E+02  0.13520722668E+02  0.18726460821E+02  0.00000000000E+00 0.  1.
         11    1    3    3    0    0 -0.14649370083E+02 -0.20104342724E+02 -0.16279165367E+02  0.29728771678E+02  0.51100000000E-03 0. -1.
        -11    1    3    3    0    0 -0.42705444061E+00 -0.39196780725E+01 -0.17128411847E+02  0.17576368918E+02  0.51100000000E-03 0.  1.
         12    1    3    3    0    0  0.82045827876E+01  0.13040024047E+02  0.19886854546E+02  0.25156398582E+02  0.00000000000E+00 0. -1.
</event>
<event>
 7    1  0.1749439E-013  0.7246157E+02  0.7816164E-02  0.1226708E+00
        -11   -1    0    0    0    0  0.00000000000E+00  0.00000000000E+00  0.45593999997E+02  0.45594000000E+02  0.51100000000E-03 0.  1.
         11   -1    0    0    0    0 -0.00000000000E+00 -0.00000000000E+00 -0.45593999997E+02  0.45594000000E+02  0.51100000000E-03 0. -1.
    9900012    2    1    2    0    0 -0.77427687451E+00  0.71643433731E+01 -0.17284434845E+02  0.72461574592E+02  0.70000005599E+02 0.  0.
        -12    1    1    2    0    0  0.77427687451E+00 -0.71643433731E+01  0.17284434845E+02  0.18726425408E+02  0.00000000000E+00 0.  1.
         11    1    3    3    0    0  0.13921031281E+02  0.25892331038E+02 -0.32379800124E+01  0.29575199633E+02  0.51100000000E-03 0. -1.
        -11    1    3    3    0    0 -0.41088138437E+01 -0.76150965558E+01  0.10703552388E+02  0.13763650705E+02  0.51100000000E-03 0.  1.
         12    1    3    3    0    0 -0.10586494312E+02 -0.11112891109E+02 -0.24750007220E+02  0.29122724255E+02  0.00000000000E+00 0. -1.
</event>
<event>
 7    1  0.1749439E-013  0.7246156E+02  0.7816164E-02  0.1226708E+00
        -11   -1    0    0    0    0  0.00000000000E+00  0.00000000000E+00  0.45593999997E+02  0.45594000000E+02  0.51100000000E-03 0.  1.
         11   -1    0    0    0    0 -0.00000000000E+00 -0.00000000000E+00 -0.45593999997E+02  0.45594000000E+02  0.51100000000E-03 0. -1.
    9900012    2    1    2    0    0 -0.81565259837E+01  0.27557446889E+01 -0.16629985287E+02  0.72461562657E+02  0.69999990051E+02 0.  0.
        -12    1    1    2    0    0  0.81565259837E+01 -0.27557446889E+01  0.16629985287E+02  0.18726437343E+02  0.00000000000E+00 0.  1.
         11    1    3    3    0    0 -0.19479626310E+02 -0.18198044979E+02 -0.49087455947E+01  0.27105727546E+02  0.51100000000E-03 0. -1.
        -11    1    3    3    0    0  0.23828866449E+01 -0.10592150864E+02 -0.12111499788E+01  0.10924225063E+02  0.51100000000E-03 0.  1.
        -12    1    3    3    0    0  0.89402136815E+01  0.31545940532E+02 -0.10510089713E+02  0.34431610048E+02  0.00000000000E+00 0.  1.
</event>
<event>
 7    1  0.1749439E-013  0.7246106E+02  0.7816164E-02  0.1226709E+00
        -11   -1    0    0    0    0  0.00000000000E+00  0.00000000000E+00  0.45593999997E+02  0.45594000000E+02  0.51100000000E-03 0. -1.
         11   -1    0    0    0    0 -0.00000000000E+00 -0.00000000000E+00 -0.45593999997E+02  0.45594000000E+02  0.51100000000E-03 0.  1.
    9900012    2    1    2    0    0 -0.29115125563E+01  0.14932426618E+02 -0.10919888471E+02  0.72461061268E+02  0.69999336895E+02 0.  0.
        -12    1    1    2    0    0  0.29115125563E+01 -0.14932426618E+02  0.10919888471E+02  0.18726938732E+02  0.00000000000E+00 0.  1.
         11    1    3    3    0    0 -0.80038660046E+01 -0.81550447792E+01 -0.24439275163E+02  0.26978598872E+02  0.51100000000E-03 0.  1.
        -11    1    3    3    0    0  0.67085687131E+01  0.14282845209E+01 -0.10851737115E+02  0.12837643457E+02  0.51100000000E-03 0. -1.
         12    1    3    3    0    0 -0.16162152648E+01  0.21659186876E+02  0.24371123807E+02  0.32644818938E+02  0.00000000000E+00 0. -1.
</event>
<event>
 7    1  0.1749439E-013  0.7246156E+02  0.7816164E-02  0.1226708E+00
        -11   -1    0    0    0    0  0.00000000000E+00  0.00000000000E+00  0.45593999997E+02  0.45594000000E+02  0.51100000000E-03 0. -1.
         11   -1    0    0    0    0 -0.00000000000E+00 -0.00000000000E+00 -0.45593999997E+02  0.45594000000E+02  0.51100000000E-03 0.  1.
    9900012    2    1    2    0    0  0.99281050279E+01  0.11693552867E+02  0.10741187216E+02  0.72461560112E+02  0.69999986735E+02 0.  0.
        -12    1    1    2    0    0 -0.99281050279E+01 -0.11693552867E+02 -0.10741187216E+02  0.18726439888E+02  0.00000000000E+00 0.  1.
         11    1    3    3    0    0 -0.18291948143E+02 -0.60314335326E+01 -0.12514721795E+02  0.22969366974E+02  0.51100000000E-03 0. -1.
        -11    1    3    3    0    0  0.17757422329E+01  0.16642684012E+02  0.54846541176E+01  0.17612882293E+02  0.51100000000E-03 0.  1.
        -12    1    3    3    0    0  0.26444310938E+02  0.10823023871E+01  0.17771254893E+02  0.31879310845E+02  0.00000000000E+00 0.  1.
</event>
<event>
 7    1  0.1749439E-013  0.7246156E+02  0.7816164E-02  0.1226708E+00
        -11   -1    0    0    0    0  0.00000000000E+00  0.00000000000E+00  0.45593999997E+02  0.45594000000E+02  0.51100000000E-03 0. -1.
         11   -1    0    0    0    0 -0.00000000000E+00 -0.00000000000E+00 -0.45593999997E+02  0.45594000000E+02  0.51100000000E-03 0.  1.
    9900012    2    1    2    0    0 -0.67794105493E+01  0.87917494781E+01  0.15080588076E+02  0.72461564061E+02  0.69999991879E+02 0.  0.
        -12    1    1    2    0    0  0.67794105493E+01 -0.87917494781E+01 -0.15080588076E+02  0.18726435939E+02  0.00000000000E+00 0.  1.
         11    1    3    3    0    0  0.19773572785E+02 -0.68262504295E+01 -0.31658699302E+01  0.21156904506E+02  0.51100000000E-03 0. -1.
        -11    1    3    3    0    0  0.17822447906E+01 -0.95376215646E+01  0.12720672681E+01  0.97857435588E+01  0.51100000000E-03 0.  1.
        -12    1    3    3    0    0 -0.28335228125E+02  0.25155621472E+02  0.16974390738E+02  0.41518915996E+02  0.00000000000E+00 0.  1.
</event>
<event>
 7    1  0.1749439E-013  0.7246157E+02  0.7816164E-02  0.1226708E+00
        -11   -1    0    0    0    0  0.00000000000E+00  0.00000000000E+00  0.45593999997E+02  0.45594000000E+02  0.51100000000E-03 0.  1.
         11   -1    0    0    0    0 -0.00000000000E+00 -0.00000000000E+00 -0.45593999997E+02  0.45594000000E+02  0.51100000000E-03 0. -1.
    9900012    2    1    2    0    0 -0.11800532379E+02  0.14528739854E+02  0.58500191341E+00  0.72461572860E+02  0.70000003343E+02 0.  0.
        -12    1    1    2    0    0  0.11800532379E+02 -0.14528739854E+02 -0.58500191341E+00  0.18726427140E+02  0.00000000000E+00 0.  1.
         11    1    3    3    0    0 -0.29697858773E+01 -0.39017155832E+01 -0.34002295399E+01  0.59669568319E+01  0.51100000000E-03 0. -1.
        -11    1    3    3    0    0  0.20845108657E+02 -0.11018752629E+02 -0.40441756162E+01  0.23922517031E+02  0.51100000000E-03 0.  1.
         12    1    3    3    0    0 -0.29675855159E+02  0.29449208066E+02  0.80294070696E+01  0.42572098997E+02  0.00000000000E+00 0. -1.
</event>
<event>
 7    1  0.1749439E-013  0.7246163E+02  0.7816164E-02  0.1226708E+00
        -11   -1    0    0    0    0  0.00000000000E+00  0.00000000000E+00  0.45593999997E+02  0.45594000000E+02  0.51100000000E-03 0.  1.
         11   -1    0    0    0    0 -0.00000000000E+00 -0.00000000000E+00 -0.45593999997E+02  0.45594000000E+02  0.51100000000E-03 0. -1.
    9900012    2    1    2    0    0  0.88042385786E+01  0.13755068911E+02 -0.91629844558E+01  0.72461632979E+02  0.70000081658E+02 0.  0.
        -12    1    1    2    0    0 -0.88042385786E+01 -0.13755068911E+02  0.91629844558E+01  0.18726367021E+02  0.00000000000E+00 0.  1.
         11    1    3    3    0    0 -0.11320681137E+02  0.19328899853E+01 -0.27731800830E+02  0.30015773564E+02  0.51100000000E-03 0. -1.
        -11    1    3    3    0    0  0.47851786509E+01 -0.45142550075E+01 -0.62030360145E+01  0.90417967823E+01  0.51100000000E-03 0.  1.
        -12    1    3    3    0    0  0.15339741064E+02  0.16336433933E+02  0.24771852389E+02  0.33404062632E+02  0.00000000000E+00 0.  1.
</event>
<event>
 7    1  0.1749439E-013  0.7246130E+02  0.7816164E-02  0.1226709E+00
        -11   -1    0    0    0    0  0.00000000000E+00  0.00000000000E+00  0.45593999997E+02  0.45594000000E+02  0.51100000000E-03 0.  1.
         11   -1    0    0    0    0 -0.00000000000E+00 -0.00000000000E+00 -0.45593999997E+02  0.45594000000E+02  0.51100000000E-03 0. -1.
    9900012    2    1    2    0    0  0.11964877387E+02 -0.92595839549E+01 -0.11035902361E+02  0.72461299094E+02  0.69999646711E+02 0.  0.
        -12    1    1    2    0    0 -0.11964877387E+02  0.92595839549E+01  0.11035902361E+02  0.18726700906E+02  0.00000000000E+00 0.  1.
         11    1    3    3    0    0 -0.13949481887E+01 -0.10354927869E+02 -0.22958105163E+02  0.25223897489E+02  0.51100000000E-03 0. -1.
        -11    1    3    3    0    0 -0.84683029379E+01 -0.29986955776E+01 -0.11741732634E+02  0.14784201545E+02  0.51100000000E-03 0.  1.
        -12    1    3    3    0    0  0.21828128513E+02  0.40940394913E+01  0.23663935437E+02  0.32453200060E+02  0.00000000000E+00 0.  1.
</event>
<event>
 7    1  0.1749439E-013  0.7246160E+02  0.7816164E-02  0.1226708E+00
        -11   -1    0    0    0    0  0.00000000000E+00  0.00000000000E+00  0.45593999997E+02  0.45594000000E+02  0.51100000000E-03 0. -1.
         11   -1    0    0    0    0 -0.00000000000E+00 -0.00000000000E+00 -0.45593999997E+02  0.45594000000E+02  0.51100000000E-03 0.  1.
    9900012    2    1    2    0    0  0.69658091723E-01 -0.16301515707E+02  0.92159546227E+01  0.72461599219E+02  0.70000037680E+02 0.  0.
        -12    1    1    2    0    0 -0.69658091723E-01  0.16301515707E+02 -0.92159546227E+01  0.18726400781E+02  0.00000000000E+00 0.  1.
         11    1    3    3    0    0  0.16250198070E+02  0.19628803871E+02  0.70910650839E+01  0.26450748251E+02  0.51100000000E-03 0. -1.
        -11    1    3    3    0    0  0.14493720780E+01 -0.46116010472E+01 -0.73919860175E+01  0.88322704432E+01  0.51100000000E-03 0.  1.
        -12    1    3    3    0    0 -0.17629912056E+02 -0.31318718531E+02  0.95168755563E+01  0.37178580525E+02  0.00000000000E+00 0.  1.
</event>
<event>
 7    1  0.1749439E-013  0.7246099E+02  0.7816164E-02  0.1226710E+00
        -11   -1    0    0    0    0  0.00000000000E+00  0.00000000000E+00  0.45593999997E+02  0.45594000000E+02  0.51100000000E-03 0. -1.
         11   -1    0    0    0    0 -0.00000000000E+00 -0.00000000000E+00 -0.45593999997E+02  0.45594000000E+02  0.51100000000E-03 0.  1.
    9900012    2    1    2    0    0  0.13770520718E+02  0.18150022981E+01  0.12561024244E+02  0.72460992652E+02  0.69999247509E+02 0.  0.
        -12    1    1    2    0    0 -0.13770520718E+02 -0.18150022981E+01 -0.12561024244E+02  0.18727007348E+02  0.00000000000E+00 0.  1.
         11    1    3    3    0    0 -0.19826984123E+02 -0.82475863330E+01  0.75244775100E+01  0.22754114832E+02  0.51100000000E-03 0. -1.
        -11    1    3    3    0    0 -0.29666233063E+01 -0.43691561828E+01 -0.68411265033E+01  0.86424181620E+01  0.51100000000E-03 0.  1.
        -12    1    3    3    0    0  0.36564128146E+02  0.14431744814E+02  0.11877673237E+02  0.41064459658E+02  0.00000000000E+00 0.  1.
</event>
<event>
 7    1  0.1749439E-013  0.7246151E+02  0.7816164E-02  0.1226708E+00
        -11   -1    0    0    0    0  0.00000000000E+00  0.00000000000E+00  0.45593999997E+02  0.45594000000E+02  0.51100000000E-03 0.  1.
         11   -1    0    0    0    0 -0.00000000000E+00 -0.00000000000E+00 -0.45593999997E+02  0.45594000000E+02  0.51100000000E-03 0. -1.
    9900012    2    1    2    0    0  0.27322416063E+01 -0.13430590814E+02  0.12760701932E+02  0.72461510003E+02  0.69999921460E+02 0.  0.
        -12    1    1    2    0    0 -0.27322416063E+01  0.13430590814E+02 -0.12760701932E+02  0.18726489997E+02  0.00000000000E+00 0.  1.
         11    1    3    3    0    0  0.46006397556E+01  0.65070887448E+01 -0.30444800357E+01  0.85309406892E+01  0.51100000000E-03 0. -1.
        -11    1    3    3    0    0 -0.16507320165E+02  0.11220808174E+02 -0.85976259699E+01  0.21732862850E+02  0.51100000000E-03 0.  1.
         12    1    3    3    0    0  0.14638922016E+02 -0.31158487732E+02  0.24402807938E+02  0.42197706464E+02  0.00000000000E+00 0. -1.
</event>
<event>
 7    1  0.1749439E-013  0.7246160E+02  0.7816164E-02  0.1226708E+00
        -11   -1    0    0    0    0  0.00000000000E+00  0.00000000000E+00  0.45593999997E+02  0.45594000000E+02  0.51100000000E-03 0.  1.
         11   -1    0    0    0    0 -0.00000000000E+00 -0.00000000000E+00 -0.45593999997E+02  0.45594000000E+02  0.51100000000E-03 0. -1.
    9900012    2    1    2    0    0  0.14264150537E+02 -0.93255249928E+01 -0.77618804607E+01  0.72461596308E+02  0.70000033888E+02 0.  0.
        -12    1    1    2    0    0 -0.14264150537E+02  0.93255249928E+01  0.77618804607E+01  0.18726403692E+02  0.00000000000E+00 0.  1.
         11    1    3    3    0    0 -0.11778487807E+02 -0.14120719388E+02 -0.18408421539E+02  0.26019175138E+02  0.51100000000E-03 0. -1.
        -11    1    3    3    0    0 -0.48819055759E+01 -0.65701912567E+01 -0.53893116060E+01  0.98002599480E+01  0.51100000000E-03 0.  1.
        -12    1    3    3    0    0  0.30924543920E+02  0.11365385652E+02  0.16035852684E+02  0.36642161222E+02  0.00000000000E+00 0.  1.
</event>
<event>
 7    1  0.1749439E-013  0.7246156E+02  0.7816164E-02  0.1226708E+00
        -11   -1    0    0    0    0  0.00000000000E+00  0.00000000000E+00  0.45593999997E+02  0.45594000000E+02  0.51100000000E-03 0.  1.
         11   -1    0    0    0    0 -0.00000000000E+00 -0.00000000000E+00 -0.45593999997E+02  0.45594000000E+02  0.51100000000E-03 0. -1.
    9900012    2    1    2    0    0 -0.18492384186E+02  0.11809591446E+01  0.27049187141E+01  0.72461560866E+02  0.69999987718E+02 0.  0.
        -12    1    1    2    0    0  0.18492384186E+02 -0.11809591446E+01 -0.27049187141E+01  0.18726439134E+02  0.00000000000E+00 0.  1.
         11    1    3    3    0    0 -0.25087855598E+02 -0.22879444539E+02 -0.12031817122E+01  0.33975242861E+02  0.51100000000E-03 0. -1.
        -11    1    3    3    0    0  0.52189884726E+00 -0.64161777689E+01  0.36689566769E+01  0.74095181305E+01  0.51100000000E-03 0.  1.
        -12    1    3    3    0    0  0.60735725653E+01  0.30476581453E+02  0.23914374941E+00  0.31076799875E+02  0.00000000000E+00 0.  1.
</event>
<event>
 7    1  0.1749439E-013  0.7246158E+02  0.7816164E-02  0.1226708E+00
        -11   -1    0    0    0    0  0.00000000000E+00  0.00000000000E+00  0.45593999997E+02  0.45594000000E+02  0.51100000000E-03 0.  1.
         11   -1    0    0    0    0 -0.00000000000E+00 -0.00000000000E+00 -0.45593999997E+02  0.45594000000E+02  0.51100000000E-03 0. -1.
    9900012    2    1    2    0    0  0.15872549471E+02 -0.26583635604E-01 -0.99368230466E+01  0.72461575204E+02  0.70000006396E+02 0.  0.
        -12    1    1    2    0    0 -0.15872549471E+02  0.26583635604E-01  0.99368230466E+01  0.18726424796E+02  0.00000000000E+00 0.  1.
         11    1    3    3    0    0  0.39476522780E+01 -0.10291015206E+02 -0.16490710792E+02  0.19835132850E+02  0.51100000000E-03 0. -1.
        -11    1    3    3    0    0  0.29171757381E+01 -0.10152147048E+02  0.22730226032E+02  0.25064699872E+02  0.51100000000E-03 0.  1.
        -12    1    3    3    0    0  0.90077214544E+01  0.20416578618E+02 -0.16176338286E+02  0.27561742482E+02  0.00000000000E+00 0.  1.
</event>
<event>
 7    1  0.1749439E-013  0.7246159E+02  0.7816164E-02  0.1226708E+00
        -11   -1    0    0    0    0  0.00000000000E+00  0.00000000000E+00  0.45593999997E+02  0.45594000000E+02  0.51100000000E-03 0.  1.
         11   -1    0    0    0    0 -0.00000000000E+00 -0.00000000000E+00 -0.45593999997E+02  0.45594000000E+02  0.51100000000E-03 0. -1.
    9900012    2    1    2    0    0  0.13347499600E+02 -0.55837053525E+00 -0.13122917752E+02  0.72461588343E+02  0.70000023512E+02 0.  0.
        -12    1    1    2    0    0 -0.13347499600E+02  0.55837053525E+00  0.13122917752E+02  0.18726411657E+02  0.00000000000E+00 0.  1.
         11    1    3    3    0    0  0.17839574617E+02 -0.10154207949E+02  0.68040954588E+01  0.21625311023E+02  0.51100000000E-03 0. -1.
        -11    1    3    3    0    0 -0.55458478982E+01  0.90625865809E+01  0.13616909794E+02  0.17271570196E+02  0.51100000000E-03 0.  1.
         12    1    3    3    0    0  0.10537728815E+01  0.53325083246E+00 -0.33543923005E+02  0.33564707124E+02  0.00000000000E+00 0. -1.
</event>
<event>
 7    1  0.1749439E-013  0.7246162E+02  0.7816164E-02  0.1226708E+00
        -11   -1    0    0    0    0  0.00000000000E+00  0.00000000000E+00  0.45593999997E+02  0.45594000000E+02  0.51100000000E-03 0. -1.
         11   -1    0    0    0    0 -0.00000000000E+00 -0.00000000000E+00 -0.45593999997E+02  0.45594000000E+02  0.51100000000E-03 0.  1.
    9900012    2    1    2    0    0  0.30024366501E+01  0.17921017486E+02  0.45276890887E+01  0.72461615884E+02  0.70000059389E+02 0.  0.
        -12    1    1    2    0    0 -0.30024366501E+01 -0.17921017486E+02 -0.45276890887E+01  0.18726384116E+02  0.00000000000E+00 0.  1.
         11    1    3    3    0    0  0.36726960593E+01  0.10111871027E+02 -0.27554696092E+01  0.11105460145E+02  0.51100000000E-03 0. -1.
        -11    1    3    3    0    0  0.23843310909E+01  0.29003093501E+02  0.21035281613E+02  0.35907485852E+02  0.51100000000E-03 0.  1.
        -12    1    3    3    0    0 -0.30545905001E+01 -0.21193947042E+02 -0.13752122915E+02  0.25448669887E+02  0.00000000000E+00 0.  1.
</event>
<event>
 7    1  0.1749439E-013  0.7246157E+02  0.7816164E-02  0.1226708E+00
        -11   -1    0    0    0    0  0.00000000000E+00  0.00000000000E+00  0.45593999997E+02  0.45594000000E+02  0.51100000000E-03 0. -1.
         11   -1    0    0    0    0 -0.00000000000E+00 -0.00000000000E+00 -0.45593999997E+02  0.45594000000E+02  0.51100000000E-03 0.  1.
    9900012    2    1    2    0    0 -0.89918207452E+01  0.99327889327E+01  0.13083043596E+02  0.72461570388E+02  0.70000000121E+02 0.  0.
        -12    1    1    2    0    0  0.89918207452E+01 -0.99327889327E+01 -0.13083043596E+02  0.18726429612E+02  0.00000000000E+00 0.  1.
         11    1    3    3    0    0 -0.11317626486E+02  0.16830801182E+02 -0.12792104060E+02  0.23979209000E+02  0.51100000000E-03 0. -1.
        -11    1    3    3    0    0 -0.14703037713E+02 -0.83532459166E+01 -0.65591326041E+00  0.16922950624E+02  0.51100000000E-03 0.  1.
        -12    1    3    3    0    0  0.17028843454E+02  0.14552336673E+01  0.26531060917E+02  0.31559410764E+02  0.00000000000E+00 0.  1.
</event>
<event>
 7    1  0.1749439E-013  0.7246155E+02  0.7816164E-02  0.1226708E+00
        -11   -1    0    0    0    0  0.00000000000E+00  0.00000000000E+00  0.45593999997E+02  0.45594000000E+02  0.51100000000E-03 0. -1.
         11   -1    0    0    0    0 -0.00000000000E+00 -0.00000000000E+00 -0.45593999997E+02  0.45594000000E+02  0.51100000000E-03 0.  1.
    9900012    2    1    2    0    0  0.18160242206E+02 -0.43501801851E+01  0.14005295350E+01  0.72461549519E+02  0.69999972937E+02 0.  0.
        -12    1    1    2    0    0 -0.18160242206E+02  0.43501801851E+01 -0.14005295350E+01  0.18726450481E+02  0.00000000000E+00 0.  1.
         11    1    3    3    0    0 -0.25557179456E+00  0.21174414741E+01  0.30533614900E+02  0.30608013893E+02  0.51100000000E-03 0. -1.
        -11    1    3    3    0    0 -0.35697541340E+01 -0.59750398695E+01 -0.26922017875E+01  0.74627204654E+01  0.51100000000E-03 0.  1.
        -12    1    3    3    0    0  0.21985568135E+02 -0.49258178982E+00 -0.26440883578E+02  0.34390815161E+02  0.00000000000E+00 0.  1.
</event>
<event>
 7    1  0.1749439E-013  0.7246164E+02  0.7816164E-02  0.1226708E+00
        -11   -1    0    0    0    0  0.00000000000E+00  0.00000000000E+00  0.45593999997E+02  0.45594000000E+02  0.51100000000E-03 0. -1.
         11   -1    0    0    0    0 -0.00000000000E+00 -0.00000000000E+00 -0.45593999997E+02  0.45594000000E+02  0.51100000000E-03 0.  1.
    9900012    2    1    2    0    0 -0.81039954649E+01  0.45996100845E+01  0.16243314029E+02  0.72461644079E+02  0.70000096118E+02 0.  0.
        -12    1    1    2    0    0  0.81039954649E+01 -0.45996100845E+01 -0.16243314029E+02  0.18726355921E+02  0.00000000000E+00 0.  1.
         11    1    3    3    0    0  0.41926240837E+01  0.15542666395E+01 -0.94474405695E+01  0.10452175614E+02  0.51100000000E-03 0. -1.
        -11    1    3    3    0    0 -0.39062709529E+01  0.16280073148E+02 -0.12391606712E+02  0.20829105877E+02  0.51100000000E-03 0.  1.
         12    1    3    3    0    0 -0.83903485957E+01 -0.13234729703E+02  0.38082361311E+02  0.41180362588E+02  0.00000000000E+00 0. -1.
</event>
<event>
 7    1  0.1749439E-013  0.7246155E+02  0.7816164E-02  0.1226708E+00
        -11   -1    0    0    0    0  0.00000000000E+00  0.00000000000E+00  0.45593999997E+02  0.45594000000E+02  0.51100000000E-03 0. -1.
         11   -1    0    0    0    0 -0.00000000000E+00 -0.00000000000E+00 -0.45593999997E+02  0.45594000000E+02  0.51100000000E-03 0.  1.
    9900012    2    1    2    0    0  0.23242839450E+01 -0.15177839376E+02  0.10719649042E+02  0.72461548666E+02  0.69999971826E+02 0.  0.
        -12    1    1    2    0    0 -0.23242839450E+01  0.15177839376E+02 -0.10719649042E+02  0.18726451334E+02  0.00000000000E+00 0.  1.
         11    1    3    3    0    0  0.10001699596E+02 -0.40994001232E+01 -0.10100855362E+02  0.14794132468E+02  0.51100000000E-03 0. -1.
        -11    1    3    3    0    0 -0.66656681304E+01 -0.11532304265E+02 -0.16006420402E+02  0.20823800508E+02  0.51100000000E-03 0.  1.
         12    1    3    3    0    0 -0.10117475211E+01  0.45386501219E+00  0.36826924805E+02  0.36843615690E+02  0.00000000000E+00 0. -1.
</event>
<event>
 7    1  0.1749439E-013  0.7246154E+02  0.7816164E-02  0.1226708E+00
        -11   -1    0    0    0    0  0.00000000000E+00  0.00000000000E+00  0.45593999997E+02  0.45594000000E+02  0.51100000000E-03 0. -1.
         11   -1    0    0    0    0 -0.00000000000E+00 -0.00000000000E+00 -0.45593999997E+02  0.45594000000E+02  0.51100000000E-03 0.  1.
    9900012    2    1    2    0    0  0.20550513689E+01  0.79201617177E+01  0.16844225974E+02  0.72461544211E+02  0.69999966022E+02 0.  0.
        -12    1    1    2    0    0 -0.20550513689E+01 -0.79201617177E+01 -0.16844225974E+02  0.18726455789E+02  0.00000000000E+00 0.  1.
         11    1    3    3    0    0 -0.16253415596E+01  0.97010027936E+01 -0.11429167911E+02  0.15079027481E+02  0.51100000000E-03 0. -1.
        -11    1    3    3    0    0 -0.90708451360E+01 -0.11998625485E+02 -0.84039337807E+01  0.17230013008E+02  0.51100000000E-03 0.  1.
         12    1    3    3    0    0  0.12751238064E+02  0.10217784409E+02  0.36677327665E+02  0.40152503721E+02  0.00000000000E+00 0. -1.
</event>
<event>
 7    1  0.1749439E-013  0.7246155E+02  0.7816164E-02  0.1226708E+00
        -11   -1    0    0    0    0  0.00000000000E+00  0.00000000000E+00  0.45593999997E+02  0.45594000000E+02  0.51100000000E-03 0.  1.
         11   -1    0    0    0    0 -0.00000000000E+00 -0.00000000000E+00 -0.45593999997E+02  0.45594000000E+02  0.51100000000E-03 0. -1.
    9900012    2    1    2    0    0  0.56292211804E+01 -0.51450750015E+01 -0.17103216917E+02  0.72461549275E+02  0.69999972618E+02 0.  0.
        -12    1    1    2    0    0 -0.56292211804E+01  0.51450750015E+01  0.17103216917E+02  0.18726450725E+02  0.00000000000E+00 0.  1.
         11    1    3    3    0    0 -0.69446931745E+01 -0.55149716735E+01 -0.10456493303E+02  0.13710650178E+02  0.51100000000E-03 0. -1.
        -11    1    3    3    0    0  0.18402491441E+02 -0.82365559785E+01 -0.28291016360E+02  0.34740094309E+02  0.51100000000E-03 0.  1.
        -12    1    3    3    0    0 -0.58285770866E+01  0.86064526505E+01  0.21644292746E+02  0.24010804788E+02  0.00000000000E+00 0.  1.
</event>
<event>
 7    1  0.1749439E-013  0.7246160E+02  0.7816164E-02  0.1226708E+00
        -11   -1    0    0    0    0  0.00000000000E+00  0.00000000000E+00  0.45593999997E+02  0.45594000000E+02  0.51100000000E-03 0. -1.
         11   -1    0    0    0    0 -0.00000000000E+00 -0.00000000000E+00 -0.45593999997E+02  0.45594000000E+02  0.51100000000E-03 0.  1.
    9900012    2    1    2    0    0 -0.15267478549E+02  0.98872092463E+01 -0.44525757449E+01  0.72461595148E+02  0.70000032376E+02 0.  0.
        -12    1    1    2    0    0  0.15267478549E+02 -0.98872092463E+01  0.44525757449E+01  0.18726404852E+02  0.00000000000E+00 0.  1.
         11    1    3    3    0    0  0.63587765630E+01  0.62729802773E+00  0.20012004961E+02  0.21007329317E+02  0.51100000000E-03 0. -1.
        -11    1    3    3    0    0  0.55326447254E+01  0.13924180417E+02 -0.17487188920E+02  0.23028129202E+02  0.51100000000E-03 0.  1.
        -12    1    3    3    0    0 -0.27158899837E+02 -0.46642691989E+01 -0.69773917865E+01  0.28426136629E+02  0.00000000000E+00 0.  1.
</event>
<event>
 7    1  0.1749439E-013  0.7246137E+02  0.7816164E-02  0.1226709E+00
        -11   -1    0    0    0    0  0.00000000000E+00  0.00000000000E+00  0.45593999997E+02  0.45594000000E+02  0.51100000000E-03 0. -1.
         11   -1    0    0    0    0 -0.00000000000E+00 -0.00000000000E+00 -0.45593999997E+02  0.45594000000E+02  0.51100000000E-03 0.  1.
    9900012    2    1    2    0    0 -0.27262818848E+01 -0.92085989408E+01  0.16076562098E+02  0.72461367727E+02  0.69999736119E+02 0.  0.
        -12    1    1    2    0    0  0.27262818848E+01  0.92085989408E+01 -0.16076562098E+02  0.18726632273E+02  0.00000000000E+00 0.  1.
         11    1    3    3    0    0  0.40218683553E+01  0.17983395973E+02 -0.75534032765E+01  0.19915618421E+02  0.51100000000E-03 0. -1.
        -11    1    3    3    0    0  0.44009131482E+01  0.84806542266E+01  0.45410559255E+01  0.10578786406E+02  0.51100000000E-03 0.  1.
        -12    1    3    3    0    0 -0.11149063388E+02 -0.35672649140E+02  0.19088909449E+02  0.41966962900E+02  0.00000000000E+00 0.  1.
</event>
<event>
 7    1  0.1749439E-013  0.7246160E+02  0.7816164E-02  0.1226708E+00
        -11   -1    0    0    0    0  0.00000000000E+00  0.00000000000E+00  0.45593999997E+02  0.45594000000E+02  0.51100000000E-03 0. -1.
         11   -1    0    0    0    0 -0.00000000000E+00 -0.00000000000E+00 -0.45593999997E+02  0.45594000000E+02  0.51100000000E-03 0.  1.
    9900012    2    1    2    0    0 -0.11781923332E+02 -0.10526880389E+02  0.10052321463E+02  0.72461598986E+02  0.70000037377E+02 0.  0.
        -12    1    1    2    0    0  0.11781923332E+02  0.10526880389E+02 -0.10052321463E+02  0.18726401014E+02  0.00000000000E+00 0.  1.
         11    1    3    3    0    0 -0.52685764894E+01 -0.86861522767E+01  0.12423763090E+02  0.16048583401E+02  0.51100000000E-03 0. -1.
        -11    1    3    3    0    0 -0.22097277886E+02 -0.11899329362E+02  0.16434053111E+02  0.29999363846E+02  0.51100000000E-03 0.  1.
        -12    1    3    3    0    0  0.15583931044E+02  0.10058601249E+02 -0.18805494738E+02  0.26413651739E+02  0.00000000000E+00 0.  1.
</event>
<event>
 7    1  0.1749439E-013  0.7246160E+02  0.7816164E-02  0.1226708E+00
        -11   -1    0    0    0    0  0.00000000000E+00  0.00000000000E+00  0.45593999997E+02  0.45594000000E+02  0.51100000000E-03 0. -1.
         11   -1    0    0    0    0 -0.00000000000E+00 -0.00000000000E+00 -0.45593999997E+02  0.45594000000E+02  0.51100000000E-03 0.  1.
    9900012    2    1    2    0    0 -0.18264675760E+02  0.26975743020E+01  0.31309174120E+01  0.72461603348E+02  0.70000043058E+02 0.  0.
        -12    1    1    2    0    0  0.18264675760E+02 -0.26975743020E+01 -0.31309174120E+01  0.18726396652E+02  0.00000000000E+00 0.  1.
         11    1    3    3    0    0  0.46098193544E+01 -0.24920574492E+02  0.18021505368E+01  0.25407345676E+02  0.51100000000E-03 0. -1.
        -11    1    3    3    0    0 -0.84568462353E+00 -0.10202371330E+01  0.98447527642E+01  0.99335403326E+01  0.51100000000E-03 0.  1.
        -12    1    3    3    0    0 -0.22028810491E+02  0.28638385927E+02 -0.85159858890E+01  0.37120717339E+02  0.00000000000E+00 0.  1.
</event>
<event>
 7    1  0.1749439E-013  0.7246155E+02  0.7816164E-02  0.1226708E+00
        -11   -1    0    0    0    0  0.00000000000E+00  0.00000000000E+00  0.45593999997E+02  0.45594000000E+02  0.51100000000E-03 0. -1.
         11   -1    0    0    0    0 -0.00000000000E+00 -0.00000000000E+00 -0.45593999997E+02  0.45594000000E+02  0.51100000000E-03 0.  1.
    9900012    2    1    2    0    0 -0.13603670737E+02 -0.90227006835E+01  0.91766480506E+01  0.72461552003E+02  0.69999976172E+02 0.  0.
        -12    1    1    2    0    0  0.13603670737E+02  0.90227006835E+01 -0.91766480506E+01  0.18726447997E+02  0.00000000000E+00 0.  1.
         11    1    3    3    0    0 -0.78785566296E+01 -0.18127110830E+02  0.25613961718E+01  0.19930493025E+02  0.51100000000E-03 0. -1.
        -11    1    3    3    0    0  0.19118732487E+02 -0.82864825514E+01  0.76244569064E+01  0.22188376875E+02  0.51100000000E-03 0.  1.
        -12    1    3    3    0    0 -0.24843846594E+02  0.17390892697E+02 -0.10092050276E+01  0.30342682103E+02  0.00000000000E+00 0.  1.
</event>
<event>
 7    1  0.1749439E-013  0.7246156E+02  0.7816164E-02  0.1226708E+00
        -11   -1    0    0    0    0  0.00000000000E+00  0.00000000000E+00  0.45593999997E+02  0.45594000000E+02  0.51100000000E-03 0.  1.
         11   -1    0    0    0    0 -0.00000000000E+00 -0.00000000000E+00 -0.45593999997E+02  0.45594000000E+02  0.51100000000E-03 0. -1.
    9900012    2    1    2    0    0 -0.28632787907E+01 -0.56266181988E+01 -0.17630154666E+02  0.72461560100E+02  0.69999986719E+02 0.  0.
        -12    1    1    2    0    0  0.28632787907E+01  0.56266181988E+01  0.17630154666E+02  0.18726439900E+02  0.00000000000E+00 0.  1.
         11    1    3    3    0    0 -0.99448725166E+01 -0.25356876803E+02 -0.22536358488E+02  0.35351932687E+02  0.51100000000E-03 0. -1.
        -11    1    3    3    0    0  0.15962855322E+02  0.11121150582E+01  0.38305785634E+01  0.16453658630E+02  0.51100000000E-03 0.  1.
         12    1    3    3    0    0 -0.88812615961E+01  0.18618143546E+02  0.10756252581E+01  0.20655968782E+02  0.00000000000E+00 0. -1.
</event>
<event>
 7    1  0.1749439E-013  0.7246159E+02  0.7816164E-02  0.1226708E+00
        -11   -1    0    0    0    0  0.00000000000E+00  0.00000000000E+00  0.45593999997E+02  0.45594000000E+02  0.51100000000E-03 0.  1.
         11   -1    0    0    0    0 -0.00000000000E+00 -0.00000000000E+00 -0.45593999997E+02  0.45594000000E+02  0.51100000000E-03 0. -1.
    9900012    2    1    2    0    0  0.13107827349E+02 -0.38672283986E+00 -0.13368383560E+02  0.72461591605E+02  0.70000027761E+02 0.  0.
        -12    1    1    2    0    0 -0.13107827349E+02  0.38672283986E+00  0.13368383560E+02  0.18726408395E+02  0.00000000000E+00 0.  1.
         11    1    3    3    0    0  0.13778104822E+02  0.82848757458E+01 -0.28460840295E+02  0.32687838246E+02  0.51100000000E-03 0. -1.
        -11    1    3    3    0    0  0.21218868481E+01 -0.51433184346E+01 -0.11514905127E+02  0.12788634355E+02  0.51100000000E-03 0.  1.
        -12    1    3    3    0    0 -0.27921643208E+01 -0.35282801510E+01  0.26607361862E+02  0.26985119004E+02  0.00000000000E+00 0.  1.
</event>
<event>
 7    1  0.1749439E-013  0.7246158E+02  0.7816164E-02  0.1226708E+00
        -11   -1    0    0    0    0  0.00000000000E+00  0.00000000000E+00  0.45593999997E+02  0.45594000000E+02  0.51100000000E-03 0.  1.
         11   -1    0    0    0    0 -0.00000000000E+00 -0.00000000000E+00 -0.45593999997E+02  0.45594000000E+02  0.51100000000E-03 0. -1.
    9900012    2    1    2    0    0  0.92942878917E+01 -0.10192375109E+02 -0.12665325780E+02  0.72461580831E+02  0.70000013726E+02 0.  0.
        -12    1    1    2    0    0 -0.92942878917E+01  0.10192375109E+02  0.12665325780E+02  0.18726419169E+02  0.00000000000E+00 0.  1.
         11    1    3    3    0    0 -0.13687734662E+02 -0.26001859598E+02 -0.16193456550E+02  0.33551137358E+02  0.51100000000E-03 0. -1.
        -11    1    3    3    0    0  0.90500370056E+01 -0.73515012950E+01  0.20766594444E+01  0.11843152275E+02  0.51100000000E-03 0.  1.
         12    1    3    3    0    0  0.13931985548E+02  0.23160985784E+02  0.14514713257E+01  0.27067291198E+02  0.00000000000E+00 0. -1.
</event>
<event>
 7    1  0.1749439E-013  0.7246156E+02  0.7816164E-02  0.1226708E+00
        -11   -1    0    0    0    0  0.00000000000E+00  0.00000000000E+00  0.45593999997E+02  0.45594000000E+02  0.51100000000E-03 0. -1.
         11   -1    0    0    0    0 -0.00000000000E+00 -0.00000000000E+00 -0.45593999997E+02  0.45594000000E+02  0.51100000000E-03 0.  1.
    9900012    2    1    2    0    0  0.25708732191E+01 -0.14300966429E+02  0.11813234228E+02  0.72461560594E+02  0.69999987364E+02 0.  0.
        -12    1    1    2    0    0 -0.25708732191E+01  0.14300966429E+02 -0.11813234228E+02  0.18726439406E+02  0.00000000000E+00 0.  1.
         11    1    3    3    0    0 -0.19324991202E+02  0.58995369046E+01  0.97057135668E+01  0.22415635096E+02  0.51100000000E-03 0. -1.
        -11    1    3    3    0    0 -0.37914059029E+01 -0.13285201575E+02 -0.13406202593E+02  0.19250911871E+02  0.51100000000E-03 0.  1.
         12    1    3    3    0    0  0.25687270324E+02 -0.69153017580E+01  0.15513723254E+02  0.30795013627E+02  0.00000000000E+00 0. -1.
</event>
<event>
 7    1  0.1749439E-013  0.7246153E+02  0.7816164E-02  0.1226708E+00
        -11   -1    0    0    0    0  0.00000000000E+00  0.00000000000E+00  0.45593999997E+02  0.45594000000E+02  0.51100000000E-03 0.  1.
         11   -1    0    0    0    0 -0.00000000000E+00 -0.00000000000E+00 -0.45593999997E+02  0.45594000000E+02  0.51100000000E-03 0. -1.
    9900012    2    1    2    0    0 -0.49142574335E+01 -0.10206579189E+02 -0.14911628790E+02  0.72461525211E+02  0.69999941270E+02 0.  0.
        -12    1    1    2    0    0  0.49142574335E+01  0.10206579189E+02  0.14911628790E+02  0.18726474789E+02  0.00000000000E+00 0.  1.
         11    1    3    3    0    0  0.10851918188E+02  0.11647212692E+02 -0.14949363365E+02  0.21838158281E+02  0.51100000000E-03 0. -1.
        -11    1    3    3    0    0  0.73156770640E+01 -0.17103110041E+02 -0.13920626164E+02  0.23234012504E+02  0.51100000000E-03 0.  1.
        -12    1    3    3    0    0 -0.23081852685E+02 -0.47506818394E+01  0.13958360739E+02  0.27389354425E+02  0.00000000000E+00 0.  1.
</event>
<event>
 7    1  0.1749439E-013  0.7246163E+02  0.7816164E-02  0.1226708E+00
        -11   -1    0    0    0    0  0.00000000000E+00  0.00000000000E+00  0.45593999997E+02  0.45594000000E+02  0.51100000000E-03 0.  1.
         11   -1    0    0    0    0 -0.00000000000E+00 -0.00000000000E+00 -0.45593999997E+02  0.45594000000E+02  0.51100000000E-03 0. -1.
    9900012    2    1    2    0    0 -0.10402256362E+02 -0.15344008775E+02  0.26516904199E+01  0.72461628093E+02  0.70000075294E+02 0.  0.
        -12    1    1    2    0    0  0.10402256362E+02  0.15344008775E+02 -0.26516904199E+01  0.18726371907E+02  0.00000000000E+00 0.  1.
         11    1    3    3    0    0  0.13513895441E+02 -0.16377638859E+02  0.11258348472E+02  0.24033369201E+02  0.51100000000E-03 0. -1.
        -11    1    3    3    0    0 -0.23074995676E+02 -0.74686618763E+01  0.11306547508E+02  0.26759565626E+02  0.51100000000E-03 0.  1.
        -12    1    3    3    0    0 -0.84115612725E+00  0.85022919601E+01 -0.19913205559E+02  0.21668693266E+02  0.00000000000E+00 0.  1.
</event>
<event>
 7    1  0.1749439E-013  0.7246197E+02  0.7816164E-02  0.1226707E+00
        -11   -1    0    0    0    0  0.00000000000E+00  0.00000000000E+00  0.45593999997E+02  0.45594000000E+02  0.51100000000E-03 0.  1.
         11   -1    0    0    0    0 -0.00000000000E+00 -0.00000000000E+00 -0.45593999997E+02  0.45594000000E+02  0.51100000000E-03 0. -1.
    9900012    2    1    2    0    0 -0.25577264383E+01 -0.15866660440E+02 -0.96110008021E+01  0.72461969602E+02  0.70000520170E+02 0.  0.
        -12    1    1    2    0    0  0.25577264383E+01  0.15866660440E+02  0.96110008021E+01  0.18726030398E+02  0.00000000000E+00 0.  1.
         11    1    3    3    0    0 -0.24484115914E+01 -0.10929682142E+02 -0.38452274587E+02  0.40050344471E+02  0.51100000000E-03 0. -1.
        -11    1    3    3    0    0  0.21690858723E+01  0.76747955829E+00 -0.56616831068E+00  0.23694947164E+01  0.51100000000E-03 0.  1.
        -12    1    3    3    0    0 -0.22784007192E+01 -0.57044578560E+01  0.29407442095E+02  0.30042130415E+02  0.00000000000E+00 0.  1.
</event>
<event>
 7    1  0.1749439E-013  0.7246153E+02  0.7816164E-02  0.1226708E+00
        -11   -1    0    0    0    0  0.00000000000E+00  0.00000000000E+00  0.45593999997E+02  0.45594000000E+02  0.51100000000E-03 0. -1.
         11   -1    0    0    0    0 -0.00000000000E+00 -0.00000000000E+00 -0.45593999997E+02  0.45594000000E+02  0.51100000000E-03 0.  1.
    9900012    2    1    2    0    0 -0.19935706195E+01  0.17522271181E+02  0.62989295599E+01  0.72461526099E+02  0.69999942428E+02 0.  0.
        -12    1    1    2    0    0  0.19935706195E+01 -0.17522271181E+02 -0.62989295599E+01  0.18726473901E+02  0.00000000000E+00 0.  1.
         11    1    3    3    0    0 -0.12090354021E+02  0.18178881947E+02 -0.18475915754E+02  0.28600836918E+02  0.51100000000E-03 0. -1.
        -11    1    3    3    0    0  0.11928759951E+02  0.90457760601E+01 -0.22037442025E+01  0.15132014647E+02  0.51100000000E-03 0.  1.
         12    1    3    3    0    0 -0.18319765496E+01 -0.97023868259E+01  0.26978589516E+02  0.28728674534E+02  0.00000000000E+00 0. -1.
</event>
<event>
 7    1  0.1749439E-013  0.7246153E+02  0.7816164E-02  0.1226708E+00
        -11   -1    0    0    0    0  0.00000000000E+00  0.00000000000E+00  0.45593999997E+02  0.45594000000E+02  0.51100000000E-03 0.  1.
         11   -1    0    0    0    0 -0.00000000000E+00 -0.00000000000E+00 -0.45593999997E+02  0.45594000000E+02  0.51100000000E-03 0. -1.
    9900012    2    1    2    0    0  0.10150095299E+01  0.13760334823E+01 -0.18648238811E+02  0.72461534150E+02  0.69999952915E+02 0.  0.
        -12    1    1    2    0    0 -0.10150095299E+01 -0.13760334823E+01  0.18648238811E+02  0.18726465850E+02  0.00000000000E+00 0.  1.
         11    1    3    3    0    0 -0.27328831033E+01 -0.85860079299E+01  0.74890872391E+01  0.11716424803E+02  0.51100000000E-03 0. -1.
        -11    1    3    3    0    0  0.13528580344E+02 -0.50434964462E+01  0.11894383302E+02  0.18706568283E+02  0.51100000000E-03 0.  1.
         12    1    3    3    0    0 -0.97806877111E+01  0.15005537858E+02 -0.38031709352E+02  0.42038541064E+02  0.00000000000E+00 0. -1.
</event>
<event>
 7    1  0.1749439E-013  0.7246162E+02  0.7816164E-02  0.1226708E+00
        -11   -1    0    0    0    0  0.00000000000E+00  0.00000000000E+00  0.45593999997E+02  0.45594000000E+02  0.51100000000E-03 0.  1.
         11   -1    0    0    0    0 -0.00000000000E+00 -0.00000000000E+00 -0.45593999997E+02  0.45594000000E+02  0.51100000000E-03 0. -1.
    9900012    2    1    2    0    0 -0.13295546549E+02  0.78009209897E+01 -0.10632554603E+02  0.72461624385E+02  0.70000070463E+02 0.  0.
        -12    1    1    2    0    0  0.13295546549E+02 -0.78009209897E+01  0.10632554603E+02  0.18726375615E+02  0.00000000000E+00 0.  1.
         11    1    3    3    0    0 -0.73771077863E+01  0.89208841565E+01 -0.10887324508E+02  0.15891435701E+02  0.51100000000E-03 0. -1.
        -11    1    3    3    0    0 -0.12424959024E+02 -0.20002042487E+02 -0.17901490033E+02  0.29579125343E+02  0.51100000000E-03 0.  1.
         12    1    3    3    0    0  0.65065202615E+01  0.18882079320E+02  0.18156259938E+02  0.26991063341E+02  0.00000000000E+00 0. -1.
</event>
<event>
 7    1  0.1749439E-013  0.7246132E+02  0.7816164E-02  0.1226709E+00
        -11   -1    0    0    0    0  0.00000000000E+00  0.00000000000E+00  0.45593999997E+02  0.45594000000E+02  0.51100000000E-03 0.  1.
         11   -1    0    0    0    0 -0.00000000000E+00 -0.00000000000E+00 -0.45593999997E+02  0.45594000000E+02  0.51100000000E-03 0. -1.
    9900012    2    1    2    0    0  0.46245348273E+01  0.11611004168E+02 -0.13945846987E+02  0.72461324151E+02  0.69999679352E+02 0.  0.
        -12    1    1    2    0    0 -0.46245348273E+01 -0.11611004168E+02  0.13945846987E+02  0.18726675849E+02  0.00000000000E+00 0.  1.
         11    1    3    3    0    0  0.13602219094E+02  0.18550545880E+02 -0.47032177932E+01  0.23478998586E+02  0.51100000000E-03 0. -1.
        -11    1    3    3    0    0  0.13091048913E+02  0.89807659169E+00  0.11688370590E+02  0.17572709254E+02  0.51100000000E-03 0.  1.
         12    1    3    3    0    0 -0.22068733180E+02 -0.78376183038E+01 -0.20930999784E+02  0.31409616311E+02  0.00000000000E+00 0. -1.
</event>
<event>
 7    1  0.1749439E-013  0.7246158E+02  0.7816164E-02  0.1226708E+00
        -11   -1    0    0    0    0  0.00000000000E+00  0.00000000000E+00  0.45593999997E+02  0.45594000000E+02  0.51100000000E-03 0.  1.
         11   -1    0    0    0    0 -0.00000000000E+00 -0.00000000000E+00 -0.45593999997E+02  0.45594000000E+02  0.51100000000E-03 0. -1.
    9900012    2    1    2    0    0  0.74139716930E+01 -0.65250016375E+01 -0.15910255433E+02  0.72461578810E+02  0.70000011094E+02 0.  0.
        -12    1    1    2    0    0 -0.74139716930E+01  0.65250016375E+01  0.15910255433E+02  0.18726421190E+02  0.00000000000E+00 0.  1.
         11    1    3    3    0    0 -0.18104695578E+01 -0.54980575706E+01  0.12825271189E+01  0.59288542857E+01  0.51100000000E-03 0. -1.
        -11    1    3    3    0    0  0.15312185672E+02 -0.11221646655E+02  0.19949538508E+02  0.27538563337E+02  0.51100000000E-03 0.  1.
         12    1    3    3    0    0 -0.60877444208E+01  0.10194702588E+02 -0.37142321060E+02  0.38994161188E+02  0.00000000000E+00 0. -1.
</event>
<event>
 7    1  0.1749439E-013  0.7246161E+02  0.7816164E-02  0.1226708E+00
        -11   -1    0    0    0    0  0.00000000000E+00  0.00000000000E+00  0.45593999997E+02  0.45594000000E+02  0.51100000000E-03 0. -1.
         11   -1    0    0    0    0 -0.00000000000E+00 -0.00000000000E+00 -0.45593999997E+02  0.45594000000E+02  0.51100000000E-03 0.  1.
    9900012    2    1    2    0    0 -0.67406065756E+01 -0.17188251569E+02 -0.31314504915E+01  0.72461608164E+02  0.70000049333E+02 0.  0.
        -12    1    1    2    0    0  0.67406065756E+01  0.17188251569E+02  0.31314504915E+01  0.18726391836E+02  0.00000000000E+00 0.  1.
         11    1    3    3    0    0 -0.79824547687E+00  0.32042953518E+01 -0.15648029675E+01  0.36542185390E+01  0.51100000000E-03 0. -1.
        -11    1    3    3    0    0  0.14606054637E+01  0.16675003011E+02  0.19367056162E+02  0.25598280379E+02  0.51100000000E-03 0.  1.
        -12    1    3    3    0    0 -0.74029665624E+01 -0.37067549932E+02 -0.20933703686E+02  0.43209109246E+02  0.00000000000E+00 0.  1.
</event>
<event>
 7    1  0.1749439E-013  0.7246159E+02  0.7816164E-02  0.1226708E+00
        -11   -1    0    0    0    0  0.00000000000E+00  0.00000000000E+00  0.45593999997E+02  0.45594000000E+02  0.51100000000E-03 0. -1.
         11   -1    0    0    0    0 -0.00000000000E+00 -0.00000000000E+00 -0.45593999997E+02  0.45594000000E+02  0.51100000000E-03 0.  1.
    9900012    2    1    2    0    0 -0.12814491946E+02 -0.83254576542E+01  0.10823775336E+02  0.72461586528E+02  0.70000021148E+02 0.  0.
        -12    1    1    2    0    0  0.12814491946E+02  0.83254576542E+01 -0.10823775336E+02  0.18726413472E+02  0.00000000000E+00 0.  1.
         11    1    3    3    0    0  0.15221085776E+01  0.12230838826E+02  0.84781337343E+01  0.14959578362E+02  0.51100000000E-03 0. -1.
        -11    1    3    3    0    0 -0.21393964344E+02  0.76543034957E+01 -0.11303282974E+02  0.25378224497E+02  0.51100000000E-03 0.  1.
        -12    1    3    3    0    0  0.70573638211E+01 -0.28210599976E+02  0.13648924576E+02  0.32123783669E+02  0.00000000000E+00 0.  1.
</event>
<event>
 7    1  0.1749439E-013  0.7246139E+02  0.7816164E-02  0.1226708E+00
        -11   -1    0    0    0    0  0.00000000000E+00  0.00000000000E+00  0.45593999997E+02  0.45594000000E+02  0.51100000000E-03 0. -1.
         11   -1    0    0    0    0 -0.00000000000E+00 -0.00000000000E+00 -0.45593999997E+02  0.45594000000E+02  0.51100000000E-03 0.  1.
    9900012    2    1    2    0    0  0.16995717782E+02  0.41357854622E+01  0.66878119058E+01  0.72461388656E+02  0.69999763382E+02 0.  0.
        -12    1    1    2    0    0 -0.16995717782E+02 -0.41357854622E+01 -0.66878119058E+01  0.18726611344E+02  0.00000000000E+00 0.  1.
         11    1    3    3    0    0 -0.30715666245E+01  0.18162222984E+02 -0.10067281141E+01  0.18447611418E+02  0.51100000000E-03 0. -1.
        -11    1    3    3    0    0 -0.98778814475E+00 -0.11126057964E+02 -0.17680710538E+02  0.20913450615E+02  0.51100000000E-03 0.  1.
         12    1    3    3    0    0  0.21055072552E+02 -0.29003795579E+01  0.25375250558E+02  0.33100326624E+02  0.00000000000E+00 0. -1.
</event>
<event>
 7    1  0.1749439E-013  0.7246168E+02  0.7816164E-02  0.1226708E+00
        -11   -1    0    0    0    0  0.00000000000E+00  0.00000000000E+00  0.45593999997E+02  0.45594000000E+02  0.51100000000E-03 0. -1.
         11   -1    0    0    0    0 -0.00000000000E+00 -0.00000000000E+00 -0.45593999997E+02  0.45594000000E+02  0.51100000000E-03 0.  1.
    9900012    2    1    2    0    0  0.12463444316E+02  0.52458426558E+01  0.12954485248E+02  0.72461681691E+02  0.70000145114E+02 0.  0.
        -12    1    1    2    0    0 -0.12463444316E+02 -0.52458426558E+01 -0.12954485248E+02  0.18726318309E+02  0.00000000000E+00 0.  1.
         11    1    3    3    0    0  0.17156285536E+02  0.33623232968E+01 -0.24205043481E+02  0.29858457453E+02  0.51100000000E-03 0. -1.
        -11    1    3    3    0    0  0.36766356189E+01  0.57417369176E+01  0.34200416404E+01  0.76277045950E+01  0.51100000000E-03 0.  1.
        -12    1    3    3    0    0 -0.83694768381E+01 -0.38582175586E+01  0.33739487088E+02  0.34975519642E+02  0.00000000000E+00 0.  1.
</event>
<event>
 7    1  0.1749439E-013  0.7246155E+02  0.7816164E-02  0.1226708E+00
        -11   -1    0    0    0    0  0.00000000000E+00  0.00000000000E+00  0.45593999997E+02  0.45594000000E+02  0.51100000000E-03 0. -1.
         11   -1    0    0    0    0 -0.00000000000E+00 -0.00000000000E+00 -0.45593999997E+02  0.45594000000E+02  0.51100000000E-03 0.  1.
    9900012    2    1    2    0    0  0.29086283498E+01  0.15299452065E+02  0.10399359665E+02  0.72461547218E+02  0.69999969938E+02 0.  0.
        -12    1    1    2    0    0 -0.29086283498E+01 -0.15299452065E+02 -0.10399359665E+02  0.18726452782E+02  0.00000000000E+00 0.  1.
         11    1    3    3    0    0 -0.13883866521E+02 -0.18330111270E+02  0.13302644890E+02  0.26565298606E+02  0.51100000000E-03 0. -1.
        -11    1    3    3    0    0 -0.70039363713E+01  0.62815630032E+01 -0.20795183664E+01  0.96352247173E+01  0.51100000000E-03 0.  1.
        -12    1    3    3    0    0  0.23796431242E+02  0.27348000332E+02 -0.82376685844E+00  0.36261023894E+02  0.00000000000E+00 0.  1.
</event>
<event>
 7    1  0.1749439E-013  0.7246156E+02  0.7816164E-02  0.1226708E+00
        -11   -1    0    0    0    0  0.00000000000E+00  0.00000000000E+00  0.45593999997E+02  0.45594000000E+02  0.51100000000E-03 0.  1.
         11   -1    0    0    0    0 -0.00000000000E+00 -0.00000000000E+00 -0.45593999997E+02  0.45594000000E+02  0.51100000000E-03 0. -1.
    9900012    2    1    2    0    0 -0.15132856261E+02  0.50755501738E+01 -0.97936281398E+01  0.72461556122E+02  0.69999981538E+02 0.  0.
        -12    1    1    2    0    0  0.15132856261E+02 -0.50755501738E+01  0.97936281398E+01  0.18726443878E+02  0.00000000000E+00 0.  1.
         11    1    3    3    0    0 -0.34933674231E+01  0.11596287959E+02 -0.30369636396E+02  0.32695448085E+02  0.51100000000E-03 0. -1.
        -11    1    3    3    0    0  0.91309102746E+00  0.82987664102E+01 -0.33099020517E+01  0.89810194860E+01  0.51100000000E-03 0.  1.
        -12    1    3    3    0    0 -0.12552579865E+02 -0.14819504196E+02  0.23885910308E+02  0.30785088551E+02  0.00000000000E+00 0.  1.
</event>
<event>
 7    1  0.1749439E-013  0.7246164E+02  0.7816164E-02  0.1226708E+00
        -11   -1    0    0    0    0  0.00000000000E+00  0.00000000000E+00  0.45593999997E+02  0.45594000000E+02  0.51100000000E-03 0.  1.
         11   -1    0    0    0    0 -0.00000000000E+00 -0.00000000000E+00 -0.45593999997E+02  0.45594000000E+02  0.51100000000E-03 0. -1.
    9900012    2    1    2    0    0 -0.32848392175E+01  0.12736698798E+02 -0.13329031316E+02  0.72461635142E+02  0.70000084476E+02 0.  0.
        -12    1    1    2    0    0  0.32848392175E+01 -0.12736698798E+02  0.13329031316E+02  0.18726364858E+02  0.00000000000E+00 0.  1.
         11    1    3    3    0    0 -0.13369135919E+02 -0.46725523378E+01 -0.24928427403E+02  0.28670420884E+02  0.51100000000E-03 0. -1.
        -11    1    3    3    0    0  0.35843020869E+01  0.67725189334E+01 -0.13637952924E+02  0.15643145284E+02  0.51100000000E-03 0.  1.
        -12    1    3    3    0    0  0.64999946145E+01  0.10636732202E+02  0.25237349011E+02  0.28148068975E+02  0.00000000000E+00 0.  1.
</event>
<event>
 7    1  0.1749439E-013  0.7246157E+02  0.7816164E-02  0.1226708E+00
        -11   -1    0    0    0    0  0.00000000000E+00  0.00000000000E+00  0.45593999997E+02  0.45594000000E+02  0.51100000000E-03 0.  1.
         11   -1    0    0    0    0 -0.00000000000E+00 -0.00000000000E+00 -0.45593999997E+02  0.45594000000E+02  0.51100000000E-03 0. -1.
    9900012    2    1    2    0    0  0.50028284449E+01 -0.44105646017E+01 -0.17498509717E+02  0.72461569084E+02  0.69999998423E+02 0.  0.
        -12    1    1    2    0    0 -0.50028284449E+01  0.44105646017E+01  0.17498509717E+02  0.18726430916E+02  0.00000000000E+00 0.  1.
         11    1    3    3    0    0 -0.16515258828E+02  0.10483873832E+02 -0.26113528311E+02  0.32627928922E+02  0.51100000000E-03 0. -1.
        -11    1    3    3    0    0 -0.28835513812E+01 -0.39158661713E+01 -0.72472900899E+01  0.87276623644E+01  0.51100000000E-03 0.  1.
        -12    1    3    3    0    0  0.24401638654E+02 -0.10978572263E+02  0.15862308684E+02  0.31105977797E+02  0.00000000000E+00 0.  1.
</event>
<event>
 7    1  0.1749439E-013  0.7246160E+02  0.7816164E-02  0.1226708E+00
        -11   -1    0    0    0    0  0.00000000000E+00  0.00000000000E+00  0.45593999997E+02  0.45594000000E+02  0.51100000000E-03 0. -1.
         11   -1    0    0    0    0 -0.00000000000E+00 -0.00000000000E+00 -0.45593999997E+02  0.45594000000E+02  0.51100000000E-03 0.  1.
    9900012    2    1    2    0    0  0.10223760866E+02  0.13029452973E+02  0.87399161261E+01  0.72461599787E+02  0.70000038420E+02 0.  0.
        -12    1    1    2    0    0 -0.10223760866E+02 -0.13029452973E+02 -0.87399161261E+01  0.18726400213E+02  0.00000000000E+00 0.  1.
         11    1    3    3    0    0  0.28417941163E+01 -0.76692659614E+01 -0.72963708440E+00  0.82113217403E+01  0.51100000000E-03 0.  1.
        -11    1    3    3    0    0  0.27876655293E+02  0.29509257593E+02  0.17077266896E+01  0.40630290730E+02  0.51100000000E-03 0. -1.
         12    1    3    3    0    0 -0.20494688543E+02 -0.88105386590E+01  0.77618265209E+01  0.23619987318E+02  0.00000000000E+00 0. -1.
</event>
<event>
 7    1  0.1749439E-013  0.7246167E+02  0.7816164E-02  0.1226708E+00
        -11   -1    0    0    0    0  0.00000000000E+00  0.00000000000E+00  0.45593999997E+02  0.45594000000E+02  0.51100000000E-03 0. -1.
         11   -1    0    0    0    0 -0.00000000000E+00 -0.00000000000E+00 -0.45593999997E+02  0.45594000000E+02  0.51100000000E-03 0.  1.
    9900012    2    1    2    0    0  0.36256097903E+01 -0.74241872800E+01  0.16805110250E+02  0.72461672714E+02  0.70000133420E+02 0.  0.
        -12    1    1    2    0    0 -0.36256097903E+01  0.74241872800E+01 -0.16805110250E+02  0.18726327286E+02  0.00000000000E+00 0.  1.
         11    1    3    3    0    0 -0.72389001431E+01 -0.77611162907E+01  0.11248733784E+02  0.15465141880E+02  0.51100000000E-03 0. -1.
        -11    1    3    3    0    0 -0.75014203890E+01 -0.23551253292E+02 -0.47130189904E+01  0.25162380407E+02  0.51100000000E-03 0.  1.
         12    1    3    3    0    0  0.18365930322E+02  0.23888182303E+02  0.10269395456E+02  0.31834150427E+02  0.00000000000E+00 0. -1.
</event>
<event>
 7    1  0.1749439E-013  0.7246157E+02  0.7816164E-02  0.1226708E+00
        -11   -1    0    0    0    0  0.00000000000E+00  0.00000000000E+00  0.45593999997E+02  0.45594000000E+02  0.51100000000E-03 0.  1.
         11   -1    0    0    0    0 -0.00000000000E+00 -0.00000000000E+00 -0.45593999997E+02  0.45594000000E+02  0.51100000000E-03 0. -1.
    9900012    2    1    2    0    0 -0.49175947117E+01  0.96047725510E+01 -0.15305052359E+02  0.72461574254E+02  0.70000005158E+02 0.  0.
        -12    1    1    2    0    0  0.49175947117E+01 -0.96047725510E+01  0.15305052359E+02  0.18726425746E+02  0.00000000000E+00 0.  1.
         11    1    3    3    0    0  0.81913235953E+01  0.94641237005E+01 -0.81885893932E+01  0.14957286391E+02  0.51100000000E-03 0. -1.
        -11    1    3    3    0    0 -0.71976612007E+01  0.26615222196E+02  0.46058147185E+01  0.27953352371E+02  0.51100000000E-03 0.  1.
        -12    1    3    3    0    0 -0.59112571063E+01 -0.26474573345E+02 -0.11722277684E+02  0.29550935493E+02  0.00000000000E+00 0.  1.
</event>
<event>
 7    1  0.1749439E-013  0.7246157E+02  0.7816164E-02  0.1226708E+00
        -11   -1    0    0    0    0  0.00000000000E+00  0.00000000000E+00  0.45593999997E+02  0.45594000000E+02  0.51100000000E-03 0.  1.
         11   -1    0    0    0    0 -0.00000000000E+00 -0.00000000000E+00 -0.45593999997E+02  0.45594000000E+02  0.51100000000E-03 0. -1.
    9900012    2    1    2    0    0  0.11442862282E+02 -0.88493661739E+00 -0.14797195157E+02  0.72461569627E+02  0.69999999130E+02 0.  0.
        -12    1    1    2    0    0 -0.11442862282E+02  0.88493661739E+00  0.14797195157E+02  0.18726430373E+02  0.00000000000E+00 0.  1.
         11    1    3    3    0    0  0.65002851352E+00  0.45538055987E+01  0.13132591100E+02  0.13914906818E+02  0.51100000000E-03 0. -1.
        -11    1    3    3    0    0 -0.19836951539E+02 -0.32303750684E+01 -0.15651741394E+02  0.25473848912E+02  0.51100000000E-03 0.  1.
         12    1    3    3    0    0  0.30629785307E+02 -0.22083671477E+01 -0.12278044863E+02  0.33072813897E+02  0.00000000000E+00 0. -1.
</event>
<event>
 7    1  0.1749439E-013  0.7246145E+02  0.7816164E-02  0.1226708E+00
        -11   -1    0    0    0    0  0.00000000000E+00  0.00000000000E+00  0.45593999997E+02  0.45594000000E+02  0.51100000000E-03 0. -1.
         11   -1    0    0    0    0 -0.00000000000E+00 -0.00000000000E+00 -0.45593999997E+02  0.45594000000E+02  0.51100000000E-03 0.  1.
    9900012    2    1    2    0    0 -0.27085024025E+01 -0.16263524937E+02  0.88795011885E+01  0.72461447461E+02  0.69999839986E+02 0.  0.
        -12    1    1    2    0    0  0.27085024025E+01  0.16263524937E+02 -0.88795011885E+01  0.18726552539E+02  0.00000000000E+00 0.  1.
         11    1    3    3    0    0  0.71247149228E+01 -0.18554436286E+02  0.15477052183E+02  0.25190629472E+02  0.51100000000E-03 0. -1.
        -11    1    3    3    0    0 -0.64262019932E+01 -0.21572093990E+02 -0.10370606645E+01  0.22532794018E+02  0.51100000000E-03 0.  1.
         12    1    3    3    0    0 -0.34070153321E+01  0.23863005339E+02 -0.55604903302E+01  0.24738023971E+02  0.00000000000E+00 0. -1.
</event>
<event>
 7    1  0.1749439E-013  0.7246156E+02  0.7816164E-02  0.1226708E+00
        -11   -1    0    0    0    0  0.00000000000E+00  0.00000000000E+00  0.45593999997E+02  0.45594000000E+02  0.51100000000E-03 0. -1.
         11   -1    0    0    0    0 -0.00000000000E+00 -0.00000000000E+00 -0.45593999997E+02  0.45594000000E+02  0.51100000000E-03 0.  1.
    9900012    2    1    2    0    0 -0.87563396978E+00 -0.18171289934E+02  0.44403801690E+01  0.72461561771E+02  0.69999988896E+02 0.  0.
        -12    1    1    2    0    0  0.87563396978E+00  0.18171289934E+02 -0.44403801690E+01  0.18726438229E+02  0.00000000000E+00 0.  1.
         11    1    3    3    0    0  0.21465734538E+02 -0.30232523027E+02  0.13054412003E+02  0.39309043245E+02  0.51100000000E-03 0. -1.
        -11    1    3    3    0    0  0.15683608768E+01 -0.88758659985E-01 -0.60039970929E+01  0.62060950116E+01  0.51100000000E-03 0.  1.
        -12    1    3    3    0    0 -0.23909729385E+02  0.12149991753E+02 -0.26100347410E+01  0.26946423514E+02  0.00000000000E+00 0.  1.
</event>
<event>
 7    1  0.1749439E-013  0.7246156E+02  0.7816164E-02  0.1226708E+00
        -11   -1    0    0    0    0  0.00000000000E+00  0.00000000000E+00  0.45593999997E+02  0.45594000000E+02  0.51100000000E-03 0.  1.
         11   -1    0    0    0    0 -0.00000000000E+00 -0.00000000000E+00 -0.45593999997E+02  0.45594000000E+02  0.51100000000E-03 0. -1.
    9900012    2    1    2    0    0 -0.82754877681E+00 -0.17767841507E+02 -0.58565085593E+01  0.72461555561E+02  0.69999980807E+02 0.  0.
        -12    1    1    2    0    0  0.82754877681E+00  0.17767841507E+02  0.58565085593E+01  0.18726444439E+02  0.00000000000E+00 0.  1.
         11    1    3    3    0    0 -0.10736499912E+02 -0.15951145144E+02  0.18582238978E+02  0.26739690863E+02  0.51100000000E-03 0. -1.
        -11    1    3    3    0    0  0.92600937477E+01 -0.91327151815E+01  0.60619351012E+01  0.14349316368E+02  0.51100000000E-03 0.  1.
         12    1    3    3    0    0  0.64885738784E+00  0.73160188178E+01 -0.30500682639E+02  0.31372548330E+02  0.00000000000E+00 0. -1.
</event>
<event>
 7    1  0.1749439E-013  0.7246152E+02  0.7816164E-02  0.1226708E+00
        -11   -1    0    0    0    0  0.00000000000E+00  0.00000000000E+00  0.45593999997E+02  0.45594000000E+02  0.51100000000E-03 0. -1.
         11   -1    0    0    0    0 -0.00000000000E+00 -0.00000000000E+00 -0.45593999997E+02  0.45594000000E+02  0.51100000000E-03 0.  1.
    9900012    2    1    2    0    0 -0.18360869355E+02  0.10224743031E+01  0.35375272209E+01  0.72461519390E+02  0.69999933688E+02 0.  0.
        -12    1    1    2    0    0  0.18360869355E+02 -0.10224743031E+01 -0.35375272209E+01  0.18726480610E+02  0.00000000000E+00 0.  1.
         11    1    3    3    0    0 -0.34236596720E+02 -0.10478657440E+02  0.95513102378E+01  0.37056367121E+02  0.51100000000E-03 0. -1.
        -11    1    3    3    0    0 -0.38342519480E+01 -0.57153512113E+01  0.32924205551E+01  0.76293355439E+01  0.51100000000E-03 0.  1.
        -12    1    3    3    0    0  0.19709979313E+02  0.17216482954E+02 -0.93062035719E+01  0.27775816725E+02  0.00000000000E+00 0.  1.
</event>
<event>
 7    1  0.1749439E-013  0.7246157E+02  0.7816164E-02  0.1226708E+00
        -11   -1    0    0    0    0  0.00000000000E+00  0.00000000000E+00  0.45593999997E+02  0.45594000000E+02  0.51100000000E-03 0.  1.
         11   -1    0    0    0    0 -0.00000000000E+00 -0.00000000000E+00 -0.45593999997E+02  0.45594000000E+02  0.51100000000E-03 0. -1.
    9900012    2    1    2    0    0 -0.74890006809E+01  0.16283169018E+02  0.54270113496E+01  0.72461570104E+02  0.69999999752E+02 0.  0.
        -12    1    1    2    0    0  0.74890006809E+01 -0.16283169018E+02 -0.54270113496E+01  0.18726429896E+02  0.00000000000E+00 0.  1.
         11    1    3    3    0    0 -0.90988770039E+01 -0.96384763805E+01  0.19276031389E+01  0.13394231736E+02  0.51100000000E-03 0. -1.
        -11    1    3    3    0    0 -0.53814119749E+01 -0.13449575695E+02 -0.91418372648E+01  0.17129619670E+02  0.51100000000E-03 0.  1.
         12    1    3    3    0    0  0.69912882979E+01  0.39371221093E+02  0.12641245476E+02  0.41937718698E+02  0.00000000000E+00 0. -1.
</event>
<event>
 7    1  0.1749439E-013  0.7246159E+02  0.7816164E-02  0.1226708E+00
        -11   -1    0    0    0    0  0.00000000000E+00  0.00000000000E+00  0.45593999997E+02  0.45594000000E+02  0.51100000000E-03 0.  1.
         11   -1    0    0    0    0 -0.00000000000E+00 -0.00000000000E+00 -0.45593999997E+02  0.45594000000E+02  0.51100000000E-03 0. -1.
    9900012    2    1    2    0    0 -0.10092511288E+02 -0.38267004702E+01 -0.15302806745E+02  0.72461593114E+02  0.70000029727E+02 0.  0.
        -12    1    1    2    0    0  0.10092511288E+02  0.38267004702E+01  0.15302806745E+02  0.18726406886E+02  0.00000000000E+00 0.  1.
         11    1    3    3    0    0 -0.48532231937E+01 -0.82536253057E+00  0.13892816848E+02  0.14739245534E+02  0.51100000000E-03 0. -1.
        -11    1    3    3    0    0 -0.15364264985E+02 -0.92240260180E+01  0.72926230407E+01  0.19347497140E+02  0.51100000000E-03 0.  1.
         12    1    3    3    0    0  0.10124976891E+02  0.62226880783E+01 -0.36488246634E+02  0.38374850441E+02  0.00000000000E+00 0. -1.
</event>
<event>
 7    1  0.1749439E-013  0.7246145E+02  0.7816164E-02  0.1226708E+00
        -11   -1    0    0    0    0  0.00000000000E+00  0.00000000000E+00  0.45593999997E+02  0.45594000000E+02  0.51100000000E-03 0. -1.
         11   -1    0    0    0    0 -0.00000000000E+00 -0.00000000000E+00 -0.45593999997E+02  0.45594000000E+02  0.51100000000E-03 0.  1.
    9900012    2    1    2    0    0 -0.11649869960E+02  0.14216471438E+02 -0.35855713129E+01  0.72461445275E+02  0.69999837139E+02 0.  0.
        -12    1    1    2    0    0  0.11649869960E+02 -0.14216471438E+02  0.35855713129E+01  0.18726554725E+02  0.00000000000E+00 0.  1.
         11    1    3    3    0    0 -0.10765514115E+02  0.13022102140E+02 -0.15577910898E+02  0.22981356498E+02  0.51100000000E-03 0. -1.
        -11    1    3    3    0    0 -0.51029007204E+01 -0.30611108558E+01 -0.17967316144E+02  0.18927082319E+02  0.51100000000E-03 0.  1.
        -12    1    3    3    0    0  0.42185448754E+01  0.42554801537E+01  0.29959655729E+02  0.30553006458E+02  0.00000000000E+00 0.  1.
</event>
<event>
 7    1  0.1749439E-013  0.7246177E+02  0.7816164E-02  0.1226707E+00
        -11   -1    0    0    0    0  0.00000000000E+00  0.00000000000E+00  0.45593999997E+02  0.45594000000E+02  0.51100000000E-03 0. -1.
         11   -1    0    0    0    0 -0.00000000000E+00 -0.00000000000E+00 -0.45593999997E+02  0.45594000000E+02  0.51100000000E-03 0.  1.
    9900012    2    1    2    0    0  0.11281161026E+02 -0.22227571974E+01  0.14780614525E+02  0.72461766813E+02  0.70000256001E+02 0.  0.
        -12    1    1    2    0    0 -0.11281161026E+02  0.22227571974E+01 -0.14780614525E+02  0.18726233187E+02  0.00000000000E+00 0.  1.
         11    1    3    3    0    0  0.20058617858E+02 -0.42712575481E+01  0.12207752061E+02  0.23866734215E+02  0.51100000000E-03 0. -1.
        -11    1    3    3    0    0  0.19166603933E+02 -0.44165445038E+01 -0.98216093322E+00  0.19693379904E+02  0.51100000000E-03 0.  1.
        -12    1    3    3    0    0 -0.27944060766E+02  0.64650448545E+01  0.35550233973E+01  0.28901652694E+02  0.00000000000E+00 0.  1.
</event>
<event>
 7    1  0.1749439E-013  0.7246160E+02  0.7816164E-02  0.1226708E+00
        -11   -1    0    0    0    0  0.00000000000E+00  0.00000000000E+00  0.45593999997E+02  0.45594000000E+02  0.51100000000E-03 0. -1.
         11   -1    0    0    0    0 -0.00000000000E+00 -0.00000000000E+00 -0.45593999997E+02  0.45594000000E+02  0.51100000000E-03 0.  1.
    9900012    2    1    2    0    0  0.12160299501E+02 -0.31116927656E+01  0.13896850060E+02  0.72461602658E+02  0.70000042160E+02 0.  0.
        -12    1    1    2    0    0 -0.12160299501E+02  0.31116927656E+01 -0.13896850060E+02  0.18726397342E+02  0.00000000000E+00 0.  1.
         11    1    3    3    0    0 -0.21892538539E+01 -0.47960182327E+01  0.39862019708E+01  0.66094197732E+01  0.51100000000E-03 0. -1.
        -11    1    3    3    0    0  0.14187280165E+02  0.13895555818E+02 -0.23213299433E+02  0.30548693274E+02  0.51100000000E-03 0.  1.
         12    1    3    3    0    0  0.16227319015E+00 -0.12211230351E+02  0.33123947522E+02  0.35303489610E+02  0.00000000000E+00 0. -1.
</event>
<event>
 7    1  0.2174493E-013  0.7246154E+02  0.7816164E-02  0.1226708E+00
        -11   -1    0    0    0    0  0.00000000000E+00  0.00000000000E+00  0.45593999997E+02  0.45594000000E+02  0.51100000000E-03 0. -1.
         11   -1    0    0    0    0 -0.00000000000E+00 -0.00000000000E+00 -0.45593999997E+02  0.45594000000E+02  0.51100000000E-03 0.  1.
    9900012    2    1    2    0    0 -0.16870699822E+02  0.38010389343E+01  0.71841398877E+01  0.72461540768E+02  0.69999961536E+02 0.  0.
        -12    1    1    2    0    0  0.16870699822E+02 -0.38010389343E+01 -0.71841398877E+01  0.18726459232E+02  0.00000000000E+00 0.  1.
         11    1    3    3    0    0 -0.23919242268E+02 -0.85560123381E+01  0.24890182198E+02  0.35564823462E+02  0.51100000000E-03 0. -1.
        -11    1    3    3    0    0 -0.85536131409E+01 -0.42739315098E+01 -0.49391003176E+01  0.10762225631E+02  0.51100000000E-03 0.  1.
        -12    1    3    3    0    0  0.15602155587E+02  0.16630982782E+02 -0.12766941992E+02  0.26134491675E+02  0.00000000000E+00 0.  1.
</event>
<event>
 7    1  0.1749439E-013  0.7246157E+02  0.7816164E-02  0.1226708E+00
        -11   -1    0    0    0    0  0.00000000000E+00  0.00000000000E+00  0.45593999997E+02  0.45594000000E+02  0.51100000000E-03 0. -1.
         11   -1    0    0    0    0 -0.00000000000E+00 -0.00000000000E+00 -0.45593999997E+02  0.45594000000E+02  0.51100000000E-03 0.  1.
    9900012    2    1    2    0    0 -0.87806111548E+01 -0.14480775928E+02  0.79929387458E+01  0.72461572858E+02  0.70000003339E+02 0.  0.
        -12    1    1    2    0    0  0.87806111548E+01  0.14480775928E+02 -0.79929387458E+01  0.18726427142E+02  0.00000000000E+00 0.  1.
         11    1    3    3    0    0 -0.99707246691E+01  0.62914087325E+00  0.13142657167E+02  0.16508803904E+02  0.51100000000E-03 0. -1.
        -11    1    3    3    0    0 -0.14131285345E+02  0.83189573751E+01 -0.18683498014E+02  0.24859030062E+02  0.51100000000E-03 0.  1.
         12    1    3    3    0    0  0.15321398860E+02 -0.23428874176E+02  0.13533779593E+02  0.31093738891E+02  0.00000000000E+00 0. -1.
</event>
<event>
 7    1  0.1749439E-013  0.7246156E+02  0.7816164E-02  0.1226708E+00
        -11   -1    0    0    0    0  0.00000000000E+00  0.00000000000E+00  0.45593999997E+02  0.45594000000E+02  0.51100000000E-03 0.  1.
         11   -1    0    0    0    0 -0.00000000000E+00 -0.00000000000E+00 -0.45593999997E+02  0.45594000000E+02  0.51100000000E-03 0. -1.
    9900012    2    1    2    0    0  0.17995629972E+02 -0.47030771857E+01 -0.21720878258E+01  0.72461558837E+02  0.69999985074E+02 0.  0.
        -12    1    1    2    0    0 -0.17995629972E+02  0.47030771857E+01  0.21720878258E+01  0.18726441163E+02  0.00000000000E+00 0.  1.
         11    1    3    3    0    0  0.12786627816E+02  0.14243184621E+02 -0.17140863726E+02  0.25693878037E+02  0.51100000000E-03 0. -1.
        -11    1    3    3    0    0  0.21527610392E+02 -0.65055126748E+01  0.21934090739E+01  0.22595812621E+02  0.51100000000E-03 0.  1.
        -12    1    3    3    0    0 -0.16318608236E+02 -0.12440749132E+02  0.12775366826E+02  0.24171868179E+02  0.00000000000E+00 0.  1.
</event>
<event>
 7    1  0.1749439E-013  0.7246156E+02  0.7816164E-02  0.1226708E+00
        -11   -1    0    0    0    0  0.00000000000E+00  0.00000000000E+00  0.45593999997E+02  0.45594000000E+02  0.51100000000E-03 0.  1.
         11   -1    0    0    0    0 -0.00000000000E+00 -0.00000000000E+00 -0.45593999997E+02  0.45594000000E+02  0.51100000000E-03 0. -1.
    9900012    2    1    2    0    0 -0.15482536808E+02 -0.68263170892E+01 -0.80232270661E+01  0.72461555501E+02  0.69999980729E+02 0.  0.
        -12    1    1    2    0    0  0.15482536808E+02  0.68263170892E+01  0.80232270661E+01  0.18726444499E+02  0.00000000000E+00 0.  1.
         11    1    3    3    0    0 -0.12530706337E+02 -0.32891798678E+01  0.23132844448E+02  0.26513502184E+02  0.51100000000E-03 0. -1.
        -11    1    3    3    0    0 -0.74338088744E+01 -0.13269992582E+02 -0.25780820567E+01  0.15427272113E+02  0.51100000000E-03 0.  1.
         12    1    3    3    0    0  0.44819784037E+01  0.97328553603E+01 -0.28577989458E+02  0.30520781204E+02  0.00000000000E+00 0. -1.
</event>
<event>
 7    1  0.1749439E-013  0.7246159E+02  0.7816164E-02  0.1226708E+00
        -11   -1    0    0    0    0  0.00000000000E+00  0.00000000000E+00  0.45593999997E+02  0.45594000000E+02  0.51100000000E-03 0. -1.
         11   -1    0    0    0    0 -0.00000000000E+00 -0.00000000000E+00 -0.45593999997E+02  0.45594000000E+02  0.51100000000E-03 0.  1.
    9900012    2    1    2    0    0 -0.66336335455E+01  0.16771204944E+02  0.50398541033E+01  0.72461587138E+02  0.70000021942E+02 0.  0.
        -12    1    1    2    0    0  0.66336335455E+01 -0.16771204944E+02 -0.50398541033E+01  0.18726412862E+02  0.00000000000E+00 0.  1.
         11    1    3    3    0    0 -0.12356757659E+01 -0.38185001414E+01 -0.10032151246E+02  0.10805179166E+02  0.51100000000E-03 0. -1.
        -11    1    3    3    0    0 -0.25590226014E+01  0.15194300315E+02 -0.20455586532E+02  0.25609497835E+02  0.51100000000E-03 0.  1.
         12    1    3    3    0    0 -0.28389351782E+01  0.53954047700E+01  0.35527591881E+02  0.36046910137E+02  0.00000000000E+00 0. -1.
</event>
<event>
 7    1  0.1749439E-013  0.7246119E+02  0.7816164E-02  0.1226709E+00
        -11   -1    0    0    0    0  0.00000000000E+00  0.00000000000E+00  0.45593999997E+02  0.45594000000E+02  0.51100000000E-03 0.  1.
         11   -1    0    0    0    0 -0.00000000000E+00 -0.00000000000E+00 -0.45593999997E+02  0.45594000000E+02  0.51100000000E-03 0. -1.
    9900012    2    1    2    0    0  0.10492439477E+02 -0.55893600351E+01 -0.14469313696E+02  0.72461193796E+02  0.69999509539E+02 0.  0.
        -12    1    1    2    0    0 -0.10492439477E+02  0.55893600351E+01  0.14469313696E+02  0.18726806204E+02  0.00000000000E+00 0.  1.
         11    1    3    3    0    0  0.56542790959E+01  0.96596005499E+01  0.15147642050E+02  0.18834272346E+02  0.51100000000E-03 0. -1.
        -11    1    3    3    0    0  0.56736173360E+01 -0.19463525251E+02  0.32046242388E+01  0.20525310366E+02  0.51100000000E-03 0.  1.
         12    1    3    3    0    0 -0.83545695521E+00  0.42145646657E+01 -0.32821579984E+02  0.33101611083E+02  0.00000000000E+00 0. -1.
</event>
<event>
 7    1  0.1749439E-013  0.7246160E+02  0.7816164E-02  0.1226708E+00
        -11   -1    0    0    0    0  0.00000000000E+00  0.00000000000E+00  0.45593999997E+02  0.45594000000E+02  0.51100000000E-03 0. -1.
         11   -1    0    0    0    0 -0.00000000000E+00 -0.00000000000E+00 -0.45593999997E+02  0.45594000000E+02  0.51100000000E-03 0.  1.
    9900012    2    1    2    0    0 -0.13552682398E+02 -0.12903683654E+02  0.70555814653E+00  0.72461599803E+02  0.70000038441E+02 0.  0.
        -12    1    1    2    0    0  0.13552682398E+02  0.12903683654E+02 -0.70555814653E+00  0.18726400197E+02  0.00000000000E+00 0.  1.
         11    1    3    3    0    0 -0.34283320246E+01  0.13344302069E+02 -0.11370916519E+02  0.17863974947E+02  0.51100000000E-03 0. -1.
        -11    1    3    3    0    0  0.71286846342E+01  0.10133837527E+02 -0.54030174310E+00  0.12401803654E+02  0.51100000000E-03 0.  1.
        -12    1    3    3    0    0 -0.17253035008E+02 -0.36381823250E+02  0.12616776409E+02  0.42195821202E+02  0.00000000000E+00 0.  1.
</event>
<event>
 7    1  0.1749439E-013  0.7246154E+02  0.7816164E-02  0.1226708E+00
        -11   -1    0    0    0    0  0.00000000000E+00  0.00000000000E+00  0.45593999997E+02  0.45594000000E+02  0.51100000000E-03 0.  1.
         11   -1    0    0    0    0 -0.00000000000E+00 -0.00000000000E+00 -0.45593999997E+02  0.45594000000E+02  0.51100000000E-03 0. -1.
    9900012    2    1    2    0    0  0.15001123946E+02 -0.61231200842E+01 -0.93890262914E+01  0.72461544545E+02  0.69999966457E+02 0.  0.
        -12    1    1    2    0    0 -0.15001123946E+02  0.61231200842E+01  0.93890262914E+01  0.18726455455E+02  0.00000000000E+00 0.  1.
         11    1    3    3    0    0  0.83189530479E+01  0.12718919162E+02 -0.38274907639E+01  0.15672446212E+02  0.51100000000E-03 0. -1.
        -11    1    3    3    0    0  0.11012501942E+02 -0.24093378682E+02  0.18155147662E+02  0.32115035143E+02  0.51100000000E-03 0.  1.
         12    1    3    3    0    0 -0.43303310444E+01  0.52513394350E+01 -0.23716683189E+02  0.24674063190E+02  0.00000000000E+00 0. -1.
</event>
<event>
 7    1  0.1749439E-013  0.7246150E+02  0.7816164E-02  0.1226708E+00
        -11   -1    0    0    0    0  0.00000000000E+00  0.00000000000E+00  0.45593999997E+02  0.45594000000E+02  0.51100000000E-03 0.  1.
         11   -1    0    0    0    0 -0.00000000000E+00 -0.00000000000E+00 -0.45593999997E+02  0.45594000000E+02  0.51100000000E-03 0. -1.
    9900012    2    1    2    0    0 -0.58620877166E+01  0.11576438380E+02 -0.13501994478E+02  0.72461498649E+02  0.69999906669E+02 0.  0.
        -12    1    1    2    0    0  0.58620877166E+01 -0.11576438380E+02  0.13501994478E+02  0.18726501351E+02  0.00000000000E+00 0.  1.
         11    1    3    3    0    0 -0.22042083866E+01  0.58779374416E+01  0.66178849819E+01  0.91216821406E+01  0.51100000000E-03 0. -1.
        -11    1    3    3    0    0 -0.14129495089E+02  0.85922232040E-01  0.18302711225E+02  0.23122267462E+02  0.51100000000E-03 0.  1.
         12    1    3    3    0    0  0.10471615759E+02  0.56125787065E+01 -0.38422590685E+02  0.40217549047E+02  0.00000000000E+00 0. -1.
</event>
<event>
 7    1  0.1749439E-013  0.7246158E+02  0.7816164E-02  0.1226708E+00
        -11   -1    0    0    0    0  0.00000000000E+00  0.00000000000E+00  0.45593999997E+02  0.45594000000E+02  0.51100000000E-03 0.  1.
         11   -1    0    0    0    0 -0.00000000000E+00 -0.00000000000E+00 -0.45593999997E+02  0.45594000000E+02  0.51100000000E-03 0. -1.
    9900012    2    1    2    0    0 -0.81896355030E+01 -0.16837256065E+02  0.34005520503E+00  0.72461575915E+02  0.70000007322E+02 0.  0.
        -12    1    1    2    0    0  0.81896355030E+01  0.16837256065E+02 -0.34005520503E+00  0.18726424085E+02  0.00000000000E+00 0.  1.
         11    1    3    3    0    0  0.15626596484E+02 -0.24288296398E+02 -0.17563099577E+02  0.33801987022E+02  0.51100000000E-03 0. -1.
        -11    1    3    3    0    0  0.11104102446E+01 -0.58090125295E+01  0.19346608599E+01  0.62225838992E+01  0.51100000000E-03 0.  1.
        -12    1    3    3    0    0 -0.24926642231E+02  0.13260052863E+02  0.15968493922E+02  0.32437004994E+02  0.00000000000E+00 0.  1.
</event>
<event>
 7    1  0.1749439E-013  0.7246153E+02  0.7816164E-02  0.1226708E+00
        -11   -1    0    0    0    0  0.00000000000E+00  0.00000000000E+00  0.45593999997E+02  0.45594000000E+02  0.51100000000E-03 0. -1.
         11   -1    0    0    0    0 -0.00000000000E+00 -0.00000000000E+00 -0.45593999997E+02  0.45594000000E+02  0.51100000000E-03 0.  1.
    9900012    2    1    2    0    0 -0.10825615324E+02 -0.11814428433E+02  0.96905140060E+01  0.72461528682E+02  0.69999945792E+02 0.  0.
        -12    1    1    2    0    0  0.10825615324E+02  0.11814428433E+02 -0.96905140060E+01  0.18726471318E+02  0.00000000000E+00 0.  1.
         11    1    3    3    0    0  0.14305106911E+02 -0.93332170159E+01  0.45152749997E+01  0.17667278573E+02  0.51100000000E-03 0. -1.
        -11    1    3    3    0    0  0.77676989781E+01  0.12830783619E+02 -0.69553838069E+01  0.16533103757E+02  0.51100000000E-03 0.  1.
         12    1    3    3    0    0 -0.32898421213E+02 -0.15311995036E+02  0.12130622813E+02  0.38261146351E+02  0.00000000000E+00 0. -1.
</event>
<event>
 7    1  0.1749439E-013  0.7246161E+02  0.7816164E-02  0.1226708E+00
        -11   -1    0    0    0    0  0.00000000000E+00  0.00000000000E+00  0.45593999997E+02  0.45594000000E+02  0.51100000000E-03 0.  1.
         11   -1    0    0    0    0 -0.00000000000E+00 -0.00000000000E+00 -0.45593999997E+02  0.45594000000E+02  0.51100000000E-03 0. -1.
    9900012    2    1    2    0    0  0.71073605203E+01  0.30095892515E+01 -0.17061812273E+02  0.72461611158E+02  0.70000053232E+02 0.  0.
        -12    1    1    2    0    0 -0.71073605203E+01 -0.30095892515E+01  0.17061812273E+02  0.18726388842E+02  0.00000000000E+00 0.  1.
         11    1    3    3    0    0  0.21568969000E+02 -0.16555917081E+02  0.22085289985E+01  0.27279963613E+02  0.51100000000E-03 0. -1.
        -11    1    3    3    0    0 -0.37128626845E+00  0.46429975319E+01 -0.23726893646E+02  0.24179759344E+02  0.51100000000E-03 0.  1.
        -12    1    3    3    0    0 -0.14090322211E+02  0.14922508801E+02  0.44565523746E+01  0.21001888201E+02  0.00000000000E+00 0.  1.
</event>
<event>
 7    1  0.1749439E-013  0.7246142E+02  0.7816164E-02  0.1226708E+00
        -11   -1    0    0    0    0  0.00000000000E+00  0.00000000000E+00  0.45593999997E+02  0.45594000000E+02  0.51100000000E-03 0.  1.
         11   -1    0    0    0    0 -0.00000000000E+00 -0.00000000000E+00 -0.45593999997E+02  0.45594000000E+02  0.51100000000E-03 0. -1.
    9900012    2    1    2    0    0 -0.12817323415E+02  0.95595290217E+01 -0.97476398780E+01  0.72461418416E+02  0.69999802150E+02 0.  0.
        -12    1    1    2    0    0  0.12817323415E+02 -0.95595290217E+01  0.97476398780E+01  0.18726581584E+02  0.00000000000E+00 0.  1.
         11    1    3    3    0    0 -0.18759752391E+02  0.11762519821E+02 -0.23008941802E+02  0.31932688353E+02  0.51100000000E-03 0. -1.
        -11    1    3    3    0    0 -0.31392100649E+01  0.20997278963E+00 -0.12613775040E+02  0.13000232668E+02  0.51100000000E-03 0.  1.
        -12    1    3    3    0    0  0.90816390410E+01 -0.24129635893E+01  0.25875076964E+02  0.27528497395E+02  0.00000000000E+00 0.  1.
</event>
<event>
 7    1  0.1749439E-013  0.7246148E+02  0.7816164E-02  0.1226708E+00
        -11   -1    0    0    0    0  0.00000000000E+00  0.00000000000E+00  0.45593999997E+02  0.45594000000E+02  0.51100000000E-03 0.  1.
         11   -1    0    0    0    0 -0.00000000000E+00 -0.00000000000E+00 -0.45593999997E+02  0.45594000000E+02  0.51100000000E-03 0. -1.
    9900012    2    1    2    0    0 -0.73530465979E+01  0.61030732585E+01 -0.16104894168E+02  0.72461483676E+02  0.69999887163E+02 0.  0.
        -12    1    1    2    0    0  0.73530465979E+01 -0.61030732585E+01  0.16104894168E+02  0.18726516324E+02  0.00000000000E+00 0.  1.
         11    1    3    3    0    0  0.19082351909E+02  0.16005431977E+02 -0.10398648203E+02  0.26989662686E+02  0.51100000000E-03 0. -1.
        -11    1    3    3    0    0 -0.51080518735E+01  0.80481278682E+01 -0.13500508410E+02  0.16526593228E+02  0.51100000000E-03 0.  1.
        -12    1    3    3    0    0 -0.21327346634E+02 -0.17950486587E+02  0.77942624452E+01  0.28945227762E+02  0.00000000000E+00 0.  1.
</event>
<event>
 7    1  0.1749439E-013  0.7246155E+02  0.7816164E-02  0.1226708E+00
        -11   -1    0    0    0    0  0.00000000000E+00  0.00000000000E+00  0.45593999997E+02  0.45594000000E+02  0.51100000000E-03 0.  1.
         11   -1    0    0    0    0 -0.00000000000E+00 -0.00000000000E+00 -0.45593999997E+02  0.45594000000E+02  0.51100000000E-03 0. -1.
    9900012    2    1    2    0    0 -0.33243776658E-01 -0.14294992752E+02 -0.12096776552E+02  0.72461550099E+02  0.69999973692E+02 0.  0.
        -12    1    1    2    0    0  0.33243776658E-01  0.14294992752E+02  0.12096776552E+02  0.18726449901E+02  0.00000000000E+00 0.  1.
         11    1    3    3    0    0 -0.44978616090E+01  0.10202496269E+02 -0.73639327273E+01  0.13362230152E+02  0.51100000000E-03 0. -1.
        -11    1    3    3    0    0  0.46739901735E+01  0.13312997663E+02  0.11253340683E+02  0.18047708101E+02  0.51100000000E-03 0.  1.
        -12    1    3    3    0    0 -0.20937234115E+00 -0.37810486684E+02 -0.15986184508E+02  0.41051611846E+02  0.00000000000E+00 0.  1.
</event>
<event>
 7    1  0.1749439E-013  0.7246177E+02  0.7816164E-02  0.1226707E+00
        -11   -1    0    0    0    0  0.00000000000E+00  0.00000000000E+00  0.45593999997E+02  0.45594000000E+02  0.51100000000E-03 0. -1.
         11   -1    0    0    0    0 -0.00000000000E+00 -0.00000000000E+00 -0.45593999997E+02  0.45594000000E+02  0.51100000000E-03 0.  1.
    9900012    2    1    2    0    0 -0.12091721106E+02  0.79892624478E+00  0.14276682170E+02  0.72461770902E+02  0.70000261328E+02 0.  0.
        -12    1    1    2    0    0  0.12091721106E+02 -0.79892624478E+00 -0.14276682170E+02  0.18726229098E+02  0.00000000000E+00 0.  1.
         11    1    3    3    0    0 -0.56010073589E+01  0.21131808140E+02  0.91093469518E+00  0.21880457056E+02  0.51100000000E-03 0. -1.
        -11    1    3    3    0    0 -0.19426224736E+02  0.51822568301E+01  0.41761358125E+01  0.20534704866E+02  0.51100000000E-03 0.  1.
         12    1    3    3    0    0  0.12935510989E+02 -0.25515138725E+02  0.91896116623E+01  0.30046608980E+02  0.00000000000E+00 0. -1.
</event>
<event>
 7    1  0.1749439E-013  0.7246153E+02  0.7816164E-02  0.1226708E+00
        -11   -1    0    0    0    0  0.00000000000E+00  0.00000000000E+00  0.45593999997E+02  0.45594000000E+02  0.51100000000E-03 0. -1.
         11   -1    0    0    0    0 -0.00000000000E+00 -0.00000000000E+00 -0.45593999997E+02  0.45594000000E+02  0.51100000000E-03 0.  1.
    9900012    2    1    2    0    0 -0.14957112085E+02  0.96327075068E+01  0.58460488845E+01  0.72461533612E+02  0.69999952214E+02 0.  0.
        -12    1    1    2    0    0  0.14957112085E+02 -0.96327075068E+01 -0.58460488845E+01  0.18726466388E+02  0.00000000000E+00 0.  1.
         11    1    3    3    0    0  0.73360273476E+01  0.23852434638E+01 -0.16309611102E+02  0.18041898408E+02  0.51100000000E-03 0. -1.
        -11    1    3    3    0    0 -0.15772528324E+02 -0.14432520289E+02 -0.18049346879E+01  0.21455257657E+02  0.51100000000E-03 0.  1.
         12    1    3    3    0    0 -0.65206111087E+01  0.21679984332E+02  0.23960594674E+02  0.32964377546E+02  0.00000000000E+00 0. -1.
</event>
<event>
 7    1  0.1749439E-013  0.7246154E+02  0.7816164E-02  0.1226708E+00
        -11   -1    0    0    0    0  0.00000000000E+00  0.00000000000E+00  0.45593999997E+02  0.45594000000E+02  0.51100000000E-03 0.  1.
         11   -1    0    0    0    0 -0.00000000000E+00 -0.00000000000E+00 -0.45593999997E+02  0.45594000000E+02  0.51100000000E-03 0. -1.
    9900012    2    1    2    0    0  0.11405266163E+02  0.10659372733E+01 -0.14814318814E+02  0.72461538496E+02  0.69999958577E+02 0.  0.
        -12    1    1    2    0    0 -0.11405266163E+02 -0.10659372733E+01  0.14814318814E+02  0.18726461504E+02  0.00000000000E+00 0.  1.
         11    1    3    3    0    0  0.89144233875E+01  0.12416697105E+01 -0.35433604655E+01  0.96728533356E+01  0.51100000000E-03 0. -1.
        -11    1    3    3    0    0  0.13991761622E+02  0.26309885030E+02 -0.15527374407E+02  0.33601767808E+02  0.51100000000E-03 0.  1.
         12    1    3    3    0    0 -0.11500918846E+02 -0.26485617467E+02  0.42564160585E+01  0.29186917353E+02  0.00000000000E+00 0. -1.
</event>
<event>
 7    1  0.1749439E-013  0.7246157E+02  0.7816164E-02  0.1226708E+00
        -11   -1    0    0    0    0  0.00000000000E+00  0.00000000000E+00  0.45593999997E+02  0.45594000000E+02  0.51100000000E-03 0.  1.
         11   -1    0    0    0    0 -0.00000000000E+00 -0.00000000000E+00 -0.45593999997E+02  0.45594000000E+02  0.51100000000E-03 0. -1.
    9900012    2    1    2    0    0 -0.41967398386E+01  0.11505716831E+02 -0.14166340399E+02  0.72461565599E+02  0.69999993883E+02 0.  0.
        -12    1    1    2    0    0  0.41967398386E+01 -0.11505716831E+02  0.14166340399E+02  0.18726434401E+02  0.00000000000E+00 0.  1.
         11    1    3    3    0    0  0.19947005014E+02 -0.82769257672E+01 -0.19936169603E+02  0.29391178403E+02  0.51100000000E-03 0. -1.
        -11    1    3    3    0    0 -0.11437831295E+02 -0.62607007749E+01 -0.16895273023E+01  0.13148188533E+02  0.51100000000E-03 0.  1.
        -12    1    3    3    0    0 -0.12705913558E+02  0.26043343373E+02  0.74593565059E+01  0.29922198664E+02  0.00000000000E+00 0.  1.
</event>
<event>
 7    1  0.1749439E-013  0.7246157E+02  0.7816164E-02  0.1226708E+00
        -11   -1    0    0    0    0  0.00000000000E+00  0.00000000000E+00  0.45593999997E+02  0.45594000000E+02  0.51100000000E-03 0.  1.
         11   -1    0    0    0    0 -0.00000000000E+00 -0.00000000000E+00 -0.45593999997E+02  0.45594000000E+02  0.51100000000E-03 0. -1.
    9900012    2    1    2    0    0 -0.12812547650E+02 -0.93518562951E+01 -0.99529153281E+01  0.72461571697E+02  0.70000001828E+02 0.  0.
        -12    1    1    2    0    0  0.12812547650E+02  0.93518562951E+01  0.99529153281E+01  0.18726428303E+02  0.00000000000E+00 0.  1.
         11    1    3    3    0    0 -0.27899599227E+02 -0.24466447005E+02 -0.94365756305E+01  0.38288949136E+02  0.51100000000E-03 0. -1.
        -11    1    3    3    0    0  0.10282715547E+01 -0.37542162373E+01  0.82021625699E+01  0.90789290685E+01  0.51100000000E-03 0.  1.
        -12    1    3    3    0    0  0.14058780022E+02  0.18868806947E+02 -0.87185022676E+01  0.25093693493E+02  0.00000000000E+00 0.  1.
</event>
<event>
 7    1  0.1749439E-013  0.7246143E+02  0.7816164E-02  0.1226708E+00
        -11   -1    0    0    0    0  0.00000000000E+00  0.00000000000E+00  0.45593999997E+02  0.45594000000E+02  0.51100000000E-03 0. -1.
         11   -1    0    0    0    0 -0.00000000000E+00 -0.00000000000E+00 -0.45593999997E+02  0.45594000000E+02  0.51100000000E-03 0.  1.
    9900012    2    1    2    0    0  0.59258155931E+01 -0.46524272510E+01  0.17144209955E+02  0.72461433183E+02  0.69999821386E+02 0.  0.
        -12    1    1    2    0    0 -0.59258155931E+01  0.46524272510E+01 -0.17144209955E+02  0.18726566817E+02  0.00000000000E+00 0.  1.
         11    1    3    3    0    0 -0.31107816970E+01  0.14501972404E+02  0.18943796291E+02  0.24059334665E+02  0.51100000000E-03 0. -1.
        -11    1    3    3    0    0 -0.16113892625E+02 -0.77599679131E+00 -0.54747149612E+01  0.17036202943E+02  0.51100000000E-03 0.  1.
        -12    1    3    3    0    0  0.25150489915E+02 -0.18378402863E+02  0.36751286254E+01  0.31365895574E+02  0.00000000000E+00 0.  1.
</event>
<event>
 7    1  0.1749439E-013  0.7246150E+02  0.7816164E-02  0.1226708E+00
        -11   -1    0    0    0    0  0.00000000000E+00  0.00000000000E+00  0.45593999997E+02  0.45594000000E+02  0.51100000000E-03 0.  1.
         11   -1    0    0    0    0 -0.00000000000E+00 -0.00000000000E+00 -0.45593999997E+02  0.45594000000E+02  0.51100000000E-03 0. -1.
    9900012    2    1    2    0    0  0.17266588046E+02  0.57985365825E+01 -0.43501342940E+01  0.72461501192E+02  0.69999909981E+02 0.  0.
        -12    1    1    2    0    0 -0.17266588046E+02 -0.57985365825E+01  0.43501342940E+01  0.18726498808E+02  0.00000000000E+00 0.  1.
         11    1    3    3    0    0  0.38024659072E+01  0.86416635637E+01  0.14188797877E+01  0.95472674748E+01  0.51100000000E-03 0.  1.
        -11    1    3    3    0    0  0.40584234769E+01 -0.19678590822E+02 -0.27372516356E+02  0.33955447130E+02  0.51100000000E-03 0. -1.
         12    1    3    3    0    0  0.94056986616E+01  0.16835463841E+02  0.21603502275E+02  0.28958786587E+02  0.00000000000E+00 0. -1.
</event>
<event>
 7    1  0.1749439E-013  0.7246150E+02  0.7816164E-02  0.1226708E+00
        -11   -1    0    0    0    0  0.00000000000E+00  0.00000000000E+00  0.45593999997E+02  0.45594000000E+02  0.51100000000E-03 0.  1.
         11   -1    0    0    0    0 -0.00000000000E+00 -0.00000000000E+00 -0.45593999997E+02  0.45594000000E+02  0.51100000000E-03 0. -1.
    9900012    2    1    2    0    0 -0.12704338889E+02 -0.35141965972E+01 -0.13301581692E+02  0.72461497928E+02  0.69999905729E+02 0.  0.
        -12    1    1    2    0    0  0.12704338889E+02  0.35141965972E+01  0.13301581692E+02  0.18726502072E+02  0.00000000000E+00 0.  1.
         11    1    3    3    0    0 -0.67619011686E+01  0.13545104714E+02 -0.13673557615E+02  0.20399984001E+02  0.51100000000E-03 0. -1.
        -11    1    3    3    0    0  0.19119486442E+02 -0.40691707013E+01  0.10353534559E+02  0.22120320751E+02  0.51100000000E-03 0.  1.
         12    1    3    3    0    0 -0.25061924162E+02 -0.12990130610E+02 -0.99815586357E+01  0.29941193176E+02  0.00000000000E+00 0. -1.
</event>
<event>
 7    1  0.1749439E-013  0.7246157E+02  0.7816164E-02  0.1226708E+00
        -11   -1    0    0    0    0  0.00000000000E+00  0.00000000000E+00  0.45593999997E+02  0.45594000000E+02  0.51100000000E-03 0.  1.
         11   -1    0    0    0    0 -0.00000000000E+00 -0.00000000000E+00 -0.45593999997E+02  0.45594000000E+02  0.51100000000E-03 0. -1.
    9900012    2    1    2    0    0 -0.12500944914E+02 -0.82113385705E+01 -0.11268512910E+02  0.72461572469E+02  0.70000002833E+02 0.  0.
        -12    1    1    2    0    0  0.12500944914E+02  0.82113385705E+01  0.11268512910E+02  0.18726427531E+02  0.00000000000E+00 0.  1.
         11    1    3    3    0    0  0.14284580955E+02 -0.25207434444E+01 -0.11091134367E+02  0.18259700501E+02  0.51100000000E-03 0. -1.
        -11    1    3    3    0    0 -0.50517719814E+01  0.13015075947E+02 -0.16174450842E+02  0.21366456476E+02  0.51100000000E-03 0.  1.
         12    1    3    3    0    0 -0.21733753888E+02 -0.18705671073E+02  0.15997072298E+02  0.32835415491E+02  0.00000000000E+00 0. -1.
</event>
<event>
 7    1  0.1749439E-013  0.7246157E+02  0.7816164E-02  0.1226708E+00
        -11   -1    0    0    0    0  0.00000000000E+00  0.00000000000E+00  0.45593999997E+02  0.45594000000E+02  0.51100000000E-03 0.  1.
         11   -1    0    0    0    0 -0.00000000000E+00 -0.00000000000E+00 -0.45593999997E+02  0.45594000000E+02  0.51100000000E-03 0. -1.
    9900012    2    1    2    0    0  0.17501977475E+02  0.20645153614E+01 -0.63322900084E+01  0.72461565851E+02  0.69999994211E+02 0.  0.
        -12    1    1    2    0    0 -0.17501977475E+02 -0.20645153614E+01  0.63322900084E+01  0.18726434149E+02  0.00000000000E+00 0.  1.
         11    1    3    3    0    0 -0.81350772086E+01  0.25568526181E+02 -0.37809685057E+01  0.27096581617E+02  0.51100000000E-03 0. -1.
        -11    1    3    3    0    0  0.28355699106E+02 -0.91018629169E+01  0.24434865009E+01  0.29880766504E+02  0.51100000000E-03 0.  1.
        -12    1    3    3    0    0 -0.27186444224E+01 -0.14402147902E+02 -0.49948080035E+01  0.15484217729E+02  0.00000000000E+00 0.  1.
</event>
<event>
 7    1  0.1749439E-013  0.7246168E+02  0.7816164E-02  0.1226708E+00
        -11   -1    0    0    0    0  0.00000000000E+00  0.00000000000E+00  0.45593999997E+02  0.45594000000E+02  0.51100000000E-03 0. -1.
         11   -1    0    0    0    0 -0.00000000000E+00 -0.00000000000E+00 -0.45593999997E+02  0.45594000000E+02  0.51100000000E-03 0.  1.
    9900012    2    1    2    0    0  0.63735788862E+01  0.97973517639E+01  0.14630942886E+02  0.72461678975E+02  0.70000141577E+02 0.  0.
        -12    1    1    2    0    0 -0.63735788862E+01 -0.97973517639E+01 -0.14630942886E+02  0.18726321025E+02  0.00000000000E+00 0.  1.
         11    1    3    3    0    0  0.12290874153E+01  0.93601968316E+01 -0.21500991684E+01  0.96822965920E+01  0.51100000000E-03 0. -1.
        -11    1    3    3    0    0  0.31520752273E+02 -0.69974776015E+01  0.39785214466E+01  0.32532309322E+02  0.51100000000E-03 0.  1.
         12    1    3    3    0    0 -0.26376260803E+02  0.74346325338E+01  0.12802520608E+02  0.30247073061E+02  0.00000000000E+00 0. -1.
</event>
<event>
 7    1  0.1749439E-013  0.7246157E+02  0.7816164E-02  0.1226708E+00
        -11   -1    0    0    0    0  0.00000000000E+00  0.00000000000E+00  0.45593999997E+02  0.45594000000E+02  0.51100000000E-03 0. -1.
         11   -1    0    0    0    0 -0.00000000000E+00 -0.00000000000E+00 -0.45593999997E+02  0.45594000000E+02  0.51100000000E-03 0.  1.
    9900012    2    1    2    0    0  0.84693566383E+00 -0.10738223145E+02 -0.15318374210E+02  0.72461566150E+02  0.69999994601E+02 0.  0.
        -12    1    1    2    0    0 -0.84693566383E+00  0.10738223145E+02  0.15318374210E+02  0.18726433850E+02  0.00000000000E+00 0.  1.
         11    1    3    3    0    0 -0.40014683365E+01 -0.18160641791E+00 -0.10034767221E+02  0.10804688019E+02  0.51100000000E-03 0. -1.
        -11    1    3    3    0    0  0.18393781783E+02  0.11647781084E+02 -0.21829201870E+02  0.30830440590E+02  0.51100000000E-03 0.  1.
         12    1    3    3    0    0 -0.13545377782E+02 -0.22204397811E+02  0.16545594882E+02  0.30826437540E+02  0.00000000000E+00 0. -1.
</event>
<event>
 7    1  0.1749439E-013  0.7246157E+02  0.7816164E-02  0.1226708E+00
        -11   -1    0    0    0    0  0.00000000000E+00  0.00000000000E+00  0.45593999997E+02  0.45594000000E+02  0.51100000000E-03 0. -1.
         11   -1    0    0    0    0 -0.00000000000E+00 -0.00000000000E+00 -0.45593999997E+02  0.45594000000E+02  0.51100000000E-03 0.  1.
    9900012    2    1    2    0    0  0.14387990771E+02  0.38467072246E+01  0.11351997987E+02  0.72461566992E+02  0.69999995698E+02 0.  0.
        -12    1    1    2    0    0 -0.14387990771E+02 -0.38467072246E+01 -0.11351997987E+02  0.18726433008E+02  0.00000000000E+00 0.  1.
         11    1    3    3    0    0  0.15578955471E+02  0.30506953866E+02  0.14979415287E+02  0.37386641603E+02  0.51100000000E-03 0. -1.
        -11    1    3    3    0    0  0.74637186147E+01 -0.10860497275E+01  0.12316269993E+01  0.76422185847E+01  0.51100000000E-03 0.  1.
        -12    1    3    3    0    0 -0.86546833151E+01 -0.25574196914E+02 -0.48590442987E+01  0.27432706804E+02  0.00000000000E+00 0.  1.
</event>
<event>
 7    1  0.1749439E-013  0.7246177E+02  0.7816164E-02  0.1226707E+00
        -11   -1    0    0    0    0  0.00000000000E+00  0.00000000000E+00  0.45593999997E+02  0.45594000000E+02  0.51100000000E-03 0. -1.
         11   -1    0    0    0    0 -0.00000000000E+00 -0.00000000000E+00 -0.45593999997E+02  0.45594000000E+02  0.51100000000E-03 0.  1.
    9900012    2    1    2    0    0  0.36587379238E+01 -0.16199788056E+02  0.86517123813E+01  0.72461771779E+02  0.70000262471E+02 0.  0.
        -12    1    1    2    0    0 -0.36587379238E+01  0.16199788056E+02 -0.86517123813E+01  0.18726228221E+02  0.00000000000E+00 0.  1.
         11    1    3    3    0    0 -0.52106353540E+01 -0.27105158983E+02 -0.17698160523E+01  0.27658138286E+02  0.51100000000E-03 0. -1.
        -11    1    3    3    0    0  0.55301442640E-01 -0.15138687943E+02  0.82050241624E+01  0.17219330784E+02  0.51100000000E-03 0.  1.
        -12    1    3    3    0    0  0.88140718352E+01  0.26044058871E+02  0.22165042712E+01  0.27584302710E+02  0.00000000000E+00 0.  1.
</event>
<event>
 7    1  0.1749439E-013  0.7246146E+02  0.7816164E-02  0.1226708E+00
        -11   -1    0    0    0    0  0.00000000000E+00  0.00000000000E+00  0.45593999997E+02  0.45594000000E+02  0.51100000000E-03 0.  1.
         11   -1    0    0    0    0 -0.00000000000E+00 -0.00000000000E+00 -0.45593999997E+02  0.45594000000E+02  0.51100000000E-03 0. -1.
    9900012    2    1    2    0    0 -0.12517542867E+02 -0.13463452424E+02 -0.35679178552E+01  0.72461455513E+02  0.69999850476E+02 0.  0.
        -12    1    1    2    0    0  0.12517542867E+02  0.13463452424E+02  0.35679178552E+01  0.18726544487E+02  0.00000000000E+00 0.  1.
         11    1    3    3    0    0 -0.16181171078E+02  0.10064383099E+02 -0.12564543644E+02  0.22825202340E+02  0.51100000000E-03 0. -1.
        -11    1    3    3    0    0  0.14201749230E+02  0.59472912906E+01  0.99280133295E+01  0.18320081982E+02  0.51100000000E-03 0.  1.
         12    1    3    3    0    0 -0.10538121019E+02 -0.29475126814E+02 -0.93138754044E+00  0.31316171191E+02  0.00000000000E+00 0. -1.
</event>
<event>
 7    1  0.1749439E-013  0.7246158E+02  0.7816164E-02  0.1226708E+00
        -11   -1    0    0    0    0  0.00000000000E+00  0.00000000000E+00  0.45593999997E+02  0.45594000000E+02  0.51100000000E-03 0. -1.
         11   -1    0    0    0    0 -0.00000000000E+00 -0.00000000000E+00 -0.45593999997E+02  0.45594000000E+02  0.51100000000E-03 0.  1.
    9900012    2    1    2    0    0  0.15913566513E+02  0.31894725227E+01  0.93415544398E+01  0.72461575528E+02  0.70000006818E+02 0.  0.
        -12    1    1    2    0    0 -0.15913566513E+02 -0.31894725227E+01 -0.93415544398E+01  0.18726424472E+02  0.00000000000E+00 0.  1.
         11    1    3    3    0    0 -0.66338004656E+01 -0.15510704834E+02  0.20626540921E+02  0.26646640758E+02  0.51100000000E-03 0. -1.
        -11    1    3    3    0    0 -0.75512703532E+01 -0.70973373845E+00  0.16031630550E+01  0.77521311888E+01  0.51100000000E-03 0.  1.
        -12    1    3    3    0    0  0.30098637332E+02  0.19409911095E+02 -0.12888149537E+02  0.38062803581E+02  0.00000000000E+00 0.  1.
</event>
<event>
 7    1  0.1749439E-013  0.7246162E+02  0.7816164E-02  0.1226708E+00
        -11   -1    0    0    0    0  0.00000000000E+00  0.00000000000E+00  0.45593999997E+02  0.45594000000E+02  0.51100000000E-03 0. -1.
         11   -1    0    0    0    0 -0.00000000000E+00 -0.00000000000E+00 -0.45593999997E+02  0.45594000000E+02  0.51100000000E-03 0.  1.
    9900012    2    1    2    0    0 -0.49795325969E+01  0.12783566434E+02  0.12746053545E+02  0.72461622971E+02  0.70000068621E+02 0.  0.
        -12    1    1    2    0    0  0.49795325969E+01 -0.12783566434E+02 -0.12746053545E+02  0.18726377029E+02  0.00000000000E+00 0.  1.
         11    1    3    3    0    0 -0.16486883871E+02  0.16167985917E+02  0.11107745915E+02  0.25624268340E+02  0.51100000000E-03 0. -1.
        -11    1    3    3    0    0 -0.87020084733E+01 -0.37808216173E+01  0.18318923413E+02  0.20630136181E+02  0.51100000000E-03 0.  1.
        -12    1    3    3    0    0  0.20209359747E+02  0.39640213419E+00 -0.16680615782E+02  0.26207218451E+02  0.00000000000E+00 0.  1.
</event>
<event>
 7    1  0.1749439E-013  0.7246119E+02  0.7816164E-02  0.1226709E+00
        -11   -1    0    0    0    0  0.00000000000E+00  0.00000000000E+00  0.45593999997E+02  0.45594000000E+02  0.51100000000E-03 0.  1.
         11   -1    0    0    0    0 -0.00000000000E+00 -0.00000000000E+00 -0.45593999997E+02  0.45594000000E+02  0.51100000000E-03 0. -1.
    9900012    2    1    2    0    0 -0.11160525063E+02  0.81815020960E+01 -0.12617409742E+02  0.72461192348E+02  0.69999507653E+02 0.  0.
        -12    1    1    2    0    0  0.11160525063E+02 -0.81815020960E+01  0.12617409742E+02  0.18726807652E+02  0.00000000000E+00 0.  1.
         11    1    3    3    0    0 -0.10050521732E+02 -0.27769412586E+01 -0.35360346618E+01  0.11010355636E+02  0.51100000000E-03 0. -1.
        -11    1    3    3    0    0 -0.27631154924E+02 -0.60453302474E+01 -0.98122742840E+01  0.29938394532E+02  0.51100000000E-03 0.  1.
         12    1    3    3    0    0  0.26521151593E+02  0.17003773602E+02  0.73089920330E+00  0.31512442180E+02  0.00000000000E+00 0. -1.
</event>
<event>
 7    1  0.1749439E-013  0.7246159E+02  0.7816164E-02  0.1226708E+00
        -11   -1    0    0    0    0  0.00000000000E+00  0.00000000000E+00  0.45593999997E+02  0.45594000000E+02  0.51100000000E-03 0. -1.
         11   -1    0    0    0    0 -0.00000000000E+00 -0.00000000000E+00 -0.45593999997E+02  0.45594000000E+02  0.51100000000E-03 0.  1.
    9900012    2    1    2    0    0  0.69838491862E+01  0.14711532891E+02  0.92452717904E+01  0.72461590842E+02  0.70000026767E+02 0.  0.
        -12    1    1    2    0    0 -0.69838491862E+01 -0.14711532891E+02 -0.92452717904E+01  0.18726409158E+02  0.00000000000E+00 0.  1.
         11    1    3    3    0    0 -0.19231831936E+02  0.59465173393E+01  0.98984549987E+01  0.22432205414E+02  0.51100000000E-03 0. -1.
        -11    1    3    3    0    0  0.22024034308E+01 -0.13570550370E+02 -0.86895686333E+01  0.16264040750E+02  0.51100000000E-03 0.  1.
        -12    1    3    3    0    0  0.24013277692E+02  0.22335565922E+02  0.80363854250E+01  0.33765344679E+02  0.00000000000E+00 0.  1.
</event>
<event>
 7    1  0.1749439E-013  0.7246149E+02  0.7816164E-02  0.1226708E+00
        -11   -1    0    0    0    0  0.00000000000E+00  0.00000000000E+00  0.45593999997E+02  0.45594000000E+02  0.51100000000E-03 0.  1.
         11   -1    0    0    0    0 -0.00000000000E+00 -0.00000000000E+00 -0.45593999997E+02  0.45594000000E+02  0.51100000000E-03 0. -1.
    9900012    2    1    2    0    0 -0.85550688814E+01 -0.91953048426E+01 -0.13890267394E+02  0.72461485028E+02  0.69999888925E+02 0.  0.
        -12    1    1    2    0    0  0.85550688814E+01  0.91953048426E+01  0.13890267394E+02  0.18726514972E+02  0.00000000000E+00 0.  1.
         11    1    3    3    0    0 -0.23110837584E+02 -0.17068644457E+02 -0.15568326287E+02  0.32677549190E+02  0.51100000000E-03 0. -1.
        -11    1    3    3    0    0  0.65702506987E+01 -0.31831336785E+01 -0.15923114287E+02  0.17517023238E+02  0.51100000000E-03 0.  1.
        -12    1    3    3    0    0  0.79855180034E+01  0.11056473293E+02  0.17601173180E+02  0.22266912601E+02  0.00000000000E+00 0.  1.
</event>
<event>
 7    1  0.1749439E-013  0.7246154E+02  0.7816164E-02  0.1226708E+00
        -11   -1    0    0    0    0  0.00000000000E+00  0.00000000000E+00  0.45593999997E+02  0.45594000000E+02  0.51100000000E-03 0.  1.
         11   -1    0    0    0    0 -0.00000000000E+00 -0.00000000000E+00 -0.45593999997E+02  0.45594000000E+02  0.51100000000E-03 0. -1.
    9900012    2    1    2    0    0  0.61976283065E+01 -0.10597632954E+02 -0.14140716920E+02  0.72461540221E+02  0.69999960823E+02 0.  0.
        -12    1    1    2    0    0 -0.61976283065E+01  0.10597632954E+02  0.14140716920E+02  0.18726459779E+02  0.00000000000E+00 0.  1.
         11    1    3    3    0    0  0.44314794805E+01  0.43627160900E+01 -0.31886283523E+01  0.69884657185E+01  0.51100000000E-03 0.  1.
        -11    1    3    3    0    0  0.11500533107E+02  0.22333145263E+02 -0.96437568323E+01  0.26907874037E+02  0.51100000000E-03 0. -1.
         12    1    3    3    0    0 -0.97343842813E+01 -0.37293494307E+02 -0.13083317351E+01  0.38565200465E+02  0.00000000000E+00 0. -1.
</event>
<event>
 7    1  0.1749439E-013  0.7246143E+02  0.7816164E-02  0.1226708E+00
        -11   -1    0    0    0    0  0.00000000000E+00  0.00000000000E+00  0.45593999997E+02  0.45594000000E+02  0.51100000000E-03 0. -1.
         11   -1    0    0    0    0 -0.00000000000E+00 -0.00000000000E+00 -0.45593999997E+02  0.45594000000E+02  0.51100000000E-03 0.  1.
    9900012    2    1    2    0    0  0.78520713756E+01 -0.16971052033E+02 -0.10064188969E+01  0.72461427677E+02  0.69999814214E+02 0.  0.
        -12    1    1    2    0    0 -0.78520713756E+01  0.16971052033E+02  0.10064188969E+01  0.18726572323E+02  0.00000000000E+00 0.  1.
         11    1    3    3    0    0  0.99696695455E+01  0.17645222093E+02  0.86283235171E+00  0.20285281696E+02  0.51100000000E-03 0. -1.
        -11    1    3    3    0    0 -0.12362341389E+02  0.33518468377E+01 -0.85248959474E+00  0.12837020706E+02  0.51100000000E-03 0.  1.
         12    1    3    3    0    0  0.10244743219E+02 -0.37968120963E+02 -0.10167616538E+01  0.39339125275E+02  0.00000000000E+00 0. -1.
</event>
<event>
 7    1  0.1749439E-013  0.7246156E+02  0.7816164E-02  0.1226708E+00
        -11   -1    0    0    0    0  0.00000000000E+00  0.00000000000E+00  0.45593999997E+02  0.45594000000E+02  0.51100000000E-03 0.  1.
         11   -1    0    0    0    0 -0.00000000000E+00 -0.00000000000E+00 -0.45593999997E+02  0.45594000000E+02  0.51100000000E-03 0. -1.
    9900012    2    1    2    0    0 -0.64413890064E+01  0.84408711986E+01 -0.15425299503E+02  0.72461557100E+02  0.69999982812E+02 0.  0.
        -12    1    1    2    0    0  0.64413890064E+01 -0.84408711986E+01  0.15425299503E+02  0.18726442900E+02  0.00000000000E+00 0.  1.
         11    1    3    3    0    0 -0.95587920279E+01  0.20636130881E+02 -0.25243701531E+02  0.33977417059E+02  0.51100000000E-03 0. -1.
        -11    1    3    3    0    0 -0.11975145503E+02 -0.10199685529E+02 -0.57132771007E+01  0.16735567819E+02  0.51100000000E-03 0.  1.
        -12    1    3    3    0    0  0.15092548525E+02 -0.19955741532E+01  0.15531679129E+02  0.21748572223E+02  0.00000000000E+00 0.  1.
</event>
<event>
 7    1  0.1749439E-013  0.7246135E+02  0.7816164E-02  0.1226709E+00
        -11   -1    0    0    0    0  0.00000000000E+00  0.00000000000E+00  0.45593999997E+02  0.45594000000E+02  0.51100000000E-03 0.  1.
         11   -1    0    0    0    0 -0.00000000000E+00 -0.00000000000E+00 -0.45593999997E+02  0.45594000000E+02  0.51100000000E-03 0. -1.
    9900012    2    1    2    0    0 -0.21838202608E+01 -0.12162848713E+02  0.14070664371E+02  0.72461346386E+02  0.69999708317E+02 0.  0.
        -12    1    1    2    0    0  0.21838202608E+01  0.12162848713E+02 -0.14070664371E+02  0.18726653614E+02  0.00000000000E+00 0.  1.
         11    1    3    3    0    0  0.13317531828E+01  0.52232019329E+01  0.16341850566E+02  0.17207890200E+02  0.51100000000E-03 0. -1.
        -11    1    3    3    0    0 -0.84265404984E+01 -0.18697898288E+01  0.23353349712E+02  0.24897422393E+02  0.51100000000E-03 0.  1.
         12    1    3    3    0    0  0.49109670547E+01 -0.15516260817E+02 -0.25624535907E+02  0.30356033792E+02  0.00000000000E+00 0. -1.
</event>
<event>
 7    1  0.1749439E-013  0.7246155E+02  0.7816164E-02  0.1226708E+00
        -11   -1    0    0    0    0  0.00000000000E+00  0.00000000000E+00  0.45593999997E+02  0.45594000000E+02  0.51100000000E-03 0. -1.
         11   -1    0    0    0    0 -0.00000000000E+00 -0.00000000000E+00 -0.45593999997E+02  0.45594000000E+02  0.51100000000E-03 0.  1.
    9900012    2    1    2    0    0  0.84890837739E+01 -0.13646384127E+02 -0.96120575350E+01  0.72461548304E+02  0.69999971354E+02 0.  0.
        -12    1    1    2    0    0 -0.84890837739E+01  0.13646384127E+02  0.96120575350E+01  0.18726451696E+02  0.00000000000E+00 0.  1.
         11    1    3    3    0    0 -0.45403917871E+01  0.36200337669E+01 -0.93749423763E+01  0.11027662802E+02  0.51100000000E-03 0. -1.
        -11    1    3    3    0    0  0.22253714328E+02 -0.84052801713E+00 -0.22913919319E+02  0.31952808758E+02  0.51100000000E-03 0.  1.
         12    1    3    3    0    0 -0.92242387670E+01 -0.16425889877E+02  0.22676804160E+02  0.29481076744E+02  0.00000000000E+00 0. -1.
</event>
<event>
 7    1  0.1749439E-013  0.7246175E+02  0.7816164E-02  0.1226708E+00
        -11   -1    0    0    0    0  0.00000000000E+00  0.00000000000E+00  0.45593999997E+02  0.45594000000E+02  0.51100000000E-03 0. -1.
         11   -1    0    0    0    0 -0.00000000000E+00 -0.00000000000E+00 -0.45593999997E+02  0.45594000000E+02  0.51100000000E-03 0.  1.
    9900012    2    1    2    0    0  0.15206072403E+02 -0.99894513372E+01  0.44338161065E+01  0.72461748341E+02  0.70000231938E+02 0.  0.
        -12    1    1    2    0    0 -0.15206072403E+02  0.99894513372E+01 -0.44338161065E+01  0.18726251659E+02  0.00000000000E+00 0.  1.
         11    1    3    3    0    0 -0.25224330299E+01 -0.27772496552E+01 -0.60215594464E+01  0.70947136986E+01  0.51100000000E-03 0. -1.
        -11    1    3    3    0    0 -0.47844029383E+01 -0.30652773079E+02 -0.62294829779E+00  0.31030163933E+02  0.51100000000E-03 0.  1.
         12    1    3    3    0    0  0.22512908371E+02  0.23440571396E+02  0.11078323851E+02  0.34336870709E+02  0.00000000000E+00 0. -1.
</event>
<event>
 7    1  0.1749439E-013  0.7246158E+02  0.7816164E-02  0.1226708E+00
        -11   -1    0    0    0    0  0.00000000000E+00  0.00000000000E+00  0.45593999997E+02  0.45594000000E+02  0.51100000000E-03 0.  1.
         11   -1    0    0    0    0 -0.00000000000E+00 -0.00000000000E+00 -0.45593999997E+02  0.45594000000E+02  0.51100000000E-03 0. -1.
    9900012    2    1    2    0    0 -0.56783315930E+01  0.11758321876E+02 -0.13423006162E+02  0.72461583433E+02  0.70000017115E+02 0.  0.
        -12    1    1    2    0    0  0.56783315930E+01 -0.11758321876E+02  0.13423006162E+02  0.18726416567E+02  0.00000000000E+00 0.  1.
         11    1    3    3    0    0 -0.10486813998E+02  0.21213114220E+01 -0.27764290214E+02  0.29754479348E+02  0.51100000000E-03 0. -1.
        -11    1    3    3    0    0 -0.15215259205E+02  0.58792276588E+00 -0.19529322936E+01  0.15351342308E+02  0.51100000000E-03 0.  1.
        -12    1    3    3    0    0  0.20023741610E+02  0.90490876881E+01  0.16294216345E+02  0.27355761776E+02  0.00000000000E+00 0.  1.
</event>
<event>
 7    1  0.1749439E-013  0.7246157E+02  0.7816164E-02  0.1226708E+00
        -11   -1    0    0    0    0  0.00000000000E+00  0.00000000000E+00  0.45593999997E+02  0.45594000000E+02  0.51100000000E-03 0. -1.
         11   -1    0    0    0    0 -0.00000000000E+00 -0.00000000000E+00 -0.45593999997E+02  0.45594000000E+02  0.51100000000E-03 0.  1.
    9900012    2    1    2    0    0 -0.55502893540E+01  0.14975147511E+02  0.97784745977E+01  0.72461566267E+02  0.69999994754E+02 0.  0.
        -12    1    1    2    0    0  0.55502893540E+01 -0.14975147511E+02 -0.97784745977E+01  0.18726433733E+02  0.00000000000E+00 0.  1.
         11    1    3    3    0    0  0.91730606552E+01 -0.94636120459E+01 -0.58806583058E+01  0.14432156357E+02  0.51100000000E-03 0. -1.
        -11    1    3    3    0    0 -0.18985169636E+01 -0.11911814784E+02 -0.63608940435E+01  0.13636593101E+02  0.51100000000E-03 0.  1.
         12    1    3    3    0    0 -0.12824833046E+02  0.36350574341E+02  0.22020026947E+02  0.44392816810E+02  0.00000000000E+00 0. -1.
</event>
<event>
 7    1  0.1749439E-013  0.7246155E+02  0.7816164E-02  0.1226708E+00
        -11   -1    0    0    0    0  0.00000000000E+00  0.00000000000E+00  0.45593999997E+02  0.45594000000E+02  0.51100000000E-03 0. -1.
         11   -1    0    0    0    0 -0.00000000000E+00 -0.00000000000E+00 -0.45593999997E+02  0.45594000000E+02  0.51100000000E-03 0.  1.
    9900012    2    1    2    0    0 -0.89726653303E+01 -0.13423793713E+02  0.94854026142E+01  0.72461552832E+02  0.69999977253E+02 0.  0.
        -12    1    1    2    0    0  0.89726653303E+01  0.13423793713E+02 -0.94854026142E+01  0.18726447168E+02  0.00000000000E+00 0.  1.
         11    1    3    3    0    0 -0.17912141528E+01 -0.10221517033E+02 -0.41823832166E+01  0.11188395248E+02  0.51100000000E-03 0. -1.
        -11    1    3    3    0    0 -0.11313880481E+02  0.13037944355E+02 -0.18313780587E+02  0.25167169968E+02  0.51100000000E-03 0.  1.
         12    1    3    3    0    0  0.41324293035E+01 -0.16240221035E+02  0.31981566418E+02  0.36105987617E+02  0.00000000000E+00 0. -1.
</event>
<event>
 7    1  0.1749439E-013  0.7246180E+02  0.7816164E-02  0.1226707E+00
        -11   -1    0    0    0    0  0.00000000000E+00  0.00000000000E+00  0.45593999997E+02  0.45594000000E+02  0.51100000000E-03 0.  1.
         11   -1    0    0    0    0 -0.00000000000E+00 -0.00000000000E+00 -0.45593999997E+02  0.45594000000E+02  0.51100000000E-03 0. -1.
    9900012    2    1    2    0    0 -0.11607959855E+02 -0.42935814578E+01 -0.14053142330E+02  0.72461804896E+02  0.70000305611E+02 0.  0.
        -12    1    1    2    0    0  0.11607959855E+02  0.42935814578E+01  0.14053142330E+02  0.18726195104E+02  0.00000000000E+00 0.  1.
         11    1    3    3    0    0  0.84092093988E+01 -0.17211512309E+02  0.14658888995E+02  0.24121235157E+02  0.51100000000E-03 0.  1.
        -11    1    3    3    0    0 -0.12311778023E+02 -0.71667683180E+01 -0.25538260732E+01  0.14472887552E+02  0.51100000000E-03 0. -1.
         12    1    3    3    0    0 -0.77053912310E+01  0.20084699169E+02 -0.26158205251E+02  0.33867682187E+02  0.00000000000E+00 0. -1.
</event>
<event>
 7    1  0.1749439E-013  0.7246159E+02  0.7816164E-02  0.1226708E+00
        -11   -1    0    0    0    0  0.00000000000E+00  0.00000000000E+00  0.45593999997E+02  0.45594000000E+02  0.51100000000E-03 0. -1.
         11   -1    0    0    0    0 -0.00000000000E+00 -0.00000000000E+00 -0.45593999997E+02  0.45594000000E+02  0.51100000000E-03 0.  1.
    9900012    2    1    2    0    0  0.59684482299E+01 -0.17711035423E+02  0.11727361827E+01  0.72461589234E+02  0.70000024672E+02 0.  0.
        -12    1    1    2    0    0 -0.59684482299E+01  0.17711035423E+02 -0.11727361827E+01  0.18726410766E+02  0.00000000000E+00 0.  1.
         11    1    3    3    0    0 -0.22491854139E+02  0.11612524460E+02  0.41875257595E+01  0.25656765174E+02  0.51100000000E-03 0. -1.
        -11    1    3    3    0    0  0.12462483032E+00  0.27624805468E+01  0.23940444236E+01  0.36576329892E+01  0.51100000000E-03 0.  1.
        -12    1    3    3    0    0  0.28335677539E+02 -0.32086040430E+02 -0.54088340005E+01  0.43147191071E+02  0.00000000000E+00 0.  1.
</event>
<event>
 7    1  0.1749439E-013  0.7246156E+02  0.7816164E-02  0.1226708E+00
        -11   -1    0    0    0    0  0.00000000000E+00  0.00000000000E+00  0.45593999997E+02  0.45594000000E+02  0.51100000000E-03 0. -1.
         11   -1    0    0    0    0 -0.00000000000E+00 -0.00000000000E+00 -0.45593999997E+02  0.45594000000E+02  0.51100000000E-03 0.  1.
    9900012    2    1    2    0    0  0.39935639455E+01 -0.13908132044E+02  0.11886747197E+02  0.72461562836E+02  0.69999990284E+02 0.  0.
        -12    1    1    2    0    0 -0.39935639455E+01  0.13908132044E+02 -0.11886747197E+02  0.18726437164E+02  0.00000000000E+00 0.  1.
         11    1    3    3    0    0  0.10223279135E+02 -0.11611300937E+02 -0.73479272991E+01  0.17126873082E+02  0.51100000000E-03 0. -1.
        -11    1    3    3    0    0 -0.36635462965E+01 -0.97962486578E+01 -0.16057551013E+02  0.19163324452E+02  0.51100000000E-03 0.  1.
         12    1    3    3    0    0 -0.25661688927E+01  0.74994175509E+01  0.35292225510E+02  0.36171365302E+02  0.00000000000E+00 0. -1.
</event>
<event>
 7    1  0.1749439E-013  0.7246130E+02  0.7816164E-02  0.1226709E+00
        -11   -1    0    0    0    0  0.00000000000E+00  0.00000000000E+00  0.45593999997E+02  0.45594000000E+02  0.51100000000E-03 0. -1.
         11   -1    0    0    0    0 -0.00000000000E+00 -0.00000000000E+00 -0.45593999997E+02  0.45594000000E+02  0.51100000000E-03 0.  1.
    9900012    2    1    2    0    0  0.62530733347E+01 -0.91977421412E+01  0.15066189883E+02  0.72461295426E+02  0.69999641932E+02 0.  0.
        -12    1    1    2    0    0 -0.62530733347E+01  0.91977421412E+01 -0.15066189883E+02  0.18726704574E+02  0.00000000000E+00 0.  1.
         11    1    3    3    0    0  0.48798289017E+01  0.24457242698E+02 -0.20748278065E+00  0.24940178425E+02  0.51100000000E-03 0.  1.
        -11    1    3    3    0    0  0.14388046015E+02 -0.95410642652E+01  0.87430665401E+01  0.19351717966E+02  0.51100000000E-03 0. -1.
         12    1    3    3    0    0 -0.13014801582E+02 -0.24113920574E+02  0.65306061230E+01  0.28169399035E+02  0.00000000000E+00 0. -1.
</event>
<event>
 7    1  0.1749439E-013  0.7246166E+02  0.7816164E-02  0.1226708E+00
        -11   -1    0    0    0    0  0.00000000000E+00  0.00000000000E+00  0.45593999997E+02  0.45594000000E+02  0.51100000000E-03 0. -1.
         11   -1    0    0    0    0 -0.00000000000E+00 -0.00000000000E+00 -0.45593999997E+02  0.45594000000E+02  0.51100000000E-03 0.  1.
    9900012    2    1    2    0    0 -0.14966383163E+02 -0.11105488458E+02 -0.18306667767E+01  0.72461659201E+02  0.70000115817E+02 0.  0.
        -12    1    1    2    0    0  0.14966383163E+02  0.11105488458E+02  0.18306667767E+01  0.18726340799E+02  0.00000000000E+00 0.  1.
         11    1    3    3    0    0 -0.13503071024E+02 -0.25340582832E+02 -0.31892335673E+01  0.28890297270E+02  0.51100000000E-03 0. -1.
        -11    1    3    3    0    0  0.16632452393E+02 -0.42097305901E+01 -0.28486452649E+01  0.17391810842E+02  0.51100000000E-03 0.  1.
         12    1    3    3    0    0 -0.18095764533E+02  0.18444824963E+02  0.42072120554E+01  0.26179551089E+02  0.00000000000E+00 0. -1.
</event>
<event>
 7    1  0.1749439E-013  0.7246160E+02  0.7816164E-02  0.1226708E+00
        -11   -1    0    0    0    0  0.00000000000E+00  0.00000000000E+00  0.45593999997E+02  0.45594000000E+02  0.51100000000E-03 0. -1.
         11   -1    0    0    0    0 -0.00000000000E+00 -0.00000000000E+00 -0.45593999997E+02  0.45594000000E+02  0.51100000000E-03 0.  1.
    9900012    2    1    2    0    0  0.45568440246E+01  0.12266824172E+02 -0.13395462109E+02  0.72461595971E+02  0.70000033449E+02 0.  0.
        -12    1    1    2    0    0 -0.45568440246E+01 -0.12266824172E+02  0.13395462109E+02  0.18726404029E+02  0.00000000000E+00 0.  1.
         11    1    3    3    0    0 -0.99274440501E+01  0.21909358211E+01 -0.29790582346E+01  0.10593825247E+02  0.51100000000E-03 0.  1.
        -11    1    3    3    0    0  0.16275581633E+02 -0.21287040237E+02  0.43659459938E+01  0.27149477421E+02  0.51100000000E-03 0. -1.
         12    1    3    3    0    0 -0.17912935579E+01  0.31362928588E+02 -0.14782349869E+02  0.34718293303E+02  0.00000000000E+00 0. -1.
</event>
<event>
 7    1  0.1749439E-013  0.7246165E+02  0.7816164E-02  0.1226708E+00
        -11   -1    0    0    0    0  0.00000000000E+00  0.00000000000E+00  0.45593999997E+02  0.45594000000E+02  0.51100000000E-03 0. -1.
         11   -1    0    0    0    0 -0.00000000000E+00 -0.00000000000E+00 -0.45593999997E+02  0.45594000000E+02  0.51100000000E-03 0.  1.
    9900012    2    1    2    0    0  0.10173817682E+02  0.12869537896E+02  0.90301995263E+01  0.72461652909E+02  0.70000107621E+02 0.  0.
        -12    1    1    2    0    0 -0.10173817682E+02 -0.12869537896E+02 -0.90301995263E+01  0.18726347091E+02  0.00000000000E+00 0.  1.
         11    1    3    3    0    0 -0.14068303455E+02 -0.35626229912E+01  0.18349837363E+02  0.23394998957E+02  0.51100000000E-03 0. -1.
        -11    1    3    3    0    0 -0.45652540140E+01  0.11490500858E+02  0.83434408760E+01  0.14915969968E+02  0.51100000000E-03 0.  1.
        -12    1    3    3    0    0  0.28807375151E+02  0.49416600292E+01 -0.17663078713E+02  0.34150683983E+02  0.00000000000E+00 0.  1.
</event>
<event>
 7    1  0.1749439E-013  0.7246157E+02  0.7816164E-02  0.1226708E+00
        -11   -1    0    0    0    0  0.00000000000E+00  0.00000000000E+00  0.45593999997E+02  0.45594000000E+02  0.51100000000E-03 0.  1.
         11   -1    0    0    0    0 -0.00000000000E+00 -0.00000000000E+00 -0.45593999997E+02  0.45594000000E+02  0.51100000000E-03 0. -1.
    9900012    2    1    2    0    0  0.11568263411E+00  0.12854031413E+01 -0.18681905075E+02  0.72461568921E+02  0.69999998212E+02 0.  0.
        -12    1    1    2    0    0 -0.11568263411E+00 -0.12854031413E+01  0.18681905075E+02  0.18726431079E+02  0.00000000000E+00 0.  1.
         11    1    3    3    0    0  0.61530766597E+01 -0.33136135464E+01 -0.31414166915E+02  0.32182142103E+02  0.51100000000E-03 0. -1.
        -11    1    3    3    0    0 -0.44500437948E-01 -0.87794270334E+01 -0.99517132707E+01  0.13270904890E+02  0.51100000000E-03 0.  1.
        -12    1    3    3    0    0 -0.59928935876E+01  0.13378443721E+02  0.22683975110E+02  0.27008521928E+02  0.00000000000E+00 0.  1.
</event>
<event>
 7    1  0.1749439E-013  0.7246154E+02  0.7816164E-02  0.1226708E+00
        -11   -1    0    0    0    0  0.00000000000E+00  0.00000000000E+00  0.45593999997E+02  0.45594000000E+02  0.51100000000E-03 0.  1.
         11   -1    0    0    0    0 -0.00000000000E+00 -0.00000000000E+00 -0.45593999997E+02  0.45594000000E+02  0.51100000000E-03 0. -1.
    9900012    2    1    2    0    0 -0.94513572472E+01  0.29984597507E+01 -0.15885889586E+02  0.72461537370E+02  0.69999957110E+02 0.  0.
        -12    1    1    2    0    0  0.94513572472E+01 -0.29984597507E+01  0.15885889586E+02  0.18726462630E+02  0.00000000000E+00 0.  1.
         11    1    3    3    0    0 -0.10149173048E+02  0.17623987218E+02 -0.27142677212E+01  0.20517745698E+02  0.51100000000E-03 0.  1.
        -11    1    3    3    0    0  0.66619370579E+00 -0.32380143977E+02 -0.10100642409E+02  0.33925514224E+02  0.51100000000E-03 0. -1.
         12    1    3    3    0    0  0.31622094903E-01  0.17754616509E+02 -0.30709794560E+01  0.18018277448E+02  0.00000000000E+00 0. -1.
</event>
<event>
 7    1  0.1749439E-013  0.7246121E+02  0.7816164E-02  0.1226709E+00
        -11   -1    0    0    0    0  0.00000000000E+00  0.00000000000E+00  0.45593999997E+02  0.45594000000E+02  0.51100000000E-03 0.  1.
         11   -1    0    0    0    0 -0.00000000000E+00 -0.00000000000E+00 -0.45593999997E+02  0.45594000000E+02  0.51100000000E-03 0. -1.
    9900012    2    1    2    0    0 -0.13158805388E+01 -0.14638871275E+01 -0.18623051761E+02  0.72461212661E+02  0.69999534115E+02 0.  0.
        -12    1    1    2    0    0  0.13158805388E+01  0.14638871275E+01  0.18623051761E+02  0.18726787339E+02  0.00000000000E+00 0.  1.
         11    1    3    3    0    0 -0.90099813899E+01 -0.28542166976E+01  0.39316562039E+01  0.10236417262E+02  0.51100000000E-03 0.  1.
        -11    1    3    3    0    0  0.18894450367E+02 -0.31327073524E+00 -0.38369669971E+02  0.42770667135E+02  0.51100000000E-03 0. -1.
         12    1    3    3    0    0 -0.11200349516E+02  0.17036003053E+01  0.15814962006E+02  0.19454128264E+02  0.00000000000E+00 0. -1.
</event>
<event>
 7    1  0.1749439E-013  0.7246204E+02  0.7816164E-02  0.1226707E+00
        -11   -1    0    0    0    0  0.00000000000E+00  0.00000000000E+00  0.45593999997E+02  0.45594000000E+02  0.51100000000E-03 0.  1.
         11   -1    0    0    0    0 -0.00000000000E+00 -0.00000000000E+00 -0.45593999997E+02  0.45594000000E+02  0.51100000000E-03 0. -1.
    9900012    2    1    2    0    0  0.10579506204E+02 -0.12222361906E+02 -0.94524876471E+01  0.72462039282E+02  0.70000610941E+02 0.  0.
        -12    1    1    2    0    0 -0.10579506204E+02  0.12222361906E+02  0.94524876471E+01  0.18725960718E+02  0.00000000000E+00 0.  1.
         11    1    3    3    0    0 -0.21079562751E+02  0.12650077378E+02  0.56886484209E+01  0.25233571775E+02  0.51100000000E-03 0. -1.
        -11    1    3    3    0    0 -0.14956197550E+01 -0.99534759247E+00 -0.47380111222E+01  0.50671831363E+01  0.51100000000E-03 0.  1.
        -12    1    3    3    0    0  0.33154688710E+02 -0.23877091692E+02 -0.10403124946E+02  0.42161284370E+02  0.00000000000E+00 0.  1.
</event>
<event>
 7    1  0.1749439E-013  0.7246152E+02  0.7816164E-02  0.1226708E+00
        -11   -1    0    0    0    0  0.00000000000E+00  0.00000000000E+00  0.45593999997E+02  0.45594000000E+02  0.51100000000E-03 0.  1.
         11   -1    0    0    0    0 -0.00000000000E+00 -0.00000000000E+00 -0.45593999997E+02  0.45594000000E+02  0.51100000000E-03 0. -1.
    9900012    2    1    2    0    0 -0.88980552834E+01 -0.84655309861E+01 -0.14136488004E+02  0.72461524202E+02  0.69999939957E+02 0.  0.
        -12    1    1    2    0    0  0.88980552834E+01  0.84655309861E+01  0.14136488004E+02  0.18726475798E+02  0.00000000000E+00 0.  1.
         11    1    3    3    0    0  0.19703280389E+01 -0.15313715770E+02 -0.31097537960E+01  0.15750004832E+02  0.51100000000E-03 0. -1.
        -11    1    3    3    0    0  0.18694910157E+02 -0.22150226700E+01 -0.16828209614E+02  0.25250636236E+02  0.51100000000E-03 0.  1.
        -12    1    3    3    0    0 -0.29563293480E+02  0.90632074543E+01  0.58014754060E+01  0.31460883135E+02  0.00000000000E+00 0.  1.
</event>
<event>
 7    1  0.1749439E-013  0.7246160E+02  0.7816164E-02  0.1226708E+00
        -11   -1    0    0    0    0  0.00000000000E+00  0.00000000000E+00  0.45593999997E+02  0.45594000000E+02  0.51100000000E-03 0.  1.
         11   -1    0    0    0    0 -0.00000000000E+00 -0.00000000000E+00 -0.45593999997E+02  0.45594000000E+02  0.51100000000E-03 0. -1.
    9900012    2    1    2    0    0 -0.10293944996E+02 -0.68613214049E+01 -0.14058273494E+02  0.72461599154E+02  0.70000037595E+02 0.  0.
        -12    1    1    2    0    0  0.10293944996E+02  0.68613214049E+01  0.14058273494E+02  0.18726400846E+02  0.00000000000E+00 0.  1.
         11    1    3    3    0    0  0.99678880723E+01  0.35085762434E+00 -0.28842311850E+01  0.10382710796E+02  0.51100000000E-03 0. -1.
        -11    1    3    3    0    0  0.96803197289E+01  0.61177880038E+01  0.15881277550E+02  0.19579348738E+02  0.51100000000E-03 0.  1.
        -12    1    3    3    0    0 -0.29942152798E+02 -0.13329967033E+02 -0.27055319859E+02  0.42499539620E+02  0.00000000000E+00 0.  1.
</event>
<event>
 7    1  0.1749439E-013  0.7246159E+02  0.7816164E-02  0.1226708E+00
        -11   -1    0    0    0    0  0.00000000000E+00  0.00000000000E+00  0.45593999997E+02  0.45594000000E+02  0.51100000000E-03 0.  1.
         11   -1    0    0    0    0 -0.00000000000E+00 -0.00000000000E+00 -0.45593999997E+02  0.45594000000E+02  0.51100000000E-03 0. -1.
    9900012    2    1    2    0    0 -0.17630311237E+02  0.61406150866E+01 -0.14640525719E+01  0.72461588761E+02  0.70000024057E+02 0.  0.
        -12    1    1    2    0    0  0.17630311237E+02 -0.61406150866E+01  0.14640525719E+01  0.18726411239E+02  0.00000000000E+00 0.  1.
         11    1    3    3    0    0 -0.33464912272E+02  0.10336464117E+02 -0.56768348744E+01  0.35481957362E+02  0.51100000000E-03 0. -1.
        -11    1    3    3    0    0 -0.82886915536E+01 -0.11508021834E+01  0.89010892264E+01  0.12217043137E+02  0.51100000000E-03 0.  1.
        -12    1    3    3    0    0  0.24123292589E+02 -0.30450468474E+01 -0.46883069239E+01  0.24762588262E+02  0.00000000000E+00 0.  1.
</event>
<event>
 7    1  0.1749439E-013  0.7246164E+02  0.7816164E-02  0.1226708E+00
        -11   -1    0    0    0    0  0.00000000000E+00  0.00000000000E+00  0.45593999997E+02  0.45594000000E+02  0.51100000000E-03 0.  1.
         11   -1    0    0    0    0 -0.00000000000E+00 -0.00000000000E+00 -0.45593999997E+02  0.45594000000E+02  0.51100000000E-03 0. -1.
    9900012    2    1    2    0    0  0.66365985783E+01  0.10861865946E+02  0.13735059541E+02  0.72461643357E+02  0.70000095178E+02 0.  0.
        -12    1    1    2    0    0 -0.66365985783E+01 -0.10861865946E+02 -0.13735059541E+02  0.18726356643E+02  0.00000000000E+00 0.  1.
         11    1    3    3    0    0 -0.25032612181E+01  0.10212783621E+02  0.54285558996E+01  0.11833701256E+02  0.51100000000E-03 0. -1.
        -11    1    3    3    0    0 -0.35001830390E+01  0.28870816493E+02  0.27785887790E+01  0.29214651840E+02  0.51100000000E-03 0.  1.
         12    1    3    3    0    0  0.12640042835E+02 -0.28221734167E+02  0.55279148628E+01  0.31413290261E+02  0.00000000000E+00 0. -1.
</event>
<event>
 7    1  0.1749439E-013  0.7246157E+02  0.7816164E-02  0.1226708E+00
        -11   -1    0    0    0    0  0.00000000000E+00  0.00000000000E+00  0.45593999997E+02  0.45594000000E+02  0.51100000000E-03 0.  1.
         11   -1    0    0    0    0 -0.00000000000E+00 -0.00000000000E+00 -0.45593999997E+02  0.45594000000E+02  0.51100000000E-03 0. -1.
    9900012    2    1    2    0    0 -0.13710306904E+02 -0.22480873603E+01 -0.12555987413E+02  0.72461568623E+02  0.69999997823E+02 0.  0.
        -12    1    1    2    0    0  0.13710306904E+02  0.22480873603E+01  0.12555987413E+02  0.18726431377E+02  0.00000000000E+00 0.  1.
         11    1    3    3    0    0 -0.13110483193E+02 -0.20185448910E+02  0.96428555795E+01  0.25929168541E+02  0.51100000000E-03 0. -1.
        -11    1    3    3    0    0 -0.38337005514E+01 -0.18193195764E+01  0.87202741659E+01  0.96979567656E+01  0.51100000000E-03 0.  1.
         12    1    3    3    0    0  0.32338768398E+01  0.19756681126E+02 -0.30919117159E+02  0.36834443316E+02  0.00000000000E+00 0. -1.
</event>
<event>
 7    1  0.1749439E-013  0.7246145E+02  0.7816164E-02  0.1226708E+00
        -11   -1    0    0    0    0  0.00000000000E+00  0.00000000000E+00  0.45593999997E+02  0.45594000000E+02  0.51100000000E-03 0. -1.
         11   -1    0    0    0    0 -0.00000000000E+00 -0.00000000000E+00 -0.45593999997E+02  0.45594000000E+02  0.51100000000E-03 0.  1.
    9900012    2    1    2    0    0 -0.35202492713E+01 -0.19870927609E+01  0.18285044563E+02  0.72461453408E+02  0.69999847734E+02 0.  0.
        -12    1    1    2    0    0  0.35202492713E+01  0.19870927609E+01 -0.18285044563E+02  0.18726546592E+02  0.00000000000E+00 0.  1.
         11    1    3    3    0    0 -0.19586581067E+02 -0.46334532232E+01  0.32250795066E+02  0.38016007540E+02  0.51100000000E-03 0. -1.
        -11    1    3    3    0    0  0.20819630758E+01  0.92030778917E+01  0.44314254396E+01  0.10424430182E+02  0.51100000000E-03 0.  1.
        -12    1    3    3    0    0  0.13984368720E+02 -0.65567174293E+01 -0.18397175942E+02  0.24021015686E+02  0.00000000000E+00 0.  1.
</event>
<event>
 7    1  0.1749439E-013  0.7246156E+02  0.7816164E-02  0.1226708E+00
        -11   -1    0    0    0    0  0.00000000000E+00  0.00000000000E+00  0.45593999997E+02  0.45594000000E+02  0.51100000000E-03 0. -1.
         11   -1    0    0    0    0 -0.00000000000E+00 -0.00000000000E+00 -0.45593999997E+02  0.45594000000E+02  0.51100000000E-03 0.  1.
    9900012    2    1    2    0    0  0.11358816558E+02  0.83993547847E+01  0.12292580610E+02  0.72461563808E+02  0.69999991550E+02 0.  0.
        -12    1    1    2    0    0 -0.11358816558E+02 -0.83993547847E+01 -0.12292580610E+02  0.18726436192E+02  0.00000000000E+00 0.  1.
         11    1    3    3    0    0  0.96940004822E+01 -0.74378405910E+01  0.18592654994E+01  0.12359287458E+02  0.51100000000E-03 0. -1.
        -11    1    3    3    0    0 -0.11878626167E+02 -0.17521515767E+02  0.11485670928E+02  0.24083727106E+02  0.51100000000E-03 0.  1.
         12    1    3    3    0    0  0.13543442243E+02  0.33358711143E+02 -0.10523558180E+01  0.36018549244E+02  0.00000000000E+00 0. -1.
</event>
<event>
 7    1  0.1749439E-013  0.7246175E+02  0.7816164E-02  0.1226708E+00
        -11   -1    0    0    0    0  0.00000000000E+00  0.00000000000E+00  0.45593999997E+02  0.45594000000E+02  0.51100000000E-03 0.  1.
         11   -1    0    0    0    0 -0.00000000000E+00 -0.00000000000E+00 -0.45593999997E+02  0.45594000000E+02  0.51100000000E-03 0. -1.
    9900012    2    1    2    0    0  0.17796057634E+02  0.30554835414E+01  0.49635314797E+01  0.72461753934E+02  0.70000239224E+02 0.  0.
        -12    1    1    2    0    0 -0.17796057634E+02 -0.30554835414E+01 -0.49635314797E+01  0.18726246066E+02  0.00000000000E+00 0.  1.
         11    1    3    3    0    0 -0.26198709768E+00  0.23746469486E+01  0.11047751294E+01  0.26321310221E+01  0.51100000000E-03 0. -1.
        -11    1    3    3    0    0 -0.24974119222E+02 -0.58345441143E+01  0.56833606699E+01  0.26268786129E+02  0.51100000000E-03 0.  1.
         12    1    3    3    0    0  0.43032163953E+02  0.65153807071E+01 -0.18246043197E+01  0.43560836783E+02  0.00000000000E+00 0. -1.
</event>
<event>
 7    1  0.1749439E-013  0.7246157E+02  0.7816164E-02  0.1226708E+00
        -11   -1    0    0    0    0  0.00000000000E+00  0.00000000000E+00  0.45593999997E+02  0.45594000000E+02  0.51100000000E-03 0.  1.
         11   -1    0    0    0    0 -0.00000000000E+00 -0.00000000000E+00 -0.45593999997E+02  0.45594000000E+02  0.51100000000E-03 0. -1.
    9900012    2    1    2    0    0 -0.12160245547E+02 -0.12485174728E+02 -0.68503983175E+01  0.72461571700E+02  0.70000001832E+02 0.  0.
        -12    1    1    2    0    0  0.12160245547E+02  0.12485174728E+02  0.68503983175E+01  0.18726428300E+02  0.00000000000E+00 0.  1.
         11    1    3    3    0    0 -0.65140149588E+01 -0.26639988512E+02  0.97791004200E+01  0.29116184229E+02  0.51100000000E-03 0. -1.
        -11    1    3    3    0    0  0.13275902439E+02  0.31502597540E+01  0.29695253089E+01  0.13963946538E+02  0.51100000000E-03 0.  1.
         12    1    3    3    0    0 -0.18922133028E+02  0.11004554030E+02 -0.19599024046E+02  0.29381440933E+02  0.00000000000E+00 0. -1.
</event>
<event>
 7    1  0.1749439E-013  0.7246165E+02  0.7816164E-02  0.1226708E+00
        -11   -1    0    0    0    0  0.00000000000E+00  0.00000000000E+00  0.45593999997E+02  0.45594000000E+02  0.51100000000E-03 0.  1.
         11   -1    0    0    0    0 -0.00000000000E+00 -0.00000000000E+00 -0.45593999997E+02  0.45594000000E+02  0.51100000000E-03 0. -1.
    9900012    2    1    2    0    0  0.17557972778E+02 -0.53828150398E+01 -0.36632142765E+01  0.72461648389E+02  0.70000101733E+02 0.  0.
        -12    1    1    2    0    0 -0.17557972778E+02  0.53828150398E+01  0.36632142765E+01  0.18726351611E+02  0.00000000000E+00 0.  1.
         11    1    3    3    0    0  0.19331514301E+02  0.12113960810E+02 -0.12867779938E+02  0.26192274671E+02  0.51100000000E-03 0. -1.
        -11    1    3    3    0    0  0.43328974590E+01 -0.34782027973E+01 -0.15917694243E+02  0.16859563617E+02  0.51100000000E-03 0.  1.
        -12    1    3    3    0    0 -0.61064389818E+01 -0.14018573053E+02  0.25122259904E+02  0.29409810101E+02  0.00000000000E+00 0.  1.
</event>
<event>
 7    1  0.1749439E-013  0.7246192E+02  0.7816164E-02  0.1226707E+00
        -11   -1    0    0    0    0  0.00000000000E+00  0.00000000000E+00  0.45593999997E+02  0.45594000000E+02  0.51100000000E-03 0.  1.
         11   -1    0    0    0    0 -0.00000000000E+00 -0.00000000000E+00 -0.45593999997E+02  0.45594000000E+02  0.51100000000E-03 0. -1.
    9900012    2    1    2    0    0  0.49953294183E+01 -0.14432246426E+01 -0.17989717286E+02  0.72461918152E+02  0.70000453147E+02 0.  0.
        -12    1    1    2    0    0 -0.49953294183E+01  0.14432246426E+01  0.17989717286E+02  0.18726081848E+02  0.00000000000E+00 0.  1.
         11    1    3    3    0    0  0.12603914011E+02 -0.93796018230E+01 -0.28061034198E+02  0.32159869702E+02  0.51100000000E-03 0. -1.
        -11    1    3    3    0    0  0.34259433416E+01  0.21076263144E+02  0.23354674686E+01  0.21480231946E+02  0.51100000000E-03 0.  1.
         12    1    3    3    0    0 -0.11034527934E+02 -0.13139885964E+02  0.77358494433E+01  0.18821816503E+02  0.00000000000E+00 0. -1.
</event>
<event>
 7    1  0.1749439E-013  0.7246157E+02  0.7816164E-02  0.1226708E+00
        -11   -1    0    0    0    0  0.00000000000E+00  0.00000000000E+00  0.45593999997E+02  0.45594000000E+02  0.51100000000E-03 0. -1.
         11   -1    0    0    0    0 -0.00000000000E+00 -0.00000000000E+00 -0.45593999997E+02  0.45594000000E+02  0.51100000000E-03 0.  1.
    9900012    2    1    2    0    0 -0.18612985998E+02 -0.19362409305E+01 -0.69789092578E+00  0.72461566051E+02  0.69999994473E+02 0.  0.
        -12    1    1    2    0    0  0.18612985998E+02  0.19362409305E+01  0.69789092578E+00  0.18726433949E+02  0.00000000000E+00 0.  1.
         11    1    3    3    0    0  0.72679773098E+01 -0.11018203197E+01 -0.16739179899E+02  0.18282167436E+02  0.51100000000E-03 0. -1.
        -11    1    3    3    0    0 -0.13221270016E+02  0.11346419201E+02 -0.11953373514E+02  0.21128803756E+02  0.51100000000E-03 0.  1.
         12    1    3    3    0    0 -0.12659693292E+02 -0.12180839812E+02  0.27994662488E+02  0.33050594860E+02  0.00000000000E+00 0. -1.
</event>
<event>
 7    1  0.1749439E-013  0.7246160E+02  0.7816164E-02  0.1226708E+00
        -11   -1    0    0    0    0  0.00000000000E+00  0.00000000000E+00  0.45593999997E+02  0.45594000000E+02  0.51100000000E-03 0.  1.
         11   -1    0    0    0    0 -0.00000000000E+00 -0.00000000000E+00 -0.45593999997E+02  0.45594000000E+02  0.51100000000E-03 0. -1.
    9900012    2    1    2    0    0 -0.12711811743E+02 -0.13182062198E+02 -0.39142168641E+01  0.72461601114E+02  0.70000040148E+02 0.  0.
        -12    1    1    2    0    0  0.12711811743E+02  0.13182062198E+02  0.39142168641E+01  0.18726398886E+02  0.00000000000E+00 0.  1.
         11    1    3    3    0    0  0.60830806967E+01 -0.20706960072E+01  0.49416916328E+01  0.81062919496E+01  0.51100000000E-03 0. -1.
        -11    1    3    3    0    0  0.16596427947E+02 -0.20961994184E+02 -0.66571291616E+01  0.27552930692E+02  0.51100000000E-03 0.  1.
         12    1    3    3    0    0 -0.35391320387E+02  0.98506279934E+01 -0.21987793353E+01  0.36802378472E+02  0.00000000000E+00 0. -1.
</event>
<event>
 7    1  0.1749439E-013  0.7246155E+02  0.7816164E-02  0.1226708E+00
        -11   -1    0    0    0    0  0.00000000000E+00  0.00000000000E+00  0.45593999997E+02  0.45594000000E+02  0.51100000000E-03 0. -1.
         11   -1    0    0    0    0 -0.00000000000E+00 -0.00000000000E+00 -0.45593999997E+02  0.45594000000E+02  0.51100000000E-03 0.  1.
    9900012    2    1    2    0    0 -0.17887896043E+02 -0.23303419453E+01  0.50272045867E+01  0.72461545334E+02  0.69999967484E+02 0.  0.
        -12    1    1    2    0    0  0.17887896043E+02  0.23303419453E+01 -0.50272045867E+01  0.18726454666E+02  0.00000000000E+00 0.  1.
         11    1    3    3    0    0 -0.68090180177E+00 -0.64597750301E+01 -0.20865017932E+02  0.21852718235E+02  0.51100000000E-03 0. -1.
        -11    1    3    3    0    0 -0.18126416923E+02  0.17963068586E+02  0.57546536204E+01  0.26160177026E+02  0.51100000000E-03 0.  1.
         12    1    3    3    0    0  0.91942268205E+00 -0.13833635501E+02  0.20137568898E+02  0.24448650072E+02  0.00000000000E+00 0. -1.
</event>
<event>
 7    1  0.1749439E-013  0.7246157E+02  0.7816164E-02  0.1226708E+00
        -11   -1    0    0    0    0  0.00000000000E+00  0.00000000000E+00  0.45593999997E+02  0.45594000000E+02  0.51100000000E-03 0. -1.
         11   -1    0    0    0    0 -0.00000000000E+00 -0.00000000000E+00 -0.45593999997E+02  0.45594000000E+02  0.51100000000E-03 0.  1.
    9900012    2    1    2    0    0  0.14973540986E+02 -0.10215183900E+02 -0.47034511836E+01  0.72461565080E+02  0.69999993208E+02 0.  0.
        -12    1    1    2    0    0 -0.14973540986E+02  0.10215183900E+02  0.47034511836E+01  0.18726434920E+02  0.00000000000E+00 0.  1.
         11    1    3    3    0    0 -0.10639165385E+02 -0.21606225596E+02 -0.14101263133E+02  0.27908178851E+02  0.51100000000E-03 0.  1.
        -11    1    3    3    0    0  0.58042626423E+01  0.58482250343E+01 -0.12203898752E+02  0.14725024478E+02  0.51100000000E-03 0. -1.
         12    1    3    3    0    0  0.19808443728E+02  0.55428166614E+01  0.21601710702E+02  0.29828361751E+02  0.00000000000E+00 0. -1.
</event>
<event>
 7    1  0.1749439E-013  0.7246158E+02  0.7816164E-02  0.1226708E+00
        -11   -1    0    0    0    0  0.00000000000E+00  0.00000000000E+00  0.45593999997E+02  0.45594000000E+02  0.51100000000E-03 0.  1.
         11   -1    0    0    0    0 -0.00000000000E+00 -0.00000000000E+00 -0.45593999997E+02  0.45594000000E+02  0.51100000000E-03 0. -1.
    9900012    2    1    2    0    0 -0.52592156609E+01 -0.10518159024E+02 -0.14573534306E+02  0.72461576935E+02  0.70000008651E+02 0.  0.
        -12    1    1    2    0    0  0.52592156609E+01  0.10518159024E+02  0.14573534306E+02  0.18726423065E+02  0.00000000000E+00 0.  1.
         11    1    3    3    0    0 -0.19891657537E+02  0.32571035805E+01 -0.29096775634E+02  0.35396456262E+02  0.51100000000E-03 0. -1.
        -11    1    3    3    0    0  0.19859614802E+02 -0.74079817769E+00  0.66002707563E+01  0.20940789296E+02  0.51100000000E-03 0.  1.
        -12    1    3    3    0    0 -0.52271729252E+01 -0.13034464427E+02  0.79229705713E+01  0.16124331377E+02  0.00000000000E+00 0.  1.
</event>
<event>
 7    1  0.1749439E-013  0.7246148E+02  0.7816164E-02  0.1226708E+00
        -11   -1    0    0    0    0  0.00000000000E+00  0.00000000000E+00  0.45593999997E+02  0.45594000000E+02  0.51100000000E-03 0. -1.
         11   -1    0    0    0    0 -0.00000000000E+00 -0.00000000000E+00 -0.45593999997E+02  0.45594000000E+02  0.51100000000E-03 0.  1.
    9900012    2    1    2    0    0  0.32098628266E+00  0.32277412410E+01  0.18443456737E+02  0.72461482916E+02  0.69999886173E+02 0.  0.
        -12    1    1    2    0    0 -0.32098628266E+00 -0.32277412410E+01 -0.18443456737E+02  0.18726517084E+02  0.00000000000E+00 0.  1.
         11    1    3    3    0    0  0.13613315162E+02 -0.20878574579E+02  0.13429038430E+02  0.28312122837E+02  0.51100000000E-03 0.  1.
        -11    1    3    3    0    0  0.87969571231E+01  0.43126648807E+01  0.10083386916E+02  0.14059168715E+02  0.51100000000E-03 0. -1.
         12    1    3    3    0    0 -0.22089286002E+02  0.19793650939E+02 -0.50689686086E+01  0.30090191364E+02  0.00000000000E+00 0. -1.
</event>
<event>
 7    1  0.1749439E-013  0.7246160E+02  0.7816164E-02  0.1226708E+00
        -11   -1    0    0    0    0  0.00000000000E+00  0.00000000000E+00  0.45593999997E+02  0.45594000000E+02  0.51100000000E-03 0.  1.
         11   -1    0    0    0    0 -0.00000000000E+00 -0.00000000000E+00 -0.45593999997E+02  0.45594000000E+02  0.51100000000E-03 0. -1.
    9900012    2    1    2    0    0  0.16457197628E+02 -0.52133573986E+00 -0.89200318893E+01  0.72461598487E+02  0.70000036726E+02 0.  0.
        -12    1    1    2    0    0 -0.16457197628E+02  0.52133573986E+00  0.89200318893E+01  0.18726401513E+02  0.00000000000E+00 0.  1.
         11    1    3    3    0    0  0.97845467021E+01 -0.40798286344E+01 -0.18925235270E+02  0.21692092710E+02  0.51100000000E-03 0. -1.
        -11    1    3    3    0    0 -0.89510046802E+01  0.21228768881E+02 -0.39333627610E+01  0.23372044324E+02  0.51100000000E-03 0.  1.
         12    1    3    3    0    0  0.15623655606E+02 -0.17670275987E+02  0.13938566142E+02  0.27397461453E+02  0.00000000000E+00 0. -1.
</event>
<event>
 7    1  0.1749439E-013  0.7246157E+02  0.7816164E-02  0.1226708E+00
        -11   -1    0    0    0    0  0.00000000000E+00  0.00000000000E+00  0.45593999997E+02  0.45594000000E+02  0.51100000000E-03 0. -1.
         11   -1    0    0    0    0 -0.00000000000E+00 -0.00000000000E+00 -0.45593999997E+02  0.45594000000E+02  0.51100000000E-03 0.  1.
    9900012    2    1    2    0    0 -0.14642363909E+02 -0.34893491672E+01  0.11140227874E+02  0.72461573338E+02  0.70000003965E+02 0.  0.
        -12    1    1    2    0    0  0.14642363909E+02  0.34893491672E+01 -0.11140227874E+02  0.18726426662E+02  0.00000000000E+00 0.  1.
         11    1    3    3    0    0  0.28987306286E+01 -0.68998380248E+01  0.63898629817E+01  0.98407699501E+01  0.51100000000E-03 0. -1.
        -11    1    3    3    0    0  0.48320618978E+01 -0.25319613004E+02 -0.78498722323E+00  0.25788521285E+02  0.51100000000E-03 0.  1.
        -12    1    3    3    0    0 -0.22373156435E+02  0.28730101862E+02  0.55353521157E+01  0.36832282103E+02  0.00000000000E+00 0.  1.
</event>
<event>
 7    1  0.1749439E-013  0.7246159E+02  0.7816164E-02  0.1226708E+00
        -11   -1    0    0    0    0  0.00000000000E+00  0.00000000000E+00  0.45593999997E+02  0.45594000000E+02  0.51100000000E-03 0. -1.
         11   -1    0    0    0    0 -0.00000000000E+00 -0.00000000000E+00 -0.45593999997E+02  0.45594000000E+02  0.51100000000E-03 0.  1.
    9900012    2    1    2    0    0 -0.82140387102E+01  0.47423265742E+01  0.16146772529E+02  0.72461592005E+02  0.70000028282E+02 0.  0.
        -12    1    1    2    0    0  0.82140387102E+01 -0.47423265742E+01 -0.16146772529E+02  0.18726407995E+02  0.00000000000E+00 0.  1.
         11    1    3    3    0    0 -0.13213387722E+01  0.21954667202E+02  0.32866710833E+02  0.39547111518E+02  0.51100000000E-03 0. -1.
        -11    1    3    3    0    0 -0.10988595998E+02 -0.51857748514E+01 -0.30162228035E+00  0.12154525045E+02  0.51100000000E-03 0.  1.
        -12    1    3    3    0    0  0.40958960600E+01 -0.12026565777E+02 -0.16418316023E+02  0.20759955442E+02  0.00000000000E+00 0.  1.
</event>
<event>
 7    1  0.1749439E-013  0.7246155E+02  0.7816164E-02  0.1226708E+00
        -11   -1    0    0    0    0  0.00000000000E+00  0.00000000000E+00  0.45593999997E+02  0.45594000000E+02  0.51100000000E-03 0. -1.
         11   -1    0    0    0    0 -0.00000000000E+00 -0.00000000000E+00 -0.45593999997E+02  0.45594000000E+02  0.51100000000E-03 0.  1.
    9900012    2    1    2    0    0 -0.61029684502E+01 -0.14095728904E+02 -0.10711868301E+02  0.72461550264E+02  0.69999973907E+02 0.  0.
        -12    1    1    2    0    0  0.61029684502E+01  0.14095728904E+02  0.10711868301E+02  0.18726449736E+02  0.00000000000E+00 0.  1.
         11    1    3    3    0    0  0.71791542819E+01 -0.10709380396E+02  0.14161954594E+02  0.19151815654E+02  0.51100000000E-03 0. -1.
        -11    1    3    3    0    0  0.22675176200E+01 -0.21343095245E+02 -0.43104324337E+01  0.21891760523E+02  0.51100000000E-03 0.  1.
        -12    1    3    3    0    0 -0.15549640352E+02  0.17956746737E+02 -0.20563390461E+02  0.31417974087E+02  0.00000000000E+00 0.  1.
</event>
<event>
 7    1  0.1749439E-013  0.7246148E+02  0.7816164E-02  0.1226708E+00
        -11   -1    0    0    0    0  0.00000000000E+00  0.00000000000E+00  0.45593999997E+02  0.45594000000E+02  0.51100000000E-03 0. -1.
         11   -1    0    0    0    0 -0.00000000000E+00 -0.00000000000E+00 -0.45593999997E+02  0.45594000000E+02  0.51100000000E-03 0.  1.
    9900012    2    1    2    0    0 -0.10023410278E+01  0.14046023285E+02 -0.12344519177E+02  0.72461478396E+02  0.69999880286E+02 0.  0.
        -12    1    1    2    0    0  0.10023410278E+01 -0.14046023285E+02  0.12344519177E+02  0.18726521604E+02  0.00000000000E+00 0.  1.
         11    1    3    3    0    0  0.12746415645E+01 -0.14037826400E+00  0.40819855212E+01  0.42786707319E+01  0.51100000000E-03 0. -1.
        -11    1    3    3    0    0  0.24748456163E+02 -0.12834513896E+02 -0.85813491153E+01  0.29169339765E+02  0.51100000000E-03 0.  1.
         12    1    3    3    0    0 -0.27025438756E+02  0.27020915445E+02 -0.78451555827E+01  0.39013467900E+02  0.00000000000E+00 0. -1.
</event>
<event>
 7    1  0.1749439E-013  0.7246161E+02  0.7816164E-02  0.1226708E+00
        -11   -1    0    0    0    0  0.00000000000E+00  0.00000000000E+00  0.45593999997E+02  0.45594000000E+02  0.51100000000E-03 0. -1.
         11   -1    0    0    0    0 -0.00000000000E+00 -0.00000000000E+00 -0.45593999997E+02  0.45594000000E+02  0.51100000000E-03 0.  1.
    9900012    2    1    2    0    0  0.10055859896E+02 -0.64133320151E+01  0.14436983848E+02  0.72461610909E+02  0.70000052908E+02 0.  0.
        -12    1    1    2    0    0 -0.10055859896E+02  0.64133320151E+01 -0.14436983848E+02  0.18726389091E+02  0.00000000000E+00 0.  1.
         11    1    3    3    0    0  0.22348306173E+02  0.22610313047E+02  0.27947603873E+01  0.31913691901E+02  0.51100000000E-03 0. -1.
        -11    1    3    3    0    0 -0.70928618171E+01  0.10194850292E+01  0.64061934426E+01  0.96118340168E+01  0.51100000000E-03 0.  1.
        -12    1    3    3    0    0 -0.51995844600E+01 -0.30043130091E+02  0.52360300179E+01  0.30936084991E+02  0.00000000000E+00 0.  1.
</event>
<event>
 7    1  0.1749439E-013  0.7246157E+02  0.7816164E-02  0.1226708E+00
        -11   -1    0    0    0    0  0.00000000000E+00  0.00000000000E+00  0.45593999997E+02  0.45594000000E+02  0.51100000000E-03 0. -1.
         11   -1    0    0    0    0 -0.00000000000E+00 -0.00000000000E+00 -0.45593999997E+02  0.45594000000E+02  0.51100000000E-03 0.  1.
    9900012    2    1    2    0    0 -0.78901732308E+01  0.89034553222E+01  0.14462115714E+02  0.72461571050E+02  0.70000000984E+02 0.  0.
        -12    1    1    2    0    0  0.78901732308E+01 -0.89034553222E+01 -0.14462115714E+02  0.18726428950E+02  0.00000000000E+00 0.  1.
         11    1    3    3    0    0 -0.73899384919E+00  0.17103217363E+01  0.19288919456E+01  0.26817786541E+01  0.51100000000E-03 0. -1.
        -11    1    3    3    0    0 -0.22900433677E+02  0.27808273966E+02 -0.77510151543E+01  0.36848449082E+02  0.51100000000E-03 0.  1.
         12    1    3    3    0    0  0.15749254296E+02 -0.20615140380E+02  0.20284238923E+02  0.32931343314E+02  0.00000000000E+00 0. -1.
</event>
<event>
 7    1  0.1749439E-013  0.7246159E+02  0.7816164E-02  0.1226708E+00
        -11   -1    0    0    0    0  0.00000000000E+00  0.00000000000E+00  0.45593999997E+02  0.45594000000E+02  0.51100000000E-03 0. -1.
         11   -1    0    0    0    0 -0.00000000000E+00 -0.00000000000E+00 -0.45593999997E+02  0.45594000000E+02  0.51100000000E-03 0.  1.
    9900012    2    1    2    0    0  0.14748555401E+02 -0.40879748636E+01  0.10791066045E+02  0.72461587336E+02  0.70000022199E+02 0.  0.
        -12    1    1    2    0    0 -0.14748555401E+02  0.40879748636E+01 -0.10791066045E+02  0.18726412664E+02  0.00000000000E+00 0.  1.
         11    1    3    3    0    0  0.10867193189E+01  0.43316331344E+00 -0.17836784915E+02  0.17875107991E+02  0.51100000000E-03 0. -1.
        -11    1    3    3    0    0  0.13730745251E+02 -0.18184869002E+02 -0.86750660410E-01  0.22786626598E+02  0.51100000000E-03 0.  1.
         12    1    3    3    0    0 -0.68909169728E-01  0.13663730825E+02  0.28714601620E+02  0.31799852747E+02  0.00000000000E+00 0. -1.
</event>
<event>
 7    1  0.1749439E-013  0.7246139E+02  0.7816164E-02  0.1226708E+00
        -11   -1    0    0    0    0  0.00000000000E+00  0.00000000000E+00  0.45593999997E+02  0.45594000000E+02  0.51100000000E-03 0.  1.
         11   -1    0    0    0    0 -0.00000000000E+00 -0.00000000000E+00 -0.45593999997E+02  0.45594000000E+02  0.51100000000E-03 0. -1.
    9900012    2    1    2    0    0  0.11092753026E+02 -0.14984990375E+02  0.17568881834E+01  0.72461394266E+02  0.69999770690E+02 0.  0.
        -12    1    1    2    0    0 -0.11092753026E+02  0.14984990375E+02 -0.17568881834E+01  0.18726605734E+02  0.00000000000E+00 0.  1.
         11    1    3    3    0    0  0.70754034931E+01  0.76663945585E+01  0.12514572024E+01  0.10507192085E+02  0.51100000000E-03 0. -1.
        -11    1    3    3    0    0  0.25440882162E+02 -0.14771333980E+02  0.16828723080E+02  0.33891543392E+02  0.51100000000E-03 0.  1.
         12    1    3    3    0    0 -0.21423532630E+02 -0.78800509531E+01 -0.16323292099E+02  0.28062658789E+02  0.00000000000E+00 0. -1.
</event>
<event>
 7    1  0.1749439E-013  0.7246168E+02  0.7816164E-02  0.1226708E+00
        -11   -1    0    0    0    0  0.00000000000E+00  0.00000000000E+00  0.45593999997E+02  0.45594000000E+02  0.51100000000E-03 0.  1.
         11   -1    0    0    0    0 -0.00000000000E+00 -0.00000000000E+00 -0.45593999997E+02  0.45594000000E+02  0.51100000000E-03 0. -1.
    9900012    2    1    2    0    0  0.34751468538E+01 -0.11546919701E+02 -0.14327147370E+02  0.72461677563E+02  0.70000139737E+02 0.  0.
        -12    1    1    2    0    0 -0.34751468538E+01  0.11546919701E+02  0.14327147370E+02  0.18726322437E+02  0.00000000000E+00 0.  1.
         11    1    3    3    0    0  0.19009800030E+02 -0.20224499831E+02 -0.15977384988E+02  0.32026234901E+02  0.51100000000E-03 0. -1.
        -11    1    3    3    0    0  0.56167880342E+01  0.75580428302E+00 -0.12540173607E+02  0.13761377194E+02  0.51100000000E-03 0.  1.
        -12    1    3    3    0    0 -0.21151441211E+02  0.79217758476E+01  0.14190411224E+02  0.26674065468E+02  0.00000000000E+00 0.  1.
</event>
<event>
 7    1  0.1749439E-013  0.7246154E+02  0.7816164E-02  0.1226708E+00
        -11   -1    0    0    0    0  0.00000000000E+00  0.00000000000E+00  0.45593999997E+02  0.45594000000E+02  0.51100000000E-03 0. -1.
         11   -1    0    0    0    0 -0.00000000000E+00 -0.00000000000E+00 -0.45593999997E+02  0.45594000000E+02  0.51100000000E-03 0.  1.
    9900012    2    1    2    0    0 -0.30539120549E+01 -0.11510956979E+02  0.14451700387E+02  0.72461544022E+02  0.69999965775E+02 0.  0.
        -12    1    1    2    0    0  0.30539120549E+01  0.11510956979E+02 -0.14451700387E+02  0.18726455978E+02  0.00000000000E+00 0.  1.
         11    1    3    3    0    0  0.57225119078E+01 -0.81573129412E+01  0.22201007414E+02  0.24334617881E+02  0.51100000000E-03 0. -1.
        -11    1    3    3    0    0  0.10355403180E+02  0.12927464467E+02  0.80848362698E+01  0.18431448406E+02  0.51100000000E-03 0.  1.
         12    1    3    3    0    0 -0.19131827142E+02 -0.16281108505E+02 -0.15834143297E+02  0.29695477735E+02  0.00000000000E+00 0. -1.
</event>
<event>
 7    1  0.1749439E-013  0.7246158E+02  0.7816164E-02  0.1226708E+00
        -11   -1    0    0    0    0  0.00000000000E+00  0.00000000000E+00  0.45593999997E+02  0.45594000000E+02  0.51100000000E-03 0. -1.
         11   -1    0    0    0    0 -0.00000000000E+00 -0.00000000000E+00 -0.45593999997E+02  0.45594000000E+02  0.51100000000E-03 0.  1.
    9900012    2    1    2    0    0 -0.15389085435E+02 -0.20865426404E+01  0.10464286161E+02  0.72461577609E+02  0.70000009528E+02 0.  0.
        -12    1    1    2    0    0  0.15389085435E+02  0.20865426404E+01 -0.10464286161E+02  0.18726422391E+02  0.00000000000E+00 0.  1.
         11    1    3    3    0    0 -0.39165515960E+01  0.31243077123E+02  0.19611977220E+01  0.31548621860E+02  0.51100000000E-03 0. -1.
        -11    1    3    3    0    0  0.88936240384E+00  0.54444750512E+00 -0.29095539773E+01  0.30907754980E+01  0.51100000000E-03 0.  1.
        -12    1    3    3    0    0 -0.12361896243E+02 -0.33874067268E+02  0.11412642416E+02  0.37822180251E+02  0.00000000000E+00 0.  1.
</event>
<event>
 7    1  0.1749439E-013  0.7246164E+02  0.7816164E-02  0.1226708E+00
        -11   -1    0    0    0    0  0.00000000000E+00  0.00000000000E+00  0.45593999997E+02  0.45594000000E+02  0.51100000000E-03 0.  1.
         11   -1    0    0    0    0 -0.00000000000E+00 -0.00000000000E+00 -0.45593999997E+02  0.45594000000E+02  0.51100000000E-03 0. -1.
    9900012    2    1    2    0    0  0.75777335993E+00  0.10250545549E+02 -0.15653392413E+02  0.72461638940E+02  0.70000089423E+02 0.  0.
        -12    1    1    2    0    0 -0.75777335993E+00 -0.10250545549E+02  0.15653392413E+02  0.18726361060E+02  0.00000000000E+00 0.  1.
         11    1    3    3    0    0 -0.31489090929E+01  0.89101683380E+01 -0.12382259907E+02  0.15576491548E+02  0.51100000000E-03 0. -1.
        -11    1    3    3    0    0  0.67370081902E+01 -0.21735226160E+02 -0.18300802281E+02  0.29201484551E+02  0.51100000000E-03 0.  1.
        -12    1    3    3    0    0 -0.28303257374E+01  0.23075603372E+02  0.15029669774E+02  0.27683662841E+02  0.00000000000E+00 0.  1.
</event>
<event>
 7    1  0.1749439E-013  0.7246156E+02  0.7816164E-02  0.1226708E+00
        -11   -1    0    0    0    0  0.00000000000E+00  0.00000000000E+00  0.45593999997E+02  0.45594000000E+02  0.51100000000E-03 0.  1.
         11   -1    0    0    0    0 -0.00000000000E+00 -0.00000000000E+00 -0.45593999997E+02  0.45594000000E+02  0.51100000000E-03 0. -1.
    9900012    2    1    2    0    0  0.85968712049E+00 -0.12565054447E+02 -0.13858571081E+02  0.72461557529E+02  0.69999983371E+02 0.  0.
        -12    1    1    2    0    0 -0.85968712049E+00  0.12565054447E+02  0.13858571081E+02  0.18726442471E+02  0.00000000000E+00 0.  1.
         11    1    3    3    0    0 -0.11829503199E+01 -0.14420424848E+02  0.50745201996E+00  0.14477759912E+02  0.51100000000E-03 0.  1.
        -11    1    3    3    0    0  0.65648505459E+01 -0.19927265827E+02 -0.25568988971E+02  0.33075162635E+02  0.51100000000E-03 0. -1.
         12    1    3    3    0    0 -0.45222131056E+01  0.21782636228E+02  0.11202965870E+02  0.24908634983E+02  0.00000000000E+00 0. -1.
</event>
<event>
 7    1  0.1749439E-013  0.7246170E+02  0.7816164E-02  0.1226708E+00
        -11   -1    0    0    0    0  0.00000000000E+00  0.00000000000E+00  0.45593999997E+02  0.45594000000E+02  0.51100000000E-03 0.  1.
         11   -1    0    0    0    0 -0.00000000000E+00 -0.00000000000E+00 -0.45593999997E+02  0.45594000000E+02  0.51100000000E-03 0. -1.
    9900012    2    1    2    0    0 -0.46953231934E+01  0.11058505583E+02 -0.14364461748E+02  0.72461698525E+02  0.70000167045E+02 0.  0.
        -12    1    1    2    0    0  0.46953231934E+01 -0.11058505583E+02  0.14364461748E+02  0.18726301475E+02  0.00000000000E+00 0.  1.
         11    1    3    3    0    0  0.11194476577E+02  0.37708370474E+01  0.67045260349E+01  0.13582569252E+02  0.51100000000E-03 0. -1.
        -11    1    3    3    0    0  0.11324451155E+02  0.21350366679E+02 -0.69375905959E+01  0.25143816632E+02  0.51100000000E-03 0.  1.
        -12    1    3    3    0    0 -0.27214250926E+02 -0.14062698143E+02 -0.14131397187E+02  0.33735312641E+02  0.00000000000E+00 0.  1.
</event>
<event>
 7    1  0.1749439E-013  0.7246157E+02  0.7816164E-02  0.1226708E+00
        -11   -1    0    0    0    0  0.00000000000E+00  0.00000000000E+00  0.45593999997E+02  0.45594000000E+02  0.51100000000E-03 0. -1.
         11   -1    0    0    0    0 -0.00000000000E+00 -0.00000000000E+00 -0.45593999997E+02  0.45594000000E+02  0.51100000000E-03 0.  1.
    9900012    2    1    2    0    0 -0.14424887787E+02  0.10068532092E+02 -0.64207788068E+01  0.72461571439E+02  0.70000001492E+02 0.  0.
        -12    1    1    2    0    0  0.14424887787E+02 -0.10068532092E+02  0.64207788068E+01  0.18726428561E+02  0.00000000000E+00 0.  1.
         11    1    3    3    0    0  0.50982929068E+01 -0.89400876730E+01 -0.88868236711E-01  0.10292019043E+02  0.51100000000E-03 0. -1.
        -11    1    3    3    0    0 -0.34428451184E+02  0.14083991196E+02  0.10995439608E+02  0.38788874067E+02  0.51100000000E-03 0.  1.
         12    1    3    3    0    0  0.14905270491E+02  0.49246285689E+01 -0.17327350178E+02  0.23380678329E+02  0.00000000000E+00 0. -1.
</event>
<event>
 7    1  0.1749439E-013  0.7246162E+02  0.7816164E-02  0.1226708E+00
        -11   -1    0    0    0    0  0.00000000000E+00  0.00000000000E+00  0.45593999997E+02  0.45594000000E+02  0.51100000000E-03 0. -1.
         11   -1    0    0    0    0 -0.00000000000E+00 -0.00000000000E+00 -0.45593999997E+02  0.45594000000E+02  0.51100000000E-03 0.  1.
    9900012    2    1    2    0    0  0.11537551379E+02 -0.36886839846E+01  0.14281309751E+02  0.72461620490E+02  0.70000065389E+02 0.  0.
        -12    1    1    2    0    0 -0.11537551379E+02  0.36886839846E+01 -0.14281309751E+02  0.18726379510E+02  0.00000000000E+00 0.  1.
         11    1    3    3    0    0  0.51129092225E+01  0.22788061026E+02  0.12242662382E+02  0.26368927709E+02  0.51100000000E-03 0. -1.
        -11    1    3    3    0    0  0.28924064231E+01 -0.12080336914E+02  0.19542016130E+02  0.23155797320E+02  0.51100000000E-03 0.  1.
        -12    1    3    3    0    0  0.35322357338E+01 -0.14396408097E+02 -0.17503368761E+02  0.22936895461E+02  0.00000000000E+00 0.  1.
</event>
<event>
 7    1  0.1749439E-013  0.7246154E+02  0.7816164E-02  0.1226708E+00
        -11   -1    0    0    0    0  0.00000000000E+00  0.00000000000E+00  0.45593999997E+02  0.45594000000E+02  0.51100000000E-03 0. -1.
         11   -1    0    0    0    0 -0.00000000000E+00 -0.00000000000E+00 -0.45593999997E+02  0.45594000000E+02  0.51100000000E-03 0.  1.
    9900012    2    1    2    0    0  0.85553350107E+01 -0.16380466331E+02  0.30276640768E+01  0.72461543204E+02  0.69999964710E+02 0.  0.
        -12    1    1    2    0    0 -0.85553350107E+01  0.16380466331E+02 -0.30276640768E+01  0.18726456796E+02  0.00000000000E+00 0.  1.
         11    1    3    3    0    0 -0.54649559202E+01 -0.66887546151E+01 -0.25595937337E+02  0.27014018397E+02  0.51100000000E-03 0. -1.
        -11    1    3    3    0    0  0.54607657339E+01  0.31145884807E+01 -0.52794407420E+01  0.82093311916E+01  0.51100000000E-03 0.  1.
         12    1    3    3    0    0  0.85595251970E+01 -0.12806300197E+02  0.33903042156E+02  0.37238193616E+02  0.00000000000E+00 0. -1.
</event>
<event>
 7    1  0.1749439E-013  0.7246159E+02  0.7816164E-02  0.1226708E+00
        -11   -1    0    0    0    0  0.00000000000E+00  0.00000000000E+00  0.45593999997E+02  0.45594000000E+02  0.51100000000E-03 0.  1.
         11   -1    0    0    0    0 -0.00000000000E+00 -0.00000000000E+00 -0.45593999997E+02  0.45594000000E+02  0.51100000000E-03 0. -1.
    9900012    2    1    2    0    0 -0.17062590988E+02 -0.54414360198E+00 -0.76974199189E+01  0.72461591458E+02  0.70000027570E+02 0.  0.
        -12    1    1    2    0    0  0.17062590988E+02  0.54414360198E+00  0.76974199189E+01  0.18726408542E+02  0.00000000000E+00 0.  1.
         11    1    3    3    0    0  0.12313330491E+02  0.12106306451E+02 -0.15945798921E+02  0.23504239344E+02  0.51100000000E-03 0. -1.
        -11    1    3    3    0    0  0.59069878635E+01 -0.93995226832E+01  0.77184635321E+01  0.13521028506E+02  0.51100000000E-03 0.  1.
        -12    1    3    3    0    0 -0.35282909343E+02 -0.32509273700E+01  0.52991546972E+00  0.35436323608E+02  0.00000000000E+00 0.  1.
</event>
<event>
 7    1  0.1749439E-013  0.7246156E+02  0.7816164E-02  0.1226708E+00
        -11   -1    0    0    0    0  0.00000000000E+00  0.00000000000E+00  0.45593999997E+02  0.45594000000E+02  0.51100000000E-03 0.  1.
         11   -1    0    0    0    0 -0.00000000000E+00 -0.00000000000E+00 -0.45593999997E+02  0.45594000000E+02  0.51100000000E-03 0. -1.
    9900012    2    1    2    0    0 -0.44605467288E+01 -0.12887951287E+02 -0.12832917218E+02  0.72461560675E+02  0.69999987469E+02 0.  0.
        -12    1    1    2    0    0  0.44605467288E+01  0.12887951287E+02  0.12832917218E+02  0.18726439325E+02  0.00000000000E+00 0.  1.
         11    1    3    3    0    0  0.11200852892E+02 -0.45105304572E+01 -0.93294399152E+01  0.15259175597E+02  0.51100000000E-03 0. -1.
        -11    1    3    3    0    0  0.10746906583E+02  0.89927711549E+01  0.15039360414E+02  0.20555979570E+02  0.51100000000E-03 0.  1.
         12    1    3    3    0    0 -0.26408306203E+02 -0.17370191985E+02 -0.18542837716E+02  0.36646405508E+02  0.00000000000E+00 0. -1.
</event>
<event>
 7    1  0.1749439E-013  0.7246155E+02  0.7816164E-02  0.1226708E+00
        -11   -1    0    0    0    0  0.00000000000E+00  0.00000000000E+00  0.45593999997E+02  0.45594000000E+02  0.51100000000E-03 0. -1.
         11   -1    0    0    0    0 -0.00000000000E+00 -0.00000000000E+00 -0.45593999997E+02  0.45594000000E+02  0.51100000000E-03 0.  1.
    9900012    2    1    2    0    0 -0.11205752756E+02  0.11958938337E+02  0.90606213035E+01  0.72461549205E+02  0.69999972527E+02 0.  0.
        -12    1    1    2    0    0  0.11205752756E+02 -0.11958938337E+02 -0.90606213035E+01  0.18726450795E+02  0.00000000000E+00 0.  1.
         11    1    3    3    0    0 -0.20762005805E+01 -0.15149381757E+02  0.21224578017E+02  0.26159072780E+02  0.51100000000E-03 0.  1.
        -11    1    3    3    0    0 -0.13042695453E+02 -0.31087160808E+01  0.22694522646E+00  0.13409978552E+02  0.51100000000E-03 0. -1.
        -12    1    3    3    0    0  0.39131432780E+01  0.30217036174E+02 -0.12390901940E+02  0.32892497873E+02  0.00000000000E+00 0.  1.
</event>
<event>
 7    1  0.1749439E-013  0.7246170E+02  0.7816164E-02  0.1226708E+00
        -11   -1    0    0    0    0  0.00000000000E+00  0.00000000000E+00  0.45593999997E+02  0.45594000000E+02  0.51100000000E-03 0. -1.
         11   -1    0    0    0    0 -0.00000000000E+00 -0.00000000000E+00 -0.45593999997E+02  0.45594000000E+02  0.51100000000E-03 0.  1.
    9900012    2    1    2    0    0  0.14595455146E+02  0.42452843686E+01  0.10937307558E+02  0.72461696390E+02  0.70000164263E+02 0.  0.
        -12    1    1    2    0    0 -0.14595455146E+02 -0.42452843686E+01 -0.10937307558E+02  0.18726303610E+02  0.00000000000E+00 0.  1.
         11    1    3    3    0    0  0.33139924989E+02  0.77974967202E+00  0.20307067592E+02  0.38874665687E+02  0.51100000000E-03 0. -1.
        -11    1    3    3    0    0 -0.14892794032E+02 -0.26898933996E+01  0.62748236595E+01  0.16383047727E+02  0.51100000000E-03 0.  1.
        -12    1    3    3    0    0 -0.36516758112E+01  0.61554280962E+01 -0.15644583694E+02  0.17203982976E+02  0.00000000000E+00 0.  1.
</event>
<event>
 7    1  0.1749439E-013  0.7246156E+02  0.7816164E-02  0.1226708E+00
        -11   -1    0    0    0    0  0.00000000000E+00  0.00000000000E+00  0.45593999997E+02  0.45594000000E+02  0.51100000000E-03 0.  1.
         11   -1    0    0    0    0 -0.00000000000E+00 -0.00000000000E+00 -0.45593999997E+02  0.45594000000E+02  0.51100000000E-03 0. -1.
    9900012    2    1    2    0    0 -0.10340622042E+02 -0.30192005423E+01 -0.15317818667E+02  0.72461558671E+02  0.69999984858E+02 0.  0.
        -12    1    1    2    0    0  0.10340622042E+02  0.30192005423E+01  0.15317818667E+02  0.18726441329E+02  0.00000000000E+00 0.  1.
         11    1    3    3    0    0 -0.55750359463E+01 -0.21809298625E+02  0.69590545319E+01  0.23561726858E+02  0.51100000000E-03 0. -1.
        -11    1    3    3    0    0 -0.15051227233E+02  0.23678797258E+02 -0.24556014301E+02  0.37285690545E+02  0.51100000000E-03 0.  1.
         12    1    3    3    0    0  0.10285641137E+02 -0.48886991755E+01  0.22791411026E+01  0.11614141268E+02  0.00000000000E+00 0. -1.
</event>
<event>
 7    1  0.1749439E-013  0.7246160E+02  0.7816164E-02  0.1226708E+00
        -11   -1    0    0    0    0  0.00000000000E+00  0.00000000000E+00  0.45593999997E+02  0.45594000000E+02  0.51100000000E-03 0.  1.
         11   -1    0    0    0    0 -0.00000000000E+00 -0.00000000000E+00 -0.45593999997E+02  0.45594000000E+02  0.51100000000E-03 0. -1.
    9900012    2    1    2    0    0 -0.23236361516E+01 -0.18565541195E+02 -0.77419138485E+00  0.72461602132E+02  0.70000041474E+02 0.  0.
        -12    1    1    2    0    0  0.23236361516E+01  0.18565541195E+02  0.77419138485E+00  0.18726397868E+02  0.00000000000E+00 0.  1.
         11    1    3    3    0    0  0.14087109299E+02  0.86761847927E+01 -0.55177029470E+01  0.17440409314E+02  0.51100000000E-03 0. -1.
        -11    1    3    3    0    0  0.33544042447E+01  0.40345300622E+01 -0.12977499466E+02  0.13998033909E+02  0.51100000000E-03 0.  1.
        -12    1    3    3    0    0 -0.19765149696E+02 -0.31276256050E+02  0.17721011029E+02  0.41023158909E+02  0.00000000000E+00 0.  1.
</event>
<event>
 7    1  0.1749439E-013  0.7246158E+02  0.7816164E-02  0.1226708E+00
        -11   -1    0    0    0    0  0.00000000000E+00  0.00000000000E+00  0.45593999997E+02  0.45594000000E+02  0.51100000000E-03 0. -1.
         11   -1    0    0    0    0 -0.00000000000E+00 -0.00000000000E+00 -0.45593999997E+02  0.45594000000E+02  0.51100000000E-03 0.  1.
    9900012    2    1    2    0    0 -0.68717319639E+01 -0.12133699772E+02  0.12499264790E+02  0.72461575071E+02  0.70000006222E+02 0.  0.
        -12    1    1    2    0    0  0.68717319639E+01  0.12133699772E+02 -0.12499264790E+02  0.18726424929E+02  0.00000000000E+00 0.  1.
         11    1    3    3    0    0  0.66758662726E+00  0.27091982651E+01 -0.44939385402E+01  0.52896985744E+01  0.51100000000E-03 0. -1.
        -11    1    3    3    0    0  0.23645047459E+02  0.80776973942E+01  0.13269092270E+02  0.28291452322E+02  0.51100000000E-03 0.  1.
         12    1    3    3    0    0 -0.31184366050E+02 -0.22920595431E+02  0.37241110595E+01  0.38880424175E+02  0.00000000000E+00 0. -1.
</event>
<event>
 7    1  0.1749439E-013  0.7246152E+02  0.7816164E-02  0.1226708E+00
        -11   -1    0    0    0    0  0.00000000000E+00  0.00000000000E+00  0.45593999997E+02  0.45594000000E+02  0.51100000000E-03 0. -1.
         11   -1    0    0    0    0 -0.00000000000E+00 -0.00000000000E+00 -0.45593999997E+02  0.45594000000E+02  0.51100000000E-03 0.  1.
    9900012    2    1    2    0    0  0.81142950255E+01 -0.56498749685E+01  0.15903400118E+02  0.72461521254E+02  0.69999936115E+02 0.  0.
        -12    1    1    2    0    0 -0.81142950255E+01  0.56498749685E+01 -0.15903400118E+02  0.18726478746E+02  0.00000000000E+00 0.  1.
         11    1    3    3    0    0 -0.13158836810E+02 -0.15190590746E+02  0.12972047737E+02  0.23920348161E+02  0.51100000000E-03 0. -1.
        -11    1    3    3    0    0 -0.13634455440E+01 -0.14491619362E+02  0.51803859635E+01  0.15449997233E+02  0.51100000000E-03 0.  1.
        -12    1    3    3    0    0  0.22636577379E+02  0.24032335140E+02 -0.22490335825E+01  0.33091175860E+02  0.00000000000E+00 0.  1.
</event>
<event>
 7    1  0.1749439E-013  0.7246169E+02  0.7816164E-02  0.1226708E+00
        -11   -1    0    0    0    0  0.00000000000E+00  0.00000000000E+00  0.45593999997E+02  0.45594000000E+02  0.51100000000E-03 0.  1.
         11   -1    0    0    0    0 -0.00000000000E+00 -0.00000000000E+00 -0.45593999997E+02  0.45594000000E+02  0.51100000000E-03 0. -1.
    9900012    2    1    2    0    0 -0.14554145347E+02  0.92052656792E+01 -0.73562733580E+01  0.72461686409E+02  0.70000151260E+02 0.  0.
        -12    1    1    2    0    0  0.14554145347E+02 -0.92052656792E+01  0.73562733580E+01  0.18726313591E+02  0.00000000000E+00 0.  1.
         11    1    3    3    0    0 -0.69017178021E+01 -0.10515714040E+02  0.36441932232E+01  0.13095575394E+02  0.51100000000E-03 0. -1.
        -11    1    3    3    0    0  0.96590973295E+01  0.40185967605E+01  0.18787268039E+02  0.21503690888E+02  0.51100000000E-03 0.  1.
         12    1    3    3    0    0 -0.17311524874E+02  0.15702382959E+02 -0.29787734621E+02  0.37862420127E+02  0.00000000000E+00 0. -1.
</event>
<event>
 7    1  0.1749439E-013  0.7246155E+02  0.7816164E-02  0.1226708E+00
        -11   -1    0    0    0    0  0.00000000000E+00  0.00000000000E+00  0.45593999997E+02  0.45594000000E+02  0.51100000000E-03 0.  1.
         11   -1    0    0    0    0 -0.00000000000E+00 -0.00000000000E+00 -0.45593999997E+02  0.45594000000E+02  0.51100000000E-03 0. -1.
    9900012    2    1    2    0    0  0.13659387912E+02 -0.24741267211E-01 -0.12810162171E+02  0.72461554926E+02  0.69999979980E+02 0.  0.
        -12    1    1    2    0    0 -0.13659387912E+02  0.24741267211E-01  0.12810162171E+02  0.18726445074E+02  0.00000000000E+00 0.  1.
         11    1    3    3    0    0  0.51472863594E+01 -0.82602504563E+01  0.67443878737E+01  0.11841159678E+02  0.51100000000E-03 0. -1.
        -11    1    3    3    0    0 -0.13884290712E+00  0.25697634338E+02  0.79610048472E+01  0.26902886209E+02  0.51100000000E-03 0.  1.
        -12    1    3    3    0    0  0.86509444597E+01 -0.17462125149E+02 -0.27515554892E+02  0.33717509039E+02  0.00000000000E+00 0.  1.
</event>
<event>
 7    1  0.1749439E-013  0.7246159E+02  0.7816164E-02  0.1226708E+00
        -11   -1    0    0    0    0  0.00000000000E+00  0.00000000000E+00  0.45593999997E+02  0.45594000000E+02  0.51100000000E-03 0. -1.
         11   -1    0    0    0    0 -0.00000000000E+00 -0.00000000000E+00 -0.45593999997E+02  0.45594000000E+02  0.51100000000E-03 0.  1.
    9900012    2    1    2    0    0  0.64773486921E+01  0.17066082574E+02  0.41798783951E+01  0.72461585397E+02  0.70000019674E+02 0.  0.
        -12    1    1    2    0    0 -0.64773486921E+01 -0.17066082574E+02 -0.41798783951E+01  0.18726414603E+02  0.00000000000E+00 0.  1.
         11    1    3    3    0    0 -0.17445993995E+02  0.18214229405E+02 -0.14257237331E+00  0.25221839474E+02  0.51100000000E-03 0. -1.
        -11    1    3    3    0    0 -0.31955489673E+01  0.14643094762E+02 -0.23109609465E+01  0.15164837558E+02  0.51100000000E-03 0.  1.
         12    1    3    3    0    0  0.27118891655E+02 -0.15791241593E+02  0.66334117149E+01  0.32074908365E+02  0.00000000000E+00 0. -1.
</event>
<event>
 7    1  0.1749439E-013  0.7246159E+02  0.7816164E-02  0.1226708E+00
        -11   -1    0    0    0    0  0.00000000000E+00  0.00000000000E+00  0.45593999997E+02  0.45594000000E+02  0.51100000000E-03 0.  1.
         11   -1    0    0    0    0 -0.00000000000E+00 -0.00000000000E+00 -0.45593999997E+02  0.45594000000E+02  0.51100000000E-03 0. -1.
    9900012    2    1    2    0    0  0.14973090838E+02 -0.38049938914E+01 -0.10583330521E+02  0.72461593173E+02  0.70000029803E+02 0.  0.
        -12    1    1    2    0    0 -0.14973090838E+02  0.38049938914E+01  0.10583330521E+02  0.18726406827E+02  0.00000000000E+00 0.  1.
         11    1    3    3    0    0  0.21462513676E+01 -0.71091491924E+00 -0.26469939809E+02  0.26566322830E+02  0.51100000000E-03 0. -1.
        -11    1    3    3    0    0  0.22587610549E+02 -0.10112988426E+02 -0.14583484873E+01  0.24791116671E+02  0.51100000000E-03 0.  1.
        -12    1    3    3    0    0 -0.97607710786E+01  0.70189094542E+01  0.17344957775E+02  0.21104153672E+02  0.00000000000E+00 0.  1.
</event>
<event>
 7    1  0.1749439E-013  0.7246156E+02  0.7816164E-02  0.1226708E+00
        -11   -1    0    0    0    0  0.00000000000E+00  0.00000000000E+00  0.45593999997E+02  0.45594000000E+02  0.51100000000E-03 0. -1.
         11   -1    0    0    0    0 -0.00000000000E+00 -0.00000000000E+00 -0.45593999997E+02  0.45594000000E+02  0.51100000000E-03 0.  1.
    9900012    2    1    2    0    0 -0.13885333398E+02 -0.11687729494E+02  0.46123838827E+01  0.72461559084E+02  0.69999985397E+02 0.  0.
        -12    1    1    2    0    0  0.13885333398E+02  0.11687729494E+02 -0.46123838827E+01  0.18726440916E+02  0.00000000000E+00 0.  1.
         11    1    3    3    0    0 -0.94575368856E+00  0.27446377080E+01  0.88370821971E+01  0.93016938354E+01  0.51100000000E-03 0. -1.
        -11    1    3    3    0    0 -0.18538155009E+02 -0.35855240846E+02  0.11274373026E+01  0.40379853918E+02  0.51100000000E-03 0.  1.
         12    1    3    3    0    0  0.55985752999E+01  0.21422873644E+02 -0.53521356170E+01  0.22780011331E+02  0.00000000000E+00 0. -1.
</event>
<event>
 7    1  0.1749439E-013  0.7246169E+02  0.7816164E-02  0.1226708E+00
        -11   -1    0    0    0    0  0.00000000000E+00  0.00000000000E+00  0.45593999997E+02  0.45594000000E+02  0.51100000000E-03 0. -1.
         11   -1    0    0    0    0 -0.00000000000E+00 -0.00000000000E+00 -0.45593999997E+02  0.45594000000E+02  0.51100000000E-03 0.  1.
    9900012    2    1    2    0    0  0.12774844120E+02 -0.13612744330E+02 -0.14735653909E+01  0.72461685749E+02  0.70000150400E+02 0.  0.
        -12    1    1    2    0    0 -0.12774844120E+02  0.13612744330E+02  0.14735653909E+01  0.18726314251E+02  0.00000000000E+00 0.  1.
         11    1    3    3    0    0  0.26282241174E+02  0.21990286416E+01 -0.10824861620E+02  0.28509113586E+02  0.51100000000E-03 0. -1.
        -11    1    3    3    0    0 -0.73205251210E+01 -0.18876865056E+02 -0.10590600049E+02  0.22849221695E+02  0.51100000000E-03 0.  1.
        -12    1    3    3    0    0 -0.61868719333E+01  0.30650920844E+01  0.19941896278E+02  0.21103350468E+02  0.00000000000E+00 0.  1.
</event>
<event>
 7    1  0.1749439E-013  0.7246133E+02  0.7816164E-02  0.1226709E+00
        -11   -1    0    0    0    0  0.00000000000E+00  0.00000000000E+00  0.45593999997E+02  0.45594000000E+02  0.51100000000E-03 0.  1.
         11   -1    0    0    0    0 -0.00000000000E+00 -0.00000000000E+00 -0.45593999997E+02  0.45594000000E+02  0.51100000000E-03 0. -1.
    9900012    2    1    2    0    0 -0.75919669537E+01  0.17057746718E+02 -0.14433678830E+01  0.72461334622E+02  0.69999692993E+02 0.  0.
        -12    1    1    2    0    0  0.75919669537E+01 -0.17057746718E+02  0.14433678830E+01  0.18726665378E+02  0.00000000000E+00 0.  1.
         11    1    3    3    0    0  0.88290533906E+01  0.40884667108E+01 -0.69786735782E+01  0.11973705733E+02  0.51100000000E-03 0. -1.
        -11    1    3    3    0    0  0.45146874502E+01  0.21173627841E+02 -0.17839833937E+02  0.28052889225E+02  0.51100000000E-03 0.  1.
        -12    1    3    3    0    0 -0.20935707794E+02 -0.82043478333E+01  0.23375139632E+02  0.32434739664E+02  0.00000000000E+00 0.  1.
</event>
<event>
 7    1  0.1749439E-013  0.7246179E+02  0.7816164E-02  0.1226707E+00
        -11   -1    0    0    0    0  0.00000000000E+00  0.00000000000E+00  0.45593999997E+02  0.45594000000E+02  0.51100000000E-03 0.  1.
         11   -1    0    0    0    0 -0.00000000000E+00 -0.00000000000E+00 -0.45593999997E+02  0.45594000000E+02  0.51100000000E-03 0. -1.
    9900012    2    1    2    0    0 -0.12160851387E+02  0.48599941348E-01 -0.14240168660E+02  0.72461786504E+02  0.70000281653E+02 0.  0.
        -12    1    1    2    0    0  0.12160851387E+02 -0.48599941348E-01  0.14240168660E+02  0.18726213496E+02  0.00000000000E+00 0.  1.
         11    1    3    3    0    0 -0.48000511886E+01  0.17649790422E+02 -0.25845533958E+01  0.18472561000E+02  0.51100000000E-03 0.  1.
        -11    1    3    3    0    0 -0.27106719225E+02 -0.14953252574E+02 -0.99892955326E-01  0.30957777190E+02  0.51100000000E-03 0. -1.
        -12    1    3    3    0    0  0.19745919027E+02 -0.26479379069E+01 -0.11555722309E+02  0.23031448315E+02  0.00000000000E+00 0.  1.
</event>
<event>
 7    1  0.1749439E-013  0.7246158E+02  0.7816164E-02  0.1226708E+00
        -11   -1    0    0    0    0  0.00000000000E+00  0.00000000000E+00  0.45593999997E+02  0.45594000000E+02  0.51100000000E-03 0.  1.
         11   -1    0    0    0    0 -0.00000000000E+00 -0.00000000000E+00 -0.45593999997E+02  0.45594000000E+02  0.51100000000E-03 0. -1.
    9900012    2    1    2    0    0  0.67308253636E+01 -0.79827253499E+01 -0.15545124050E+02  0.72461580272E+02  0.70000012998E+02 0.  0.
        -12    1    1    2    0    0 -0.67308253636E+01  0.79827253499E+01  0.15545124050E+02  0.18726419728E+02  0.00000000000E+00 0.  1.
         11    1    3    3    0    0  0.12109516335E+02 -0.26492348877E+02 -0.28792145647E+02  0.40956960167E+02  0.51100000000E-03 0. -1.
        -11    1    3    3    0    0  0.44377875766E+01 -0.19489679506E+01  0.59374760221E+01  0.76645976033E+01  0.51100000000E-03 0.  1.
        -12    1    3    3    0    0 -0.98164785483E+01  0.20458591478E+02  0.73095455754E+01  0.23840022502E+02  0.00000000000E+00 0.  1.
</event>
<event>
 7    1  0.1749439E-013  0.7246159E+02  0.7816164E-02  0.1226708E+00
        -11   -1    0    0    0    0  0.00000000000E+00  0.00000000000E+00  0.45593999997E+02  0.45594000000E+02  0.51100000000E-03 0.  1.
         11   -1    0    0    0    0 -0.00000000000E+00 -0.00000000000E+00 -0.45593999997E+02  0.45594000000E+02  0.51100000000E-03 0. -1.
    9900012    2    1    2    0    0 -0.68971252840E+01  0.24812309683E+01 -0.17232285038E+02  0.72461588386E+02  0.70000023567E+02 0.  0.
        -12    1    1    2    0    0  0.68971252840E+01 -0.24812309683E+01  0.17232285038E+02  0.18726411614E+02  0.00000000000E+00 0.  1.
         11    1    3    3    0    0 -0.12875875866E+02 -0.13022817527E+01  0.13699480608E+01  0.13013872407E+02  0.51100000000E-03 0. -1.
        -11    1    3    3    0    0  0.17322127597E+01  0.15138838099E+02  0.16411407070E+02  0.22394625746E+02  0.51100000000E-03 0.  1.
         12    1    3    3    0    0  0.42465378220E+01 -0.11355325378E+02 -0.35013640169E+02  0.37053090233E+02  0.00000000000E+00 0. -1.
</event>
<event>
 7    1  0.1749439E-013  0.7246127E+02  0.7816164E-02  0.1226709E+00
        -11   -1    0    0    0    0  0.00000000000E+00  0.00000000000E+00  0.45593999997E+02  0.45594000000E+02  0.51100000000E-03 0. -1.
         11   -1    0    0    0    0 -0.00000000000E+00 -0.00000000000E+00 -0.45593999997E+02  0.45594000000E+02  0.51100000000E-03 0.  1.
    9900012    2    1    2    0    0  0.31871285742E+00  0.18715249112E+02  0.57301155309E+00  0.72461268587E+02  0.69999606968E+02 0.  0.
        -12    1    1    2    0    0 -0.31871285742E+00 -0.18715249112E+02 -0.57301155309E+00  0.18726731413E+02  0.00000000000E+00 0.  1.
         11    1    3    3    0    0  0.18532554738E+01  0.12922557845E+02 -0.65722042376E+01  0.14615776610E+02  0.51100000000E-03 0.  1.
        -11    1    3    3    0    0 -0.19557255068E+02 -0.11146204153E+02 -0.12956980043E+02  0.25973205904E+02  0.51100000000E-03 0. -1.
        -12    1    3    3    0    0  0.18022712452E+02  0.16938895420E+02  0.20102195834E+02  0.31872286073E+02  0.00000000000E+00 0.  1.
</event>
<event>
 7    1  0.1749439E-013  0.7246154E+02  0.7816164E-02  0.1226708E+00
        -11   -1    0    0    0    0  0.00000000000E+00  0.00000000000E+00  0.45593999997E+02  0.45594000000E+02  0.51100000000E-03 0. -1.
         11   -1    0    0    0    0 -0.00000000000E+00 -0.00000000000E+00 -0.45593999997E+02  0.45594000000E+02  0.51100000000E-03 0.  1.
    9900012    2    1    2    0    0  0.42746476515E+01  0.14881488376E+01  0.18171221235E+02  0.72461535286E+02  0.69999954395E+02 0.  0.
        -12    1    1    2    0    0 -0.42746476515E+01 -0.14881488376E+01 -0.18171221235E+02  0.18726464714E+02  0.00000000000E+00 0.  1.
         11    1    3    3    0    0 -0.19453357876E+02 -0.19426767057E+02  0.27147298389E+02  0.38636876439E+02  0.51100000000E-03 0. -1.
        -11    1    3    3    0    0  0.15059566568E+01  0.29837377771E-01 -0.20639504779E+01  0.25551296557E+01  0.51100000000E-03 0.  1.
        -12    1    3    3    0    0  0.22222048871E+02  0.20885078516E+02 -0.69121266757E+01  0.31269529191E+02  0.00000000000E+00 0.  1.
</event>
<event>
 7    1  0.1749439E-013  0.7246159E+02  0.7816164E-02  0.1226708E+00
        -11   -1    0    0    0    0  0.00000000000E+00  0.00000000000E+00  0.45593999997E+02  0.45594000000E+02  0.51100000000E-03 0.  1.
         11   -1    0    0    0    0 -0.00000000000E+00 -0.00000000000E+00 -0.45593999997E+02  0.45594000000E+02  0.51100000000E-03 0. -1.
    9900012    2    1    2    0    0  0.75299895700E+01 -0.12438220654E+02 -0.11801193672E+02  0.72461594898E+02  0.70000032051E+02 0.  0.
        -12    1    1    2    0    0 -0.75299895700E+01  0.12438220654E+02  0.11801193672E+02  0.18726405102E+02  0.00000000000E+00 0.  1.
         11    1    3    3    0    0  0.26794525706E+02 -0.11412658604E+02  0.13823057937E+02  0.32237746745E+02  0.51100000000E-03 0. -1.
        -11    1    3    3    0    0  0.31107702720E+00 -0.17822213127E+01  0.41817274120E+01  0.45563061940E+01  0.51100000000E-03 0.  1.
        -12    1    3    3    0    0 -0.19575613163E+02  0.75665926300E+00 -0.29805979021E+02  0.35667541959E+02  0.00000000000E+00 0.  1.
</event>
<event>
 7    1  0.1749439E-013  0.7246194E+02  0.7816164E-02  0.1226707E+00
        -11   -1    0    0    0    0  0.00000000000E+00  0.00000000000E+00  0.45593999997E+02  0.45594000000E+02  0.51100000000E-03 0.  1.
         11   -1    0    0    0    0 -0.00000000000E+00 -0.00000000000E+00 -0.45593999997E+02  0.45594000000E+02  0.51100000000E-03 0. -1.
    9900012    2    1    2    0    0 -0.10438548244E+02  0.10300555775E+02 -0.11644766432E+02  0.72461939978E+02  0.70000481579E+02 0.  0.
        -12    1    1    2    0    0  0.10438548244E+02 -0.10300555775E+02  0.11644766432E+02  0.18726060022E+02  0.00000000000E+00 0.  1.
         11    1    3    3    0    0  0.49550938891E+01 -0.94823045924E+01  0.94766291851E+01  0.14292430053E+02  0.51100000000E-03 0. -1.
        -11    1    3    3    0    0  0.17260619319E+02  0.89614013764E+01 -0.44918872866E+01  0.19960279195E+02  0.51100000000E-03 0.  1.
         12    1    3    3    0    0 -0.32654261452E+02  0.10821458991E+02 -0.16629508330E+02  0.38209230730E+02  0.00000000000E+00 0. -1.
</event>
<event>
 7    1  0.1749439E-013  0.7246165E+02  0.7816164E-02  0.1226708E+00
        -11   -1    0    0    0    0  0.00000000000E+00  0.00000000000E+00  0.45593999997E+02  0.45594000000E+02  0.51100000000E-03 0.  1.
         11   -1    0    0    0    0 -0.00000000000E+00 -0.00000000000E+00 -0.45593999997E+02  0.45594000000E+02  0.51100000000E-03 0. -1.
    9900012    2    1    2    0    0 -0.11038353609E+02  0.80035465837E+01 -0.12836436195E+02  0.72461652185E+02  0.70000106677E+02 0.  0.
        -12    1    1    2    0    0  0.11038353609E+02 -0.80035465837E+01  0.12836436195E+02  0.18726347815E+02  0.00000000000E+00 0.  1.
         11    1    3    3    0    0 -0.55251010955E+00 -0.16388423062E+01 -0.62869538231E+01  0.65204953922E+01  0.51100000000E-03 0. -1.
        -11    1    3    3    0    0 -0.32908811667E+02 -0.11322705614E+02 -0.54315069296E+01  0.35223498059E+02  0.51100000000E-03 0.  1.
         12    1    3    3    0    0  0.22422968167E+02  0.20965094503E+02 -0.11179754419E+01  0.30717658733E+02  0.00000000000E+00 0. -1.
</event>
<event>
 7    1  0.1749439E-013  0.7246144E+02  0.7816164E-02  0.1226708E+00
        -11   -1    0    0    0    0  0.00000000000E+00  0.00000000000E+00  0.45593999997E+02  0.45594000000E+02  0.51100000000E-03 0. -1.
         11   -1    0    0    0    0 -0.00000000000E+00 -0.00000000000E+00 -0.45593999997E+02  0.45594000000E+02  0.51100000000E-03 0.  1.
    9900012    2    1    2    0    0 -0.72589044380E+01 -0.12727110057E+02  0.11662468063E+02  0.72461436371E+02  0.69999825539E+02 0.  0.
        -12    1    1    2    0    0  0.72589044380E+01  0.12727110057E+02 -0.11662468063E+02  0.18726563629E+02  0.00000000000E+00 0.  1.
         11    1    3    3    0    0 -0.19773211475E+02  0.99565274879E+01 -0.81409425304E+01  0.23587862921E+02  0.51100000000E-03 0. -1.
        -11    1    3    3    0    0  0.81575040089E+00 -0.91851007358E+01  0.27809891891E+02  0.29298832937E+02  0.51100000000E-03 0.  1.
        -12    1    3    3    0    0  0.11698556636E+02 -0.13498536809E+02 -0.80064812974E+01  0.19574740512E+02  0.00000000000E+00 0.  1.
</event>
<event>
 7    1  0.1749439E-013  0.7246159E+02  0.7816164E-02  0.1226708E+00
        -11   -1    0    0    0    0  0.00000000000E+00  0.00000000000E+00  0.45593999997E+02  0.45594000000E+02  0.51100000000E-03 0. -1.
         11   -1    0    0    0    0 -0.00000000000E+00 -0.00000000000E+00 -0.45593999997E+02  0.45594000000E+02  0.51100000000E-03 0.  1.
    9900012    2    1    2    0    0  0.22616346767E+01 -0.67156292985E+01  0.17333890079E+02  0.72461590479E+02  0.70000026294E+02 0.  0.
        -12    1    1    2    0    0 -0.22616346767E+01  0.67156292985E+01 -0.17333890079E+02  0.18726409521E+02  0.00000000000E+00 0.  1.
         11    1    3    3    0    0  0.15039226656E+02  0.11252219196E+01  0.31091979025E+02  0.34556556870E+02  0.51100000000E-03 0. -1.
        -11    1    3    3    0    0 -0.27690839557E+01 -0.12600662901E+02  0.67748967030E+01  0.14572019664E+02  0.51100000000E-03 0.  1.
         12    1    3    3    0    0 -0.10008508023E+02  0.47598116826E+01 -0.20532985648E+02  0.23333013945E+02  0.00000000000E+00 0. -1.
</event>
<event>
 7    1  0.1749439E-013  0.7246158E+02  0.7816164E-02  0.1226708E+00
        -11   -1    0    0    0    0  0.00000000000E+00  0.00000000000E+00  0.45593999997E+02  0.45594000000E+02  0.51100000000E-03 0. -1.
         11   -1    0    0    0    0 -0.00000000000E+00 -0.00000000000E+00 -0.45593999997E+02  0.45594000000E+02  0.51100000000E-03 0.  1.
    9900012    2    1    2    0    0 -0.54023631845E+01 -0.10634728760E+02  0.14435917931E+02  0.72461582556E+02  0.70000015973E+02 0.  0.
        -12    1    1    2    0    0  0.54023631845E+01  0.10634728760E+02 -0.14435917931E+02  0.18726417444E+02  0.00000000000E+00 0.  1.
         11    1    3    3    0    0  0.11627953414E+02  0.89359049849E+01  0.17333577122E+02  0.22704902436E+02  0.51100000000E-03 0. -1.
        -11    1    3    3    0    0  0.12148525219E+01  0.12533615092E+02 -0.24441346093E+01  0.12827360141E+02  0.51100000000E-03 0.  1.
        -12    1    3    3    0    0 -0.18245169121E+02 -0.32104248837E+02 -0.45352458130E+00  0.36929319980E+02  0.00000000000E+00 0.  1.
</event>
<event>
 7    1  0.1749439E-013  0.7246158E+02  0.7816164E-02  0.1226708E+00
        -11   -1    0    0    0    0  0.00000000000E+00  0.00000000000E+00  0.45593999997E+02  0.45594000000E+02  0.51100000000E-03 0.  1.
         11   -1    0    0    0    0 -0.00000000000E+00 -0.00000000000E+00 -0.45593999997E+02  0.45594000000E+02  0.51100000000E-03 0. -1.
    9900012    2    1    2    0    0 -0.65790364684E+01  0.15866807553E+02 -0.74591781157E+01  0.72461584407E+02  0.70000018385E+02 0.  0.
        -12    1    1    2    0    0  0.65790364684E+01 -0.15866807553E+02  0.74591781157E+01  0.18726415593E+02  0.00000000000E+00 0.  1.
         11    1    3    3    0    0 -0.87237121133E+01  0.81029081498E+01 -0.10718587330E+02  0.16020249316E+02  0.51100000000E-03 0. -1.
        -11    1    3    3    0    0  0.50705242438E+01  0.31566657746E+02  0.51566866506E+01  0.32384494975E+02  0.51100000000E-03 0.  1.
         12    1    3    3    0    0 -0.29258485990E+01 -0.23802758342E+02 -0.18972774364E+01  0.24056840116E+02  0.00000000000E+00 0. -1.
</event>
<event>
 7    1  0.1749439E-013  0.7246208E+02  0.7816164E-02  0.1226707E+00
        -11   -1    0    0    0    0  0.00000000000E+00  0.00000000000E+00  0.45593999997E+02  0.45594000000E+02  0.51100000000E-03 0. -1.
         11   -1    0    0    0    0 -0.00000000000E+00 -0.00000000000E+00 -0.45593999997E+02  0.45594000000E+02  0.51100000000E-03 0.  1.
    9900012    2    1    2    0    0 -0.39690045085E+00  0.91424800014E+01  0.16337618159E+02  0.72462075786E+02  0.70000658494E+02 0.  0.
        -12    1    1    2    0    0  0.39690045085E+00 -0.91424800014E+01 -0.16337618159E+02  0.18725924214E+02  0.00000000000E+00 0.  1.
         11    1    3    3    0    0 -0.67109676119E+00 -0.23267737245E+02  0.67768110252E+01  0.24243826747E+02  0.51100000000E-03 0. -1.
        -11    1    3    3    0    0  0.49701945718E+01 -0.54790099655E+01 -0.30625849570E+01  0.80063606691E+01  0.51100000000E-03 0.  1.
        -12    1    3    3    0    0 -0.46959982614E+01  0.37889227212E+02  0.12623392091E+02  0.40211888370E+02  0.00000000000E+00 0.  1.
</event>
<event>
 7    1  0.1749439E-013  0.7246156E+02  0.7816164E-02  0.1226708E+00
        -11   -1    0    0    0    0  0.00000000000E+00  0.00000000000E+00  0.45593999997E+02  0.45594000000E+02  0.51100000000E-03 0.  1.
         11   -1    0    0    0    0 -0.00000000000E+00 -0.00000000000E+00 -0.45593999997E+02  0.45594000000E+02  0.51100000000E-03 0. -1.
    9900012    2    1    2    0    0  0.40587063462E+01  0.84373171651E+00 -0.18261830441E+02  0.72461563300E+02  0.69999990889E+02 0.  0.
        -12    1    1    2    0    0 -0.40587063462E+01 -0.84373171651E+00  0.18261830441E+02  0.18726436700E+02  0.00000000000E+00 0.  1.
         11    1    3    3    0    0  0.65531257697E+01 -0.11501274106E+02 -0.33178770417E+02  0.35721892028E+02  0.51100000000E-03 0. -1.
        -11    1    3    3    0    0 -0.86417968288E+00  0.11836736083E+02 -0.76422670208E+01  0.14115926222E+02  0.51100000000E-03 0.  1.
        -12    1    3    3    0    0 -0.16302397406E+01  0.50826973912E+00  0.22559206997E+02  0.22623745050E+02  0.00000000000E+00 0.  1.
</event>
<event>
 7    1  0.1749439E-013  0.7246153E+02  0.7816164E-02  0.1226708E+00
        -11   -1    0    0    0    0  0.00000000000E+00  0.00000000000E+00  0.45593999997E+02  0.45594000000E+02  0.51100000000E-03 0.  1.
         11   -1    0    0    0    0 -0.00000000000E+00 -0.00000000000E+00 -0.45593999997E+02  0.45594000000E+02  0.51100000000E-03 0. -1.
    9900012    2    1    2    0    0 -0.35282226855E+01  0.10999567978E+01 -0.18358174549E+02  0.72461525878E+02  0.69999942139E+02 0.  0.
        -12    1    1    2    0    0  0.35282226855E+01 -0.10999567978E+01  0.18358174549E+02  0.18726474122E+02  0.00000000000E+00 0.  1.
         11    1    3    3    0    0  0.24709887177E+02 -0.17162562220E+01 -0.37699767306E+01  0.25054675901E+02  0.51100000000E-03 0. -1.
        -11    1    3    3    0    0 -0.85380647617E+01 -0.15760804009E+02 -0.42424273356E+01  0.18420089110E+02  0.51100000000E-03 0.  1.
         12    1    3    3    0    0 -0.19700045100E+02  0.18577017028E+02 -0.10345770483E+02  0.28986760866E+02  0.00000000000E+00 0. -1.
</event>
<event>
 7    1  0.1749439E-013  0.7246166E+02  0.7816164E-02  0.1226708E+00
        -11   -1    0    0    0    0  0.00000000000E+00  0.00000000000E+00  0.45593999997E+02  0.45594000000E+02  0.51100000000E-03 0.  1.
         11   -1    0    0    0    0 -0.00000000000E+00 -0.00000000000E+00 -0.45593999997E+02  0.45594000000E+02  0.51100000000E-03 0. -1.
    9900012    2    1    2    0    0 -0.93403040062E+01  0.23895717280E+01 -0.16053793679E+02  0.72461664975E+02  0.70000123339E+02 0.  0.
        -12    1    1    2    0    0  0.93403040062E+01 -0.23895717280E+01  0.16053793679E+02  0.18726335025E+02  0.00000000000E+00 0.  1.
         11    1    3    3    0    0 -0.55615474324E+00  0.14651144711E+01  0.57021778735E+01  0.59136030704E+01  0.51100000000E-03 0. -1.
        -11    1    3    3    0    0 -0.79512948024E+01  0.26919107651E+02  0.57945799984E+01  0.28660750223E+02  0.51100000000E-03 0.  1.
         12    1    3    3    0    0 -0.83285446060E+00 -0.25994650394E+02 -0.27550551551E+02  0.37887311681E+02  0.00000000000E+00 0. -1.
</event>
<event>
 7    1  0.1749439E-013  0.7246150E+02  0.7816164E-02  0.1226708E+00
        -11   -1    0    0    0    0  0.00000000000E+00  0.00000000000E+00  0.45593999997E+02  0.45594000000E+02  0.51100000000E-03 0.  1.
         11   -1    0    0    0    0 -0.00000000000E+00 -0.00000000000E+00 -0.45593999997E+02  0.45594000000E+02  0.51100000000E-03 0. -1.
    9900012    2    1    2    0    0 -0.67258728248E+01  0.16439433449E+02  0.59320857919E+01  0.72461495275E+02  0.69999902273E+02 0.  0.
        -12    1    1    2    0    0  0.67258728248E+01 -0.16439433449E+02 -0.59320857919E+01  0.18726504725E+02  0.00000000000E+00 0.  1.
         11    1    3    3    0    0  0.57258568932E+01 -0.21714280277E+02  0.52481626727E+01  0.23061626500E+02  0.51100000000E-03 0. -1.
        -11    1    3    3    0    0 -0.32654183890E+01 -0.38802914409E+01  0.36855273771E+01  0.62691890409E+01  0.51100000000E-03 0.  1.
        -12    1    3    3    0    0 -0.91863113289E+01  0.42034005167E+02 -0.30016042579E+01  0.43130679734E+02  0.00000000000E+00 0.  1.
</event>
<event>
 7    1  0.1749439E-013  0.7246166E+02  0.7816164E-02  0.1226708E+00
        -11   -1    0    0    0    0  0.00000000000E+00  0.00000000000E+00  0.45593999997E+02  0.45594000000E+02  0.51100000000E-03 0. -1.
         11   -1    0    0    0    0 -0.00000000000E+00 -0.00000000000E+00 -0.45593999997E+02  0.45594000000E+02  0.51100000000E-03 0.  1.
    9900012    2    1    2    0    0 -0.12416589989E+02  0.13874556604E+02 -0.20002421000E+01  0.72461655019E+02  0.70000110369E+02 0.  0.
        -12    1    1    2    0    0  0.12416589989E+02 -0.13874556604E+02  0.20002421000E+01  0.18726344981E+02  0.00000000000E+00 0.  1.
         11    1    3    3    0    0 -0.14817026275E+02  0.21418232730E+02  0.14467220690E+01  0.26084055779E+02  0.51100000000E-03 0. -1.
        -11    1    3    3    0    0 -0.18409641442E+02  0.39840083742E+01  0.73929694848E+01  0.20234703329E+02  0.51100000000E-03 0.  1.
        -12    1    3    3    0    0  0.20810077728E+02 -0.11527684500E+02 -0.10839933654E+02  0.26142895911E+02  0.00000000000E+00 0.  1.
</event>
<event>
 7    1  0.1749439E-013  0.7246157E+02  0.7816164E-02  0.1226708E+00
        -11   -1    0    0    0    0  0.00000000000E+00  0.00000000000E+00  0.45593999997E+02  0.45594000000E+02  0.51100000000E-03 0.  1.
         11   -1    0    0    0    0 -0.00000000000E+00 -0.00000000000E+00 -0.45593999997E+02  0.45594000000E+02  0.51100000000E-03 0. -1.
    9900012    2    1    2    0    0 -0.11384452254E+02  0.14386950628E+02 -0.37535386516E+01  0.72461570711E+02  0.70000000543E+02 0.  0.
        -12    1    1    2    0    0  0.11384452254E+02 -0.14386950628E+02  0.37535386516E+01  0.18726429289E+02  0.00000000000E+00 0.  1.
         11    1    3    3    0    0 -0.84227005002E+01  0.20013870679E+02 -0.33031196894E+02  0.39529190123E+02  0.51100000000E-03 0. -1.
        -11    1    3    3    0    0  0.27426328260E+01  0.37475946624E+00  0.28759264842E+00  0.27830180144E+01  0.51100000000E-03 0.  1.
        -12    1    3    3    0    0 -0.57043845801E+01 -0.60016795176E+01  0.28990065594E+02  0.30149362574E+02  0.00000000000E+00 0.  1.
</event>
<event>
 7    1  0.1749439E-013  0.7246147E+02  0.7816164E-02  0.1226708E+00
        -11   -1    0    0    0    0  0.00000000000E+00  0.00000000000E+00  0.45593999997E+02  0.45594000000E+02  0.51100000000E-03 0. -1.
         11   -1    0    0    0    0 -0.00000000000E+00 -0.00000000000E+00 -0.45593999997E+02  0.45594000000E+02  0.51100000000E-03 0.  1.
    9900012    2    1    2    0    0 -0.72267817017E+01  0.70705443061E+01  0.15762738474E+02  0.72461470831E+02  0.69999870430E+02 0.  0.
        -12    1    1    2    0    0  0.72267817017E+01 -0.70705443061E+01 -0.15762738474E+02  0.18726529169E+02  0.00000000000E+00 0.  1.
         11    1    3    3    0    0  0.57562382218E+01 -0.84468823092E+01  0.36660298594E+01  0.10859275961E+02  0.51100000000E-03 0. -1.
        -11    1    3    3    0    0  0.17890803438E+02  0.14294662934E+02 -0.85461223340E+01  0.24442881239E+02  0.51100000000E-03 0.  1.
         12    1    3    3    0    0 -0.30873823361E+02  0.12227636817E+01  0.20642830948E+02  0.37159313631E+02  0.00000000000E+00 0. -1.
</event>
<event>
 7    1  0.1749439E-013  0.7246157E+02  0.7816164E-02  0.1226708E+00
        -11   -1    0    0    0    0  0.00000000000E+00  0.00000000000E+00  0.45593999997E+02  0.45594000000E+02  0.51100000000E-03 0. -1.
         11   -1    0    0    0    0 -0.00000000000E+00 -0.00000000000E+00 -0.45593999997E+02  0.45594000000E+02  0.51100000000E-03 0.  1.
    9900012    2    1    2    0    0  0.17006000536E+02  0.74404013893E+01  0.24729320968E+01  0.72461574280E+02  0.70000005193E+02 0.  0.
        -12    1    1    2    0    0 -0.17006000536E+02 -0.74404013893E+01 -0.24729320968E+01  0.18726425720E+02  0.00000000000E+00 0.  1.
         11    1    3    3    0    0 -0.22012419079E+01 -0.10775755005E+02  0.17135806576E+02  0.20361685321E+02  0.51100000000E-03 0. -1.
        -11    1    3    3    0    0 -0.13412631420E+01 -0.44905184885E+01  0.11120180759E+02  0.12067400859E+02  0.51100000000E-03 0.  1.
        -12    1    3    3    0    0  0.20548505586E+02  0.22706674882E+02 -0.25783055239E+02  0.40032488100E+02  0.00000000000E+00 0.  1.
</event>
<event>
 7    1  0.1749439E-013  0.7246162E+02  0.7816164E-02  0.1226708E+00
        -11   -1    0    0    0    0  0.00000000000E+00  0.00000000000E+00  0.45593999997E+02  0.45594000000E+02  0.51100000000E-03 0.  1.
         11   -1    0    0    0    0 -0.00000000000E+00 -0.00000000000E+00 -0.45593999997E+02  0.45594000000E+02  0.51100000000E-03 0. -1.
    9900012    2    1    2    0    0 -0.76526283605E+00  0.16288922970E+01 -0.18639702220E+02  0.72461617109E+02  0.70000060985E+02 0.  0.
        -12    1    1    2    0    0  0.76526283605E+00 -0.16288922970E+01  0.18639702220E+02  0.18726382891E+02  0.00000000000E+00 0.  1.
         11    1    3    3    0    0 -0.14384956345E+02 -0.21545428724E+02 -0.23171849948E+01  0.26009648489E+02  0.51100000000E-03 0. -1.
        -11    1    3    3    0    0  0.21028736170E+01 -0.13143011598E+01  0.90333892874E+01  0.93675817193E+01  0.51100000000E-03 0.  1.
         12    1    3    3    0    0  0.11516819892E+02  0.24488622181E+02 -0.25355906513E+02  0.37084386901E+02  0.00000000000E+00 0. -1.
</event>
<event>
 7    1  0.1749439E-013  0.7246159E+02  0.7816164E-02  0.1226708E+00
        -11   -1    0    0    0    0  0.00000000000E+00  0.00000000000E+00  0.45593999997E+02  0.45594000000E+02  0.51100000000E-03 0.  1.
         11   -1    0    0    0    0 -0.00000000000E+00 -0.00000000000E+00 -0.45593999997E+02  0.45594000000E+02  0.51100000000E-03 0. -1.
    9900012    2    1    2    0    0  0.11873672067E+02  0.11253753979E+02 -0.91130407017E+01  0.72461586094E+02  0.70000020581E+02 0.  0.
        -12    1    1    2    0    0 -0.11873672067E+02 -0.11253753979E+02  0.91130407017E+01  0.18726413906E+02  0.00000000000E+00 0.  1.
         11    1    3    3    0    0 -0.16136908114E+02  0.66880326754E+01  0.65381004483E+01  0.18651443437E+02  0.51100000000E-03 0. -1.
        -11    1    3    3    0    0 -0.28958014803E+01  0.10794102637E+02  0.85446742864E+01  0.14068040975E+02  0.51100000000E-03 0.  1.
        -12    1    3    3    0    0  0.30906381661E+02 -0.62283813332E+01 -0.24195815437E+02  0.39742101682E+02  0.00000000000E+00 0.  1.
</event>
<event>
 7    1  0.1749439E-013  0.7246167E+02  0.7816164E-02  0.1226708E+00
        -11   -1    0    0    0    0  0.00000000000E+00  0.00000000000E+00  0.45593999997E+02  0.45594000000E+02  0.51100000000E-03 0.  1.
         11   -1    0    0    0    0 -0.00000000000E+00 -0.00000000000E+00 -0.45593999997E+02  0.45594000000E+02  0.51100000000E-03 0. -1.
    9900012    2    1    2    0    0  0.65246218211E+01 -0.15800339284E+02 -0.76455128796E+01  0.72461674183E+02  0.70000135334E+02 0.  0.
        -12    1    1    2    0    0 -0.65246218211E+01  0.15800339284E+02  0.76455128796E+01  0.18726325817E+02  0.00000000000E+00 0.  1.
         11    1    3    3    0    0 -0.11420253127E+02  0.27325507723E+01 -0.94991152457E+01  0.15103714971E+02  0.51100000000E-03 0. -1.
        -11    1    3    3    0    0  0.49331906383E+01  0.17566323589E+02  0.48172043796E+01  0.18871077145E+02  0.51100000000E-03 0.  1.
        -12    1    3    3    0    0  0.13011684310E+02 -0.36099213646E+02 -0.29636020135E+01  0.38486882068E+02  0.00000000000E+00 0.  1.
</event>
<event>
 7    1  0.1749439E-013  0.7246159E+02  0.7816164E-02  0.1226708E+00
        -11   -1    0    0    0    0  0.00000000000E+00  0.00000000000E+00  0.45593999997E+02  0.45594000000E+02  0.51100000000E-03 0. -1.
         11   -1    0    0    0    0 -0.00000000000E+00 -0.00000000000E+00 -0.45593999997E+02  0.45594000000E+02  0.51100000000E-03 0.  1.
    9900012    2    1    2    0    0  0.20397998333E+01 -0.52483979062E+01  0.17859790784E+02  0.72461585746E+02  0.70000020129E+02 0.  0.
        -12    1    1    2    0    0 -0.20397998333E+01  0.52483979062E+01 -0.17859790784E+02  0.18726414254E+02  0.00000000000E+00 0.  1.
         11    1    3    3    0    0  0.84261619158E+01  0.11892624536E+01 -0.49666230569E+00  0.85241552967E+01  0.51100000000E-03 0. -1.
        -11    1    3    3    0    0  0.21314941845E+02 -0.15950690363E+02 -0.42228357926E+01  0.26955214919E+02  0.51100000000E-03 0.  1.
         12    1    3    3    0    0 -0.27701303927E+02  0.95130300033E+01  0.22579288883E+02  0.36982215531E+02  0.00000000000E+00 0. -1.
</event>
<event>
 7    1  0.1749439E-013  0.7246162E+02  0.7816164E-02  0.1226708E+00
        -11   -1    0    0    0    0  0.00000000000E+00  0.00000000000E+00  0.45593999997E+02  0.45594000000E+02  0.51100000000E-03 0.  1.
         11   -1    0    0    0    0 -0.00000000000E+00 -0.00000000000E+00 -0.45593999997E+02  0.45594000000E+02  0.51100000000E-03 0. -1.
    9900012    2    1    2    0    0 -0.29504196282E+01  0.92766980958E+01 -0.15997350946E+02  0.72461619121E+02  0.70000063605E+02 0.  0.
        -12    1    1    2    0    0  0.29504196282E+01 -0.92766980958E+01  0.15997350946E+02  0.18726380879E+02  0.00000000000E+00 0.  1.
         11    1    3    3    0    0 -0.11307165807E+02 -0.37413238443E+01 -0.24954367872E+02  0.27650858556E+02  0.51100000000E-03 0. -1.
        -11    1    3    3    0    0 -0.95801586564E+01 -0.86904336817E+01  0.10424551663E+02  0.16612475887E+02  0.51100000000E-03 0.  1.
        -12    1    3    3    0    0  0.17936904835E+02  0.21708455622E+02 -0.14675347371E+01  0.28198284678E+02  0.00000000000E+00 0.  1.
</event>
<event>
 7    1  0.1749439E-013  0.7246152E+02  0.7816164E-02  0.1226708E+00
        -11   -1    0    0    0    0  0.00000000000E+00  0.00000000000E+00  0.45593999997E+02  0.45594000000E+02  0.51100000000E-03 0.  1.
         11   -1    0    0    0    0 -0.00000000000E+00 -0.00000000000E+00 -0.45593999997E+02  0.45594000000E+02  0.51100000000E-03 0. -1.
    9900012    2    1    2    0    0  0.11332461443E+02 -0.11800451843E+02 -0.91107442831E+01  0.72461521221E+02  0.69999936073E+02 0.  0.
        -12    1    1    2    0    0 -0.11332461443E+02  0.11800451843E+02  0.91107442831E+01  0.18726478779E+02  0.00000000000E+00 0.  1.
         11    1    3    3    0    0  0.97638983496E+01 -0.16555446841E+02 -0.22921719256E+02  0.29913571251E+02  0.51100000000E-03 0. -1.
        -11    1    3    3    0    0  0.12646349355E+02 -0.11652970744E+02  0.14853186393E+02  0.22723094539E+02  0.51100000000E-03 0.  1.
        -12    1    3    3    0    0 -0.11077786261E+02  0.16407965742E+02 -0.10422114203E+01  0.19824855432E+02  0.00000000000E+00 0.  1.
</event>
<event>
 7    1  0.1749439E-013  0.7246156E+02  0.7816164E-02  0.1226708E+00
        -11   -1    0    0    0    0  0.00000000000E+00  0.00000000000E+00  0.45593999997E+02  0.45594000000E+02  0.51100000000E-03 0.  1.
         11   -1    0    0    0    0 -0.00000000000E+00 -0.00000000000E+00 -0.45593999997E+02  0.45594000000E+02  0.51100000000E-03 0. -1.
    9900012    2    1    2    0    0 -0.14422306561E+02 -0.68918257988E+01 -0.97559938474E+01  0.72461558658E+02  0.69999984842E+02 0.  0.
        -12    1    1    2    0    0  0.14422306561E+02  0.68918257988E+01  0.97559938474E+01  0.18726441342E+02  0.00000000000E+00 0.  1.
         11    1    3    3    0    0 -0.18567867545E+02  0.31986692851E+01  0.30516155754E+01  0.19086894673E+02  0.51100000000E-03 0. -1.
        -11    1    3    3    0    0  0.14265831609E+02  0.15216250407E+02  0.41610237681E+01  0.21268811603E+02  0.51100000000E-03 0.  1.
         12    1    3    3    0    0 -0.10120270625E+02 -0.25306745491E+02 -0.16968633191E+02  0.32105852383E+02  0.00000000000E+00 0. -1.
</event>
<event>
 7    1  0.1749439E-013  0.7246156E+02  0.7816164E-02  0.1226708E+00
        -11   -1    0    0    0    0  0.00000000000E+00  0.00000000000E+00  0.45593999997E+02  0.45594000000E+02  0.51100000000E-03 0.  1.
         11   -1    0    0    0    0 -0.00000000000E+00 -0.00000000000E+00 -0.45593999997E+02  0.45594000000E+02  0.51100000000E-03 0. -1.
    9900012    2    1    2    0    0  0.11455613956E+02  0.10170296127E+01 -0.14778843453E+02  0.72461557355E+02  0.69999983144E+02 0.  0.
        -12    1    1    2    0    0 -0.11455613956E+02 -0.10170296127E+01  0.14778843453E+02  0.18726442645E+02  0.00000000000E+00 0.  1.
         11    1    3    3    0    0  0.96303867523E+01 -0.18417829323E+02  0.37394791803E+01  0.21117397822E+02  0.51100000000E-03 0. -1.
        -11    1    3    3    0    0  0.18827141245E+02  0.13850275812E+02  0.27664084715E+01  0.23536023530E+02  0.51100000000E-03 0.  1.
         12    1    3    3    0    0 -0.17001914042E+02  0.55845831239E+01 -0.21284731104E+02  0.27808136003E+02  0.00000000000E+00 0. -1.
</event>
<event>
 7    1  0.1749439E-013  0.7246153E+02  0.7816164E-02  0.1226708E+00
        -11   -1    0    0    0    0  0.00000000000E+00  0.00000000000E+00  0.45593999997E+02  0.45594000000E+02  0.51100000000E-03 0. -1.
         11   -1    0    0    0    0 -0.00000000000E+00 -0.00000000000E+00 -0.45593999997E+02  0.45594000000E+02  0.51100000000E-03 0.  1.
    9900012    2    1    2    0    0 -0.49895641674E+01  0.17235124334E+02  0.53605371996E+01  0.72461531554E+02  0.69999949534E+02 0.  0.
        -12    1    1    2    0    0  0.49895641674E+01 -0.17235124334E+02 -0.53605371996E+01  0.18726468446E+02  0.00000000000E+00 0.  1.
         11    1    3    3    0    0  0.25179728382E+01  0.11024330255E+02 -0.81374114141E+01  0.13931744670E+02  0.51100000000E-03 0. -1.
        -11    1    3    3    0    0 -0.83480449493E+01  0.12467079315E+02 -0.19685364576E+02  0.24751393897E+02  0.51100000000E-03 0.  1.
         12    1    3    3    0    0  0.84050794367E+00 -0.62562852359E+01  0.33183313189E+02  0.33778392987E+02  0.00000000000E+00 0. -1.
</event>
<event>
 7    1  0.1749439E-013  0.7246159E+02  0.7816164E-02  0.1226708E+00
        -11   -1    0    0    0    0  0.00000000000E+00  0.00000000000E+00  0.45593999997E+02  0.45594000000E+02  0.51100000000E-03 0. -1.
         11   -1    0    0    0    0 -0.00000000000E+00 -0.00000000000E+00 -0.45593999997E+02  0.45594000000E+02  0.51100000000E-03 0.  1.
    9900012    2    1    2    0    0 -0.14679858799E+01  0.32557718888E+01  0.18382692422E+02  0.72461590472E+02  0.70000026285E+02 0.  0.
        -12    1    1    2    0    0  0.14679858799E+01 -0.32557718888E+01 -0.18382692422E+02  0.18726409528E+02  0.00000000000E+00 0.  1.
         11    1    3    3    0    0  0.30443107213E+01  0.24363922402E+02  0.16828000132E+02  0.29766594217E+02  0.51100000000E-03 0. -1.
        -11    1    3    3    0    0  0.11529485307E+02 -0.34997603334E+01 -0.10514676732E+02  0.15991741021E+02  0.51100000000E-03 0.  1.
         12    1    3    3    0    0 -0.16041781908E+02 -0.17608390180E+02  0.12069369023E+02  0.26703255234E+02  0.00000000000E+00 0. -1.
</event>
<event>
 7    1  0.1749439E-013  0.7246152E+02  0.7816164E-02  0.1226708E+00
        -11   -1    0    0    0    0  0.00000000000E+00  0.00000000000E+00  0.45593999997E+02  0.45594000000E+02  0.51100000000E-03 0.  1.
         11   -1    0    0    0    0 -0.00000000000E+00 -0.00000000000E+00 -0.45593999997E+02  0.45594000000E+02  0.51100000000E-03 0. -1.
    9900012    2    1    2    0    0  0.13305825361E+02  0.50168204649E+01 -0.12184734859E+02  0.72461515020E+02  0.69999927995E+02 0.  0.
        -12    1    1    2    0    0 -0.13305825361E+02 -0.50168204649E+01  0.12184734859E+02  0.18726484980E+02  0.00000000000E+00 0.  1.
         11    1    3    3    0    0  0.74459866008E+01 -0.83733672178E+01 -0.19584330898E+01  0.11375036503E+02  0.51100000000E-03 0. -1.
        -11    1    3    3    0    0 -0.66256190231E+01 -0.17926083965E+02 -0.18256410000E+02  0.26429903899E+02  0.51100000000E-03 0.  1.
         12    1    3    3    0    0  0.12485457783E+02  0.31316271648E+02  0.80301082308E+01  0.34656574617E+02  0.00000000000E+00 0. -1.
</event>
<event>
 7    1  0.1749439E-013  0.7246157E+02  0.7816164E-02  0.1226708E+00
        -11   -1    0    0    0    0  0.00000000000E+00  0.00000000000E+00  0.45593999997E+02  0.45594000000E+02  0.51100000000E-03 0.  1.
         11   -1    0    0    0    0 -0.00000000000E+00 -0.00000000000E+00 -0.45593999997E+02  0.45594000000E+02  0.51100000000E-03 0. -1.
    9900012    2    1    2    0    0  0.11043631826E+02 -0.91237634221E+01 -0.12061277563E+02  0.72461567362E+02  0.69999996180E+02 0.  0.
        -12    1    1    2    0    0 -0.11043631826E+02  0.91237634221E+01  0.12061277563E+02  0.18726432638E+02  0.00000000000E+00 0.  1.
         11    1    3    3    0    0 -0.14903767659E+02 -0.27245402305E+02 -0.13862808336E+02  0.34008994287E+02  0.51100000000E-03 0. -1.
        -11    1    3    3    0    0  0.64170402501E+01  0.17306937298E+02 -0.19070267260E+01  0.18556541580E+02  0.51100000000E-03 0.  1.
        -12    1    3    3    0    0  0.19530359235E+02  0.81470158482E+00  0.37085574993E+01  0.19896031495E+02  0.00000000000E+00 0.  1.
</event>
<event>
 7    1  0.1749439E-013  0.7246162E+02  0.7816164E-02  0.1226708E+00
        -11   -1    0    0    0    0  0.00000000000E+00  0.00000000000E+00  0.45593999997E+02  0.45594000000E+02  0.51100000000E-03 0.  1.
         11   -1    0    0    0    0 -0.00000000000E+00 -0.00000000000E+00 -0.45593999997E+02  0.45594000000E+02  0.51100000000E-03 0. -1.
    9900012    2    1    2    0    0  0.84806596713E-01 -0.34909952704E+01 -0.18397909435E+02  0.72461619899E+02  0.70000064619E+02 0.  0.
        -12    1    1    2    0    0 -0.84806596713E-01  0.34909952704E+01  0.18397909435E+02  0.18726380101E+02  0.00000000000E+00 0.  1.
         11    1    3    3    0    0  0.18048748991E+02  0.14561011528E+02 -0.53570290138E+01  0.23800801604E+02  0.51100000000E-03 0. -1.
        -11    1    3    3    0    0  0.45361458113E+01  0.78526626274E+01  0.45016574097E+01  0.10124517216E+02  0.51100000000E-03 0.  1.
        -12    1    3    3    0    0 -0.22500088205E+02 -0.25904669426E+02 -0.17542537831E+02  0.38536301079E+02  0.00000000000E+00 0.  1.
</event>
<event>
 7    1  0.1749439E-013  0.7246155E+02  0.7816164E-02  0.1226708E+00
        -11   -1    0    0    0    0  0.00000000000E+00  0.00000000000E+00  0.45593999997E+02  0.45594000000E+02  0.51100000000E-03 0.  1.
         11   -1    0    0    0    0 -0.00000000000E+00 -0.00000000000E+00 -0.45593999997E+02  0.45594000000E+02  0.51100000000E-03 0. -1.
    9900012    2    1    2    0    0 -0.71427008013E+01  0.10182219411E+02 -0.13999437378E+02  0.72461547753E+02  0.69999970635E+02 0.  0.
        -12    1    1    2    0    0  0.71427008013E+01 -0.10182219411E+02  0.13999437378E+02  0.18726452247E+02  0.00000000000E+00 0.  1.
         11    1    3    3    0    0 -0.25017553616E+01  0.21108751969E+01 -0.12861170191E+01  0.35169121732E+01  0.51100000000E-03 0. -1.
        -11    1    3    3    0    0 -0.17780050512E+02 -0.10348381088E+02  0.20313359051E+02  0.28911100698E+02  0.51100000000E-03 0.  1.
        -12    1    3    3    0    0  0.13139105073E+02  0.18419725302E+02 -0.33026679410E+02  0.40033534882E+02  0.00000000000E+00 0.  1.
</event>
<event>
 7    1  0.1749439E-013  0.7246156E+02  0.7816164E-02  0.1226708E+00
        -11   -1    0    0    0    0  0.00000000000E+00  0.00000000000E+00  0.45593999997E+02  0.45594000000E+02  0.51100000000E-03 0.  1.
         11   -1    0    0    0    0 -0.00000000000E+00 -0.00000000000E+00 -0.45593999997E+02  0.45594000000E+02  0.51100000000E-03 0. -1.
    9900012    2    1    2    0    0 -0.23777926993E+01 -0.13527788897E+02  0.12728881063E+02  0.72461564577E+02  0.69999992552E+02 0.  0.
        -12    1    1    2    0    0  0.23777926993E+01  0.13527788897E+02 -0.12728881063E+02  0.18726435423E+02  0.00000000000E+00 0.  1.
         11    1    3    3    0    0 -0.44333359734E+01 -0.64401420824E+01  0.13743812188E+02  0.15812092576E+02  0.51100000000E-03 0. -1.
        -11    1    3    3    0    0  0.69699061671E+01 -0.21503740484E+02  0.20347139906E+02  0.30413755924E+02  0.51100000000E-03 0.  1.
         12    1    3    3    0    0 -0.49143628930E+01  0.14416093670E+02 -0.21362071031E+02  0.26235716077E+02  0.00000000000E+00 0. -1.
</event>
<event>
 7    1  0.1749439E-013  0.7246156E+02  0.7816164E-02  0.1226708E+00
        -11   -1    0    0    0    0  0.00000000000E+00  0.00000000000E+00  0.45593999997E+02  0.45594000000E+02  0.51100000000E-03 0. -1.
         11   -1    0    0    0    0 -0.00000000000E+00 -0.00000000000E+00 -0.45593999997E+02  0.45594000000E+02  0.51100000000E-03 0.  1.
    9900012    2    1    2    0    0  0.48755001566E+01  0.57163903720E+01  0.17153191713E+02  0.72461558624E+02  0.69999984798E+02 0.  0.
        -12    1    1    2    0    0 -0.48755001566E+01 -0.57163903720E+01 -0.17153191713E+02  0.18726441376E+02  0.00000000000E+00 0.  1.
         11    1    3    3    0    0 -0.65054395510E+01 -0.19889754558E+02  0.26351770371E+02  0.33650243418E+02  0.51100000000E-03 0.  1.
        -11    1    3    3    0    0  0.80214220650E+00 -0.11988584462E+01 -0.98815025189E+01  0.99862298184E+01  0.51100000000E-03 0. -1.
         12    1    3    3    0    0  0.10578797501E+02  0.26805003377E+02  0.68292386023E+00  0.28825085387E+02  0.00000000000E+00 0. -1.
</event>
<event>
 7    1  0.1749439E-013  0.7246160E+02  0.7816164E-02  0.1226708E+00
        -11   -1    0    0    0    0  0.00000000000E+00  0.00000000000E+00  0.45593999997E+02  0.45594000000E+02  0.51100000000E-03 0. -1.
         11   -1    0    0    0    0 -0.00000000000E+00 -0.00000000000E+00 -0.45593999997E+02  0.45594000000E+02  0.51100000000E-03 0.  1.
    9900012    2    1    2    0    0  0.56562784961E+01 -0.91306187433E+01  0.15340025161E+02  0.72461599999E+02  0.70000038696E+02 0.  0.
        -12    1    1    2    0    0 -0.56562784961E+01  0.91306187433E+01 -0.15340025161E+02  0.18726400001E+02  0.00000000000E+00 0.  1.
         11    1    3    3    0    0 -0.22893728343E+01 -0.98642214775E+01  0.21813153041E+02  0.24049069404E+02  0.51100000000E-03 0. -1.
        -11    1    3    3    0    0 -0.37115261207E+00 -0.12301621333E+01  0.20283626865E+02  0.20324285282E+02  0.51100000000E-03 0.  1.
        -12    1    3    3    0    0  0.83168039424E+01  0.19637648674E+01 -0.26756754746E+02  0.28088245314E+02  0.00000000000E+00 0.  1.
</event>
<event>
 7    1  0.1749439E-013  0.7246156E+02  0.7816164E-02  0.1226708E+00
        -11   -1    0    0    0    0  0.00000000000E+00  0.00000000000E+00  0.45593999997E+02  0.45594000000E+02  0.51100000000E-03 0. -1.
         11   -1    0    0    0    0 -0.00000000000E+00 -0.00000000000E+00 -0.45593999997E+02  0.45594000000E+02  0.51100000000E-03 0.  1.
    9900012    2    1    2    0    0  0.17178392665E+02 -0.49912471822E+01  0.55380375488E+01  0.72461559257E+02  0.69999985622E+02 0.  0.
        -12    1    1    2    0    0 -0.17178392665E+02  0.49912471822E+01 -0.55380375488E+01  0.18726440743E+02  0.00000000000E+00 0.  1.
         11    1    3    3    0    0  0.15941357204E+02 -0.16882733318E+02  0.14648554289E+02  0.27454210912E+02  0.51100000000E-03 0. -1.
        -11    1    3    3    0    0 -0.15406964100E+02 -0.78918325222E+00  0.85397150206E+01  0.17633039610E+02  0.51100000000E-03 0.  1.
        -12    1    3    3    0    0  0.16643999562E+02  0.12680669388E+02 -0.17650231760E+02  0.27374308735E+02  0.00000000000E+00 0.  1.
</event>
<event>
 7    1  0.1749439E-013  0.7246158E+02  0.7816164E-02  0.1226708E+00
        -11   -1    0    0    0    0  0.00000000000E+00  0.00000000000E+00  0.45593999997E+02  0.45594000000E+02  0.51100000000E-03 0. -1.
         11   -1    0    0    0    0 -0.00000000000E+00 -0.00000000000E+00 -0.45593999997E+02  0.45594000000E+02  0.51100000000E-03 0.  1.
    9900012    2    1    2    0    0 -0.67927002060E+01  0.73462123592E+01  0.15829440610E+02  0.72461580103E+02  0.70000012778E+02 0.  0.
        -12    1    1    2    0    0  0.67927002060E+01 -0.73462123592E+01 -0.15829440610E+02  0.18726419897E+02  0.00000000000E+00 0.  1.
         11    1    3    3    0    0 -0.61899935880E+01 -0.20886492048E+02  0.54304281731E+01  0.22451082849E+02  0.51100000000E-03 0. -1.
        -11    1    3    3    0    0 -0.12926574384E+02 -0.46689569241E+01  0.38309593127E+01  0.14267856657E+02  0.51100000000E-03 0.  1.
         12    1    3    3    0    0  0.12323867766E+02  0.32901661331E+02  0.65680531243E+01  0.35742640598E+02  0.00000000000E+00 0. -1.
</event>
<event>
 7    1  0.1749439E-013  0.7246154E+02  0.7816164E-02  0.1226708E+00
        -11   -1    0    0    0    0  0.00000000000E+00  0.00000000000E+00  0.45593999997E+02  0.45594000000E+02  0.51100000000E-03 0. -1.
         11   -1    0    0    0    0 -0.00000000000E+00 -0.00000000000E+00 -0.45593999997E+02  0.45594000000E+02  0.51100000000E-03 0.  1.
    9900012    2    1    2    0    0  0.18245819394E+02 -0.30784468709E+01 -0.28798423877E+01  0.72461541374E+02  0.69999962326E+02 0.  0.
        -12    1    1    2    0    0 -0.18245819394E+02  0.30784468709E+01  0.28798423877E+01  0.18726458626E+02  0.00000000000E+00 0.  1.
         11    1    3    3    0    0  0.90811272905E+01  0.28195162858E+02  0.66225239225E+01  0.30352790725E+02  0.51100000000E-03 0. -1.
        -11    1    3    3    0    0 -0.45745428247E+01 -0.13956873696E+02  0.51774239679E+01  0.15573261849E+02  0.51100000000E-03 0.  1.
        -12    1    3    3    0    0  0.13739234928E+02 -0.17316736033E+02 -0.14679790278E+02  0.26535488800E+02  0.00000000000E+00 0.  1.
</event>
<event>
 7    1  0.1749439E-013  0.7246120E+02  0.7816164E-02  0.1226709E+00
        -11   -1    0    0    0    0  0.00000000000E+00  0.00000000000E+00  0.45593999997E+02  0.45594000000E+02  0.51100000000E-03 0. -1.
         11   -1    0    0    0    0 -0.00000000000E+00 -0.00000000000E+00 -0.45593999997E+02  0.45594000000E+02  0.51100000000E-03 0.  1.
    9900012    2    1    2    0    0  0.68912249056E+01 -0.67183483318E+01  0.16064486598E+02  0.72461203299E+02  0.69999521919E+02 0.  0.
        -12    1    1    2    0    0 -0.68912249056E+01  0.67183483318E+01 -0.16064486598E+02  0.18726796701E+02  0.00000000000E+00 0.  1.
         11    1    3    3    0    0 -0.64661033861E+01  0.10436481850E+02  0.72101297989E+01  0.14237858631E+02  0.51100000000E-03 0. -1.
        -11    1    3    3    0    0  0.21373969155E+02  0.66399165762E+00 -0.15928306319E+02  0.26664552965E+02  0.51100000000E-03 0.  1.
         12    1    3    3    0    0 -0.80166408634E+01 -0.17818821840E+02  0.24782663119E+02  0.31558791703E+02  0.00000000000E+00 0. -1.
</event>
<event>
 7    1  0.1749439E-013  0.7246156E+02  0.7816164E-02  0.1226708E+00
        -11   -1    0    0    0    0  0.00000000000E+00  0.00000000000E+00  0.45593999997E+02  0.45594000000E+02  0.51100000000E-03 0.  1.
         11   -1    0    0    0    0 -0.00000000000E+00 -0.00000000000E+00 -0.45593999997E+02  0.45594000000E+02  0.51100000000E-03 0. -1.
    9900012    2    1    2    0    0  0.10915310358E+02 -0.13326533004E+02 -0.73443347449E+01  0.72461555197E+02  0.69999980333E+02 0.  0.
        -12    1    1    2    0    0 -0.10915310358E+02  0.13326533004E+02  0.73443347449E+01  0.18726444803E+02  0.00000000000E+00 0.  1.
         11    1    3    3    0    0 -0.61267510907E+01  0.36500932393E+01  0.43435426971E+01  0.83502468829E+01  0.51100000000E-03 0. -1.
        -11    1    3    3    0    0 -0.11226177757E+02 -0.26884658234E+02  0.53927640170E+01  0.29629273015E+02  0.51100000000E-03 0.  1.
         12    1    3    3    0    0  0.28268239206E+02  0.99080319908E+01 -0.17080641459E+02  0.34482035299E+02  0.00000000000E+00 0. -1.
</event>
<event>
 7    1  0.1749439E-013  0.7246148E+02  0.7816164E-02  0.1226708E+00
        -11   -1    0    0    0    0  0.00000000000E+00  0.00000000000E+00  0.45593999997E+02  0.45594000000E+02  0.51100000000E-03 0. -1.
         11   -1    0    0    0    0 -0.00000000000E+00 -0.00000000000E+00 -0.45593999997E+02  0.45594000000E+02  0.51100000000E-03 0.  1.
    9900012    2    1    2    0    0 -0.13534355494E+02 -0.38958293469E-01  0.12942270120E+02  0.72461477305E+02  0.69999878863E+02 0.  0.
        -12    1    1    2    0    0  0.13534355494E+02  0.38958293469E-01 -0.12942270120E+02  0.18726522695E+02  0.00000000000E+00 0.  1.
         11    1    3    3    0    0 -0.94767549102E+01 -0.24482240525E+02  0.46095109850E+00  0.26256455605E+02  0.51100000000E-03 0. -1.
        -11    1    3    3    0    0  0.95948502331E+01  0.27892858566E+01 -0.84908833711E+01  0.13112450849E+02  0.51100000000E-03 0.  1.
        -12    1    3    3    0    0 -0.13652450817E+02  0.21653996375E+02  0.20972202393E+02  0.33092570851E+02  0.00000000000E+00 0.  1.
</event>
<event>
 7    1  0.1749439E-013  0.7246156E+02  0.7816164E-02  0.1226708E+00
        -11   -1    0    0    0    0  0.00000000000E+00  0.00000000000E+00  0.45593999997E+02  0.45594000000E+02  0.51100000000E-03 0.  1.
         11   -1    0    0    0    0 -0.00000000000E+00 -0.00000000000E+00 -0.45593999997E+02  0.45594000000E+02  0.51100000000E-03 0. -1.
    9900012    2    1    2    0    0 -0.71021115597E+01 -0.15501173024E+02  0.77429349453E+01  0.72461564266E+02  0.69999992148E+02 0.  0.
        -12    1    1    2    0    0  0.71021115597E+01  0.15501173024E+02 -0.77429349453E+01  0.18726435734E+02  0.00000000000E+00 0.  1.
         11    1    3    3    0    0  0.47013415870E+01 -0.86293336708E+01 -0.15565062176E+02  0.18407584663E+02  0.51100000000E-03 0. -1.
        -11    1    3    3    0    0 -0.15003884786E+02  0.50942364805E+01 -0.98504921464E+01  0.18657438189E+02  0.51100000000E-03 0.  1.
        -12    1    3    3    0    0  0.32004316394E+01 -0.11966075833E+02  0.33158489268E+02  0.35396541414E+02  0.00000000000E+00 0.  1.
</event>
<event>
 7    1  0.1749439E-013  0.7246161E+02  0.7816164E-02  0.1226708E+00
        -11   -1    0    0    0    0  0.00000000000E+00  0.00000000000E+00  0.45593999997E+02  0.45594000000E+02  0.51100000000E-03 0. -1.
         11   -1    0    0    0    0 -0.00000000000E+00 -0.00000000000E+00 -0.45593999997E+02  0.45594000000E+02  0.51100000000E-03 0.  1.
    9900012    2    1    2    0    0 -0.26698968423E+01 -0.65176789511E+01  0.17351348366E+02  0.72461607443E+02  0.70000048393E+02 0.  0.
        -12    1    1    2    0    0  0.26698968423E+01  0.65176789511E+01 -0.17351348366E+02  0.18726392557E+02  0.00000000000E+00 0.  1.
         11    1    3    3    0    0 -0.21418167302E+02  0.11790845028E+01  0.46206571011E+01  0.21942620699E+02  0.51100000000E-03 0. -1.
        -11    1    3    3    0    0 -0.44585703628E+01 -0.40977542042E+01 -0.13810422351E+02  0.15079728279E+02  0.51100000000E-03 0.  1.
        -12    1    3    3    0    0  0.23206840822E+02 -0.35990092497E+01  0.26541113616E+02  0.35439258465E+02  0.00000000000E+00 0.  1.
</event>
<event>
 7    1  0.1749439E-013  0.7246157E+02  0.7816164E-02  0.1226708E+00
        -11   -1    0    0    0    0  0.00000000000E+00  0.00000000000E+00  0.45593999997E+02  0.45594000000E+02  0.51100000000E-03 0.  1.
         11   -1    0    0    0    0 -0.00000000000E+00 -0.00000000000E+00 -0.45593999997E+02  0.45594000000E+02  0.51100000000E-03 0. -1.
    9900012    2    1    2    0    0  0.15434955060E+02  0.33016189067E+01 -0.10076744069E+02  0.72461566914E+02  0.69999995596E+02 0.  0.
        -12    1    1    2    0    0 -0.15434955060E+02 -0.33016189067E+01  0.10076744069E+02  0.18726433086E+02  0.00000000000E+00 0.  1.
         11    1    3    3    0    0  0.11963201072E+01  0.20480976906E+01  0.24219225326E+01  0.33899255101E+01  0.51100000000E-03 0. -1.
        -11    1    3    3    0    0 -0.17176810029E+02  0.17914081126E+02 -0.20998636280E+02  0.32509995866E+02  0.51100000000E-03 0.  1.
         12    1    3    3    0    0  0.31415444981E+02 -0.16660559910E+02  0.84999696784E+01  0.36561645537E+02  0.00000000000E+00 0. -1.
</event>
<event>
 7    1  0.1749439E-013  0.7246160E+02  0.7816164E-02  0.1226708E+00
        -11   -1    0    0    0    0  0.00000000000E+00  0.00000000000E+00  0.45593999997E+02  0.45594000000E+02  0.51100000000E-03 0.  1.
         11   -1    0    0    0    0 -0.00000000000E+00 -0.00000000000E+00 -0.45593999997E+02  0.45594000000E+02  0.51100000000E-03 0. -1.
    9900012    2    1    2    0    0 -0.10129099460E+02  0.15574253266E+02  0.23499240694E+01  0.72461597148E+02  0.70000034981E+02 0.  0.
        -12    1    1    2    0    0  0.10129099460E+02 -0.15574253266E+02 -0.23499240694E+01  0.18726402852E+02  0.00000000000E+00 0.  1.
         11    1    3    3    0    0  0.71126667324E+01  0.91697679838E+01 -0.18690566221E+02  0.22000271336E+02  0.51100000000E-03 0. -1.
        -11    1    3    3    0    0 -0.10516551008E+02  0.78619935011E+01 -0.11345048038E+02  0.17352777938E+02  0.51100000000E-03 0.  1.
        -12    1    3    3    0    0 -0.67252151847E+01 -0.14575082192E+01  0.32385538329E+02  0.33108547874E+02  0.00000000000E+00 0.  1.
</event>
<event>
 7    1  0.1749439E-013  0.7246089E+02  0.7816164E-02  0.1226710E+00
        -11   -1    0    0    0    0  0.00000000000E+00  0.00000000000E+00  0.45593999997E+02  0.45594000000E+02  0.51100000000E-03 0. -1.
         11   -1    0    0    0    0 -0.00000000000E+00 -0.00000000000E+00 -0.45593999997E+02  0.45594000000E+02  0.51100000000E-03 0.  1.
    9900012    2    1    2    0    0 -0.59068038956E+01  0.31581364688E-01  0.17771139657E+02  0.72460887720E+02  0.69999110815E+02 0.  0.
        -12    1    1    2    0    0  0.59068038956E+01 -0.31581364688E-01 -0.17771139657E+02  0.18727112280E+02  0.00000000000E+00 0.  1.
         11    1    3    3    0    0 -0.32061322682E+00 -0.32103856362E+01  0.10837784927E+02  0.11307826986E+02  0.51100000000E-03 0. -1.
        -11    1    3    3    0    0  0.24260155867E+02 -0.11702118484E+02 -0.57194019950E+00  0.26941081187E+02  0.51100000000E-03 0.  1.
         12    1    3    3    0    0 -0.29846346535E+02  0.14944085485E+02  0.75052949293E+01  0.34211979546E+02  0.00000000000E+00 0. -1.
</event>
<event>
 7    1  0.1749439E-013  0.7246157E+02  0.7816164E-02  0.1226708E+00
        -11   -1    0    0    0    0  0.00000000000E+00  0.00000000000E+00  0.45593999997E+02  0.45594000000E+02  0.51100000000E-03 0. -1.
         11   -1    0    0    0    0 -0.00000000000E+00 -0.00000000000E+00 -0.45593999997E+02  0.45594000000E+02  0.51100000000E-03 0.  1.
    9900012    2    1    2    0    0 -0.94408738660E+00  0.26182375392E+00  0.18700784344E+02  0.72461569808E+02  0.69999999366E+02 0.  0.
        -12    1    1    2    0    0  0.94408738660E+00 -0.26182375392E+00 -0.18700784344E+02  0.18726430192E+02  0.00000000000E+00 0.  1.
         11    1    3    3    0    0  0.13344334274E+02 -0.16761423991E+02 -0.10018703860E+02  0.23651448554E+02  0.51100000000E-03 0. -1.
        -11    1    3    3    0    0 -0.63204020395E+01 -0.87422091390E+01  0.22466486605E+01  0.11019125784E+02  0.51100000000E-03 0.  1.
         12    1    3    3    0    0 -0.79680196207E+01  0.25765456884E+02  0.26472839543E+02  0.37790995470E+02  0.00000000000E+00 0. -1.
</event>
<event>
 7    1  0.1749439E-013  0.7246165E+02  0.7816164E-02  0.1226708E+00
        -11   -1    0    0    0    0  0.00000000000E+00  0.00000000000E+00  0.45593999997E+02  0.45594000000E+02  0.51100000000E-03 0. -1.
         11   -1    0    0    0    0 -0.00000000000E+00 -0.00000000000E+00 -0.45593999997E+02  0.45594000000E+02  0.51100000000E-03 0.  1.
    9900012    2    1    2    0    0  0.11759139013E+02 -0.82521708363E+01  0.12012508439E+02  0.72461654044E+02  0.70000109100E+02 0.  0.
        -12    1    1    2    0    0 -0.11759139013E+02  0.82521708363E+01 -0.12012508439E+02  0.18726345956E+02  0.00000000000E+00 0.  1.
         11    1    3    3    0    0  0.14138032150E+02  0.13004756843E+01  0.24608641365E+02  0.28410568811E+02  0.51100000000E-03 0. -1.
        -11    1    3    3    0    0  0.16100400885E+02  0.56210847294E+01 -0.10549809653E+02  0.20052879747E+02  0.51100000000E-03 0.  1.
         12    1    3    3    0    0 -0.18479294022E+02 -0.15173731250E+02 -0.20463232725E+01  0.23998205486E+02  0.00000000000E+00 0. -1.
</event>
<event>
 7    1  0.1749439E-013  0.7246158E+02  0.7816164E-02  0.1226708E+00
        -11   -1    0    0    0    0  0.00000000000E+00  0.00000000000E+00  0.45593999997E+02  0.45594000000E+02  0.51100000000E-03 0.  1.
         11   -1    0    0    0    0 -0.00000000000E+00 -0.00000000000E+00 -0.45593999997E+02  0.45594000000E+02  0.51100000000E-03 0. -1.
    9900012    2    1    2    0    0  0.17011519904E+02 -0.74964573193E+01 -0.22561358860E+01  0.72461579335E+02  0.70000011777E+02 0.  0.
        -12    1    1    2    0    0 -0.17011519904E+02  0.74964573193E+01  0.22561358860E+01  0.18726420665E+02  0.00000000000E+00 0.  1.
         11    1    3    3    0    0  0.19186514110E+02 -0.20914538548E+02 -0.12180806179E+02  0.30885470464E+02  0.51100000000E-03 0. -1.
        -11    1    3    3    0    0  0.15369611736E+02  0.98303448739E+01  0.14254066662E+02  0.23152517399E+02  0.51100000000E-03 0.  1.
        -12    1    3    3    0    0 -0.17544605942E+02  0.35877363545E+01 -0.43293963682E+01  0.18423591472E+02  0.00000000000E+00 0.  1.
</event>
<event>
 7    1  0.1749439E-013  0.7246156E+02  0.7816164E-02  0.1226708E+00
        -11   -1    0    0    0    0  0.00000000000E+00  0.00000000000E+00  0.45593999997E+02  0.45594000000E+02  0.51100000000E-03 0.  1.
         11   -1    0    0    0    0 -0.00000000000E+00 -0.00000000000E+00 -0.45593999997E+02  0.45594000000E+02  0.51100000000E-03 0. -1.
    9900012    2    1    2    0    0 -0.45122644277E+01  0.15348111660E+02 -0.97341942983E+01  0.72461558789E+02  0.69999985012E+02 0.  0.
        -12    1    1    2    0    0  0.45122644277E+01 -0.15348111660E+02  0.97341942983E+01  0.18726441211E+02  0.00000000000E+00 0.  1.
         11    1    3    3    0    0 -0.12680510732E+02  0.62795800777E+01 -0.18658492971E+02  0.23417255146E+02  0.51100000000E-03 0. -1.
        -11    1    3    3    0    0 -0.17907623377E+02 -0.27071501826E+01 -0.24076795236E+01  0.18270428513E+02  0.51100000000E-03 0.  1.
        -12    1    3    3    0    0  0.26075869681E+02  0.11775681765E+02  0.11331978196E+02  0.30773875130E+02  0.00000000000E+00 0.  1.
</event>
<event>
 7    1  0.1749439E-013  0.7246190E+02  0.7816164E-02  0.1226707E+00
        -11   -1    0    0    0    0  0.00000000000E+00  0.00000000000E+00  0.45593999997E+02  0.45594000000E+02  0.51100000000E-03 0.  1.
         11   -1    0    0    0    0 -0.00000000000E+00 -0.00000000000E+00 -0.45593999997E+02  0.45594000000E+02  0.51100000000E-03 0. -1.
    9900012    2    1    2    0    0 -0.12834889171E+02  0.13140109438E+02 -0.36428186938E+01  0.72461895650E+02  0.70000423835E+02 0.  0.
        -12    1    1    2    0    0  0.12834889171E+02 -0.13140109438E+02  0.36428186938E+01  0.18726104350E+02  0.00000000000E+00 0.  1.
         11    1    3    3    0    0  0.19321386473E+02  0.39992979774E+01 -0.99405708989E+01  0.22093558102E+02  0.51100000000E-03 0. -1.
        -11    1    3    3    0    0  0.61371287546E+01 -0.60286318289E+01 -0.52360584899E+00  0.86187536469E+01  0.51100000000E-03 0.  1.
        -12    1    3    3    0    0 -0.38293404399E+02  0.15169443290E+02  0.68213580541E+01  0.41749583901E+02  0.00000000000E+00 0.  1.
</event>
<event>
 7    1  0.1749439E-013  0.7246156E+02  0.7816164E-02  0.1226708E+00
        -11   -1    0    0    0    0  0.00000000000E+00  0.00000000000E+00  0.45593999997E+02  0.45594000000E+02  0.51100000000E-03 0. -1.
         11   -1    0    0    0    0 -0.00000000000E+00 -0.00000000000E+00 -0.45593999997E+02  0.45594000000E+02  0.51100000000E-03 0.  1.
    9900012    2    1    2    0    0  0.18265244315E+02  0.30964236801E+01  0.27336301189E+01  0.72461555513E+02  0.69999980744E+02 0.  0.
        -12    1    1    2    0    0 -0.18265244315E+02 -0.30964236801E+01 -0.27336301189E+01  0.18726444487E+02  0.00000000000E+00 0.  1.
         11    1    3    3    0    0  0.17193382296E+01  0.53160447849E+01  0.11810325192E+02  0.13065230098E+02  0.51100000000E-03 0. -1.
        -11    1    3    3    0    0 -0.57543161213E+00 -0.25793371758E+02  0.61492016643E+01  0.26522477817E+02  0.51100000000E-03 0.  1.
         12    1    3    3    0    0  0.17121337698E+02  0.23573750653E+02 -0.15225896737E+02  0.32873847598E+02  0.00000000000E+00 0. -1.
</event>
<event>
 7    1  0.1749439E-013  0.7246158E+02  0.7816164E-02  0.1226708E+00
        -11   -1    0    0    0    0  0.00000000000E+00  0.00000000000E+00  0.45593999997E+02  0.45594000000E+02  0.51100000000E-03 0. -1.
         11   -1    0    0    0    0 -0.00000000000E+00 -0.00000000000E+00 -0.45593999997E+02  0.45594000000E+02  0.51100000000E-03 0.  1.
    9900012    2    1    2    0    0 -0.97147794664E+01  0.15726422958E+02 -0.29969404395E+01  0.72461575592E+02  0.70000006901E+02 0.  0.
        -12    1    1    2    0    0  0.97147794664E+01 -0.15726422958E+02  0.29969404395E+01  0.18726424408E+02  0.00000000000E+00 0.  1.
         11    1    3    3    0    0 -0.22238785290E+02  0.29574652603E+01  0.21188456999E+02  0.30858724572E+02  0.51100000000E-03 0. -1.
        -11    1    3    3    0    0 -0.59821689134E+01  0.10244325559E+02 -0.11088018463E+01  0.11914780437E+02  0.51100000000E-03 0.  1.
        -12    1    3    3    0    0  0.18506174737E+02  0.25246321387E+01 -0.23076595592E+02  0.29688070583E+02  0.00000000000E+00 0.  1.
</event>
<event>
 7    1  0.1749439E-013  0.7246157E+02  0.7816164E-02  0.1226708E+00
        -11   -1    0    0    0    0  0.00000000000E+00  0.00000000000E+00  0.45593999997E+02  0.45594000000E+02  0.51100000000E-03 0. -1.
         11   -1    0    0    0    0 -0.00000000000E+00 -0.00000000000E+00 -0.45593999997E+02  0.45594000000E+02  0.51100000000E-03 0.  1.
    9900012    2    1    2    0    0  0.76796517036E+00  0.13610497309E+02  0.12839148077E+02  0.72461571327E+02  0.70000001346E+02 0.  0.
        -12    1    1    2    0    0 -0.76796517036E+00 -0.13610497309E+02 -0.12839148077E+02  0.18726428673E+02  0.00000000000E+00 0.  1.
         11    1    3    3    0    0 -0.47305384572E+01 -0.24847950205E+01 -0.51930367978E+01  0.74511631195E+01  0.51100000000E-03 0. -1.
        -11    1    3    3    0    0  0.30125538131E+02  0.21568219820E+02  0.82879960113E+01  0.37966130064E+02  0.51100000000E-03 0.  1.
         12    1    3    3    0    0 -0.24627034503E+02 -0.54729274903E+01  0.97441888634E+01  0.27044278144E+02  0.00000000000E+00 0. -1.
</event>
<event>
 7    1  0.1749439E-013  0.7246161E+02  0.7816164E-02  0.1226708E+00
        -11   -1    0    0    0    0  0.00000000000E+00  0.00000000000E+00  0.45593999997E+02  0.45594000000E+02  0.51100000000E-03 0.  1.
         11   -1    0    0    0    0 -0.00000000000E+00 -0.00000000000E+00 -0.45593999997E+02  0.45594000000E+02  0.51100000000E-03 0. -1.
    9900012    2    1    2    0    0  0.50400208034E+01 -0.46331888051E-01 -0.18035341745E+02  0.72461614652E+02  0.70000057784E+02 0.  0.
        -12    1    1    2    0    0 -0.50400208034E+01  0.46331888051E-01  0.18035341745E+02  0.18726385348E+02  0.00000000000E+00 0.  1.
         11    1    3    3    0    0 -0.18582222342E+01  0.17018215349E+01 -0.59635741709E+01  0.64740561908E+01  0.51100000000E-03 0. -1.
        -11    1    3    3    0    0 -0.98219442516E+01 -0.29741185848E+02 -0.30360484054E+00  0.31322530241E+02  0.51100000000E-03 0.  1.
         12    1    3    3    0    0  0.16720187289E+02  0.27993032425E+02 -0.11768162734E+02  0.34665028220E+02  0.00000000000E+00 0. -1.
</event>
<event>
 7    1  0.1749439E-013  0.7246164E+02  0.7816164E-02  0.1226708E+00
        -11   -1    0    0    0    0  0.00000000000E+00  0.00000000000E+00  0.45593999997E+02  0.45594000000E+02  0.51100000000E-03 0.  1.
         11   -1    0    0    0    0 -0.00000000000E+00 -0.00000000000E+00 -0.45593999997E+02  0.45594000000E+02  0.51100000000E-03 0. -1.
    9900012    2    1    2    0    0  0.79227784872E+01  0.14925296688E+02 -0.80710302363E+01  0.72461643460E+02  0.70000095312E+02 0.  0.
        -12    1    1    2    0    0 -0.79227784872E+01 -0.14925296688E+02  0.80710302363E+01  0.18726356540E+02  0.00000000000E+00 0.  1.
         11    1    3    3    0    0 -0.68418411963E+01  0.13989252100E+02 -0.10698457487E+02  0.18893569227E+02  0.51100000000E-03 0. -1.
        -11    1    3    3    0    0 -0.81800822999E+01  0.20163487160E+02  0.79429398722E+01  0.23163986163E+02  0.51100000000E-03 0.  1.
         12    1    3    3    0    0  0.22944701983E+02 -0.19227442571E+02 -0.53155126212E+01  0.30404088070E+02  0.00000000000E+00 0. -1.
</event>
<event>
 7    1  0.1749439E-013  0.7246153E+02  0.7816164E-02  0.1226708E+00
        -11   -1    0    0    0    0  0.00000000000E+00  0.00000000000E+00  0.45593999997E+02  0.45594000000E+02  0.51100000000E-03 0.  1.
         11   -1    0    0    0    0 -0.00000000000E+00 -0.00000000000E+00 -0.45593999997E+02  0.45594000000E+02  0.51100000000E-03 0. -1.
    9900012    2    1    2    0    0 -0.18814523685E+01 -0.61317716919E+01 -0.17593813886E+02  0.72461527450E+02  0.69999944188E+02 0.  0.
        -12    1    1    2    0    0  0.18814523685E+01  0.61317716919E+01  0.17593813886E+02  0.18726472550E+02  0.00000000000E+00 0.  1.
         11    1    3    3    0    0 -0.58697719597E+00  0.58817313554E+00  0.23016999922E+02  0.23031994606E+02  0.51100000000E-03 0. -1.
        -11    1    3    3    0    0  0.14240167387E+01 -0.51244894922E+01  0.27271524227E+01  0.59770876542E+01  0.51100000000E-03 0.  1.
         12    1    3    3    0    0 -0.27184919113E+01 -0.15954553353E+01 -0.43337966231E+02  0.43452445190E+02  0.00000000000E+00 0. -1.
</event>
<event>
 7    1  0.1749439E-013  0.7246158E+02  0.7816164E-02  0.1226708E+00
        -11   -1    0    0    0    0  0.00000000000E+00  0.00000000000E+00  0.45593999997E+02  0.45594000000E+02  0.51100000000E-03 0. -1.
         11   -1    0    0    0    0 -0.00000000000E+00 -0.00000000000E+00 -0.45593999997E+02  0.45594000000E+02  0.51100000000E-03 0.  1.
    9900012    2    1    2    0    0  0.41061337589E+01 -0.46665140664E+01  0.17664712856E+02  0.72461581008E+02  0.70000013957E+02 0.  0.
        -12    1    1    2    0    0 -0.41061337589E+01  0.46665140664E+01 -0.17664712856E+02  0.18726418992E+02  0.00000000000E+00 0.  1.
         11    1    3    3    0    0  0.89282602379E+01  0.50276018883E+01 -0.85726318224E+00  0.10282291187E+02  0.51100000000E-03 0. -1.
        -11    1    3    3    0    0 -0.59983582976E+01  0.31841943792E+01 -0.20223172273E+02  0.21332981347E+02  0.51100000000E-03 0.  1.
         12    1    3    3    0    0  0.11762318186E+01 -0.12878310334E+02  0.38745148311E+02  0.40846308474E+02  0.00000000000E+00 0. -1.
</event>
<event>
 7    1  0.1749439E-013  0.7246154E+02  0.7816164E-02  0.1226708E+00
        -11   -1    0    0    0    0  0.00000000000E+00  0.00000000000E+00  0.45593999997E+02  0.45594000000E+02  0.51100000000E-03 0.  1.
         11   -1    0    0    0    0 -0.00000000000E+00 -0.00000000000E+00 -0.45593999997E+02  0.45594000000E+02  0.51100000000E-03 0. -1.
    9900012    2    1    2    0    0 -0.12734373397E+01  0.12223534281E+02 -0.14129539390E+02  0.72461539674E+02  0.69999960111E+02 0.  0.
        -12    1    1    2    0    0  0.12734373397E+01 -0.12223534281E+02  0.14129539390E+02  0.18726460326E+02  0.00000000000E+00 0.  1.
         11    1    3    3    0    0 -0.89644202040E+01 -0.12395638798E+02 -0.19326180048E+01  0.15419069474E+02  0.51100000000E-03 0.  1.
        -11    1    3    3    0    0  0.13358985614E+02 -0.11811971949E+02  0.10562141377E+01  0.17863391798E+02  0.51100000000E-03 0. -1.
         12    1    3    3    0    0 -0.56680027495E+01  0.36431145029E+02 -0.13253135523E+02  0.39179078402E+02  0.00000000000E+00 0. -1.
</event>
<event>
 7    1  0.1749439E-013  0.7246160E+02  0.7816164E-02  0.1226708E+00
        -11   -1    0    0    0    0  0.00000000000E+00  0.00000000000E+00  0.45593999997E+02  0.45594000000E+02  0.51100000000E-03 0. -1.
         11   -1    0    0    0    0 -0.00000000000E+00 -0.00000000000E+00 -0.45593999997E+02  0.45594000000E+02  0.51100000000E-03 0.  1.
    9900012    2    1    2    0    0  0.87150015065E+01 -0.38305615194E+01  0.16126177026E+02  0.72461600498E+02  0.70000039346E+02 0.  0.
        -12    1    1    2    0    0 -0.87150015065E+01  0.38305615194E+01 -0.16126177026E+02  0.18726399502E+02  0.00000000000E+00 0.  1.
         11    1    3    3    0    0 -0.14999939884E+02 -0.85382762986E+01 -0.35905026193E+01  0.17629295732E+02  0.51100000000E-03 0. -1.
        -11    1    3    3    0    0  0.12723364302E+02  0.97384765009E+00 -0.14136584359E+02  0.19044038332E+02  0.51100000000E-03 0.  1.
        -12    1    3    3    0    0  0.10991577088E+02  0.37338671291E+01  0.33853264004E+02  0.35788266434E+02  0.00000000000E+00 0.  1.
</event>
<event>
 7    1  0.1749439E-013  0.7246153E+02  0.7816164E-02  0.1226708E+00
        -11   -1    0    0    0    0  0.00000000000E+00  0.00000000000E+00  0.45593999997E+02  0.45594000000E+02  0.51100000000E-03 0. -1.
         11   -1    0    0    0    0 -0.00000000000E+00 -0.00000000000E+00 -0.45593999997E+02  0.45594000000E+02  0.51100000000E-03 0.  1.
    9900012    2    1    2    0    0  0.16226317719E+01  0.10754382847E+02  0.15244375199E+02  0.72461530512E+02  0.69999948176E+02 0.  0.
        -12    1    1    2    0    0 -0.16226317719E+01 -0.10754382847E+02 -0.15244375199E+02  0.18726469488E+02  0.00000000000E+00 0.  1.
         11    1    3    3    0    0  0.14029739426E+02  0.22723615574E+02  0.17034975454E+02  0.31676279486E+02  0.51100000000E-03 0. -1.
        -11    1    3    3    0    0  0.10224675442E+02  0.50637978494E+01  0.35737248399E+01  0.11956485522E+02  0.51100000000E-03 0.  1.
        -12    1    3    3    0    0 -0.22631783096E+02 -0.17033030577E+02 -0.53643250953E+01  0.28828765503E+02  0.00000000000E+00 0.  1.
</event>
<event>
 7    1  0.1749439E-013  0.7246155E+02  0.7816164E-02  0.1226708E+00
        -11   -1    0    0    0    0  0.00000000000E+00  0.00000000000E+00  0.45593999997E+02  0.45594000000E+02  0.51100000000E-03 0. -1.
         11   -1    0    0    0    0 -0.00000000000E+00 -0.00000000000E+00 -0.45593999997E+02  0.45594000000E+02  0.51100000000E-03 0.  1.
    9900012    2    1    2    0    0 -0.13358289996E+02 -0.90804074369E+01  0.94753393899E+01  0.72461554331E+02  0.69999979205E+02 0.  0.
        -12    1    1    2    0    0  0.13358289996E+02  0.90804074369E+01 -0.94753393899E+01  0.18726445669E+02  0.00000000000E+00 0.  1.
         11    1    3    3    0    0  0.20920429585E+02  0.51778908794E+01  0.11949396099E+02  0.24642706738E+02  0.51100000000E-03 0. -1.
        -11    1    3    3    0    0  0.61731885996E+00  0.50759769056E+01  0.50888708641E+01  0.72140994624E+01  0.51100000000E-03 0.  1.
        -12    1    3    3    0    0 -0.34896038441E+02 -0.19334275222E+02 -0.75629275728E+01  0.40604748130E+02  0.00000000000E+00 0.  1.
</event>
<event>
 7    1  0.1749439E-013  0.7246160E+02  0.7816164E-02  0.1226708E+00
        -11   -1    0    0    0    0  0.00000000000E+00  0.00000000000E+00  0.45593999997E+02  0.45594000000E+02  0.51100000000E-03 0. -1.
         11   -1    0    0    0    0 -0.00000000000E+00 -0.00000000000E+00 -0.45593999997E+02  0.45594000000E+02  0.51100000000E-03 0.  1.
    9900012    2    1    2    0    0  0.12413434232E+02 -0.30255516526E+01  0.13690530806E+02  0.72461602964E+02  0.70000042558E+02 0.  0.
        -12    1    1    2    0    0 -0.12413434232E+02  0.30255516526E+01 -0.13690530806E+02  0.18726397036E+02  0.00000000000E+00 0.  1.
         11    1    3    3    0    0  0.57997110852E+01 -0.80980701306E+01  0.27874754705E+02  0.29600968542E+02  0.51100000000E-03 0. -1.
        -11    1    3    3    0    0 -0.36992832006E+01  0.11645716391E+02  0.99807103690E+01  0.15777261682E+02  0.51100000000E-03 0.  1.
        -12    1    3    3    0    0  0.10313006347E+02 -0.65731979129E+01 -0.24164934269E+02  0.27083372739E+02  0.00000000000E+00 0.  1.
</event>
<event>
 7    1  0.1749439E-013  0.7246156E+02  0.7816164E-02  0.1226708E+00
        -11   -1    0    0    0    0  0.00000000000E+00  0.00000000000E+00  0.45593999997E+02  0.45594000000E+02  0.51100000000E-03 0.  1.
         11   -1    0    0    0    0 -0.00000000000E+00 -0.00000000000E+00 -0.45593999997E+02  0.45594000000E+02  0.51100000000E-03 0. -1.
    9900012    2    1    2    0    0  0.21281965731E+01 -0.45248727146E+01 -0.18046492237E+02  0.72461559447E+02  0.69999985869E+02 0.  0.
        -12    1    1    2    0    0 -0.21281965731E+01  0.45248727146E+01  0.18046492237E+02  0.18726440553E+02  0.00000000000E+00 0.  1.
         11    1    3    3    0    0  0.53844645799E+01  0.49711243260E+01 -0.10061709246E+02  0.12447591297E+02  0.51100000000E-03 0. -1.
        -11    1    3    3    0    0 -0.10686086923E+02 -0.70969295408E+00  0.23860418387E+02  0.26153693500E+02  0.51100000000E-03 0.  1.
         12    1    3    3    0    0  0.74298189160E+01 -0.87863040865E+01 -0.31845201378E+02  0.33860274651E+02  0.00000000000E+00 0. -1.
</event>
<event>
 7    1  0.1749439E-013  0.7246159E+02  0.7816164E-02  0.1226708E+00
        -11   -1    0    0    0    0  0.00000000000E+00  0.00000000000E+00  0.45593999997E+02  0.45594000000E+02  0.51100000000E-03 0. -1.
         11   -1    0    0    0    0 -0.00000000000E+00 -0.00000000000E+00 -0.45593999997E+02  0.45594000000E+02  0.51100000000E-03 0.  1.
    9900012    2    1    2    0    0 -0.10143656546E+02  0.11455777237E+02  0.10795828670E+02  0.72461587719E+02  0.70000022699E+02 0.  0.
        -12    1    1    2    0    0  0.10143656546E+02 -0.11455777237E+02 -0.10795828670E+02  0.18726412281E+02  0.00000000000E+00 0.  1.
         11    1    3    3    0    0  0.16222927364E+02  0.20228973430E+02  0.20486226329E+00  0.25931384597E+02  0.51100000000E-03 0. -1.
        -11    1    3    3    0    0 -0.64781568654E+01  0.58529573424E+01  0.18623826757E+02  0.20568678843E+02  0.51100000000E-03 0.  1.
        -12    1    3    3    0    0 -0.19888427044E+02 -0.14626153535E+02 -0.80328603500E+01  0.25961524280E+02  0.00000000000E+00 0.  1.
</event>
<event>
 7    1  0.1749439E-013  0.7246158E+02  0.7816164E-02  0.1226708E+00
        -11   -1    0    0    0    0  0.00000000000E+00  0.00000000000E+00  0.45593999997E+02  0.45594000000E+02  0.51100000000E-03 0.  1.
         11   -1    0    0    0    0 -0.00000000000E+00 -0.00000000000E+00 -0.45593999997E+02  0.45594000000E+02  0.51100000000E-03 0. -1.
    9900012    2    1    2    0    0 -0.18441962941E+02  0.76536084970E+00 -0.31602232102E+01  0.72461580558E+02  0.70000013371E+02 0.  0.
        -12    1    1    2    0    0  0.18441962941E+02 -0.76536084970E+00  0.31602232102E+01  0.18726419442E+02  0.00000000000E+00 0.  1.
         11    1    3    3    0    0 -0.17801706932E+01 -0.48788491056E+01 -0.10853603973E+02  0.12032160893E+02  0.51100000000E-03 0. -1.
        -11    1    3    3    0    0 -0.18112464760E+02 -0.15692458993E+02  0.23709231974E+02  0.33711160318E+02  0.51100000000E-03 0.  1.
         12    1    3    3    0    0  0.14506725115E+01  0.21336668948E+02 -0.16015851211E+02  0.26718259347E+02  0.00000000000E+00 0. -1.
</event>
<event>
 7    1  0.1749439E-013  0.7246150E+02  0.7816164E-02  0.1226708E+00
        -11   -1    0    0    0    0  0.00000000000E+00  0.00000000000E+00  0.45593999997E+02  0.45594000000E+02  0.51100000000E-03 0.  1.
         11   -1    0    0    0    0 -0.00000000000E+00 -0.00000000000E+00 -0.45593999997E+02  0.45594000000E+02  0.51100000000E-03 0. -1.
    9900012    2    1    2    0    0  0.13764499088E+02 -0.11232809676E+02  0.59198193201E+01  0.72461502486E+02  0.69999911667E+02 0.  0.
        -12    1    1    2    0    0 -0.13764499088E+02  0.11232809676E+02 -0.59198193201E+01  0.18726497514E+02  0.00000000000E+00 0.  1.
         11    1    3    3    0    0  0.18529782527E+02 -0.27573779514E+02 -0.42988423746E+00  0.33224252556E+02  0.51100000000E-03 0. -1.
        -11    1    3    3    0    0  0.11202731108E+02 -0.40330301963E+01 -0.19246238990E+01  0.12061123259E+02  0.51100000000E-03 0.  1.
        -12    1    3    3    0    0 -0.15968014547E+02  0.20374000035E+02  0.82743274566E+01  0.27176126671E+02  0.00000000000E+00 0.  1.
</event>
<event>
 7    1  0.1749439E-013  0.7246158E+02  0.7816164E-02  0.1226708E+00
        -11   -1    0    0    0    0  0.00000000000E+00  0.00000000000E+00  0.45593999997E+02  0.45594000000E+02  0.51100000000E-03 0. -1.
         11   -1    0    0    0    0 -0.00000000000E+00 -0.00000000000E+00 -0.45593999997E+02  0.45594000000E+02  0.51100000000E-03 0.  1.
    9900012    2    1    2    0    0  0.61176106196E+01  0.47954424489E+01  0.17036938092E+02  0.72461583164E+02  0.70000016765E+02 0.  0.
        -12    1    1    2    0    0 -0.61176106196E+01 -0.47954424489E+01 -0.17036938092E+02  0.18726416836E+02  0.00000000000E+00 0.  1.
         11    1    3    3    0    0 -0.12756909438E+02 -0.14765678990E+02  0.51054652053E+01  0.20170022054E+02  0.51100000000E-03 0. -1.
        -11    1    3    3    0    0  0.86010820082E+01 -0.10320173298E+02  0.15477921147E+02  0.20495136787E+02  0.51100000000E-03 0.  1.
        -12    1    3    3    0    0  0.10273438049E+02  0.29881294737E+02 -0.35464482606E+01  0.31796424323E+02  0.00000000000E+00 0.  1.
</event>
<event>
 7    1  0.1749439E-013  0.7246163E+02  0.7816164E-02  0.1226708E+00
        -11   -1    0    0    0    0  0.00000000000E+00  0.00000000000E+00  0.45593999997E+02  0.45594000000E+02  0.51100000000E-03 0.  1.
         11   -1    0    0    0    0 -0.00000000000E+00 -0.00000000000E+00 -0.45593999997E+02  0.45594000000E+02  0.51100000000E-03 0. -1.
    9900012    2    1    2    0    0 -0.80417811645E+01  0.19125416379E+01 -0.16803234486E+02  0.72461634923E+02  0.70000084191E+02 0.  0.
        -12    1    1    2    0    0  0.80417811645E+01 -0.19125416379E+01  0.16803234486E+02  0.18726365077E+02  0.00000000000E+00 0.  1.
         11    1    3    3    0    0 -0.78218463375E+01 -0.11868676553E+02  0.61554776089E+01  0.15489889222E+02  0.51100000000E-03 0. -1.
        -11    1    3    3    0    0  0.26974884589E+01  0.32051609705E+02 -0.79117076677E+01  0.33123665968E+02  0.51100000000E-03 0.  1.
         12    1    3    3    0    0 -0.29174232858E+01 -0.18270391515E+02 -0.15047004427E+02  0.23848079733E+02  0.00000000000E+00 0. -1.
</event>
<event>
 7    1  0.1749439E-013  0.7246155E+02  0.7816164E-02  0.1226708E+00
        -11   -1    0    0    0    0  0.00000000000E+00  0.00000000000E+00  0.45593999997E+02  0.45594000000E+02  0.51100000000E-03 0.  1.
         11   -1    0    0    0    0 -0.00000000000E+00 -0.00000000000E+00 -0.45593999997E+02  0.45594000000E+02  0.51100000000E-03 0. -1.
    9900012    2    1    2    0    0  0.15981816784E+02  0.22884353482E+01 -0.94881255367E+01  0.72461549982E+02  0.69999973540E+02 0.  0.
        -12    1    1    2    0    0 -0.15981816784E+02 -0.22884353482E+01  0.94881255367E+01  0.18726450018E+02  0.00000000000E+00 0.  1.
         11    1    3    3    0    0 -0.59638795424E+01  0.25255517469E+02 -0.79988579306E+01  0.27154939703E+02  0.51100000000E-03 0. -1.
        -11    1    3    3    0    0  0.49856169286E+01 -0.18931480034E+00  0.12638825747E+02  0.13587940712E+02  0.51100000000E-03 0.  1.
        -12    1    3    3    0    0  0.16960079398E+02 -0.22777767321E+02 -0.14128093353E+02  0.31718669567E+02  0.00000000000E+00 0.  1.
</event>
<event>
 7    1  0.1749439E-013  0.7246140E+02  0.7816164E-02  0.1226708E+00
        -11   -1    0    0    0    0  0.00000000000E+00  0.00000000000E+00  0.45593999997E+02  0.45594000000E+02  0.51100000000E-03 0.  1.
         11   -1    0    0    0    0 -0.00000000000E+00 -0.00000000000E+00 -0.45593999997E+02  0.45594000000E+02  0.51100000000E-03 0. -1.
    9900012    2    1    2    0    0 -0.22897982875E+01  0.10914206389E+02 -0.15044019462E+02  0.72461398630E+02  0.69999776375E+02 0.  0.
        -12    1    1    2    0    0  0.22897982875E+01 -0.10914206389E+02  0.15044019462E+02  0.18726601370E+02  0.00000000000E+00 0.  1.
         11    1    3    3    0    0 -0.54043990289E+01  0.19325544323E+01  0.39139693179E+01  0.69470462486E+01  0.51100000000E-03 0. -1.
        -11    1    3    3    0    0 -0.23487287310E+02  0.22376244764E+02 -0.58036565557E+01  0.32954990891E+02  0.51100000000E-03 0.  1.
         12    1    3    3    0    0  0.26601888052E+02 -0.13394592808E+02 -0.13154332224E+02  0.32559361491E+02  0.00000000000E+00 0. -1.
</event>
<event>
 7    1  0.1749439E-013  0.7246136E+02  0.7816164E-02  0.1226709E+00
        -11   -1    0    0    0    0  0.00000000000E+00  0.00000000000E+00  0.45593999997E+02  0.45594000000E+02  0.51100000000E-03 0. -1.
         11   -1    0    0    0    0 -0.00000000000E+00 -0.00000000000E+00 -0.45593999997E+02  0.45594000000E+02  0.51100000000E-03 0.  1.
    9900012    2    1    2    0    0 -0.75028790502E+01 -0.14825537873E+02  0.86369639760E+01  0.72461363516E+02  0.69999730633E+02 0.  0.
        -12    1    1    2    0    0  0.75028790502E+01  0.14825537873E+02 -0.86369639760E+01  0.18726636484E+02  0.00000000000E+00 0.  1.
         11    1    3    3    0    0 -0.17255041488E+02 -0.27735454750E+02 -0.16362150912E+01  0.32705796230E+02  0.51100000000E-03 0. -1.
        -11    1    3    3    0    0  0.81108750704E+01 -0.10924072781E+02  0.79355970753E+01  0.15751043195E+02  0.51100000000E-03 0.  1.
        -12    1    3    3    0    0  0.16412873677E+01  0.23833989658E+02  0.23375819919E+01  0.24004524091E+02  0.00000000000E+00 0.  1.
</event>
<event>
 7    1  0.1749439E-013  0.7246160E+02  0.7816164E-02  0.1226708E+00
        -11   -1    0    0    0    0  0.00000000000E+00  0.00000000000E+00  0.45593999997E+02  0.45594000000E+02  0.51100000000E-03 0.  1.
         11   -1    0    0    0    0 -0.00000000000E+00 -0.00000000000E+00 -0.45593999997E+02  0.45594000000E+02  0.51100000000E-03 0. -1.
    9900012    2    1    2    0    0  0.16197503831E+02  0.63922147061E+01 -0.68890238493E+01  0.72461596480E+02  0.70000034112E+02 0.  0.
        -12    1    1    2    0    0 -0.16197503831E+02 -0.63922147061E+01  0.68890238493E+01  0.18726403520E+02  0.00000000000E+00 0.  1.
         11    1    3    3    0    0  0.15341065878E+02  0.23617009073E+02 -0.25899913274E+02  0.38261167359E+02  0.51100000000E-03 0. -1.
        -11    1    3    3    0    0  0.94750071110E+01 -0.22870062378E+01  0.12302635995E+02  0.15695891500E+02  0.51100000000E-03 0.  1.
        -12    1    3    3    0    0 -0.86185691579E+01 -0.14937788129E+02  0.67082534301E+01  0.18504537622E+02  0.00000000000E+00 0.  1.
</event>
<event>
 7    1  0.1749439E-013  0.7246160E+02  0.7816164E-02  0.1226708E+00
        -11   -1    0    0    0    0  0.00000000000E+00  0.00000000000E+00  0.45593999997E+02  0.45594000000E+02  0.51100000000E-03 0.  1.
         11   -1    0    0    0    0 -0.00000000000E+00 -0.00000000000E+00 -0.45593999997E+02  0.45594000000E+02  0.51100000000E-03 0. -1.
    9900012    2    1    2    0    0  0.45954881592E+01 -0.17887978500E+02 -0.30950984655E+01  0.72461603637E+02  0.70000043435E+02 0.  0.
        -12    1    1    2    0    0 -0.45954881592E+01  0.17887978500E+02  0.30950984655E+01  0.18726396363E+02  0.00000000000E+00 0.  1.
         11    1    3    3    0    0  0.16264681901E+02 -0.20721106223E+02 -0.17565689452E+02  0.31661610297E+02  0.51100000000E-03 0. -1.
        -11    1    3    3    0    0 -0.13880341840E+02 -0.62991397389E+01  0.23341601245E+02  0.27877829901E+02  0.51100000000E-03 0.  1.
         12    1    3    3    0    0  0.22111480979E+01  0.91322674624E+01 -0.88710102592E+01  0.12922163439E+02  0.00000000000E+00 0. -1.
</event>
<event>
 7    1  0.1749439E-013  0.7246156E+02  0.7816164E-02  0.1226708E+00
        -11   -1    0    0    0    0  0.00000000000E+00  0.00000000000E+00  0.45593999997E+02  0.45594000000E+02  0.51100000000E-03 0.  1.
         11   -1    0    0    0    0 -0.00000000000E+00 -0.00000000000E+00 -0.45593999997E+02  0.45594000000E+02  0.51100000000E-03 0. -1.
    9900012    2    1    2    0    0 -0.17160096174E+02 -0.45623424977E+01 -0.59494391553E+01  0.72461556236E+02  0.69999981687E+02 0.  0.
        -12    1    1    2    0    0  0.17160096174E+02  0.45623424977E+01  0.59494391553E+01  0.18726443764E+02  0.00000000000E+00 0.  1.
         11    1    3    3    0    0 -0.60763021141E+01 -0.19919796830E+02 -0.39033376499E+01  0.21188577069E+02  0.51100000000E-03 0.  1.
        -11    1    3    3    0    0 -0.46780958781E+01 -0.67117718227E+01 -0.20324957400E+02  0.21909731984E+02  0.51100000000E-03 0. -1.
         12    1    3    3    0    0 -0.64056981820E+01  0.22069226155E+02  0.18278855895E+02  0.29363247183E+02  0.00000000000E+00 0. -1.
</event>
<event>
 7    1  0.1749439E-013  0.7246149E+02  0.7816164E-02  0.1226708E+00
        -11   -1    0    0    0    0  0.00000000000E+00  0.00000000000E+00  0.45593999997E+02  0.45594000000E+02  0.51100000000E-03 0.  1.
         11   -1    0    0    0    0 -0.00000000000E+00 -0.00000000000E+00 -0.45593999997E+02  0.45594000000E+02  0.51100000000E-03 0. -1.
    9900012    2    1    2    0    0  0.12869078452E+02  0.11016509148E+02 -0.79815623385E+01  0.72461494950E+02  0.69999901850E+02 0.  0.
        -12    1    1    2    0    0 -0.12869078452E+02 -0.11016509148E+02  0.79815623385E+01  0.18726505050E+02  0.00000000000E+00 0.  1.
         11    1    3    3    0    0 -0.41923591549E+01  0.30323863594E+00 -0.13036305939E+01  0.44008274154E+01  0.51100000000E-03 0. -1.
        -11    1    3    3    0    0  0.15799778959E+02 -0.23614993430E+02  0.96754355803E+01  0.30015245856E+02  0.51100000000E-03 0.  1.
         12    1    3    3    0    0  0.12616586482E+01  0.34328263943E+02 -0.16353367325E+02  0.38045421679E+02  0.00000000000E+00 0. -1.
</event>
<event>
 7    1  0.1749439E-013  0.7246154E+02  0.7816164E-02  0.1226708E+00
        -11   -1    0    0    0    0  0.00000000000E+00  0.00000000000E+00  0.45593999997E+02  0.45594000000E+02  0.51100000000E-03 0.  1.
         11   -1    0    0    0    0 -0.00000000000E+00 -0.00000000000E+00 -0.45593999997E+02  0.45594000000E+02  0.51100000000E-03 0. -1.
    9900012    2    1    2    0    0 -0.38490132191E+01  0.17209665800E+02 -0.63002216358E+01  0.72461540314E+02  0.69999960945E+02 0.  0.
        -12    1    1    2    0    0  0.38490132191E+01 -0.17209665800E+02  0.63002216358E+01  0.18726459686E+02  0.00000000000E+00 0.  1.
         11    1    3    3    0    0 -0.28732957203E+02 -0.23523314539E+01 -0.10775184883E+02  0.30776954079E+02  0.51100000000E-03 0. -1.
        -11    1    3    3    0    0 -0.31864371294E+01  0.76709393024E+01 -0.50805210676E+01  0.97369597894E+01  0.51100000000E-03 0.  1.
         12    1    3    3    0    0  0.28070381113E+02  0.11891057951E+02  0.95554843145E+01  0.31947626446E+02  0.00000000000E+00 0. -1.
</event>
<event>
 7    1  0.1749439E-013  0.7246149E+02  0.7816164E-02  0.1226708E+00
        -11   -1    0    0    0    0  0.00000000000E+00  0.00000000000E+00  0.45593999997E+02  0.45594000000E+02  0.51100000000E-03 0. -1.
         11   -1    0    0    0    0 -0.00000000000E+00 -0.00000000000E+00 -0.45593999997E+02  0.45594000000E+02  0.51100000000E-03 0.  1.
    9900012    2    1    2    0    0 -0.71572732515E+01  0.17302664521E+02  0.27062194160E+00  0.72461494823E+02  0.69999901684E+02 0.  0.
        -12    1    1    2    0    0  0.71572732515E+01 -0.17302664521E+02 -0.27062194160E+00  0.18726505177E+02  0.00000000000E+00 0.  1.
         11    1    3    3    0    0 -0.45063295141E+01  0.28612803441E+02  0.19915887699E+02  0.35151701374E+02  0.51100000000E-03 0. -1.
        -11    1    3    3    0    0 -0.13725435096E+02 -0.42600673608E+01 -0.19445919441E+02  0.24180147346E+02  0.51100000000E-03 0.  1.
        -12    1    3    3    0    0  0.11074491358E+02 -0.70500715590E+01 -0.19934631580E+00  0.13129646103E+02  0.00000000000E+00 0.  1.
</event>
<event>
 7    1  0.1749439E-013  0.7246158E+02  0.7816164E-02  0.1226708E+00
        -11   -1    0    0    0    0  0.00000000000E+00  0.00000000000E+00  0.45593999997E+02  0.45594000000E+02  0.51100000000E-03 0.  1.
         11   -1    0    0    0    0 -0.00000000000E+00 -0.00000000000E+00 -0.45593999997E+02  0.45594000000E+02  0.51100000000E-03 0. -1.
    9900012    2    1    2    0    0  0.18416999056E+02 -0.47293978828E+00 -0.33569897778E+01  0.72461577314E+02  0.70000009144E+02 0.  0.
        -12    1    1    2    0    0 -0.18416999056E+02  0.47293978828E+00  0.33569897778E+01  0.18726422686E+02  0.00000000000E+00 0.  1.
         11    1    3    3    0    0  0.10808716292E+02 -0.82110583890E+01 -0.33015423514E+01  0.13969610227E+02  0.51100000000E-03 0. -1.
        -11    1    3    3    0    0  0.31402798623E+02  0.12097916554E+02  0.42543356043E+01  0.33920417421E+02  0.51100000000E-03 0.  1.
         12    1    3    3    0    0 -0.23794515860E+02 -0.43597979535E+01 -0.43097830307E+01  0.24571549665E+02  0.00000000000E+00 0. -1.
</event>
<event>
 7    1  0.1749439E-013  0.7246158E+02  0.7816164E-02  0.1226708E+00
        -11   -1    0    0    0    0  0.00000000000E+00  0.00000000000E+00  0.45593999997E+02  0.45594000000E+02  0.51100000000E-03 0.  1.
         11   -1    0    0    0    0 -0.00000000000E+00 -0.00000000000E+00 -0.45593999997E+02  0.45594000000E+02  0.51100000000E-03 0. -1.
    9900012    2    1    2    0    0 -0.81650819902E+01  0.10615793205E+02 -0.13088748188E+02  0.72461575931E+02  0.70000007343E+02 0.  0.
        -12    1    1    2    0    0  0.81650819902E+01 -0.10615793205E+02  0.13088748188E+02  0.18726424069E+02  0.00000000000E+00 0.  1.
         11    1    3    3    0    0 -0.18276925878E+02  0.13723975476E+02 -0.63640211856E+01  0.23725393323E+02  0.51100000000E-03 0. -1.
        -11    1    3    3    0    0  0.26557627918E+02  0.80541609311E+01 -0.78110492281E+01  0.28830358985E+02  0.51100000000E-03 0.  1.
         12    1    3    3    0    0 -0.16445784030E+02 -0.11162343202E+02  0.10863222255E+01  0.19905823623E+02  0.00000000000E+00 0. -1.
</event>
<event>
 7    1  0.1749439E-013  0.7246159E+02  0.7816164E-02  0.1226708E+00
        -11   -1    0    0    0    0  0.00000000000E+00  0.00000000000E+00  0.45593999997E+02  0.45594000000E+02  0.51100000000E-03 0.  1.
         11   -1    0    0    0    0 -0.00000000000E+00 -0.00000000000E+00 -0.45593999997E+02  0.45594000000E+02  0.51100000000E-03 0. -1.
    9900012    2    1    2    0    0  0.33979887076E+01 -0.13182299955E+02 -0.12859202332E+02  0.72461589667E+02  0.70000025236E+02 0.  0.
        -12    1    1    2    0    0 -0.33979887076E+01  0.13182299955E+02  0.12859202332E+02  0.18726410333E+02  0.00000000000E+00 0.  1.
         11    1    3    3    0    0  0.98297124100E+01 -0.38779812924E+01 -0.28752766316E+02  0.30633046797E+02  0.51100000000E-03 0. -1.
        -11    1    3    3    0    0  0.92995363020E+01 -0.11098740828E+01 -0.78297607691E+01  0.12207307233E+02  0.51100000000E-03 0.  1.
        -12    1    3    3    0    0 -0.15731260004E+02 -0.81944445802E+01  0.23723324754E+02  0.29621235637E+02  0.00000000000E+00 0.  1.
</event>
<event>
 7    1  0.1749439E-013  0.7246160E+02  0.7816164E-02  0.1226708E+00
        -11   -1    0    0    0    0  0.00000000000E+00  0.00000000000E+00  0.45593999997E+02  0.45594000000E+02  0.51100000000E-03 0.  1.
         11   -1    0    0    0    0 -0.00000000000E+00 -0.00000000000E+00 -0.45593999997E+02  0.45594000000E+02  0.51100000000E-03 0. -1.
    9900012    2    1    2    0    0 -0.12672096024E+01 -0.17984835899E+02  0.50614326025E+01  0.72461595046E+02  0.70000032244E+02 0.  0.
        -12    1    1    2    0    0  0.12672096024E+01  0.17984835899E+02 -0.50614326025E+01  0.18726404954E+02  0.00000000000E+00 0.  1.
         11    1    3    3    0    0 -0.22336068707E+02  0.14110482246E+01  0.65946375997E+01  0.23331958077E+02  0.51100000000E-03 0.  1.
        -11    1    3    3    0    0  0.16342456033E+02  0.75586469716E+00  0.15338617861E+02  0.22425886800E+02  0.51100000000E-03 0. -1.
         12    1    3    3    0    0  0.47264030713E+01 -0.20151748821E+02 -0.16871822858E+02  0.26703750169E+02  0.00000000000E+00 0. -1.
</event>
<event>
 7    1  0.1749439E-013  0.7246152E+02  0.7816164E-02  0.1226708E+00
        -11   -1    0    0    0    0  0.00000000000E+00  0.00000000000E+00  0.45593999997E+02  0.45594000000E+02  0.51100000000E-03 0.  1.
         11   -1    0    0    0    0 -0.00000000000E+00 -0.00000000000E+00 -0.45593999997E+02  0.45594000000E+02  0.51100000000E-03 0. -1.
    9900012    2    1    2    0    0 -0.44190680747E+01  0.57333927488E+01 -0.17270813901E+02  0.72461522278E+02  0.69999937450E+02 0.  0.
        -12    1    1    2    0    0  0.44190680747E+01 -0.57333927488E+01  0.17270813901E+02  0.18726477722E+02  0.00000000000E+00 0.  1.
         11    1    3    3    0    0  0.54989421767E+01 -0.34242638877E+01  0.18520443539E+02  0.19620672195E+02  0.51100000000E-03 0. -1.
        -11    1    3    3    0    0 -0.16760364132E+02 -0.46953012669E+01 -0.45542738345E+01  0.17991583317E+02  0.51100000000E-03 0.  1.
         12    1    3    3    0    0  0.68423538809E+01  0.13852957903E+02 -0.31236983606E+02  0.34849266766E+02  0.00000000000E+00 0. -1.
</event>
<event>
 7    1  0.1749439E-013  0.7246153E+02  0.7816164E-02  0.1226708E+00
        -11   -1    0    0    0    0  0.00000000000E+00  0.00000000000E+00  0.45593999997E+02  0.45594000000E+02  0.51100000000E-03 0. -1.
         11   -1    0    0    0    0 -0.00000000000E+00 -0.00000000000E+00 -0.45593999997E+02  0.45594000000E+02  0.51100000000E-03 0.  1.
    9900012    2    1    2    0    0  0.99785847050E+01 -0.14363122640E+02  0.66939733354E+01  0.72461528798E+02  0.69999945943E+02 0.  0.
        -12    1    1    2    0    0 -0.99785847050E+01  0.14363122640E+02 -0.66939733354E+01  0.18726471202E+02  0.00000000000E+00 0.  1.
         11    1    3    3    0    0  0.13657603659E+02 -0.35381716794E+02  0.37254576675E+01  0.38108726771E+02  0.51100000000E-03 0. -1.
        -11    1    3    3    0    0  0.43749264848E+01 -0.64726179019E+00  0.93760402348E+01  0.10366728525E+02  0.51100000000E-03 0.  1.
        -12    1    3    3    0    0 -0.80539454387E+01  0.21665855945E+02 -0.64075245669E+01  0.23986073502E+02  0.00000000000E+00 0.  1.
</event>
<event>
 7    1  0.1749439E-013  0.7246150E+02  0.7816164E-02  0.1226708E+00
        -11   -1    0    0    0    0  0.00000000000E+00  0.00000000000E+00  0.45593999997E+02  0.45594000000E+02  0.51100000000E-03 0.  1.
         11   -1    0    0    0    0 -0.00000000000E+00 -0.00000000000E+00 -0.45593999997E+02  0.45594000000E+02  0.51100000000E-03 0. -1.
    9900012    2    1    2    0    0  0.17445647431E+02  0.34275243102E+01  0.58807687284E+01  0.72461495307E+02  0.69999902315E+02 0.  0.
        -12    1    1    2    0    0 -0.17445647431E+02 -0.34275243102E+01 -0.58807687284E+01  0.18726504693E+02  0.00000000000E+00 0.  1.
         11    1    3    3    0    0 -0.21754355444E+01 -0.12663750692E+02  0.12683009802E+02  0.18054413292E+02  0.51100000000E-03 0.  1.
        -11    1    3    3    0    0  0.12445412704E+02 -0.77205361008E+01 -0.21127114670E+02  0.25707001957E+02  0.51100000000E-03 0. -1.
         12    1    3    3    0    0  0.71756702708E+01  0.23811811103E+02  0.14324873596E+02  0.28700080059E+02  0.00000000000E+00 0. -1.
</event>
<event>
 7    1  0.1749439E-013  0.7246158E+02  0.7816164E-02  0.1226708E+00
        -11   -1    0    0    0    0  0.00000000000E+00  0.00000000000E+00  0.45593999997E+02  0.45594000000E+02  0.51100000000E-03 0. -1.
         11   -1    0    0    0    0 -0.00000000000E+00 -0.00000000000E+00 -0.45593999997E+02  0.45594000000E+02  0.51100000000E-03 0.  1.
    9900012    2    1    2    0    0 -0.26547008985E+01  0.15761447690E+02 -0.97574561410E+01  0.72461584954E+02  0.70000019097E+02 0.  0.
        -12    1    1    2    0    0  0.26547008985E+01 -0.15761447690E+02  0.97574561410E+01  0.18726415046E+02  0.00000000000E+00 0.  1.
         11    1    3    3    0    0 -0.31503159496E+02 -0.15097686260E+01  0.13855575977E+01  0.31569735977E+02  0.51100000000E-03 0. -1.
        -11    1    3    3    0    0  0.33593895591E+01  0.43871302677E+01 -0.11023968873E+02  0.12331273258E+02  0.51100000000E-03 0.  1.
        -12    1    3    3    0    0  0.25489069038E+02  0.12884086048E+02 -0.11904486602E+00  0.28560575719E+02  0.00000000000E+00 0.  1.
</event>
<event>
 7    1  0.1749439E-013  0.7246158E+02  0.7816164E-02  0.1226708E+00
        -11   -1    0    0    0    0  0.00000000000E+00  0.00000000000E+00  0.45593999997E+02  0.45594000000E+02  0.51100000000E-03 0. -1.
         11   -1    0    0    0    0 -0.00000000000E+00 -0.00000000000E+00 -0.45593999997E+02  0.45594000000E+02  0.51100000000E-03 0.  1.
    9900012    2    1    2    0    0 -0.14918694902E+02 -0.34459674487E+01  0.10781309403E+02  0.72461580650E+02  0.70000013490E+02 0.  0.
        -12    1    1    2    0    0  0.14918694902E+02  0.34459674487E+01 -0.10781309403E+02  0.18726419350E+02  0.00000000000E+00 0.  1.
         11    1    3    3    0    0 -0.28402028033E+02 -0.10879662669E+02  0.25315227617E+02  0.39571492337E+02  0.51100000000E-03 0. -1.
        -11    1    3    3    0    0 -0.73006777086E+01  0.36550968134E+01 -0.23163033553E+01  0.84867478586E+01  0.51100000000E-03 0.  1.
        -12    1    3    3    0    0  0.20784010840E+02  0.37785984065E+01 -0.12217614859E+02  0.24403340454E+02  0.00000000000E+00 0.  1.
</event>
<event>
 7    1  0.1749439E-013  0.7246156E+02  0.7816164E-02  0.1226708E+00
        -11   -1    0    0    0    0  0.00000000000E+00  0.00000000000E+00  0.45593999997E+02  0.45594000000E+02  0.51100000000E-03 0.  1.
         11   -1    0    0    0    0 -0.00000000000E+00 -0.00000000000E+00 -0.45593999997E+02  0.45594000000E+02  0.51100000000E-03 0. -1.
    9900012    2    1    2    0    0  0.18166904207E+02  0.93639858932E+00 -0.44459250203E+01  0.72461561468E+02  0.69999988502E+02 0.  0.
        -12    1    1    2    0    0 -0.18166904207E+02 -0.93639858932E+00  0.44459250203E+01  0.18726438532E+02  0.00000000000E+00 0.  1.
         11    1    3    3    0    0 -0.76772901071E+00 -0.44238951775E+01  0.62742600030E+00  0.45336431291E+01  0.51100000000E-03 0. -1.
        -11    1    3    3    0    0  0.47745589238E+01  0.28401795494E+02  0.16625285463E+02  0.33254451089E+02  0.51100000000E-03 0.  1.
         12    1    3    3    0    0  0.14160074294E+02 -0.23041501728E+02 -0.21698636484E+02  0.34673467250E+02  0.00000000000E+00 0. -1.
</event>
<event>
 7    1  0.1749439E-013  0.7246151E+02  0.7816164E-02  0.1226708E+00
        -11   -1    0    0    0    0  0.00000000000E+00  0.00000000000E+00  0.45593999997E+02  0.45594000000E+02  0.51100000000E-03 0. -1.
         11   -1    0    0    0    0 -0.00000000000E+00 -0.00000000000E+00 -0.45593999997E+02  0.45594000000E+02  0.51100000000E-03 0.  1.
    9900012    2    1    2    0    0 -0.95106335942E+01 -0.11729043677E+01  0.16088928299E+02  0.72461508875E+02  0.69999919990E+02 0.  0.
        -12    1    1    2    0    0  0.95106335942E+01  0.11729043677E+01 -0.16088928299E+02  0.18726491125E+02  0.00000000000E+00 0.  1.
         11    1    3    3    0    0 -0.78010540979E+01  0.22977033931E+01  0.63790917877E+01  0.10335796932E+02  0.51100000000E-03 0. -1.
        -11    1    3    3    0    0 -0.62530436062E+01  0.14969849288E+02 -0.20683226251E+02  0.26286741724E+02  0.51100000000E-03 0.  1.
         12    1    3    3    0    0  0.45434641099E+01 -0.18440457049E+02  0.30393062763E+02  0.35838970219E+02  0.00000000000E+00 0. -1.
</event>
<event>
 7    1  0.1749439E-013  0.7246146E+02  0.7816164E-02  0.1226708E+00
        -11   -1    0    0    0    0  0.00000000000E+00  0.00000000000E+00  0.45593999997E+02  0.45594000000E+02  0.51100000000E-03 0.  1.
         11   -1    0    0    0    0 -0.00000000000E+00 -0.00000000000E+00 -0.45593999997E+02  0.45594000000E+02  0.51100000000E-03 0. -1.
    9900012    2    1    2    0    0 -0.15613566978E+02  0.10274188493E+02 -0.11579653332E+01  0.72461459832E+02  0.69999856102E+02 0.  0.
        -12    1    1    2    0    0  0.15613566978E+02 -0.10274188493E+02  0.11579653332E+01  0.18726540168E+02  0.00000000000E+00 0.  1.
         11    1    3    3    0    0 -0.38192718605E+01 -0.13466182069E+01  0.75076456934E+01  0.85302381126E+01  0.51100000000E-03 0. -1.
        -11    1    3    3    0    0  0.78310893713E+01 -0.43982432836E+01  0.22230911817E+02  0.23976737585E+02  0.51100000000E-03 0.  1.
         12    1    3    3    0    0 -0.19625384488E+02  0.16019049983E+02 -0.30896522844E+02  0.39954484135E+02  0.00000000000E+00 0. -1.
</event>
<event>
 7    1  0.1749439E-013  0.7246153E+02  0.7816164E-02  0.1226708E+00
        -11   -1    0    0    0    0  0.00000000000E+00  0.00000000000E+00  0.45593999997E+02  0.45594000000E+02  0.51100000000E-03 0. -1.
         11   -1    0    0    0    0 -0.00000000000E+00 -0.00000000000E+00 -0.45593999997E+02  0.45594000000E+02  0.51100000000E-03 0.  1.
    9900012    2    1    2    0    0  0.10815085194E+02  0.15206014185E+02  0.15785035230E+01  0.72461531873E+02  0.69999949949E+02 0.  0.
        -12    1    1    2    0    0 -0.10815085194E+02 -0.15206014185E+02 -0.15785035230E+01  0.18726468127E+02  0.00000000000E+00 0.  1.
         11    1    3    3    0    0  0.83373840763E+01 -0.59747624668E+01  0.18643844616E+02  0.21279161217E+02  0.51100000000E-03 0. -1.
        -11    1    3    3    0    0 -0.78655997280E+01  0.13970156232E+01  0.12071976587E+02  0.14475908632E+02  0.51100000000E-03 0.  1.
        -12    1    3    3    0    0  0.10343300846E+02  0.19783761028E+02 -0.29137317680E+02  0.36706462025E+02  0.00000000000E+00 0.  1.
</event>
<event>
 7    1  0.1749439E-013  0.7246137E+02  0.7816164E-02  0.1226709E+00
        -11   -1    0    0    0    0  0.00000000000E+00  0.00000000000E+00  0.45593999997E+02  0.45594000000E+02  0.51100000000E-03 0.  1.
         11   -1    0    0    0    0 -0.00000000000E+00 -0.00000000000E+00 -0.45593999997E+02  0.45594000000E+02  0.51100000000E-03 0. -1.
    9900012    2    1    2    0    0 -0.68813858653E+01  0.17350763124E+01 -0.17329820436E+02  0.72461370896E+02  0.69999740246E+02 0.  0.
        -12    1    1    2    0    0  0.68813858653E+01 -0.17350763124E+01  0.17329820436E+02  0.18726629104E+02  0.00000000000E+00 0.  1.
         11    1    3    3    0    0 -0.26245091532E+02  0.10307797711E+02 -0.29272944792E+00  0.28198248420E+02  0.51100000000E-03 0. -1.
        -11    1    3    3    0    0 -0.83477652015E+01 -0.22142655928E+01  0.33649843415E+01  0.92688335757E+01  0.51100000000E-03 0.  1.
        -12    1    3    3    0    0  0.27711470868E+02 -0.63584558054E+01 -0.20402075330E+02  0.34994288901E+02  0.00000000000E+00 0.  1.
</event>
<event>
 7    1  0.1749439E-013  0.7246091E+02  0.7816164E-02  0.1226710E+00
        -11   -1    0    0    0    0  0.00000000000E+00  0.00000000000E+00  0.45593999997E+02  0.45594000000E+02  0.51100000000E-03 0.  1.
         11   -1    0    0    0    0 -0.00000000000E+00 -0.00000000000E+00 -0.45593999997E+02  0.45594000000E+02  0.51100000000E-03 0. -1.
    9900012    2    1    2    0    0  0.18418170924E+02  0.14340804752E+01 -0.30689018737E+01  0.72460913582E+02  0.69999144505E+02 0.  0.
        -12    1    1    2    0    0 -0.18418170924E+02 -0.14340804752E+01  0.30689018737E+01  0.18727086418E+02  0.00000000000E+00 0.  1.
         11    1    3    3    0    0  0.23520708198E+02 -0.16207164992E+02  0.18608941205E+02  0.34090887408E+02  0.51100000000E-03 0.  1.
        -11    1    3    3    0    0  0.10208592433E+02  0.10551451210E+02 -0.85330327138E+01  0.16981199299E+02  0.51100000000E-03 0. -1.
        -12    1    3    3    0    0 -0.15311129707E+02  0.70897942574E+01 -0.13144810365E+02  0.21388826874E+02  0.00000000000E+00 0.  1.
</event>
<event>
 7    1  0.1749439E-013  0.7246158E+02  0.7816164E-02  0.1226708E+00
        -11   -1    0    0    0    0  0.00000000000E+00  0.00000000000E+00  0.45593999997E+02  0.45594000000E+02  0.51100000000E-03 0.  1.
         11   -1    0    0    0    0 -0.00000000000E+00 -0.00000000000E+00 -0.45593999997E+02  0.45594000000E+02  0.51100000000E-03 0. -1.
    9900012    2    1    2    0    0  0.28169748133E+01  0.15043122171E+02 -0.10791097812E+02  0.72461583799E+02  0.70000017593E+02 0.  0.
        -12    1    1    2    0    0 -0.28169748133E+01 -0.15043122171E+02  0.10791097812E+02  0.18726416201E+02  0.00000000000E+00 0.  1.
         11    1    3    3    0    0  0.25484007402E+02  0.28977652163E+02 -0.67318625325E+01  0.39172144843E+02  0.51100000000E-03 0. -1.
        -11    1    3    3    0    0  0.14044849711E+01 -0.37812768162E+01  0.42647830757E+01  0.58701794980E+01  0.51100000000E-03 0.  1.
        -12    1    3    3    0    0 -0.24071517560E+02 -0.10153253176E+02 -0.83240183549E+01  0.27419259459E+02  0.00000000000E+00 0.  1.
</event>
<event>
 7    1  0.1749439E-013  0.7246159E+02  0.7816164E-02  0.1226708E+00
        -11   -1    0    0    0    0  0.00000000000E+00  0.00000000000E+00  0.45593999997E+02  0.45594000000E+02  0.51100000000E-03 0.  1.
         11   -1    0    0    0    0 -0.00000000000E+00 -0.00000000000E+00 -0.45593999997E+02  0.45594000000E+02  0.51100000000E-03 0. -1.
    9900012    2    1    2    0    0 -0.12534841349E+02 -0.65657055997E+01 -0.12265714775E+02  0.72461588261E+02  0.70000023405E+02 0.  0.
        -12    1    1    2    0    0  0.12534841349E+02  0.65657055997E+01  0.12265714775E+02  0.18726411739E+02  0.00000000000E+00 0.  1.
         11    1    3    3    0    0 -0.68862511795E+01 -0.36859748002E+01 -0.22593213077E+01  0.81308916219E+01  0.51100000000E-03 0. -1.
        -11    1    3    3    0    0  0.18406195462E+02  0.16950808268E+02  0.10371188042E+02  0.27086518307E+02  0.51100000000E-03 0.  1.
         12    1    3    3    0    0 -0.24054785631E+02 -0.19830539067E+02 -0.20377581510E+02  0.37244178332E+02  0.00000000000E+00 0. -1.
</event>
<event>
 7    1  0.1749439E-013  0.7246156E+02  0.7816164E-02  0.1226708E+00
        -11   -1    0    0    0    0  0.00000000000E+00  0.00000000000E+00  0.45593999997E+02  0.45594000000E+02  0.51100000000E-03 0.  1.
         11   -1    0    0    0    0 -0.00000000000E+00 -0.00000000000E+00 -0.45593999997E+02  0.45594000000E+02  0.51100000000E-03 0. -1.
    9900012    2    1    2    0    0 -0.83845518450E+01 -0.13727091238E+02  0.95888363451E+01  0.72461560777E+02  0.69999987602E+02 0.  0.
        -12    1    1    2    0    0  0.83845518450E+01  0.13727091238E+02 -0.95888363451E+01  0.18726439223E+02  0.00000000000E+00 0.  1.
         11    1    3    3    0    0  0.11780205616E+02  0.16385984576E+02  0.11875924239E+02  0.23416048165E+02  0.51100000000E-03 0. -1.
        -11    1    3    3    0    0  0.87118580020E+01 -0.26914086080E+01  0.45127919906E+00  0.91292827384E+01  0.51100000000E-03 0.  1.
        -12    1    3    3    0    0 -0.28876615463E+02 -0.27421667206E+02 -0.27383670931E+01  0.39916229874E+02  0.00000000000E+00 0.  1.
</event>
<event>
 7    1  0.1749439E-013  0.7246203E+02  0.7816164E-02  0.1226707E+00
        -11   -1    0    0    0    0  0.00000000000E+00  0.00000000000E+00  0.45593999997E+02  0.45594000000E+02  0.51100000000E-03 0.  1.
         11   -1    0    0    0    0 -0.00000000000E+00 -0.00000000000E+00 -0.45593999997E+02  0.45594000000E+02  0.51100000000E-03 0. -1.
    9900012    2    1    2    0    0  0.33753925116E+01  0.16042158745E+02 -0.90508454832E+01  0.72462030446E+02  0.70000599430E+02 0.  0.
        -12    1    1    2    0    0 -0.33753925116E+01 -0.16042158745E+02  0.90508454832E+01  0.18725969554E+02  0.00000000000E+00 0.  1.
         11    1    3    3    0    0  0.10537871609E+02 -0.88910665000E+01 -0.15452415199E+02  0.20709295916E+02  0.51100000000E-03 0.  1.
        -11    1    3    3    0    0 -0.23222995146E+02  0.12670648693E+02 -0.71727938900E+01  0.27409885339E+02  0.51100000000E-03 0. -1.
        -12    1    3    3    0    0  0.16060516048E+02  0.12262576552E+02  0.13574363606E+02  0.24342849191E+02  0.00000000000E+00 0.  1.
</event>
<event>
 7    1  0.1749439E-013  0.7246173E+02  0.7816164E-02  0.1226708E+00
        -11   -1    0    0    0    0  0.00000000000E+00  0.00000000000E+00  0.45593999997E+02  0.45594000000E+02  0.51100000000E-03 0.  1.
         11   -1    0    0    0    0 -0.00000000000E+00 -0.00000000000E+00 -0.45593999997E+02  0.45594000000E+02  0.51100000000E-03 0. -1.
    9900012    2    1    2    0    0  0.15979004490E+02 -0.45394525523E+01 -0.86451175945E+01  0.72461727755E+02  0.70000205121E+02 0.  0.
        -12    1    1    2    0    0 -0.15979004490E+02  0.45394525523E+01  0.86451175945E+01  0.18726272245E+02  0.00000000000E+00 0.  1.
         11    1    3    3    0    0 -0.35912612490E+01  0.13849785312E+02 -0.13083479047E+02  0.19387912079E+02  0.51100000000E-03 0. -1.
        -11    1    3    3    0    0  0.14485975866E+02  0.79549234836E+01  0.16770436418E+02  0.23545102301E+02  0.51100000000E-03 0.  1.
         12    1    3    3    0    0  0.50842898731E+01 -0.26344161348E+02 -0.12332074966E+02  0.29528713376E+02  0.00000000000E+00 0. -1.
</event>
<event>
 7    1  0.1749439E-013  0.7246146E+02  0.7816164E-02  0.1226708E+00
        -11   -1    0    0    0    0  0.00000000000E+00  0.00000000000E+00  0.45593999997E+02  0.45594000000E+02  0.51100000000E-03 0. -1.
         11   -1    0    0    0    0 -0.00000000000E+00 -0.00000000000E+00 -0.45593999997E+02  0.45594000000E+02  0.51100000000E-03 0.  1.
    9900012    2    1    2    0    0  0.13313943893E+02 -0.13147520412E+02 -0.75156987208E+00  0.72461461286E+02  0.69999857996E+02 0.  0.
        -12    1    1    2    0    0 -0.13313943893E+02  0.13147520412E+02  0.75156987208E+00  0.18726538714E+02  0.00000000000E+00 0.  1.
         11    1    3    3    0    0  0.13388118611E+02  0.74785211154E+01 -0.64599006208E+01  0.16640321941E+02  0.51100000000E-03 0. -1.
        -11    1    3    3    0    0 -0.19887681430E+01 -0.21329621544E+02 -0.20430649303E+02  0.29602692194E+02  0.51100000000E-03 0.  1.
         12    1    3    3    0    0  0.19145934248E+01  0.70358001712E+00  0.26138980052E+02  0.26218447150E+02  0.00000000000E+00 0. -1.
</event>
<event>
 7    1  0.1909439E-013  0.7246161E+02  0.7816164E-02  0.1226708E+00
        -11   -1    0    0    0    0  0.00000000000E+00  0.00000000000E+00  0.45593999997E+02  0.45594000000E+02  0.51100000000E-03 0. -1.
         11   -1    0    0    0    0 -0.00000000000E+00 -0.00000000000E+00 -0.45593999997E+02  0.45594000000E+02  0.51100000000E-03 0.  1.
    9900012    2    1    2    0    0 -0.75357654410E+01  0.21187069328E+01  0.17011790262E+02  0.72461609858E+02  0.70000051539E+02 0.  0.
        -12    1    1    2    0    0  0.75357654410E+01 -0.21187069328E+01 -0.17011790262E+02  0.18726390142E+02  0.00000000000E+00 0.  1.
         11    1    3    3    0    0 -0.20120365179E+01 -0.22047406843E+02  0.22261778582E+02  0.31396229476E+02  0.51100000000E-03 0. -1.
        -11    1    3    3    0    0 -0.18395286066E+02  0.11503107380E+02  0.15969993249E+01  0.21754503808E+02  0.51100000000E-03 0.  1.
        -12    1    3    3    0    0  0.12871557142E+02  0.12663006396E+02 -0.68469876447E+01  0.19310876574E+02  0.00000000000E+00 0.  1.
</event>
<event>
 7    1  0.1749439E-013  0.7246158E+02  0.7816164E-02  0.1226708E+00
        -11   -1    0    0    0    0  0.00000000000E+00  0.00000000000E+00  0.45593999997E+02  0.45594000000E+02  0.51100000000E-03 0. -1.
         11   -1    0    0    0    0 -0.00000000000E+00 -0.00000000000E+00 -0.45593999997E+02  0.45594000000E+02  0.51100000000E-03 0.  1.
    9900012    2    1    2    0    0 -0.40591263549E+01 -0.15692679194E+02  0.93777449320E+01  0.72461580506E+02  0.70000013303E+02 0.  0.
        -12    1    1    2    0    0  0.40591263549E+01  0.15692679194E+02 -0.93777449320E+01  0.18726419494E+02  0.00000000000E+00 0.  1.
         11    1    3    3    0    0 -0.22451775848E+02  0.83818395626E+01  0.18290488420E+02  0.30147627436E+02  0.51100000000E-03 0. -1.
        -11    1    3    3    0    0 -0.27239987560E+01 -0.17935983919E+02  0.10492248581E+01  0.18171971864E+02  0.51100000000E-03 0.  1.
        -12    1    3    3    0    0  0.21116648249E+02 -0.61385348381E+01 -0.99619683456E+01  0.24141981206E+02  0.00000000000E+00 0.  1.
</event>
<event>
 7    1  0.1749439E-013  0.7246156E+02  0.7816164E-02  0.1226708E+00
        -11   -1    0    0    0    0  0.00000000000E+00  0.00000000000E+00  0.45593999997E+02  0.45594000000E+02  0.51100000000E-03 0. -1.
         11   -1    0    0    0    0 -0.00000000000E+00 -0.00000000000E+00 -0.45593999997E+02  0.45594000000E+02  0.51100000000E-03 0.  1.
    9900012    2    1    2    0    0  0.59570382719E+01 -0.14160416361E+02  0.10708683308E+02  0.72461558942E+02  0.69999985212E+02 0.  0.
        -12    1    1    2    0    0 -0.59570382719E+01  0.14160416361E+02 -0.10708683308E+02  0.18726441058E+02  0.00000000000E+00 0.  1.
         11    1    3    3    0    0  0.19435102109E+02 -0.51608997955E+01  0.16314257134E+02  0.25894267064E+02  0.51100000000E-03 0. -1.
        -11    1    3    3    0    0 -0.22645961695E+00  0.71067966517E+01 -0.19999289279E+02  0.21225678188E+02  0.51100000000E-03 0.  1.
         12    1    3    3    0    0 -0.13251604220E+02 -0.16106313217E+02  0.14393715453E+02  0.25341613690E+02  0.00000000000E+00 0. -1.
</event>
<event>
 7    1  0.1749439E-013  0.7246151E+02  0.7816164E-02  0.1226708E+00
        -11   -1    0    0    0    0  0.00000000000E+00  0.00000000000E+00  0.45593999997E+02  0.45594000000E+02  0.51100000000E-03 0. -1.
         11   -1    0    0    0    0 -0.00000000000E+00 -0.00000000000E+00 -0.45593999997E+02  0.45594000000E+02  0.51100000000E-03 0.  1.
    9900012    2    1    2    0    0  0.10766083201E+02 -0.15135316209E+02 -0.23864537965E+01  0.72461507910E+02  0.69999918733E+02 0.  0.
        -12    1    1    2    0    0 -0.10766083201E+02  0.15135316209E+02  0.23864537965E+01  0.18726492090E+02  0.00000000000E+00 0.  1.
         11    1    3    3    0    0 -0.16829271962E+01  0.21649257776E+02  0.55400234036E+01  0.22410142029E+02  0.51100000000E-03 0. -1.
        -11    1    3    3    0    0  0.11217170656E+02 -0.10013734509E+02 -0.16103652460E+02  0.22032417460E+02  0.51100000000E-03 0.  1.
         12    1    3    3    0    0  0.12318397416E+01 -0.26770839476E+02  0.81771752597E+01  0.28018948421E+02  0.00000000000E+00 0. -1.
</event>
<event>
 7    1  0.1749439E-013  0.7246154E+02  0.7816164E-02  0.1226708E+00
        -11   -1    0    0    0    0  0.00000000000E+00  0.00000000000E+00  0.45593999997E+02  0.45594000000E+02  0.51100000000E-03 0.  1.
         11   -1    0    0    0    0 -0.00000000000E+00 -0.00000000000E+00 -0.45593999997E+02  0.45594000000E+02  0.51100000000E-03 0. -1.
    9900012    2    1    2    0    0  0.90865229910E+01  0.50921466430E+01 -0.15562305730E+02  0.72461542323E+02  0.69999963562E+02 0.  0.
        -12    1    1    2    0    0 -0.90865229910E+01 -0.50921466430E+01  0.15562305730E+02  0.18726457677E+02  0.00000000000E+00 0.  1.
         11    1    3    3    0    0  0.11371872982E+02 -0.26510549531E+01  0.58586415443E+01  0.13064121421E+02  0.51100000000E-03 0. -1.
        -11    1    3    3    0    0  0.74812451008E+01 -0.15544794763E+02  0.93248153349E+01  0.19610248692E+02  0.51100000000E-03 0.  1.
         12    1    3    3    0    0 -0.97665950920E+01  0.23287996359E+02 -0.30745762609E+02  0.39787172210E+02  0.00000000000E+00 0. -1.
</event>
<event>
 7    1  0.1749439E-013  0.7246156E+02  0.7816164E-02  0.1226708E+00
        -11   -1    0    0    0    0  0.00000000000E+00  0.00000000000E+00  0.45593999997E+02  0.45594000000E+02  0.51100000000E-03 0. -1.
         11   -1    0    0    0    0 -0.00000000000E+00 -0.00000000000E+00 -0.45593999997E+02  0.45594000000E+02  0.51100000000E-03 0.  1.
    9900012    2    1    2    0    0  0.89843022905E+01  0.13292316451E+02  0.96579582686E+01  0.72461560878E+02  0.69999987733E+02 0.  0.
        -12    1    1    2    0    0 -0.89843022905E+01 -0.13292316451E+02 -0.96579582686E+01  0.18726439122E+02  0.00000000000E+00 0.  1.
         11    1    3    3    0    0  0.12418156417E+02  0.28459981177E+02  0.43456782886E+01  0.31353884248E+02  0.51100000000E-03 0. -1.
        -11    1    3    3    0    0  0.20716041169E+01  0.62302403168E+01  0.15458179214E+02  0.16794723663E+02  0.51100000000E-03 0.  1.
        -12    1    3    3    0    0 -0.55054582434E+01 -0.21397905043E+02 -0.10145899234E+02  0.24312952967E+02  0.00000000000E+00 0.  1.
</event>
<event>
 7    1  0.1749439E-013  0.7246157E+02  0.7816164E-02  0.1226708E+00
        -11   -1    0    0    0    0  0.00000000000E+00  0.00000000000E+00  0.45593999997E+02  0.45594000000E+02  0.51100000000E-03 0.  1.
         11   -1    0    0    0    0 -0.00000000000E+00 -0.00000000000E+00 -0.45593999997E+02  0.45594000000E+02  0.51100000000E-03 0. -1.
    9900012    2    1    2    0    0  0.13656393925E+02  0.99460043304E+01 -0.80782998874E+01  0.72461574120E+02  0.70000004984E+02 0.  0.
        -12    1    1    2    0    0 -0.13656393925E+02 -0.99460043304E+01  0.80782998874E+01  0.18726425880E+02  0.00000000000E+00 0.  1.
         11    1    3    3    0    0  0.25910355647E+02  0.27292399933E+01 -0.13249661708E+02  0.29229245908E+02  0.51100000000E-03 0. -1.
        -11    1    3    3    0    0  0.76270615260E+01 -0.10497977531E+02 -0.60734084794E+01  0.14327103356E+02  0.51100000000E-03 0.  1.
        -12    1    3    3    0    0 -0.19881023249E+02  0.17714741868E+02  0.11244770301E+02  0.28905224856E+02  0.00000000000E+00 0.  1.
</event>
<event>
 7    1  0.1749439E-013  0.7246151E+02  0.7816164E-02  0.1226708E+00
        -11   -1    0    0    0    0  0.00000000000E+00  0.00000000000E+00  0.45593999997E+02  0.45594000000E+02  0.51100000000E-03 0. -1.
         11   -1    0    0    0    0 -0.00000000000E+00 -0.00000000000E+00 -0.45593999997E+02  0.45594000000E+02  0.51100000000E-03 0.  1.
    9900012    2    1    2    0    0  0.15527902359E+02  0.50771916380E+01  0.91535659245E+01  0.72461510854E+02  0.69999922568E+02 0.  0.
        -12    1    1    2    0    0 -0.15527902359E+02 -0.50771916380E+01 -0.91535659245E+01  0.18726489146E+02  0.00000000000E+00 0.  1.
         11    1    3    3    0    0  0.84041130311E+01 -0.10797479743E+02  0.30705538839E+02  0.33616138985E+02  0.51100000000E-03 0. -1.
        -11    1    3    3    0    0  0.16521201588E+02  0.42028713059E+01 -0.14031510014E+02  0.22079345613E+02  0.51100000000E-03 0.  1.
         12    1    3    3    0    0 -0.93974122604E+01  0.11671800075E+02 -0.75204628998E+01  0.16766026256E+02  0.00000000000E+00 0. -1.
</event>
<event>
 7    1  0.1749439E-013  0.7246160E+02  0.7816164E-02  0.1226708E+00
        -11   -1    0    0    0    0  0.00000000000E+00  0.00000000000E+00  0.45593999997E+02  0.45594000000E+02  0.51100000000E-03 0.  1.
         11   -1    0    0    0    0 -0.00000000000E+00 -0.00000000000E+00 -0.45593999997E+02  0.45594000000E+02  0.51100000000E-03 0. -1.
    9900012    2    1    2    0    0 -0.17502149498E+02  0.18506648092E+01 -0.63974821995E+01  0.72461602168E+02  0.70000041521E+02 0.  0.
        -12    1    1    2    0    0  0.17502149498E+02 -0.18506648092E+01  0.63974821995E+01  0.18726397832E+02  0.00000000000E+00 0.  1.
         11    1    3    3    0    0  0.22645296794E+01 -0.36097711669E+00 -0.17039053835E+01  0.28568676842E+01  0.51100000000E-03 0. -1.
        -11    1    3    3    0    0  0.14760892866E+02  0.11366630638E+02  0.19102896880E+02  0.26683420315E+02  0.51100000000E-03 0.  1.
         12    1    3    3    0    0 -0.34527572043E+02 -0.91549887118E+01 -0.23796473696E+02  0.42921314168E+02  0.00000000000E+00 0. -1.
</event>
<event>
 7    1  0.1749439E-013  0.7246158E+02  0.7816164E-02  0.1226708E+00
        -11   -1    0    0    0    0  0.00000000000E+00  0.00000000000E+00  0.45593999997E+02  0.45594000000E+02  0.51100000000E-03 0.  1.
         11   -1    0    0    0    0 -0.00000000000E+00 -0.00000000000E+00 -0.45593999997E+02  0.45594000000E+02  0.51100000000E-03 0. -1.
    9900012    2    1    2    0    0 -0.15876312844E+02  0.99243141069E+01 -0.35983033959E+00  0.72461580217E+02  0.70000012927E+02 0.  0.
        -12    1    1    2    0    0  0.15876312844E+02 -0.99243141069E+01  0.35983033959E+00  0.18726419783E+02  0.00000000000E+00 0.  1.
         11    1    3    3    0    0 -0.25134328336E+02 -0.83191092917E+01 -0.14386910948E+02  0.30131797942E+02  0.51100000000E-03 0. -1.
        -11    1    3    3    0    0  0.10500101840E+02 -0.32789733082E+01 -0.63195254540E+01  0.12686221141E+02  0.51100000000E-03 0.  1.
        -12    1    3    3    0    0 -0.12420863479E+01  0.21522396707E+02  0.20346606062E+02  0.29643561135E+02  0.00000000000E+00 0.  1.
</event>
<event>
 7    1  0.1749439E-013  0.7246151E+02  0.7816164E-02  0.1226708E+00
        -11   -1    0    0    0    0  0.00000000000E+00  0.00000000000E+00  0.45593999997E+02  0.45594000000E+02  0.51100000000E-03 0.  1.
         11   -1    0    0    0    0 -0.00000000000E+00 -0.00000000000E+00 -0.45593999997E+02  0.45594000000E+02  0.51100000000E-03 0. -1.
    9900012    2    1    2    0    0 -0.11632565037E+02 -0.83105320516E+01 -0.12095448795E+02  0.72461510904E+02  0.69999922633E+02 0.  0.
        -12    1    1    2    0    0  0.11632565037E+02  0.83105320516E+01  0.12095448795E+02  0.18726489096E+02  0.00000000000E+00 0.  1.
         11    1    3    3    0    0  0.18680630308E+02 -0.16563519008E+02 -0.83979741242E+01  0.26340882299E+02  0.51100000000E-03 0. -1.
        -11    1    3    3    0    0 -0.73993982849E+01  0.18242783803E+02  0.37451979240E+01  0.20039380320E+02  0.51100000000E-03 0.  1.
         12    1    3    3    0    0 -0.22913797060E+02 -0.99897968468E+01 -0.74426725947E+01  0.26081248285E+02  0.00000000000E+00 0. -1.
</event>
<event>
 7    1  0.1749439E-013  0.7246154E+02  0.7816164E-02  0.1226708E+00
        -11   -1    0    0    0    0  0.00000000000E+00  0.00000000000E+00  0.45593999997E+02  0.45594000000E+02  0.51100000000E-03 0.  1.
         11   -1    0    0    0    0 -0.00000000000E+00 -0.00000000000E+00 -0.45593999997E+02  0.45594000000E+02  0.51100000000E-03 0. -1.
    9900012    2    1    2    0    0 -0.25351341989E+01 -0.15974199930E+02 -0.94381301952E+01  0.72461540901E+02  0.69999961709E+02 0.  0.
        -12    1    1    2    0    0  0.25351341989E+01  0.15974199930E+02  0.94381301952E+01  0.18726459099E+02  0.00000000000E+00 0.  1.
         11    1    3    3    0    0 -0.17955250481E+02  0.29710585530E+01 -0.23372320619E+02  0.29622349336E+02  0.51100000000E-03 0. -1.
        -11    1    3    3    0    0 -0.94019367681E+01 -0.10946488913E+02  0.48365152644E+01  0.15218867063E+02  0.51100000000E-03 0.  1.
        -12    1    3    3    0    0  0.24822053051E+02 -0.79987695704E+01  0.90976751596E+01  0.27620324502E+02  0.00000000000E+00 0.  1.
</event>
<event>
 7    1  0.1749439E-013  0.7246157E+02  0.7816164E-02  0.1226708E+00
        -11   -1    0    0    0    0  0.00000000000E+00  0.00000000000E+00  0.45593999997E+02  0.45594000000E+02  0.51100000000E-03 0. -1.
         11   -1    0    0    0    0 -0.00000000000E+00 -0.00000000000E+00 -0.45593999997E+02  0.45594000000E+02  0.51100000000E-03 0.  1.
    9900012    2    1    2    0    0  0.13507611216E+01  0.83589723850E+01  0.16702757989E+02  0.72461572167E+02  0.70000002440E+02 0.  0.
        -12    1    1    2    0    0 -0.13507611216E+01 -0.83589723850E+01 -0.16702757989E+02  0.18726427833E+02  0.00000000000E+00 0.  1.
         11    1    3    3    0    0  0.65938500900E+01  0.79430260719E+01 -0.94796086082E+01  0.14015473656E+02  0.51100000000E-03 0. -1.
        -11    1    3    3    0    0 -0.82937352203E+01  0.15121427342E+02 -0.95298736412E+01  0.19704367552E+02  0.51100000000E-03 0.  1.
         12    1    3    3    0    0  0.30506462519E+01 -0.14705481029E+02  0.35712240238E+02  0.38741730959E+02  0.00000000000E+00 0. -1.
</event>
<event>
 7    1  0.1749439E-013  0.7246172E+02  0.7816164E-02  0.1226708E+00
        -11   -1    0    0    0    0  0.00000000000E+00  0.00000000000E+00  0.45593999997E+02  0.45594000000E+02  0.51100000000E-03 0. -1.
         11   -1    0    0    0    0 -0.00000000000E+00 -0.00000000000E+00 -0.45593999997E+02  0.45594000000E+02  0.51100000000E-03 0.  1.
    9900012    2    1    2    0    0  0.15702147547E+02  0.86524102975E+01  0.54084988154E+01  0.72461721646E+02  0.70000197164E+02 0.  0.
        -12    1    1    2    0    0 -0.15702147547E+02 -0.86524102975E+01 -0.54084988154E+01  0.18726278354E+02  0.00000000000E+00 0.  1.
         11    1    3    3    0    0 -0.24452823355E-01  0.19066626151E+02  0.90349910488E+01  0.21099002209E+02  0.51100000000E-03 0. -1.
        -11    1    3    3    0    0  0.74917042080E+01  0.43361340393E+01 -0.23638579603E+02  0.25173599986E+02  0.51100000000E-03 0.  1.
         12    1    3    3    0    0  0.82348961625E+01 -0.14750349893E+02  0.20012087369E+02  0.26189119451E+02  0.00000000000E+00 0. -1.
</event>
<event>
 7    1  0.1749439E-013  0.7246140E+02  0.7816164E-02  0.1226708E+00
        -11   -1    0    0    0    0  0.00000000000E+00  0.00000000000E+00  0.45593999997E+02  0.45594000000E+02  0.51100000000E-03 0.  1.
         11   -1    0    0    0    0 -0.00000000000E+00 -0.00000000000E+00 -0.45593999997E+02  0.45594000000E+02  0.51100000000E-03 0. -1.
    9900012    2    1    2    0    0 -0.11463055081E+02 -0.13392181147E+02 -0.63192800875E+01  0.72461402645E+02  0.69999781605E+02 0.  0.
        -12    1    1    2    0    0  0.11463055081E+02  0.13392181147E+02  0.63192800875E+01  0.18726597355E+02  0.00000000000E+00 0.  1.
         11    1    3    3    0    0  0.73633579293E+01 -0.27703220185E+02  0.18492904024E+02  0.34112680166E+02  0.51100000000E-03 0. -1.
        -11    1    3    3    0    0  0.15505561172E+01  0.22293646559E+01  0.13688120393E+01  0.30410422065E+01  0.51100000000E-03 0.  1.
        -12    1    3    3    0    0 -0.20376969128E+02  0.12081674382E+02 -0.26180996151E+02  0.35307680272E+02  0.00000000000E+00 0.  1.
</event>
<event>
 7    1  0.1749439E-013  0.7246152E+02  0.7816164E-02  0.1226708E+00
        -11   -1    0    0    0    0  0.00000000000E+00  0.00000000000E+00  0.45593999997E+02  0.45594000000E+02  0.51100000000E-03 0. -1.
         11   -1    0    0    0    0 -0.00000000000E+00 -0.00000000000E+00 -0.45593999997E+02  0.45594000000E+02  0.51100000000E-03 0.  1.
    9900012    2    1    2    0    0  0.27903971185E+00 -0.13028077512E+02  0.13448886954E+02  0.72461515356E+02  0.69999928433E+02 0.  0.
        -12    1    1    2    0    0 -0.27903971185E+00  0.13028077512E+02 -0.13448886954E+02  0.18726484644E+02  0.00000000000E+00 0.  1.
         11    1    3    3    0    0  0.28485014195E+01  0.35676267578E+01 -0.49545594904E+01  0.67371790109E+01  0.51100000000E-03 0. -1.
        -11    1    3    3    0    0 -0.15176008577E+02  0.15028077617E+02  0.22981918660E+02  0.31373921316E+02  0.51100000000E-03 0.  1.
         12    1    3    3    0    0  0.12606546869E+02 -0.31623781887E+02 -0.45784722160E+01  0.34350415029E+02  0.00000000000E+00 0. -1.
</event>
<event>
 7    1  0.1749439E-013  0.7246154E+02  0.7816164E-02  0.1226708E+00
        -11   -1    0    0    0    0  0.00000000000E+00  0.00000000000E+00  0.45593999997E+02  0.45594000000E+02  0.51100000000E-03 0.  1.
         11   -1    0    0    0    0 -0.00000000000E+00 -0.00000000000E+00 -0.45593999997E+02  0.45594000000E+02  0.51100000000E-03 0. -1.
    9900012    2    1    2    0    0 -0.11058371359E+02  0.13551968731E+02 -0.66885594271E+01  0.72461541157E+02  0.69999962044E+02 0.  0.
        -12    1    1    2    0    0  0.11058371359E+02 -0.13551968731E+02  0.66885594271E+01  0.18726458843E+02  0.00000000000E+00 0.  1.
         11    1    3    3    0    0 -0.11400061964E+02  0.21470895763E+02 -0.16486859246E+02  0.29373071097E+02  0.51100000000E-03 0. -1.
        -11    1    3    3    0    0  0.62103996217E+01  0.13743562222E+02 -0.53598815563E+01  0.16005714498E+02  0.51100000000E-03 0.  1.
        -12    1    3    3    0    0 -0.58687090167E+01 -0.21662489254E+02  0.15158181376E+02  0.27082755562E+02  0.00000000000E+00 0.  1.
</event>
<event>
 7    1  0.1749439E-013  0.7246164E+02  0.7816164E-02  0.1226708E+00
        -11   -1    0    0    0    0  0.00000000000E+00  0.00000000000E+00  0.45593999997E+02  0.45594000000E+02  0.51100000000E-03 0.  1.
         11   -1    0    0    0    0 -0.00000000000E+00 -0.00000000000E+00 -0.45593999997E+02  0.45594000000E+02  0.51100000000E-03 0. -1.
    9900012    2    1    2    0    0  0.18998773304E+01  0.95454868154E+01 -0.15998456722E+02  0.72461642375E+02  0.70000093898E+02 0.  0.
        -12    1    1    2    0    0 -0.18998773304E+01 -0.95454868154E+01  0.15998456722E+02  0.18726357625E+02  0.00000000000E+00 0.  1.
         11    1    3    3    0    0  0.13407277927E+02 -0.24860424220E+02 -0.14051949684E+02  0.31547631988E+02  0.51100000000E-03 0. -1.
        -11    1    3    3    0    0 -0.23455930961E+01 -0.11761701114E+01 -0.32144931123E+01  0.41494757902E+01  0.51100000000E-03 0.  1.
        -12    1    3    3    0    0 -0.91618075010E+01  0.35582081147E+02  0.12679860743E+01  0.36764534597E+02  0.00000000000E+00 0.  1.
</event>
<event>
 7    1  0.1749439E-013  0.7246153E+02  0.7816164E-02  0.1226708E+00
        -11   -1    0    0    0    0  0.00000000000E+00  0.00000000000E+00  0.45593999997E+02  0.45594000000E+02  0.51100000000E-03 0. -1.
         11   -1    0    0    0    0 -0.00000000000E+00 -0.00000000000E+00 -0.45593999997E+02  0.45594000000E+02  0.51100000000E-03 0.  1.
    9900012    2    1    2    0    0 -0.12675244850E+02 -0.13203026351E+02  0.39621725170E+01  0.72461533492E+02  0.69999952058E+02 0.  0.
        -12    1    1    2    0    0  0.12675244850E+02  0.13203026351E+02 -0.39621725170E+01  0.18726466508E+02  0.00000000000E+00 0.  1.
         11    1    3    3    0    0  0.14417556141E+02  0.62070362162E+01 -0.15923335317E+02  0.22359468499E+02  0.51100000000E-03 0. -1.
        -11    1    3    3    0    0 -0.12999888695E+02  0.70193391722E+01  0.12250459868E+02  0.19192237904E+02  0.51100000000E-03 0.  1.
        -12    1    3    3    0    0 -0.14092912296E+02 -0.26429401739E+02  0.76350479663E+01  0.30909827089E+02  0.00000000000E+00 0.  1.
</event>
<event>
 7    1  0.1749439E-013  0.7246175E+02  0.7816164E-02  0.1226708E+00
        -11   -1    0    0    0    0  0.00000000000E+00  0.00000000000E+00  0.45593999997E+02  0.45594000000E+02  0.51100000000E-03 0.  1.
         11   -1    0    0    0    0 -0.00000000000E+00 -0.00000000000E+00 -0.45593999997E+02  0.45594000000E+02  0.51100000000E-03 0. -1.
    9900012    2    1    2    0    0  0.70486092882E+00  0.28222936341E+01 -0.18498925704E+02  0.72461750443E+02  0.70000234677E+02 0.  0.
        -12    1    1    2    0    0 -0.70486092882E+00 -0.28222936341E+01  0.18498925704E+02  0.18726249557E+02  0.00000000000E+00 0.  1.
         11    1    3    3    0    0  0.23753027083E+02 -0.51257264233E+01 -0.14993447930E+02  0.28553158285E+02  0.51100000000E-03 0. -1.
        -11    1    3    3    0    0  0.18154287334E+01 -0.71353808712E+01  0.95273101942E+01  0.12040725952E+02  0.51100000000E-03 0.  1.
        -12    1    3    3    0    0 -0.24863594887E+02  0.15083400929E+02 -0.13032787968E+02  0.31867866206E+02  0.00000000000E+00 0.  1.
</event>
<event>
 7    1  0.1749439E-013  0.7246155E+02  0.7816164E-02  0.1226708E+00
        -11   -1    0    0    0    0  0.00000000000E+00  0.00000000000E+00  0.45593999997E+02  0.45594000000E+02  0.51100000000E-03 0. -1.
         11   -1    0    0    0    0 -0.00000000000E+00 -0.00000000000E+00 -0.45593999997E+02  0.45594000000E+02  0.51100000000E-03 0.  1.
    9900012    2    1    2    0    0  0.10184426790E+02  0.14948786276E+02  0.48467525481E+01  0.72461554250E+02  0.69999979099E+02 0.  0.
        -12    1    1    2    0    0 -0.10184426790E+02 -0.14948786276E+02 -0.48467525481E+01  0.18726445750E+02  0.00000000000E+00 0.  1.
         11    1    3    3    0    0 -0.11699102785E+02  0.11680195670E+02 -0.17570373409E+02  0.24124966297E+02  0.51100000000E-03 0. -1.
        -11    1    3    3    0    0  0.16980202963E+02  0.50812011123E+01 -0.65543634395E+01  0.18897237305E+02  0.51100000000E-03 0.  1.
         12    1    3    3    0    0  0.49033266115E+01 -0.18126105061E+01  0.28971489396E+02  0.29439350648E+02  0.00000000000E+00 0. -1.
</event>
<event>
 7    1  0.1749439E-013  0.7246154E+02  0.7816164E-02  0.1226708E+00
        -11   -1    0    0    0    0  0.00000000000E+00  0.00000000000E+00  0.45593999997E+02  0.45594000000E+02  0.51100000000E-03 0.  1.
         11   -1    0    0    0    0 -0.00000000000E+00 -0.00000000000E+00 -0.45593999997E+02  0.45594000000E+02  0.51100000000E-03 0. -1.
    9900012    2    1    2    0    0 -0.13870642637E+02  0.12009169654E+02 -0.37503787313E+01  0.72461542151E+02  0.69999963339E+02 0.  0.
        -12    1    1    2    0    0  0.13870642637E+02 -0.12009169654E+02  0.37503787313E+01  0.18726457849E+02  0.00000000000E+00 0.  1.
         11    1    3    3    0    0  0.15750748499E+02  0.13448143711E+02  0.55714563777E+01  0.21447139063E+02  0.51100000000E-03 0.  1.
        -11    1    3    3    0    0 -0.75308698487E+01  0.18103634183E+02  0.13376961194E+01  0.19653116865E+02  0.51100000000E-03 0. -1.
         12    1    3    3    0    0 -0.22090521287E+02 -0.19542608241E+02 -0.10659531228E+02  0.31361286224E+02  0.00000000000E+00 0. -1.
</event>
<event>
 7    1  0.1749439E-013  0.7246160E+02  0.7816164E-02  0.1226708E+00
        -11   -1    0    0    0    0  0.00000000000E+00  0.00000000000E+00  0.45593999997E+02  0.45594000000E+02  0.51100000000E-03 0. -1.
         11   -1    0    0    0    0 -0.00000000000E+00 -0.00000000000E+00 -0.45593999997E+02  0.45594000000E+02  0.51100000000E-03 0.  1.
    9900012    2    1    2    0    0  0.17270022275E+02  0.71922098219E+01 -0.83465060872E+00  0.72461596364E+02  0.70000033960E+02 0.  0.
        -12    1    1    2    0    0 -0.17270022275E+02 -0.71922098219E+01  0.83465060872E+00  0.18726403636E+02  0.00000000000E+00 0.  1.
         11    1    3    3    0    0  0.24212204924E+01 -0.22107474323E+02  0.85468108530E+01  0.23825421416E+02  0.51100000000E-03 0. -1.
        -11    1    3    3    0    0  0.83192582688E+01 -0.51718993205E+01  0.46579452252E+01  0.10846891477E+02  0.51100000000E-03 0.  1.
        -12    1    3    3    0    0  0.65295435139E+01  0.34471583466E+02 -0.14039406687E+02  0.37789283471E+02  0.00000000000E+00 0.  1.
</event>
<event>
 7    1  0.1749439E-013  0.7246157E+02  0.7816164E-02  0.1226708E+00
        -11   -1    0    0    0    0  0.00000000000E+00  0.00000000000E+00  0.45593999997E+02  0.45594000000E+02  0.51100000000E-03 0.  1.
         11   -1    0    0    0    0 -0.00000000000E+00 -0.00000000000E+00 -0.45593999997E+02  0.45594000000E+02  0.51100000000E-03 0. -1.
    9900012    2    1    2    0    0 -0.92106007943E+00 -0.15965059004E+02  0.97441043943E+01  0.72461573990E+02  0.70000004814E+02 0.  0.
        -12    1    1    2    0    0  0.92106007943E+00  0.15965059004E+02 -0.97441043943E+01  0.18726426010E+02  0.00000000000E+00 0.  1.
         11    1    3    3    0    0  0.73733368571E+01  0.80821719547E+01  0.71236527773E+01  0.13055038455E+02  0.51100000000E-03 0. -1.
        -11    1    3    3    0    0  0.94407377230E+01 -0.12759115211E+01  0.22450409451E+02  0.24388037308E+02  0.51100000000E-03 0.  1.
         12    1    3    3    0    0 -0.17735134660E+02 -0.22771319437E+02 -0.19829957834E+02  0.35018498226E+02  0.00000000000E+00 0. -1.
</event>
<event>
 7    1  0.1749439E-013  0.7246178E+02  0.7816164E-02  0.1226707E+00
        -11   -1    0    0    0    0  0.00000000000E+00  0.00000000000E+00  0.45593999997E+02  0.45594000000E+02  0.51100000000E-03 0. -1.
         11   -1    0    0    0    0 -0.00000000000E+00 -0.00000000000E+00 -0.45593999997E+02  0.45594000000E+02  0.51100000000E-03 0.  1.
    9900012    2    1    2    0    0  0.84458880499E+00  0.16137832850E+02  0.94619338897E+01  0.72461783824E+02  0.70000278161E+02 0.  0.
        -12    1    1    2    0    0 -0.84458880499E+00 -0.16137832850E+02 -0.94619338897E+01  0.18726216176E+02  0.00000000000E+00 0.  1.
         11    1    3    3    0    0 -0.18721852195E+02 -0.14259008629E+02 -0.99571446182E+01  0.25553313013E+02  0.51100000000E-03 0. -1.
        -11    1    3    3    0    0 -0.84844335761E+00  0.57295759494E+01 -0.41708928064E+01  0.71375236430E+01  0.51100000000E-03 0.  1.
        -12    1    3    3    0    0  0.20414884358E+02  0.24667265530E+02  0.23589971314E+02  0.39770947168E+02  0.00000000000E+00 0.  1.
</event>
<event>
 7    1  0.1749439E-013  0.7246164E+02  0.7816164E-02  0.1226708E+00
        -11   -1    0    0    0    0  0.00000000000E+00  0.00000000000E+00  0.45593999997E+02  0.45594000000E+02  0.51100000000E-03 0.  1.
         11   -1    0    0    0    0 -0.00000000000E+00 -0.00000000000E+00 -0.45593999997E+02  0.45594000000E+02  0.51100000000E-03 0. -1.
    9900012    2    1    2    0    0  0.27402622866E+01  0.16682099005E+02 -0.80545076915E+01  0.72461640002E+02  0.70000090807E+02 0.  0.
        -12    1    1    2    0    0 -0.27402622866E+01 -0.16682099005E+02  0.80545076915E+01  0.18726359998E+02  0.00000000000E+00 0.  1.
         11    1    3    3    0    0 -0.17334914194E+02  0.10571904462E+02 -0.30824952700E+02  0.36911273661E+02  0.51100000000E-03 0. -1.
        -11    1    3    3    0    0  0.38036625154E+01  0.35873651032E+00  0.16891887940E+02  0.17318557066E+02  0.51100000000E-03 0.  1.
        -12    1    3    3    0    0  0.16271513965E+02  0.57514580335E+01  0.58785570688E+01  0.18231809275E+02  0.00000000000E+00 0.  1.
</event>
<event>
 7    1  0.1749439E-013  0.7246153E+02  0.7816164E-02  0.1226708E+00
        -11   -1    0    0    0    0  0.00000000000E+00  0.00000000000E+00  0.45593999997E+02  0.45594000000E+02  0.51100000000E-03 0.  1.
         11   -1    0    0    0    0 -0.00000000000E+00 -0.00000000000E+00 -0.45593999997E+02  0.45594000000E+02  0.51100000000E-03 0. -1.
    9900012    2    1    2    0    0 -0.15867446336E+02  0.60471644716E+00 -0.99266815905E+01  0.72461533632E+02  0.69999952241E+02 0.  0.
        -12    1    1    2    0    0  0.15867446336E+02 -0.60471644716E+00  0.99266815905E+01  0.18726466368E+02  0.00000000000E+00 0.  1.
         11    1    3    3    0    0 -0.36185310188E+01 -0.14037005934E+01  0.65450512866E+01  0.76093257714E+01  0.51100000000E-03 0. -1.
        -11    1    3    3    0    0  0.15327277304E+02 -0.21501993412E+02 -0.53104580661E+01  0.26934403936E+02  0.51100000000E-03 0.  1.
         12    1    3    3    0    0 -0.27576192621E+02  0.23510410453E+02 -0.11161274811E+02  0.37917803925E+02  0.00000000000E+00 0. -1.
</event>
<event>
 7    1  0.1749439E-013  0.7246139E+02  0.7816164E-02  0.1226708E+00
        -11   -1    0    0    0    0  0.00000000000E+00  0.00000000000E+00  0.45593999997E+02  0.45594000000E+02  0.51100000000E-03 0.  1.
         11   -1    0    0    0    0 -0.00000000000E+00 -0.00000000000E+00 -0.45593999997E+02  0.45594000000E+02  0.51100000000E-03 0. -1.
    9900012    2    1    2    0    0 -0.12882901977E+02  0.12892744495E+02 -0.43004528106E+01  0.72461390101E+02  0.69999765264E+02 0.  0.
        -12    1    1    2    0    0  0.12882901977E+02 -0.12892744495E+02  0.43004528106E+01  0.18726609899E+02  0.00000000000E+00 0.  1.
         11    1    3    3    0    0  0.10739844859E+01  0.19125183092E+02 -0.18674423296E+02  0.26751825296E+02  0.51100000000E-03 0. -1.
        -11    1    3    3    0    0 -0.60331078905E+01  0.26678091122E+01 -0.13703174579E+02  0.15208306615E+02  0.51100000000E-03 0.  1.
        -12    1    3    3    0    0 -0.79237785723E+01 -0.89002477101E+01  0.28077145065E+02  0.30501258189E+02  0.00000000000E+00 0.  1.
</event>
<event>
 7    1  0.1749439E-013  0.7246170E+02  0.7816164E-02  0.1226708E+00
        -11   -1    0    0    0    0  0.00000000000E+00  0.00000000000E+00  0.45593999997E+02  0.45594000000E+02  0.51100000000E-03 0. -1.
         11   -1    0    0    0    0 -0.00000000000E+00 -0.00000000000E+00 -0.45593999997E+02  0.45594000000E+02  0.51100000000E-03 0.  1.
    9900012    2    1    2    0    0 -0.76397408188E+01  0.10282626819E+02  0.13659288813E+02  0.72461702316E+02  0.70000171982E+02 0.  0.
        -12    1    1    2    0    0  0.76397408188E+01 -0.10282626819E+02 -0.13659288813E+02  0.18726297684E+02  0.00000000000E+00 0.  1.
         11    1    3    3    0    0 -0.13082579272E+02 -0.72791160069E+01  0.13773357332E+02  0.20343175335E+02  0.51100000000E-03 0. -1.
        -11    1    3    3    0    0 -0.11459559348E+02  0.93833842810E+01  0.19813926969E+02  0.24737847587E+02  0.51100000000E-03 0.  1.
        -12    1    3    3    0    0  0.16902397802E+02  0.81783585450E+01 -0.19927995487E+02  0.27380679394E+02  0.00000000000E+00 0.  1.
</event>
<event>
 7    1  0.1749439E-013  0.7246165E+02  0.7816164E-02  0.1226708E+00
        -11   -1    0    0    0    0  0.00000000000E+00  0.00000000000E+00  0.45593999997E+02  0.45594000000E+02  0.51100000000E-03 0.  1.
         11   -1    0    0    0    0 -0.00000000000E+00 -0.00000000000E+00 -0.45593999997E+02  0.45594000000E+02  0.51100000000E-03 0. -1.
    9900012    2    1    2    0    0  0.39982262952E+01  0.67039974181E+01 -0.17021954665E+02  0.72461645963E+02  0.70000098572E+02 0.  0.
        -12    1    1    2    0    0 -0.39982262952E+01 -0.67039974181E+01  0.17021954665E+02  0.18726354037E+02  0.00000000000E+00 0.  1.
         11    1    3    3    0    0  0.14000787312E+02  0.16429302085E+02  0.61624131344E+00  0.21594530927E+02  0.51100000000E-03 0. -1.
        -11    1    3    3    0    0 -0.12879405005E+02  0.95877723684E+01  0.85577684919E+01  0.18194500656E+02  0.51100000000E-03 0.  1.
        -12    1    3    3    0    0  0.28768439887E+01 -0.19313077035E+02 -0.26195964471E+02  0.32672614380E+02  0.00000000000E+00 0.  1.
</event>
<event>
 7    1  0.1749439E-013  0.7246158E+02  0.7816164E-02  0.1226708E+00
        -11   -1    0    0    0    0  0.00000000000E+00  0.00000000000E+00  0.45593999997E+02  0.45594000000E+02  0.51100000000E-03 0.  1.
         11   -1    0    0    0    0 -0.00000000000E+00 -0.00000000000E+00 -0.45593999997E+02  0.45594000000E+02  0.51100000000E-03 0. -1.
    9900012    2    1    2    0    0  0.46582180655E+00  0.93716436707E+01 -0.16205985700E+02  0.72461583697E+02  0.70000017460E+02 0.  0.
        -12    1    1    2    0    0 -0.46582180655E+00 -0.93716436707E+01  0.16205985700E+02  0.18726416303E+02  0.00000000000E+00 0.  1.
         11    1    3    3    0    0  0.18738472966E+02 -0.93307729486E+01  0.68290184218E+01  0.22018837067E+02  0.51100000000E-03 0. -1.
        -11    1    3    3    0    0 -0.39608315474E+01  0.25659132063E+02 -0.50879127543E+01  0.26456872477E+02  0.51100000000E-03 0.  1.
        -12    1    3    3    0    0 -0.14311819612E+02 -0.69567154440E+01 -0.17947091367E+02  0.23985874154E+02  0.00000000000E+00 0.  1.
</event>
<event>
 7    1  0.1749439E-013  0.7246146E+02  0.7816164E-02  0.1226708E+00
        -11   -1    0    0    0    0  0.00000000000E+00  0.00000000000E+00  0.45593999997E+02  0.45594000000E+02  0.51100000000E-03 0. -1.
         11   -1    0    0    0    0 -0.00000000000E+00 -0.00000000000E+00 -0.45593999997E+02  0.45594000000E+02  0.51100000000E-03 0.  1.
    9900012    2    1    2    0    0  0.17728220294E+02 -0.99205869977E+00  0.59505890387E+01  0.72461455066E+02  0.69999849894E+02 0.  0.
        -12    1    1    2    0    0 -0.17728220294E+02  0.99205869977E+00 -0.59505890387E+01  0.18726544934E+02  0.00000000000E+00 0.  1.
         11    1    3    3    0    0  0.18920310724E+02 -0.51536675740E+01  0.17634710844E+02  0.26372741120E+02  0.51100000000E-03 0. -1.
        -11    1    3    3    0    0  0.12200085422E+02 -0.11521048632E+02  0.70746416397E+01  0.18210634269E+02  0.51100000000E-03 0.  1.
        -12    1    3    3    0    0 -0.13392175852E+02  0.15682657507E+02 -0.18758763445E+02  0.27878079678E+02  0.00000000000E+00 0.  1.
</event>
<event>
 7    1  0.1749439E-013  0.7246161E+02  0.7816164E-02  0.1226708E+00
        -11   -1    0    0    0    0  0.00000000000E+00  0.00000000000E+00  0.45593999997E+02  0.45594000000E+02  0.51100000000E-03 0.  1.
         11   -1    0    0    0    0 -0.00000000000E+00 -0.00000000000E+00 -0.45593999997E+02  0.45594000000E+02  0.51100000000E-03 0. -1.
    9900012    2    1    2    0    0  0.10012852339E+02 -0.20716561432E+01 -0.15688487110E+02  0.72461612229E+02  0.70000054628E+02 0.  0.
        -12    1    1    2    0    0 -0.10012852339E+02  0.20716561432E+01  0.15688487110E+02  0.18726387771E+02  0.00000000000E+00 0.  1.
         11    1    3    3    0    0  0.52289122152E+01 -0.15333770737E+02 -0.93757226023E+01  0.18718178932E+02  0.51100000000E-03 0. -1.
        -11    1    3    3    0    0  0.17465580908E+02  0.24554570471E+02 -0.16079423975E+02  0.34154374875E+02  0.51100000000E-03 0.  1.
         12    1    3    3    0    0 -0.12681640785E+02 -0.11292455877E+02  0.97666594668E+01  0.19589058422E+02  0.00000000000E+00 0. -1.
</event>
<event>
 7    1  0.1749439E-013  0.7246164E+02  0.7816164E-02  0.1226708E+00
        -11   -1    0    0    0    0  0.00000000000E+00  0.00000000000E+00  0.45593999997E+02  0.45594000000E+02  0.51100000000E-03 0.  1.
         11   -1    0    0    0    0 -0.00000000000E+00 -0.00000000000E+00 -0.45593999997E+02  0.45594000000E+02  0.51100000000E-03 0. -1.
    9900012    2    1    2    0    0 -0.16110859711E+02  0.57167833145E+01  0.76442771590E+01  0.72461644632E+02  0.70000096839E+02 0.  0.
        -12    1    1    2    0    0  0.16110859711E+02 -0.57167833145E+01 -0.76442771590E+01  0.18726355368E+02  0.00000000000E+00 0.  1.
         11    1    3    3    0    0 -0.27414313208E+01 -0.51994510954E+01 -0.11580178931E+01  0.59908883383E+01  0.51100000000E-03 0. -1.
        -11    1    3    3    0    0 -0.37832948498E+02  0.59518355623E+01  0.14352048020E+02  0.40899115165E+02  0.51100000000E-03 0.  1.
         12    1    3    3    0    0  0.24463520108E+02  0.49643988476E+01 -0.55497529678E+01  0.25571641129E+02  0.00000000000E+00 0. -1.
</event>
<event>
 7    1  0.1749439E-013  0.7246153E+02  0.7816164E-02  0.1226708E+00
        -11   -1    0    0    0    0  0.00000000000E+00  0.00000000000E+00  0.45593999997E+02  0.45594000000E+02  0.51100000000E-03 0.  1.
         11   -1    0    0    0    0 -0.00000000000E+00 -0.00000000000E+00 -0.45593999997E+02  0.45594000000E+02  0.51100000000E-03 0. -1.
    9900012    2    1    2    0    0 -0.17770880701E+02 -0.13788900561E+01 -0.57424042763E+01  0.72461528215E+02  0.69999945183E+02 0.  0.
        -12    1    1    2    0    0  0.17770880701E+02  0.13788900561E+01  0.57424042763E+01  0.18726471785E+02  0.00000000000E+00 0.  1.
         11    1    3    3    0    0 -0.15115271167E+01 -0.65133958486E+01 -0.16917439828E+02  0.18190899106E+02  0.51100000000E-03 0. -1.
        -11    1    3    3    0    0 -0.20465746147E+02 -0.12326563904E+02 -0.10520844997E+02  0.26105155100E+02  0.51100000000E-03 0.  1.
         12    1    3    3    0    0  0.42063925635E+01  0.17461069697E+02  0.21695880549E+02  0.28165474009E+02  0.00000000000E+00 0. -1.
</event>
<event>
 7    1  0.1749439E-013  0.7246159E+02  0.7816164E-02  0.1226708E+00
        -11   -1    0    0    0    0  0.00000000000E+00  0.00000000000E+00  0.45593999997E+02  0.45594000000E+02  0.51100000000E-03 0.  1.
         11   -1    0    0    0    0 -0.00000000000E+00 -0.00000000000E+00 -0.45593999997E+02  0.45594000000E+02  0.51100000000E-03 0. -1.
    9900012    2    1    2    0    0  0.17099046598E+02  0.74023538168E+01 -0.18724511940E+01  0.72461593242E+02  0.70000029894E+02 0.  0.
        -12    1    1    2    0    0 -0.17099046598E+02 -0.74023538168E+01  0.18724511940E+01  0.18726406758E+02  0.00000000000E+00 0.  1.
         11    1    3    3    0    0  0.94836488660E+00 -0.23528363314E+02 -0.12025290502E+02  0.26440326929E+02  0.51100000000E-03 0. -1.
        -11    1    3    3    0    0 -0.71948430115E+01  0.88115513752E+01 -0.21703432455E+01  0.11581001410E+02  0.51100000000E-03 0.  1.
        -12    1    3    3    0    0  0.23345524723E+02  0.22119165756E+02  0.12323182553E+02  0.34440264903E+02  0.00000000000E+00 0.  1.
</event>
<event>
 7    1  0.1749439E-013  0.7246158E+02  0.7816164E-02  0.1226708E+00
        -11   -1    0    0    0    0  0.00000000000E+00  0.00000000000E+00  0.45593999997E+02  0.45594000000E+02  0.51100000000E-03 0.  1.
         11   -1    0    0    0    0 -0.00000000000E+00 -0.00000000000E+00 -0.45593999997E+02  0.45594000000E+02  0.51100000000E-03 0. -1.
    9900012    2    1    2    0    0  0.44666363712E+01 -0.17399345214E+02 -0.52906177447E+01  0.72461583085E+02  0.70000016662E+02 0.  0.
        -12    1    1    2    0    0 -0.44666363712E+01  0.17399345214E+02  0.52906177447E+01  0.18726416915E+02  0.00000000000E+00 0.  1.
         11    1    3    3    0    0 -0.22024034933E+02 -0.19292867600E+02 -0.15267918750E+02  0.33020935755E+02  0.51100000000E-03 0. -1.
        -11    1    3    3    0    0  0.32532026346E+01  0.11961349123E+02  0.51702006478E+00  0.12406631704E+02  0.51100000000E-03 0.  1.
        -12    1    3    3    0    0  0.23237468669E+02 -0.10067826738E+02  0.94602809404E+01  0.27034015626E+02  0.00000000000E+00 0.  1.
</event>
<event>
 7    1  0.1749439E-013  0.7246176E+02  0.7816164E-02  0.1226708E+00
        -11   -1    0    0    0    0  0.00000000000E+00  0.00000000000E+00  0.45593999997E+02  0.45594000000E+02  0.51100000000E-03 0.  1.
         11   -1    0    0    0    0 -0.00000000000E+00 -0.00000000000E+00 -0.45593999997E+02  0.45594000000E+02  0.51100000000E-03 0. -1.
    9900012    2    1    2    0    0 -0.13600393005E+01  0.18002250101E+02  0.49740579267E+01  0.72461762582E+02  0.70000250490E+02 0.  0.
        -12    1    1    2    0    0  0.13600393005E+01 -0.18002250101E+02 -0.49740579267E+01  0.18726237418E+02  0.00000000000E+00 0.  1.
         11    1    3    3    0    0 -0.11017344348E+02  0.54267298990E+01  0.43474775552E+01  0.13028117103E+02  0.51100000000E-03 0. -1.
        -11    1    3    3    0    0 -0.78096852563E+01 -0.93414534145E+01  0.21350085832E+02  0.24578041032E+02  0.51100000000E-03 0.  1.
         12    1    3    3    0    0  0.17466990304E+02  0.21916973616E+02 -0.20723505460E+02  0.34855604447E+02  0.00000000000E+00 0. -1.
</event>
<event>
 7    1  0.1749439E-013  0.7246156E+02  0.7816164E-02  0.1226708E+00
        -11   -1    0    0    0    0  0.00000000000E+00  0.00000000000E+00  0.45593999997E+02  0.45594000000E+02  0.51100000000E-03 0.  1.
         11   -1    0    0    0    0 -0.00000000000E+00 -0.00000000000E+00 -0.45593999997E+02  0.45594000000E+02  0.51100000000E-03 0. -1.
    9900012    2    1    2    0    0 -0.84848954421E+01  0.51390807905E+01 -0.15883191379E+02  0.72461564930E+02  0.69999993012E+02 0.  0.
        -12    1    1    2    0    0  0.84848954421E+01 -0.51390807905E+01  0.15883191379E+02  0.18726435070E+02  0.00000000000E+00 0.  1.
         11    1    3    3    0    0 -0.19348489974E+01 -0.37959410082E+01  0.47610701470E+00  0.42871303841E+01  0.51100000000E-03 0. -1.
        -11    1    3    3    0    0 -0.11066901589E+02  0.21203376670E+02  0.18954905785E+02  0.30517993816E+02  0.51100000000E-03 0.  1.
         12    1    3    3    0    0  0.45168551446E+01 -0.12268354872E+02 -0.35314204179E+02  0.37656440730E+02  0.00000000000E+00 0. -1.
</event>
<event>
 7    1  0.1749439E-013  0.7246160E+02  0.7816164E-02  0.1226708E+00
        -11   -1    0    0    0    0  0.00000000000E+00  0.00000000000E+00  0.45593999997E+02  0.45594000000E+02  0.51100000000E-03 0.  1.
         11   -1    0    0    0    0 -0.00000000000E+00 -0.00000000000E+00 -0.45593999997E+02  0.45594000000E+02  0.51100000000E-03 0. -1.
    9900012    2    1    2    0    0  0.11469884302E+02  0.94758068795E+01 -0.11372292575E+02  0.72461596172E+02  0.70000033711E+02 0.  0.
        -12    1    1    2    0    0 -0.11469884302E+02 -0.94758068795E+01  0.11372292575E+02  0.18726403828E+02  0.00000000000E+00 0.  1.
         11    1    3    3    0    0 -0.61158932189E+01  0.29524223092E+02 -0.18322057419E+02  0.35281463793E+02  0.51100000000E-03 0. -1.
        -11    1    3    3    0    0  0.19851584949E+02 -0.10687283229E+02 -0.36710942316E+01  0.22842512579E+02  0.51100000000E-03 0.  1.
        -12    1    3    3    0    0 -0.22658074281E+01 -0.93611329838E+01  0.10620859076E+02  0.14337619800E+02  0.00000000000E+00 0.  1.
</event>
<event>
 7    1  0.1749439E-013  0.7246155E+02  0.7816164E-02  0.1226708E+00
        -11   -1    0    0    0    0  0.00000000000E+00  0.00000000000E+00  0.45593999997E+02  0.45594000000E+02  0.51100000000E-03 0.  1.
         11   -1    0    0    0    0 -0.00000000000E+00 -0.00000000000E+00 -0.45593999997E+02  0.45594000000E+02  0.51100000000E-03 0. -1.
    9900012    2    1    2    0    0  0.17004825712E+02 -0.77707439174E+01  0.10636716058E+01  0.72461549300E+02  0.69999972651E+02 0.  0.
        -12    1    1    2    0    0 -0.17004825712E+02  0.77707439174E+01 -0.10636716058E+01  0.18726450700E+02  0.00000000000E+00 0.  1.
         11    1    3    3    0    0  0.30507942847E+02 -0.78528183463E+01 -0.44647387379E+01  0.31817215859E+02  0.51100000000E-03 0. -1.
        -11    1    3    3    0    0  0.44098254325E+01  0.15646017523E+02 -0.10057417092E+00  0.16255907852E+02  0.51100000000E-03 0.  1.
        -12    1    3    3    0    0 -0.17912942567E+02 -0.15563943094E+02  0.56289845146E+01  0.24388425589E+02  0.00000000000E+00 0.  1.
</event>
<event>
 7    1  0.1749439E-013  0.7246155E+02  0.7816164E-02  0.1226708E+00
        -11   -1    0    0    0    0  0.00000000000E+00  0.00000000000E+00  0.45593999997E+02  0.45594000000E+02  0.51100000000E-03 0.  1.
         11   -1    0    0    0    0 -0.00000000000E+00 -0.00000000000E+00 -0.45593999997E+02  0.45594000000E+02  0.51100000000E-03 0. -1.
    9900012    2    1    2    0    0  0.74498656362E+01 -0.14922301359E+02 -0.85149401140E+01  0.72461553968E+02  0.69999978732E+02 0.  0.
        -12    1    1    2    0    0 -0.74498656362E+01  0.14922301359E+02  0.85149401140E+01  0.18726446032E+02  0.00000000000E+00 0.  1.
         11    1    3    3    0    0  0.40193445015E+01 -0.15799609479E+02 -0.10154500809E+02  0.19206683129E+02  0.51100000000E-03 0.  1.
        -11    1    3    3    0    0  0.13448582511E+02  0.11002394430E+01  0.24681029906E+02  0.28128777717E+02  0.51100000000E-03 0. -1.
         12    1    3    3    0    0 -0.10018061376E+02 -0.22293132332E+00 -0.23041469212E+02  0.25126093121E+02  0.00000000000E+00 0. -1.
</event>
<event>
 7    1  0.1749439E-013  0.7246159E+02  0.7816164E-02  0.1226708E+00
        -11   -1    0    0    0    0  0.00000000000E+00  0.00000000000E+00  0.45593999997E+02  0.45594000000E+02  0.51100000000E-03 0.  1.
         11   -1    0    0    0    0 -0.00000000000E+00 -0.00000000000E+00 -0.45593999997E+02  0.45594000000E+02  0.51100000000E-03 0. -1.
    9900012    2    1    2    0    0  0.12735493708E+00  0.18451742572E+02  0.31930129175E+01  0.72461592050E+02  0.70000028340E+02 0.  0.
        -12    1    1    2    0    0 -0.12735493708E+00 -0.18451742572E+02 -0.31930129175E+01  0.18726407950E+02  0.00000000000E+00 0.  1.
         11    1    3    3    0    0 -0.54690311496E+01 -0.81477263568E+00 -0.18754678320E+02  0.19552803260E+02  0.51100000000E-03 0. -1.
        -11    1    3    3    0    0 -0.79782041432E+01 -0.69979983054E+01 -0.60287281321E+01  0.12205297407E+02  0.51100000000E-03 0.  1.
        -12    1    3    3    0    0  0.13574590230E+02  0.26264513513E+02  0.27976419370E+02  0.40703491383E+02  0.00000000000E+00 0.  1.
</event>
<event>
 7    1  0.1749439E-013  0.7246155E+02  0.7816164E-02  0.1226708E+00
        -11   -1    0    0    0    0  0.00000000000E+00  0.00000000000E+00  0.45593999997E+02  0.45594000000E+02  0.51100000000E-03 0.  1.
         11   -1    0    0    0    0 -0.00000000000E+00 -0.00000000000E+00 -0.45593999997E+02  0.45594000000E+02  0.51100000000E-03 0. -1.
    9900012    2    1    2    0    0 -0.11706977530E+01 -0.17964326271E+02  0.51567710409E+01  0.72461552415E+02  0.69999976709E+02 0.  0.
        -12    1    1    2    0    0  0.11706977530E+01  0.17964326271E+02 -0.51567710409E+01  0.18726447585E+02  0.00000000000E+00 0.  1.
         11    1    3    3    0    0  0.98681871477E+01  0.29544154648E+01 -0.87473931596E+01  0.13513940050E+02  0.51100000000E-03 0. -1.
        -11    1    3    3    0    0  0.20214985101E+02 -0.15878196179E+01  0.22854292748E+01  0.20405636011E+02  0.51100000000E-03 0.  1.
         12    1    3    3    0    0 -0.31253870002E+02 -0.19330922117E+02  0.11618734926E+02  0.38541976354E+02  0.00000000000E+00 0. -1.
</event>
<event>
 7    1  0.1749439E-013  0.7246153E+02  0.7816164E-02  0.1226708E+00
        -11   -1    0    0    0    0  0.00000000000E+00  0.00000000000E+00  0.45593999997E+02  0.45594000000E+02  0.51100000000E-03 0.  1.
         11   -1    0    0    0    0 -0.00000000000E+00 -0.00000000000E+00 -0.45593999997E+02  0.45594000000E+02  0.51100000000E-03 0. -1.
    9900012    2    1    2    0    0 -0.26902745283E+01 -0.10422651133E+02 -0.15323562309E+02  0.72461526880E+02  0.69999943445E+02 0.  0.
        -12    1    1    2    0    0  0.26902745283E+01  0.10422651133E+02  0.15323562309E+02  0.18726473120E+02  0.00000000000E+00 0.  1.
         11    1    3    3    0    0  0.24067949605E+01  0.38388593733E+01 -0.54835236316E+01  0.71132647180E+01  0.51100000000E-03 0. -1.
        -11    1    3    3    0    0  0.25783210921E+02 -0.18763822867E+02  0.20479266258E+01  0.31953857634E+02  0.51100000000E-03 0.  1.
         12    1    3    3    0    0 -0.30880280409E+02  0.45023123601E+01 -0.11887965303E+02  0.33394404528E+02  0.00000000000E+00 0. -1.
</event>
<event>
 7    1  0.1749439E-013  0.7246159E+02  0.7816164E-02  0.1226708E+00
        -11   -1    0    0    0    0  0.00000000000E+00  0.00000000000E+00  0.45593999997E+02  0.45594000000E+02  0.51100000000E-03 0.  1.
         11   -1    0    0    0    0 -0.00000000000E+00 -0.00000000000E+00 -0.45593999997E+02  0.45594000000E+02  0.51100000000E-03 0. -1.
    9900012    2    1    2    0    0  0.15266530537E+02 -0.13500236587E+01 -0.10760532906E+02  0.72461585850E+02  0.70000020264E+02 0.  0.
        -12    1    1    2    0    0 -0.15266530537E+02  0.13500236587E+01  0.10760532906E+02  0.18726414150E+02  0.00000000000E+00 0.  1.
         11    1    3    3    0    0  0.49989919865E+01 -0.18268203875E+02  0.86309745684E+00  0.18959486575E+02  0.51100000000E-03 0. -1.
        -11    1    3    3    0    0  0.13127815593E+02  0.12726176983E+02 -0.29617390213E+02  0.34806392030E+02  0.51100000000E-03 0.  1.
         12    1    3    3    0    0 -0.28602770432E+01  0.41920032334E+01  0.17993759850E+02  0.18695707245E+02  0.00000000000E+00 0. -1.
</event>
<event>
 7    1  0.1749439E-013  0.7246156E+02  0.7816164E-02  0.1226708E+00
        -11   -1    0    0    0    0  0.00000000000E+00  0.00000000000E+00  0.45593999997E+02  0.45594000000E+02  0.51100000000E-03 0. -1.
         11   -1    0    0    0    0 -0.00000000000E+00 -0.00000000000E+00 -0.45593999997E+02  0.45594000000E+02  0.51100000000E-03 0.  1.
    9900012    2    1    2    0    0 -0.38964524646E+01 -0.12910709180E+02  0.12992717624E+02  0.72461562415E+02  0.69999989736E+02 0.  0.
        -12    1    1    2    0    0  0.38964524646E+01  0.12910709180E+02 -0.12992717624E+02  0.18726437585E+02  0.00000000000E+00 0.  1.
         11    1    3    3    0    0 -0.94984087255E+01  0.42683046995E+01 -0.13371018398E+01  0.10498858743E+02  0.51100000000E-03 0. -1.
        -11    1    3    3    0    0  0.16006310072E+02  0.17492797697E+02  0.90559901439E+01  0.25381309878E+02  0.51100000000E-03 0.  1.
         12    1    3    3    0    0 -0.10404353811E+02 -0.34671811576E+02  0.52738293204E+01  0.36581393794E+02  0.00000000000E+00 0. -1.
</event>
<event>
 7    1  0.1749439E-013  0.7246156E+02  0.7816164E-02  0.1226708E+00
        -11   -1    0    0    0    0  0.00000000000E+00  0.00000000000E+00  0.45593999997E+02  0.45594000000E+02  0.51100000000E-03 0.  1.
         11   -1    0    0    0    0 -0.00000000000E+00 -0.00000000000E+00 -0.45593999997E+02  0.45594000000E+02  0.51100000000E-03 0. -1.
    9900012    2    1    2    0    0  0.12450044896E+02 -0.47530753263E+01 -0.13156141608E+02  0.72461564008E+02  0.69999991811E+02 0.  0.
        -12    1    1    2    0    0 -0.12450044896E+02  0.47530753263E+01  0.13156141608E+02  0.18726435992E+02  0.00000000000E+00 0.  1.
         11    1    3    3    0    0  0.12886408086E+02  0.18794216215E+02 -0.12907984686E+02  0.26189657222E+02  0.51100000000E-03 0.  1.
        -11    1    3    3    0    0  0.98289821268E+01 -0.26962915597E+01  0.15246466827E+02  0.18339400993E+02  0.51100000000E-03 0. -1.
         12    1    3    3    0    0 -0.10265345317E+02 -0.20850999982E+02 -0.15494623748E+02  0.27932505792E+02  0.00000000000E+00 0. -1.
</event>
<event>
 7    1  0.1749439E-013  0.7246158E+02  0.7816164E-02  0.1226708E+00
        -11   -1    0    0    0    0  0.00000000000E+00  0.00000000000E+00  0.45593999997E+02  0.45594000000E+02  0.51100000000E-03 0. -1.
         11   -1    0    0    0    0 -0.00000000000E+00 -0.00000000000E+00 -0.45593999997E+02  0.45594000000E+02  0.51100000000E-03 0.  1.
    9900012    2    1    2    0    0 -0.98540956861E+01 -0.84015179538E-01  0.15923839037E+02  0.72461577223E+02  0.70000009026E+02 0.  0.
        -12    1    1    2    0    0  0.98540956861E+01  0.84015179538E-01 -0.15923839037E+02  0.18726422777E+02  0.00000000000E+00 0.  1.
         11    1    3    3    0    0  0.90120147011E+01  0.45456783145E+01  0.10527934345E+02  0.14584820950E+02  0.51100000000E-03 0. -1.
        -11    1    3    3    0    0 -0.15206413831E+02 -0.28605365838E+02 -0.21756398135E+01  0.32468991133E+02  0.51100000000E-03 0.  1.
         12    1    3    3    0    0 -0.36596965558E+01  0.23975672344E+02  0.75715445052E+01  0.25407765140E+02  0.00000000000E+00 0. -1.
</event>
<event>
 7    1  0.1749439E-013  0.7246157E+02  0.7816164E-02  0.1226708E+00
        -11   -1    0    0    0    0  0.00000000000E+00  0.00000000000E+00  0.45593999997E+02  0.45594000000E+02  0.51100000000E-03 0. -1.
         11   -1    0    0    0    0 -0.00000000000E+00 -0.00000000000E+00 -0.45593999997E+02  0.45594000000E+02  0.51100000000E-03 0.  1.
    9900012    2    1    2    0    0  0.10289550149E+02 -0.20509181677E+01  0.15511226189E+02  0.72461568266E+02  0.69999997358E+02 0.  0.
        -12    1    1    2    0    0 -0.10289550149E+02  0.20509181677E+01 -0.15511226189E+02  0.18726431734E+02  0.00000000000E+00 0.  1.
         11    1    3    3    0    0  0.21779284268E+02  0.71265561168E+01  0.10171935573E+02  0.25071762979E+02  0.51100000000E-03 0. -1.
        -11    1    3    3    0    0  0.13270092031E+02 -0.14077362927E+02  0.99143823099E+01  0.21738501934E+02  0.51100000000E-03 0.  1.
         12    1    3    3    0    0 -0.24759826150E+02  0.48998886422E+01 -0.45750916937E+01  0.25651303353E+02  0.00000000000E+00 0. -1.
</event>
<event>
 7    1  0.1749439E-013  0.7246155E+02  0.7816164E-02  0.1226708E+00
        -11   -1    0    0    0    0  0.00000000000E+00  0.00000000000E+00  0.45593999997E+02  0.45594000000E+02  0.51100000000E-03 0.  1.
         11   -1    0    0    0    0 -0.00000000000E+00 -0.00000000000E+00 -0.45593999997E+02  0.45594000000E+02  0.51100000000E-03 0. -1.
    9900012    2    1    2    0    0 -0.26673532324E+01  0.14558356014E+01 -0.18478248115E+02  0.72461551219E+02  0.69999975150E+02 0.  0.
        -12    1    1    2    0    0  0.26673532324E+01 -0.14558356014E+01  0.18478248115E+02  0.18726448781E+02  0.00000000000E+00 0.  1.
         11    1    3    3    0    0  0.13616915811E+01  0.13689513156E+02 -0.13924099071E+02  0.19573898682E+02  0.51100000000E-03 0. -1.
        -11    1    3    3    0    0 -0.13024490006E+02 -0.10850845383E+00 -0.24574417294E+02  0.27812786620E+02  0.51100000000E-03 0.  1.
        -12    1    3    3    0    0  0.89954451925E+01 -0.12125169101E+02  0.20020268250E+02  0.25074865917E+02  0.00000000000E+00 0.  1.
</event>
<event>
 7    1  0.1749439E-013  0.7246163E+02  0.7816164E-02  0.1226708E+00
        -11   -1    0    0    0    0  0.00000000000E+00  0.00000000000E+00  0.45593999997E+02  0.45594000000E+02  0.51100000000E-03 0.  1.
         11   -1    0    0    0    0 -0.00000000000E+00 -0.00000000000E+00 -0.45593999997E+02  0.45594000000E+02  0.51100000000E-03 0. -1.
    9900012    2    1    2    0    0  0.15491551016E+02  0.84369188194E+00 -0.10486985861E+02  0.72461632458E+02  0.70000080979E+02 0.  0.
        -12    1    1    2    0    0 -0.15491551016E+02 -0.84369188194E+00  0.10486985861E+02  0.18726367542E+02  0.00000000000E+00 0.  1.
         11    1    3    3    0    0  0.43184564744E+01 -0.23097196056E+02 -0.12872072159E+01  0.23532667393E+02  0.51100000000E-03 0. -1.
        -11    1    3    3    0    0  0.17010046225E+02 -0.53660541656E+01 -0.65353642600E+00  0.17848342220E+02  0.51100000000E-03 0.  1.
        -12    1    3    3    0    0 -0.58369516827E+01  0.29306942103E+02 -0.85462422188E+01  0.31080622845E+02  0.00000000000E+00 0.  1.
</event>
<event>
 7    1  0.1749439E-013  0.7246161E+02  0.7816164E-02  0.1226708E+00
        -11   -1    0    0    0    0  0.00000000000E+00  0.00000000000E+00  0.45593999997E+02  0.45594000000E+02  0.51100000000E-03 0. -1.
         11   -1    0    0    0    0 -0.00000000000E+00 -0.00000000000E+00 -0.45593999997E+02  0.45594000000E+02  0.51100000000E-03 0.  1.
    9900012    2    1    2    0    0  0.17196880698E+02  0.70305074494E+01  0.23488383996E+01  0.72461607326E+02  0.70000048241E+02 0.  0.
        -12    1    1    2    0    0 -0.17196880698E+02 -0.70305074494E+01 -0.23488383996E+01  0.18726392674E+02  0.00000000000E+00 0.  1.
         11    1    3    3    0    0  0.10948183283E+02  0.44957635697E+01  0.18958504015E+01  0.11986194404E+02  0.51100000000E-03 0. -1.
        -11    1    3    3    0    0  0.22243885112E-01  0.29259683722E+02 -0.10276191492E+02  0.31011767091E+02  0.51100000000E-03 0.  1.
         12    1    3    3    0    0  0.62264535297E+01 -0.26724939842E+02  0.10729179490E+02  0.29463645831E+02  0.00000000000E+00 0. -1.
</event>
<event>
 7    1  0.1749439E-013  0.7246157E+02  0.7816164E-02  0.1226708E+00
        -11   -1    0    0    0    0  0.00000000000E+00  0.00000000000E+00  0.45593999997E+02  0.45594000000E+02  0.51100000000E-03 0. -1.
         11   -1    0    0    0    0 -0.00000000000E+00 -0.00000000000E+00 -0.45593999997E+02  0.45594000000E+02  0.51100000000E-03 0.  1.
    9900012    2    1    2    0    0 -0.11206608643E+01  0.13307384136E+02  0.13127717470E+02  0.72461566296E+02  0.69999994791E+02 0.  0.
        -12    1    1    2    0    0  0.11206608643E+01 -0.13307384136E+02 -0.13127717470E+02  0.18726433704E+02  0.00000000000E+00 0.  1.
         11    1    3    3    0    0  0.13632013529E+02  0.82847246651E+01 -0.18004324762E+02  0.24054607999E+02  0.51100000000E-03 0. -1.
        -11    1    3    3    0    0 -0.70361465304E+01 -0.10695160532E+02  0.13102000027E+00  0.12802772485E+02  0.51100000000E-03 0.  1.
         12    1    3    3    0    0 -0.77165278625E+01  0.15717820003E+02  0.31001022231E+02  0.35604185811E+02  0.00000000000E+00 0. -1.
</event>
<event>
 7    1  0.1749439E-013  0.7246154E+02  0.7816164E-02  0.1226708E+00
        -11   -1    0    0    0    0  0.00000000000E+00  0.00000000000E+00  0.45593999997E+02  0.45594000000E+02  0.51100000000E-03 0. -1.
         11   -1    0    0    0    0 -0.00000000000E+00 -0.00000000000E+00 -0.45593999997E+02  0.45594000000E+02  0.51100000000E-03 0.  1.
    9900012    2    1    2    0    0 -0.12709709008E+02 -0.12220935736E+02  0.63081239133E+01  0.72461537424E+02  0.69999957180E+02 0.  0.
        -12    1    1    2    0    0  0.12709709008E+02  0.12220935736E+02 -0.63081239133E+01  0.18726462576E+02  0.00000000000E+00 0.  1.
         11    1    3    3    0    0 -0.69381627402E+01  0.23282766374E+01  0.21397648933E+02  0.22614560673E+02  0.51100000000E-03 0. -1.
        -11    1    3    3    0    0 -0.11305818510E+02  0.13627370201E+02 -0.10992182242E+02  0.20841180904E+02  0.51100000000E-03 0.  1.
        -12    1    3    3    0    0  0.55342722430E+01 -0.28176582574E+02 -0.40973427777E+01  0.29005795846E+02  0.00000000000E+00 0.  1.
</event>
<event>
 7    1  0.1749439E-013  0.7246159E+02  0.7816164E-02  0.1226708E+00
        -11   -1    0    0    0    0  0.00000000000E+00  0.00000000000E+00  0.45593999997E+02  0.45594000000E+02  0.51100000000E-03 0.  1.
         11   -1    0    0    0    0 -0.00000000000E+00 -0.00000000000E+00 -0.45593999997E+02  0.45594000000E+02  0.51100000000E-03 0. -1.
    9900012    2    1    2    0    0  0.11865126799E+02 -0.13851045372E+02  0.42480253151E+01  0.72461590549E+02  0.70000026385E+02 0.  0.
        -12    1    1    2    0    0 -0.11865126799E+02  0.13851045372E+02 -0.42480253151E+01  0.18726409451E+02  0.00000000000E+00 0.  1.
         11    1    3    3    0    0  0.64688342657E+01  0.40876428443E+01 -0.11873818380E+02  0.14125940817E+02  0.51100000000E-03 0. -1.
        -11    1    3    3    0    0  0.13141475531E+02  0.15551661371E+02  0.12206166465E+02  0.23739061703E+02  0.51100000000E-03 0.  1.
        -12    1    3    3    0    0 -0.77451829973E+01 -0.33490349587E+02  0.39156772304E+01  0.34596588029E+02  0.00000000000E+00 0.  1.
</event>
<event>
 7    1  0.1749439E-013  0.7246169E+02  0.7816164E-02  0.1226708E+00
        -11   -1    0    0    0    0  0.00000000000E+00  0.00000000000E+00  0.45593999997E+02  0.45594000000E+02  0.51100000000E-03 0. -1.
         11   -1    0    0    0    0 -0.00000000000E+00 -0.00000000000E+00 -0.45593999997E+02  0.45594000000E+02  0.51100000000E-03 0.  1.
    9900012    2    1    2    0    0 -0.16233696842E+02 -0.53756709305E+01  0.76317761716E+01  0.72461688066E+02  0.70000153419E+02 0.  0.
        -12    1    1    2    0    0  0.16233696842E+02  0.53756709305E+01 -0.76317761716E+01  0.18726311934E+02  0.00000000000E+00 0.  1.
         11    1    3    3    0    0 -0.14107565233E+01 -0.71651320398E+01 -0.18955180499E+01  0.75446895267E+01  0.51100000000E-03 0. -1.
        -11    1    3    3    0    0 -0.31008321736E+02  0.13369539125E+02 -0.11777735981E+02  0.35762769166E+02  0.51100000000E-03 0.  1.
         12    1    3    3    0    0  0.16185381417E+02 -0.11580078016E+02  0.21305030202E+02  0.29154229374E+02  0.00000000000E+00 0. -1.
</event>
<event>
 7    1  0.1749439E-013  0.7246155E+02  0.7816164E-02  0.1226708E+00
        -11   -1    0    0    0    0  0.00000000000E+00  0.00000000000E+00  0.45593999997E+02  0.45594000000E+02  0.51100000000E-03 0.  1.
         11   -1    0    0    0    0 -0.00000000000E+00 -0.00000000000E+00 -0.45593999997E+02  0.45594000000E+02  0.51100000000E-03 0. -1.
    9900012    2    1    2    0    0  0.51674747137E+00  0.85342328834E+01 -0.16660726003E+02  0.72461549461E+02  0.69999972861E+02 0.  0.
        -12    1    1    2    0    0 -0.51674747137E+00 -0.85342328834E+01  0.16660726003E+02  0.18726450539E+02  0.00000000000E+00 0.  1.
         11    1    3    3    0    0  0.14614281865E+02 -0.57959392378E+01 -0.11290217031E+02  0.19355597303E+02  0.51100000000E-03 0.  1.
        -11    1    3    3    0    0  0.32816805051E+01  0.17987316251E+02 -0.22116674781E+02  0.28695997569E+02  0.51100000000E-03 0. -1.
        -12    1    3    3    0    0 -0.17379214899E+02 -0.36571441299E+01  0.16746165810E+02  0.24409954589E+02  0.00000000000E+00 0.  1.
</event>
<event>
 7    1  0.1749439E-013  0.7246156E+02  0.7816164E-02  0.1226708E+00
        -11   -1    0    0    0    0  0.00000000000E+00  0.00000000000E+00  0.45593999997E+02  0.45594000000E+02  0.51100000000E-03 0. -1.
         11   -1    0    0    0    0 -0.00000000000E+00 -0.00000000000E+00 -0.45593999997E+02  0.45594000000E+02  0.51100000000E-03 0.  1.
    9900012    2    1    2    0    0  0.13062576190E+02  0.37304221658E+01  0.12889239897E+02  0.72461562769E+02  0.69999990197E+02 0.  0.
        -12    1    1    2    0    0 -0.13062576190E+02 -0.37304221658E+01 -0.12889239897E+02  0.18726437231E+02  0.00000000000E+00 0.  1.
         11    1    3    3    0    0  0.12281773619E+02 -0.80232503450E+00 -0.39276785500E+01  0.12919456170E+02  0.51100000000E-03 0. -1.
        -11    1    3    3    0    0 -0.12806315097E+02 -0.21399329583E+02  0.17146251428E+02  0.30264285077E+02  0.51100000000E-03 0.  1.
         12    1    3    3    0    0  0.13587117667E+02  0.25932076783E+02 -0.32933298086E+00  0.29277821521E+02  0.00000000000E+00 0. -1.
</event>
<event>
 7    1  0.1749439E-013  0.7246171E+02  0.7816164E-02  0.1226708E+00
        -11   -1    0    0    0    0  0.00000000000E+00  0.00000000000E+00  0.45593999997E+02  0.45594000000E+02  0.51100000000E-03 0.  1.
         11   -1    0    0    0    0 -0.00000000000E+00 -0.00000000000E+00 -0.45593999997E+02  0.45594000000E+02  0.51100000000E-03 0. -1.
    9900012    2    1    2    0    0  0.10641176630E+02 -0.86836807304E+01 -0.12729218144E+02  0.72461709774E+02  0.70000181697E+02 0.  0.
        -12    1    1    2    0    0 -0.10641176630E+02  0.86836807304E+01  0.12729218144E+02  0.18726290226E+02  0.00000000000E+00 0.  1.
         11    1    3    3    0    0  0.12519425999E+02  0.55070248054E+01  0.25354503167E+01  0.13910135086E+02  0.51100000000E-03 0.  1.
        -11    1    3    3    0    0  0.46973002944E+01 -0.32960044409E+02 -0.18974775051E+02  0.38320637338E+02  0.51100000000E-03 0. -1.
         12    1    3    3    0    0 -0.65755496634E+01  0.18769338873E+02  0.37101065908E+01  0.20230937349E+02  0.00000000000E+00 0. -1.
</event>
<event>
 7    1  0.1749439E-013  0.7246160E+02  0.7816164E-02  0.1226708E+00
        -11   -1    0    0    0    0  0.00000000000E+00  0.00000000000E+00  0.45593999997E+02  0.45594000000E+02  0.51100000000E-03 0. -1.
         11   -1    0    0    0    0 -0.00000000000E+00 -0.00000000000E+00 -0.45593999997E+02  0.45594000000E+02  0.51100000000E-03 0.  1.
    9900012    2    1    2    0    0  0.18049749692E+01  0.48349900419E+01  0.18001190366E+02  0.72461603712E+02  0.70000043533E+02 0.  0.
        -12    1    1    2    0    0 -0.18049749692E+01 -0.48349900419E+01 -0.18001190366E+02  0.18726396288E+02  0.00000000000E+00 0.  1.
         11    1    3    3    0    0 -0.19947428705E+02  0.16057276585E+02  0.22770295428E+02  0.34266928625E+02  0.51100000000E-03 0. -1.
        -11    1    3    3    0    0 -0.14928820346E+01 -0.14355083087E+02 -0.21936982662E+01  0.14598267690E+02  0.51100000000E-03 0.  1.
         12    1    3    3    0    0  0.23245285709E+02  0.31327965440E+01 -0.25754067962E+01  0.23596407397E+02  0.00000000000E+00 0. -1.
</event>
<event>
 7    1  0.1749439E-013  0.7246154E+02  0.7816164E-02  0.1226708E+00
        -11   -1    0    0    0    0  0.00000000000E+00  0.00000000000E+00  0.45593999997E+02  0.45594000000E+02  0.51100000000E-03 0. -1.
         11   -1    0    0    0    0 -0.00000000000E+00 -0.00000000000E+00 -0.45593999997E+02  0.45594000000E+02  0.51100000000E-03 0.  1.
    9900012    2    1    2    0    0 -0.17279322580E+02  0.36468096185E+01  0.62294397939E+01  0.72461544666E+02  0.69999966615E+02 0.  0.
        -12    1    1    2    0    0  0.17279322580E+02 -0.36468096185E+01 -0.62294397939E+01  0.18726455334E+02  0.00000000000E+00 0.  1.
         11    1    3    3    0    0  0.11357316830E+02 -0.10914980812E+02  0.23264320244E+01  0.15922868395E+02  0.51100000000E-03 0. -1.
        -11    1    3    3    0    0 -0.12332097818E+02 -0.16182675599E+02 -0.42752769407E+01  0.20790325137E+02  0.51100000000E-03 0.  1.
         12    1    3    3    0    0 -0.16304541592E+02  0.30744466030E+02  0.81782847103E+01  0.35748351134E+02  0.00000000000E+00 0. -1.
</event>
<event>
 7    1  0.1749439E-013  0.7246156E+02  0.7816164E-02  0.1226708E+00
        -11   -1    0    0    0    0  0.00000000000E+00  0.00000000000E+00  0.45593999997E+02  0.45594000000E+02  0.51100000000E-03 0.  1.
         11   -1    0    0    0    0 -0.00000000000E+00 -0.00000000000E+00 -0.45593999997E+02  0.45594000000E+02  0.51100000000E-03 0. -1.
    9900012    2    1    2    0    0 -0.17587228524E+02 -0.26299983725E+01 -0.58695976867E+01  0.72461556782E+02  0.69999982398E+02 0.  0.
        -12    1    1    2    0    0  0.17587228524E+02  0.26299983725E+01  0.58695976867E+01  0.18726443218E+02  0.00000000000E+00 0.  1.
         11    1    3    3    0    0 -0.66309546811E+01 -0.29696695130E+02 -0.10497704252E+02  0.32187964466E+02  0.51100000000E-03 0. -1.
        -11    1    3    3    0    0 -0.51984561697E+01 -0.20122560096E+01  0.87195149160E+01  0.10349060896E+02  0.51100000000E-03 0.  1.
        -12    1    3    3    0    0 -0.57578176732E+01  0.29078952768E+02 -0.40914083508E+01  0.29924531420E+02  0.00000000000E+00 0.  1.
</event>
<event>
 7    1  0.1749439E-013  0.7246156E+02  0.7816164E-02  0.1226708E+00
        -11   -1    0    0    0    0  0.00000000000E+00  0.00000000000E+00  0.45593999997E+02  0.45594000000E+02  0.51100000000E-03 0.  1.
         11   -1    0    0    0    0 -0.00000000000E+00 -0.00000000000E+00 -0.45593999997E+02  0.45594000000E+02  0.51100000000E-03 0. -1.
    9900012    2    1    2    0    0 -0.16059921483E+02  0.41790402342E+01 -0.86772180593E+01  0.72461559640E+02  0.69999986121E+02 0.  0.
        -12    1    1    2    0    0  0.16059921483E+02 -0.41790402342E+01  0.86772180593E+01  0.18726440360E+02  0.00000000000E+00 0.  1.
         11    1    3    3    0    0  0.19180489281E+02 -0.20188698379E+01  0.60337278525E+01  0.20208237839E+02  0.51100000000E-03 0. -1.
        -11    1    3    3    0    0 -0.92504986874E+01 -0.35475391634E+01  0.10727620340E+02  0.14602691481E+02  0.51100000000E-03 0.  1.
         12    1    3    3    0    0 -0.25989912076E+02  0.97454492355E+01 -0.25438566252E+02  0.37650630320E+02  0.00000000000E+00 0. -1.
</event>
<event>
 7    1  0.1749439E-013  0.7246162E+02  0.7816164E-02  0.1226708E+00
        -11   -1    0    0    0    0  0.00000000000E+00  0.00000000000E+00  0.45593999997E+02  0.45594000000E+02  0.51100000000E-03 0.  1.
         11   -1    0    0    0    0 -0.00000000000E+00 -0.00000000000E+00 -0.45593999997E+02  0.45594000000E+02  0.51100000000E-03 0. -1.
    9900012    2    1    2    0    0  0.16388986880E+02 -0.89925974198E+01  0.11006865683E+01  0.72461622608E+02  0.70000068148E+02 0.  0.
        -12    1    1    2    0    0 -0.16388986880E+02  0.89925974198E+01 -0.11006865683E+01  0.18726377392E+02  0.00000000000E+00 0.  1.
         11    1    3    3    0    0  0.11157955697E+01 -0.12563934997E+01  0.53290722513E+01  0.55877129222E+01  0.51100000000E-03 0. -1.
        -11    1    3    3    0    0 -0.18641517306E+02 -0.13860603913E+02  0.14763369602E+02  0.27524163758E+02  0.51100000000E-03 0.  1.
         12    1    3    3    0    0  0.33914708616E+02  0.61243999933E+01 -0.18991755285E+02  0.39349745928E+02  0.00000000000E+00 0. -1.
</event>
<event>
 7    1  0.1749439E-013  0.7246156E+02  0.7816164E-02  0.1226708E+00
        -11   -1    0    0    0    0  0.00000000000E+00  0.00000000000E+00  0.45593999997E+02  0.45594000000E+02  0.51100000000E-03 0.  1.
         11   -1    0    0    0    0 -0.00000000000E+00 -0.00000000000E+00 -0.45593999997E+02  0.45594000000E+02  0.51100000000E-03 0. -1.
    9900012    2    1    2    0    0 -0.35855505027E+01  0.64207346814E+01 -0.17222008491E+02  0.72461559261E+02  0.69999985628E+02 0.  0.
        -12    1    1    2    0    0  0.35855505027E+01 -0.64207346814E+01  0.17222008491E+02  0.18726440739E+02  0.00000000000E+00 0.  1.
         11    1    3    3    0    0  0.23223631334E+01  0.11020839710E+01  0.16040102143E+01  0.30299849226E+01  0.51100000000E-03 0. -1.
        -11    1    3    3    0    0 -0.10643739397E+02 -0.22948075665E+02  0.11427486528E+02  0.27757716291E+02  0.51100000000E-03 0.  1.
         12    1    3    3    0    0  0.47358257604E+01  0.28266726376E+02 -0.30253505234E+02  0.41673858048E+02  0.00000000000E+00 0. -1.
</event>
<event>
 7    1  0.1749439E-013  0.7246168E+02  0.7816164E-02  0.1226708E+00
        -11   -1    0    0    0    0  0.00000000000E+00  0.00000000000E+00  0.45593999997E+02  0.45594000000E+02  0.51100000000E-03 0.  1.
         11   -1    0    0    0    0 -0.00000000000E+00 -0.00000000000E+00 -0.45593999997E+02  0.45594000000E+02  0.51100000000E-03 0. -1.
    9900012    2    1    2    0    0 -0.78823548750E+01  0.14587352142E+02 -0.87036045070E+01  0.72461679157E+02  0.70000141814E+02 0.  0.
        -12    1    1    2    0    0  0.78823548750E+01 -0.14587352142E+02  0.87036045070E+01  0.18726320843E+02  0.00000000000E+00 0.  1.
         11    1    3    3    0    0 -0.33951958476E+01 -0.20913610366E+02 -0.13279268489E+02  0.25004908023E+02  0.51100000000E-03 0.  1.
        -11    1    3    3    0    0  0.39813369271E+01  0.14276523599E+02 -0.12128222056E+02  0.19151081962E+02  0.51100000000E-03 0. -1.
        -12    1    3    3    0    0 -0.84684959544E+01  0.21224438908E+02  0.16703886039E+02  0.28305689172E+02  0.00000000000E+00 0.  1.
</event>
<event>
 7    1  0.1749439E-013  0.7246159E+02  0.7816164E-02  0.1226708E+00
        -11   -1    0    0    0    0  0.00000000000E+00  0.00000000000E+00  0.45593999997E+02  0.45594000000E+02  0.51100000000E-03 0. -1.
         11   -1    0    0    0    0 -0.00000000000E+00 -0.00000000000E+00 -0.45593999997E+02  0.45594000000E+02  0.51100000000E-03 0.  1.
    9900012    2    1    2    0    0  0.16416387810E+02 -0.66178340519E+01 -0.61143083685E+01  0.72461593962E+02  0.70000030832E+02 0.  0.
        -12    1    1    2    0    0 -0.16416387810E+02  0.66178340519E+01  0.61143083685E+01  0.18726406038E+02  0.00000000000E+00 0.  1.
         11    1    3    3    0    0  0.12364273327E+02  0.21508301591E+02  0.25838062153E+01  0.24943102194E+02  0.51100000000E-03 0. -1.
        -11    1    3    3    0    0 -0.47467470347E+01 -0.11359211170E+02  0.13547170445E+02  0.18305439441E+02  0.51100000000E-03 0.  1.
        -12    1    3    3    0    0  0.87988615176E+01 -0.16766924473E+02 -0.22245285029E+02  0.29213052328E+02  0.00000000000E+00 0.  1.
</event>
<event>
 7    1  0.1749439E-013  0.7246154E+02  0.7816164E-02  0.1226708E+00
        -11   -1    0    0    0    0  0.00000000000E+00  0.00000000000E+00  0.45593999997E+02  0.45594000000E+02  0.51100000000E-03 0.  1.
         11   -1    0    0    0    0 -0.00000000000E+00 -0.00000000000E+00 -0.45593999997E+02  0.45594000000E+02  0.51100000000E-03 0. -1.
    9900012    2    1    2    0    0 -0.18671734478E+01  0.79370382465E+01 -0.16858154944E+02  0.72461540085E+02  0.69999960647E+02 0.  0.
        -12    1    1    2    0    0  0.18671734478E+01 -0.79370382465E+01  0.16858154944E+02  0.18726459915E+02  0.00000000000E+00 0.  1.
         11    1    3    3    0    0 -0.74566702944E+01 -0.95373440788E+00  0.17566413619E+02  0.19107339660E+02  0.51100000000E-03 0. -1.
        -11    1    3    3    0    0 -0.88600587627E+00 -0.13079187514E+02 -0.14272597130E+01  0.13186630464E+02  0.51100000000E-03 0.  1.
         12    1    3    3    0    0  0.64755027229E+01  0.21969960168E+02 -0.32997308850E+02  0.40167569962E+02  0.00000000000E+00 0. -1.
</event>
<event>
 7    1  0.1749439E-013  0.7246152E+02  0.7816164E-02  0.1226708E+00
        -11   -1    0    0    0    0  0.00000000000E+00  0.00000000000E+00  0.45593999997E+02  0.45594000000E+02  0.51100000000E-03 0.  1.
         11   -1    0    0    0    0 -0.00000000000E+00 -0.00000000000E+00 -0.45593999997E+02  0.45594000000E+02  0.51100000000E-03 0. -1.
    9900012    2    1    2    0    0 -0.11090490571E+02  0.39299463308E+01  0.14568376023E+02  0.72461520373E+02  0.69999934968E+02 0.  0.
        -12    1    1    2    0    0  0.11090490571E+02 -0.39299463308E+01 -0.14568376023E+02  0.18726479627E+02  0.00000000000E+00 0.  1.
         11    1    3    3    0    0  0.13035793551E+02  0.60116551267E+01 -0.24228843598E+01  0.14558237522E+02  0.51100000000E-03 0. -1.
        -11    1    3    3    0    0  0.14668807632E+02 -0.13574087609E+01  0.11554782394E+02  0.18722432329E+02  0.51100000000E-03 0.  1.
         12    1    3    3    0    0 -0.38795091754E+02 -0.72430003507E+00  0.54364779884E+01  0.39180850522E+02  0.00000000000E+00 0. -1.
</event>
<event>
 7    1  0.1749439E-013  0.7246156E+02  0.7816164E-02  0.1226708E+00
        -11   -1    0    0    0    0  0.00000000000E+00  0.00000000000E+00  0.45593999997E+02  0.45594000000E+02  0.51100000000E-03 0.  1.
         11   -1    0    0    0    0 -0.00000000000E+00 -0.00000000000E+00 -0.45593999997E+02  0.45594000000E+02  0.51100000000E-03 0. -1.
    9900012    2    1    2    0    0 -0.57884936497E+01  0.17278037855E+02 -0.43176557060E+01  0.72461564096E+02  0.69999991926E+02 0.  0.
        -12    1    1    2    0    0  0.57884936497E+01 -0.17278037855E+02  0.43176557060E+01  0.18726435904E+02  0.00000000000E+00 0.  1.
         11    1    3    3    0    0 -0.19166311413E+02  0.97804354487E+01  0.12510219036E+02  0.24889957641E+02  0.51100000000E-03 0. -1.
        -11    1    3    3    0    0  0.18500164462E+01 -0.13161650335E+02 -0.19674428166E+02  0.23743098457E+02  0.51100000000E-03 0.  1.
         12    1    3    3    0    0  0.11527801318E+02  0.20659252742E+02  0.28465534236E+01  0.23828507999E+02  0.00000000000E+00 0. -1.
</event>
<event>
 7    1  0.1749439E-013  0.7246153E+02  0.7816164E-02  0.1226708E+00
        -11   -1    0    0    0    0  0.00000000000E+00  0.00000000000E+00  0.45593999997E+02  0.45594000000E+02  0.51100000000E-03 0. -1.
         11   -1    0    0    0    0 -0.00000000000E+00 -0.00000000000E+00 -0.45593999997E+02  0.45594000000E+02  0.51100000000E-03 0.  1.
    9900012    2    1    2    0    0 -0.36219078195E+01  0.12870052314E+02  0.13111980701E+02  0.72461534751E+02  0.69999953698E+02 0.  0.
        -12    1    1    2    0    0  0.36219078195E+01 -0.12870052314E+02 -0.13111980701E+02  0.18726465249E+02  0.00000000000E+00 0.  1.
         11    1    3    3    0    0  0.67827625502E+01 -0.31749373419E+01  0.55150800285E+01  0.93006560478E+01  0.51100000000E-03 0. -1.
        -11    1    3    3    0    0 -0.30476153349E+01 -0.22882748361E+02  0.26544735412E+01  0.23236918079E+02  0.51100000000E-03 0.  1.
         12    1    3    3    0    0 -0.73570550348E+01  0.38927738017E+02  0.49424271316E+01  0.39923960623E+02  0.00000000000E+00 0. -1.
</event>
<event>
 7    1  0.1749439E-013  0.7246159E+02  0.7816164E-02  0.1226708E+00
        -11   -1    0    0    0    0  0.00000000000E+00  0.00000000000E+00  0.45593999997E+02  0.45594000000E+02  0.51100000000E-03 0.  1.
         11   -1    0    0    0    0 -0.00000000000E+00 -0.00000000000E+00 -0.45593999997E+02  0.45594000000E+02  0.51100000000E-03 0. -1.
    9900012    2    1    2    0    0  0.70489413260E+01 -0.17334350411E+02 -0.71507169000E+00  0.72461585353E+02  0.70000019617E+02 0.  0.
        -12    1    1    2    0    0 -0.70489413260E+01  0.17334350411E+02  0.71507169000E+00  0.18726414647E+02  0.00000000000E+00 0.  1.
         11    1    3    3    0    0  0.11199524635E+01 -0.35161979785E+01  0.14711973895E+01  0.39727023251E+01  0.51100000000E-03 0. -1.
        -11    1    3    3    0    0 -0.22327019572E+02  0.15825368273E+02  0.12251058394E+01  0.27394141134E+02  0.51100000000E-03 0.  1.
         12    1    3    3    0    0  0.28256008434E+02 -0.29643520706E+02 -0.34113749189E+01  0.41094741894E+02  0.00000000000E+00 0. -1.
</event>
<event>
 7    1  0.1749439E-013  0.7246158E+02  0.7816164E-02  0.1226708E+00
        -11   -1    0    0    0    0  0.00000000000E+00  0.00000000000E+00  0.45593999997E+02  0.45594000000E+02  0.51100000000E-03 0.  1.
         11   -1    0    0    0    0 -0.00000000000E+00 -0.00000000000E+00 -0.45593999997E+02  0.45594000000E+02  0.51100000000E-03 0. -1.
    9900012    2    1    2    0    0  0.14128097454E+02  0.10635057479E+02 -0.61620867071E+01  0.72461577548E+02  0.70000009449E+02 0.  0.
        -12    1    1    2    0    0 -0.14128097454E+02 -0.10635057479E+02  0.61620867071E+01  0.18726422452E+02  0.00000000000E+00 0.  1.
         11    1    3    3    0    0  0.35038361439E+01 -0.21876686010E+02 -0.12165686939E+02  0.25275881735E+02  0.51100000000E-03 0. -1.
        -11    1    3    3    0    0 -0.27304595478E+00  0.99601179019E+01  0.17100078727E+02  0.19791189844E+02  0.51100000000E-03 0.  1.
        -12    1    3    3    0    0  0.10897307265E+02  0.22551625588E+02 -0.11096478495E+02  0.27394505969E+02  0.00000000000E+00 0.  1.
</event>
<event>
 7    1  0.1749439E-013  0.7246156E+02  0.7816164E-02  0.1226708E+00
        -11   -1    0    0    0    0  0.00000000000E+00  0.00000000000E+00  0.45593999997E+02  0.45594000000E+02  0.51100000000E-03 0. -1.
         11   -1    0    0    0    0 -0.00000000000E+00 -0.00000000000E+00 -0.45593999997E+02  0.45594000000E+02  0.51100000000E-03 0.  1.
    9900012    2    1    2    0    0 -0.12292396367E+01 -0.28538878802E+00  0.18683875529E+02  0.72461556621E+02  0.69999982188E+02 0.  0.
        -12    1    1    2    0    0  0.12292396367E+01  0.28538878802E+00 -0.18683875529E+02  0.18726443379E+02  0.00000000000E+00 0.  1.
         11    1    3    3    0    0 -0.15958413745E+02  0.14081470329E+02  0.60748450023E+01  0.22132838000E+02  0.51100000000E-03 0. -1.
        -11    1    3    3    0    0 -0.13909259981E+02  0.42758022264E+01  0.38390062995E+01  0.15049517186E+02  0.51100000000E-03 0.  1.
         12    1    3    3    0    0  0.28638434089E+02 -0.18642661343E+02  0.87700242272E+01  0.35279201436E+02  0.00000000000E+00 0. -1.
</event>
<event>
 7    1  0.1749439E-013  0.7246152E+02  0.7816164E-02  0.1226708E+00
        -11   -1    0    0    0    0  0.00000000000E+00  0.00000000000E+00  0.45593999997E+02  0.45594000000E+02  0.51100000000E-03 0. -1.
         11   -1    0    0    0    0 -0.00000000000E+00 -0.00000000000E+00 -0.45593999997E+02  0.45594000000E+02  0.51100000000E-03 0.  1.
    9900012    2    1    2    0    0  0.11959610096E+02 -0.10712201068E+02  0.96383321203E+01  0.72461522183E+02  0.69999937326E+02 0.  0.
        -12    1    1    2    0    0 -0.11959610096E+02  0.10712201068E+02 -0.96383321203E+01  0.18726477817E+02  0.00000000000E+00 0.  1.
         11    1    3    3    0    0 -0.18080605804E+02  0.36037793251E+01  0.13465748632E+02  0.22830285109E+02  0.51100000000E-03 0. -1.
        -11    1    3    3    0    0 -0.45358957027E+01  0.71090153265E+01  0.16357081202E+01  0.85899936003E+01  0.51100000000E-03 0.  1.
        -12    1    3    3    0    0  0.34576111603E+02 -0.21424995720E+02 -0.54631246321E+01  0.41041243474E+02  0.00000000000E+00 0.  1.
</event>
<event>
 7    1  0.1749439E-013  0.7246159E+02  0.7816164E-02  0.1226708E+00
        -11   -1    0    0    0    0  0.00000000000E+00  0.00000000000E+00  0.45593999997E+02  0.45594000000E+02  0.51100000000E-03 0. -1.
         11   -1    0    0    0    0 -0.00000000000E+00 -0.00000000000E+00 -0.45593999997E+02  0.45594000000E+02  0.51100000000E-03 0.  1.
    9900012    2    1    2    0    0  0.63621422211E+01  0.16968288020E+02  0.47200578546E+01  0.72461585551E+02  0.70000019875E+02 0.  0.
        -12    1    1    2    0    0 -0.63621422211E+01 -0.16968288020E+02 -0.47200578546E+01  0.18726414449E+02  0.00000000000E+00 0.  1.
         11    1    3    3    0    0  0.17790047471E+01 -0.59474032895E+00  0.23024196818E+02  0.23100480803E+02  0.51100000000E-03 0. -1.
        -11    1    3    3    0    0 -0.16162997541E+02  0.16730995764E+02 -0.27637955950E+01  0.23426636018E+02  0.51100000000E-03 0.  1.
         12    1    3    3    0    0  0.20746135015E+02  0.83203258443E+00 -0.15540343369E+02  0.25934468730E+02  0.00000000000E+00 0. -1.
</event>
<event>
 7    1  0.1749439E-013  0.7246158E+02  0.7816164E-02  0.1226708E+00
        -11   -1    0    0    0    0  0.00000000000E+00  0.00000000000E+00  0.45593999997E+02  0.45594000000E+02  0.51100000000E-03 0. -1.
         11   -1    0    0    0    0 -0.00000000000E+00 -0.00000000000E+00 -0.45593999997E+02  0.45594000000E+02  0.51100000000E-03 0.  1.
    9900012    2    1    2    0    0 -0.64655781431E+01  0.16297038910E+02  0.65788752289E+01  0.72461580769E+02  0.70000013645E+02 0.  0.
        -12    1    1    2    0    0  0.64655781431E+01 -0.16297038910E+02 -0.65788752289E+01  0.18726419231E+02  0.00000000000E+00 0.  1.
         11    1    3    3    0    0 -0.31700093074E+01 -0.28620447467E+00 -0.59447309048E+01  0.67431964084E+01  0.51100000000E-03 0. -1.
        -11    1    3    3    0    0 -0.30846186692E+02  0.13298323717E+01 -0.22039503033E+01  0.30953401829E+02  0.51100000000E-03 0.  1.
         12    1    3    3    0    0  0.27550617857E+02  0.15253411013E+02  0.14727556437E+02  0.34764982531E+02  0.00000000000E+00 0. -1.
</event>
<event>
 7    1  0.1749439E-013  0.7246187E+02  0.7816164E-02  0.1226707E+00
        -11   -1    0    0    0    0  0.00000000000E+00  0.00000000000E+00  0.45593999997E+02  0.45594000000E+02  0.51100000000E-03 0. -1.
         11   -1    0    0    0    0 -0.00000000000E+00 -0.00000000000E+00 -0.45593999997E+02  0.45594000000E+02  0.51100000000E-03 0.  1.
    9900012    2    1    2    0    0  0.10045930914E+02 -0.36053519888E+01  0.15386642814E+02  0.72461866711E+02  0.70000386136E+02 0.  0.
        -12    1    1    2    0    0 -0.10045930914E+02  0.36053519888E+01 -0.15386642814E+02  0.18726133289E+02  0.00000000000E+00 0.  1.
         11    1    3    3    0    0 -0.29478686001E+00  0.40791899405E+00  0.78273474758E+01  0.78435110739E+01  0.51100000000E-03 0. -1.
        -11    1    3    3    0    0 -0.22696877067E+02 -0.15585289229E+02 -0.38494751840E+01  0.27800502305E+02  0.51100000000E-03 0.  1.
         12    1    3    3    0    0  0.33037594840E+02  0.11572018246E+02  0.11408770522E+02  0.36817853332E+02  0.00000000000E+00 0. -1.
</event>
<event>
 7    1  0.1749439E-013  0.7246167E+02  0.7816164E-02  0.1226708E+00
        -11   -1    0    0    0    0  0.00000000000E+00  0.00000000000E+00  0.45593999997E+02  0.45594000000E+02  0.51100000000E-03 0. -1.
         11   -1    0    0    0    0 -0.00000000000E+00 -0.00000000000E+00 -0.45593999997E+02  0.45594000000E+02  0.51100000000E-03 0.  1.
    9900012    2    1    2    0    0 -0.67368268183E+01  0.19631472504E+01  0.17361929869E+02  0.72461671169E+02  0.70000131408E+02 0.  0.
        -12    1    1    2    0    0  0.67368268183E+01 -0.19631472504E+01 -0.17361929869E+02  0.18726328831E+02  0.00000000000E+00 0.  1.
         11    1    3    3    0    0  0.64972513757E+01 -0.14422896867E+02 -0.68952190065E+00  0.15833814139E+02  0.51100000000E-03 0. -1.
        -11    1    3    3    0    0 -0.11752445684E+02 -0.16741417788E+02  0.81738199788E+01  0.22027400718E+02  0.51100000000E-03 0.  1.
         12    1    3    3    0    0 -0.14816325099E+01  0.33127461905E+02  0.98776317907E+01  0.34600456312E+02  0.00000000000E+00 0. -1.
</event>
<event>
 7    1  0.1749439E-013  0.7246145E+02  0.7816164E-02  0.1226708E+00
        -11   -1    0    0    0    0  0.00000000000E+00  0.00000000000E+00  0.45593999997E+02  0.45594000000E+02  0.51100000000E-03 0.  1.
         11   -1    0    0    0    0 -0.00000000000E+00 -0.00000000000E+00 -0.45593999997E+02  0.45594000000E+02  0.51100000000E-03 0. -1.
    9900012    2    1    2    0    0 -0.15885859360E+02  0.49710648202E+01 -0.85797224776E+01  0.72461450643E+02  0.69999844131E+02 0.  0.
        -12    1    1    2    0    0  0.15885859360E+02 -0.49710648202E+01  0.85797224776E+01  0.18726549357E+02  0.00000000000E+00 0.  1.
         11    1    3    3    0    0 -0.10471159622E+02  0.33933790380E+02  0.16310387201E+01  0.35550071743E+02  0.51100000000E-03 0. -1.
        -11    1    3    3    0    0 -0.82070078757E+01 -0.46614747523E+01  0.18821314119E+01  0.96242788847E+01  0.51100000000E-03 0.  1.
        -12    1    3    3    0    0  0.27923081375E+01 -0.24301250807E+02 -0.12092892610E+02  0.27287100015E+02  0.00000000000E+00 0.  1.
</event>
<event>
 7    1  0.1749439E-013  0.7246153E+02  0.7816164E-02  0.1226708E+00
        -11   -1    0    0    0    0  0.00000000000E+00  0.00000000000E+00  0.45593999997E+02  0.45594000000E+02  0.51100000000E-03 0.  1.
         11   -1    0    0    0    0 -0.00000000000E+00 -0.00000000000E+00 -0.45593999997E+02  0.45594000000E+02  0.51100000000E-03 0. -1.
    9900012    2    1    2    0    0  0.87477390293E+01 -0.16548627353E+02 -0.54821196419E+00  0.72461533655E+02  0.69999952271E+02 0.  0.
        -12    1    1    2    0    0 -0.87477390293E+01  0.16548627353E+02  0.54821196419E+00  0.18726466345E+02  0.00000000000E+00 0.  1.
         11    1    3    3    0    0  0.93157075058E+01 -0.21753074698E+02  0.18090202314E+02  0.29786474870E+02  0.51100000000E-03 0. -1.
        -11    1    3    3    0    0  0.11495235144E+02 -0.70281844619E+01 -0.21386161934E+02  0.25276545064E+02  0.51100000000E-03 0.  1.
        -12    1    3    3    0    0 -0.12063203621E+02  0.12232631807E+02  0.27477476559E+01  0.17398513721E+02  0.00000000000E+00 0.  1.
</event>
<event>
 7    1  0.1749439E-013  0.7246145E+02  0.7816164E-02  0.1226708E+00
        -11   -1    0    0    0    0  0.00000000000E+00  0.00000000000E+00  0.45593999997E+02  0.45594000000E+02  0.51100000000E-03 0. -1.
         11   -1    0    0    0    0 -0.00000000000E+00 -0.00000000000E+00 -0.45593999997E+02  0.45594000000E+02  0.51100000000E-03 0.  1.
    9900012    2    1    2    0    0  0.78735678454E+01 -0.16983957017E+02 -0.48575222542E+00  0.72461446078E+02  0.69999838185E+02 0.  0.
        -12    1    1    2    0    0 -0.78735678454E+01  0.16983957017E+02  0.48575222542E+00  0.18726553922E+02  0.00000000000E+00 0.  1.
         11    1    3    3    0    0 -0.51462253492E+01 -0.34235573898E+01 -0.10162691023E+01  0.62639591071E+01  0.51100000000E-03 0. -1.
        -11    1    3    3    0    0 -0.76920768034E+01  0.98463876151E+00 -0.27417416649E+02  0.28493021865E+02  0.51100000000E-03 0.  1.
         12    1    3    3    0    0  0.20711869998E+02 -0.14545038389E+02  0.27947933526E+02  0.37704465106E+02  0.00000000000E+00 0. -1.
</event>
<event>
 7    1  0.1749439E-013  0.7246158E+02  0.7816164E-02  0.1226708E+00
        -11   -1    0    0    0    0  0.00000000000E+00  0.00000000000E+00  0.45593999997E+02  0.45594000000E+02  0.51100000000E-03 0.  1.
         11   -1    0    0    0    0 -0.00000000000E+00 -0.00000000000E+00 -0.45593999997E+02  0.45594000000E+02  0.51100000000E-03 0. -1.
    9900012    2    1    2    0    0 -0.46237975954E+00 -0.27296573390E+01 -0.18520639669E+02  0.72461577011E+02  0.70000008749E+02 0.  0.
        -12    1    1    2    0    0  0.46237975954E+00  0.27296573390E+01  0.18520639669E+02  0.18726422989E+02  0.00000000000E+00 0.  1.
         11    1    3    3    0    0 -0.58086061927E+01  0.22432737648E+01  0.37278196167E+01  0.72573288779E+01  0.51100000000E-03 0. -1.
        -11    1    3    3    0    0 -0.25822489599E+02  0.24357523803E+01  0.45008171649E+00  0.25941018341E+02  0.51100000000E-03 0.  1.
        -12    1    3    3    0    0  0.31168716032E+02 -0.74086834840E+01 -0.22698541002E+02  0.39263229792E+02  0.00000000000E+00 0.  1.
</event>
<event>
 7    1  0.1749439E-013  0.7246153E+02  0.7816164E-02  0.1226708E+00
        -11   -1    0    0    0    0  0.00000000000E+00  0.00000000000E+00  0.45593999997E+02  0.45594000000E+02  0.51100000000E-03 0.  1.
         11   -1    0    0    0    0 -0.00000000000E+00 -0.00000000000E+00 -0.45593999997E+02  0.45594000000E+02  0.51100000000E-03 0. -1.
    9900012    2    1    2    0    0  0.10293420508E+02  0.13067901537E+02 -0.85997661375E+01  0.72461533864E+02  0.69999952543E+02 0.  0.
        -12    1    1    2    0    0 -0.10293420508E+02 -0.13067901537E+02  0.85997661375E+01  0.18726466136E+02  0.00000000000E+00 0.  1.
         11    1    3    3    0    0  0.16190573218E+02  0.21834099992E+02  0.12038481790E+02  0.29728565852E+02  0.51100000000E-03 0. -1.
        -11    1    3    3    0    0  0.11792891349E+02 -0.14388717281E+02 -0.12810074175E+02  0.22587728350E+02  0.51100000000E-03 0.  1.
        -12    1    3    3    0    0 -0.17690044059E+02  0.56225188255E+01 -0.78281737521E+01  0.20145239662E+02  0.00000000000E+00 0.  1.
</event>
<event>
 7    1  0.1749439E-013  0.7246158E+02  0.7816164E-02  0.1226708E+00
        -11   -1    0    0    0    0  0.00000000000E+00  0.00000000000E+00  0.45593999997E+02  0.45594000000E+02  0.51100000000E-03 0. -1.
         11   -1    0    0    0    0 -0.00000000000E+00 -0.00000000000E+00 -0.45593999997E+02  0.45594000000E+02  0.51100000000E-03 0.  1.
    9900012    2    1    2    0    0 -0.15860835373E+02  0.89276371710E+01  0.44056731244E+01  0.72461581233E+02  0.70000014249E+02 0.  0.
        -12    1    1    2    0    0  0.15860835373E+02 -0.89276371710E+01 -0.44056731244E+01  0.18726418767E+02  0.00000000000E+00 0.  1.
         11    1    3    3    0    0 -0.19791166146E+02 -0.20338776727E+02 -0.14592904066E+02  0.31910953378E+02  0.51100000000E-03 0. -1.
        -11    1    3    3    0    0  0.28460305696E+01 -0.25422317136E+01  0.33799821970E+01  0.50977555847E+01  0.51100000000E-03 0.  1.
        -12    1    3    3    0    0  0.10843002036E+01  0.31808645612E+02  0.15618594994E+02  0.35452872269E+02  0.00000000000E+00 0.  1.
</event>
<event>
 7    1  0.1749439E-013  0.7246159E+02  0.7816164E-02  0.1226708E+00
        -11   -1    0    0    0    0  0.00000000000E+00  0.00000000000E+00  0.45593999997E+02  0.45594000000E+02  0.51100000000E-03 0.  1.
         11   -1    0    0    0    0 -0.00000000000E+00 -0.00000000000E+00 -0.45593999997E+02  0.45594000000E+02  0.51100000000E-03 0. -1.
    9900012    2    1    2    0    0 -0.80497824681E+00  0.62066489115E+01 -0.17649584592E+02  0.72461593058E+02  0.70000029654E+02 0.  0.
        -12    1    1    2    0    0  0.80497824681E+00 -0.62066489115E+01  0.17649584592E+02  0.18726406942E+02  0.00000000000E+00 0.  1.
         11    1    3    3    0    0  0.72749784401E+01 -0.19874823755E+02 -0.35274255794E+01  0.21456389773E+02  0.51100000000E-03 0. -1.
        -11    1    3    3    0    0  0.15812275266E+02  0.12037334187E+02  0.60523301306E-01  0.19872823824E+02  0.51100000000E-03 0.  1.
         12    1    3    3    0    0 -0.23892231953E+02  0.14044138479E+02 -0.14182682314E+02  0.31132379461E+02  0.00000000000E+00 0. -1.
</event>
<event>
 7    1  0.1749439E-013  0.7246167E+02  0.7816164E-02  0.1226708E+00
        -11   -1    0    0    0    0  0.00000000000E+00  0.00000000000E+00  0.45593999997E+02  0.45594000000E+02  0.51100000000E-03 0. -1.
         11   -1    0    0    0    0 -0.00000000000E+00 -0.00000000000E+00 -0.45593999997E+02  0.45594000000E+02  0.51100000000E-03 0.  1.
    9900012    2    1    2    0    0  0.18045143857E+02  0.49963740825E+01  0.29031945256E+00  0.72461674782E+02  0.70000136115E+02 0.  0.
        -12    1    1    2    0    0 -0.18045143857E+02 -0.49963740825E+01 -0.29031945256E+00  0.18726325218E+02  0.00000000000E+00 0.  1.
         11    1    3    3    0    0  0.73989476928E+01  0.37855316319E+01  0.56787490569E+01  0.10065926078E+02  0.51100000000E-03 0. -1.
        -11    1    3    3    0    0 -0.16975904142E+02  0.21849390574E+02 -0.30261567256E+01  0.27834058538E+02  0.51100000000E-03 0.  1.
         12    1    3    3    0    0  0.27622100306E+02 -0.20638548124E+02 -0.23622728787E+01  0.34561690166E+02  0.00000000000E+00 0. -1.
</event>
<event>
 7    1  0.1749439E-013  0.7246157E+02  0.7816164E-02  0.1226708E+00
        -11   -1    0    0    0    0  0.00000000000E+00  0.00000000000E+00  0.45593999997E+02  0.45594000000E+02  0.51100000000E-03 0. -1.
         11   -1    0    0    0    0 -0.00000000000E+00 -0.00000000000E+00 -0.45593999997E+02  0.45594000000E+02  0.51100000000E-03 0.  1.
    9900012    2    1    2    0    0  0.81081038492E+01  0.87386710315E+01  0.14442070587E+02  0.72461571556E+02  0.70000001644E+02 0.  0.
        -12    1    1    2    0    0 -0.81081038492E+01 -0.87386710315E+01 -0.14442070587E+02  0.18726428444E+02  0.00000000000E+00 0.  1.
         11    1    3    3    0    0  0.92109533242E+01 -0.63102664241E+01  0.88276146349E+01  0.14233337763E+02  0.51100000000E-03 0. -1.
        -11    1    3    3    0    0  0.21144281942E+02 -0.10882550899E+02  0.17840099962E+01  0.23847290513E+02  0.51100000000E-03 0.  1.
         12    1    3    3    0    0 -0.22247131417E+02  0.25931488354E+02  0.38304459557E+01  0.34380943279E+02  0.00000000000E+00 0. -1.
</event>
<event>
 7    1  0.1749439E-013  0.7246184E+02  0.7816164E-02  0.1226707E+00
        -11   -1    0    0    0    0  0.00000000000E+00  0.00000000000E+00  0.45593999997E+02  0.45594000000E+02  0.51100000000E-03 0.  1.
         11   -1    0    0    0    0 -0.00000000000E+00 -0.00000000000E+00 -0.45593999997E+02  0.45594000000E+02  0.51100000000E-03 0. -1.
    9900012    2    1    2    0    0  0.12903581066E+02  0.13551941032E+02 -0.71517940732E+00  0.72461842048E+02  0.70000354009E+02 0.  0.
        -12    1    1    2    0    0 -0.12903581066E+02 -0.13551941032E+02  0.71517940732E+00  0.18726157952E+02  0.00000000000E+00 0.  1.
         11    1    3    3    0    0  0.74179958386E+00  0.10447044038E+01  0.28020918760E+01  0.30811350274E+01  0.51100000000E-03 0. -1.
        -11    1    3    3    0    0 -0.80374297794E+01 -0.25228817738E+02 -0.19517839023E+01  0.26550009088E+02  0.51100000000E-03 0.  1.
         12    1    3    3    0    0  0.20199211261E+02  0.37736054366E+02 -0.15654873810E+01  0.42830697933E+02  0.00000000000E+00 0. -1.
</event>
<event>
 7    1  0.1749439E-013  0.7246153E+02  0.7816164E-02  0.1226708E+00
        -11   -1    0    0    0    0  0.00000000000E+00  0.00000000000E+00  0.45593999997E+02  0.45594000000E+02  0.51100000000E-03 0.  1.
         11   -1    0    0    0    0 -0.00000000000E+00 -0.00000000000E+00 -0.45593999997E+02  0.45594000000E+02  0.51100000000E-03 0. -1.
    9900012    2    1    2    0    0 -0.32647996137E+01 -0.46718870466E+01 -0.17838032068E+02  0.72461525875E+02  0.69999942136E+02 0.  0.
        -12    1    1    2    0    0  0.32647996137E+01  0.46718870466E+01  0.17838032068E+02  0.18726474125E+02  0.00000000000E+00 0.  1.
         11    1    3    3    0    0  0.21055191370E+02 -0.12669056773E+02 -0.93872433253E+01  0.26304874466E+02  0.51100000000E-03 0. -1.
        -11    1    3    3    0    0 -0.52617867824E+01  0.96329567077E+01  0.13265126400E+02  0.17217544359E+02  0.51100000000E-03 0.  1.
         12    1    3    3    0    0 -0.19058204201E+02 -0.16357869811E+01 -0.21715915143E+02  0.28939107051E+02  0.00000000000E+00 0. -1.
</event>
<event>
 7    1  0.1749439E-013  0.7246153E+02  0.7816164E-02  0.1226708E+00
        -11   -1    0    0    0    0  0.00000000000E+00  0.00000000000E+00  0.45593999997E+02  0.45594000000E+02  0.51100000000E-03 0.  1.
         11   -1    0    0    0    0 -0.00000000000E+00 -0.00000000000E+00 -0.45593999997E+02  0.45594000000E+02  0.51100000000E-03 0. -1.
    9900012    2    1    2    0    0  0.46182234704E+00 -0.17825360217E+02 -0.57204789490E+01  0.72461531402E+02  0.69999949335E+02 0.  0.
        -12    1    1    2    0    0 -0.46182234704E+00  0.17825360217E+02  0.57204789490E+01  0.18726468598E+02  0.00000000000E+00 0.  1.
         11    1    3    3    0    0 -0.14796569919E+02  0.75529197444E+01  0.73900549724E+01  0.18182353829E+02  0.51100000000E-03 0. -1.
        -11    1    3    3    0    0  0.72438888948E+01  0.11150474643E+02  0.28818953244E+01  0.13605599289E+02  0.51100000000E-03 0.  1.
         12    1    3    3    0    0  0.80145033710E+01 -0.36528754604E+02 -0.15992429246E+02  0.40673578284E+02  0.00000000000E+00 0. -1.
</event>
<event>
 7    1  0.1749439E-013  0.7246153E+02  0.7816164E-02  0.1226708E+00
        -11   -1    0    0    0    0  0.00000000000E+00  0.00000000000E+00  0.45593999997E+02  0.45594000000E+02  0.51100000000E-03 0.  1.
         11   -1    0    0    0    0 -0.00000000000E+00 -0.00000000000E+00 -0.45593999997E+02  0.45594000000E+02  0.51100000000E-03 0. -1.
    9900012    2    1    2    0    0  0.15811037923E+02 -0.59711610062E+01  0.80645577585E+01  0.72461527406E+02  0.69999944130E+02 0.  0.
        -12    1    1    2    0    0 -0.15811037923E+02  0.59711610062E+01 -0.80645577585E+01  0.18726472594E+02  0.00000000000E+00 0.  1.
         11    1    3    3    0    0  0.17998609656E+02  0.41645311810E+01  0.29504247712E+02  0.34810830252E+02  0.51100000000E-03 0. -1.
        -11    1    3    3    0    0  0.77030109605E+01  0.65641517813E+01 -0.22721004185E+01  0.10372410859E+02  0.51100000000E-03 0.  1.
        -12    1    3    3    0    0 -0.98905826936E+01 -0.16699843968E+02 -0.19167589535E+02  0.27278286295E+02  0.00000000000E+00 0.  1.
</event>
<event>
 7    1  0.1749439E-013  0.7246157E+02  0.7816164E-02  0.1226708E+00
        -11   -1    0    0    0    0  0.00000000000E+00  0.00000000000E+00  0.45593999997E+02  0.45594000000E+02  0.51100000000E-03 0.  1.
         11   -1    0    0    0    0 -0.00000000000E+00 -0.00000000000E+00 -0.45593999997E+02  0.45594000000E+02  0.51100000000E-03 0. -1.
    9900012    2    1    2    0    0 -0.79741913768E+01  0.69052984183E+01 -0.15472825449E+02  0.72461569434E+02  0.69999998879E+02 0.  0.
        -12    1    1    2    0    0  0.79741913768E+01 -0.69052984183E+01  0.15472825449E+02  0.18726430566E+02  0.00000000000E+00 0.  1.
         11    1    3    3    0    0 -0.16015347627E+01  0.13627225537E+02 -0.21809653180E+02  0.25766784074E+02  0.51100000000E-03 0. -1.
        -11    1    3    3    0    0 -0.20250737919E+02 -0.10612314919E+02 -0.99604990154E+01  0.24938427278E+02  0.51100000000E-03 0.  1.
        -12    1    3    3    0    0  0.13878081304E+02  0.38903878004E+01  0.16297326746E+02  0.21756358082E+02  0.00000000000E+00 0.  1.
</event>
<event>
 7    1  0.1749439E-013  0.7246153E+02  0.7816164E-02  0.1226708E+00
        -11   -1    0    0    0    0  0.00000000000E+00  0.00000000000E+00  0.45593999997E+02  0.45594000000E+02  0.51100000000E-03 0. -1.
         11   -1    0    0    0    0 -0.00000000000E+00 -0.00000000000E+00 -0.45593999997E+02  0.45594000000E+02  0.51100000000E-03 0.  1.
    9900012    2    1    2    0    0 -0.68021219265E+01  0.95245650295E+01  0.14618292159E+02  0.72461530302E+02  0.69999947903E+02 0.  0.
        -12    1    1    2    0    0  0.68021219265E+01 -0.95245650295E+01 -0.14618292159E+02  0.18726469698E+02  0.00000000000E+00 0.  1.
         11    1    3    3    0    0 -0.19919757805E+02  0.17124056241E+02  0.22685163544E+02  0.34708020664E+02  0.51100000000E-03 0. -1.
        -11    1    3    3    0    0  0.32066661024E+01  0.98451216117E+01  0.71408517205E+01  0.12577793550E+02  0.51100000000E-03 0.  1.
        -12    1    3    3    0    0  0.99109697758E+01 -0.17444612824E+02 -0.15207723106E+02  0.25175716088E+02  0.00000000000E+00 0.  1.
</event>
<event>
 7    1  0.1749439E-013  0.7246158E+02  0.7816164E-02  0.1226708E+00
        -11   -1    0    0    0    0  0.00000000000E+00  0.00000000000E+00  0.45593999997E+02  0.45594000000E+02  0.51100000000E-03 0. -1.
         11   -1    0    0    0    0 -0.00000000000E+00 -0.00000000000E+00 -0.45593999997E+02  0.45594000000E+02  0.51100000000E-03 0.  1.
    9900012    2    1    2    0    0  0.82925204042E+01 -0.28003928488E+01  0.16555084321E+02  0.72461577180E+02  0.70000008970E+02 0.  0.
        -12    1    1    2    0    0 -0.82925204042E+01  0.28003928488E+01 -0.16555084321E+02  0.18726422820E+02  0.00000000000E+00 0.  1.
         11    1    3    3    0    0  0.29992125637E+02 -0.55594248991E+01 -0.27358928916E+01  0.30625478210E+02  0.51100000000E-03 0. -1.
        -11    1    3    3    0    0  0.28863864262E+01  0.84406850641E+01  0.13108375943E+02  0.15855784783E+02  0.51100000000E-03 0.  1.
        -12    1    3    3    0    0 -0.24585991659E+02 -0.56816530138E+01  0.61826012693E+01  0.25980314187E+02  0.00000000000E+00 0.  1.
</event>
<event>
 7    1  0.1749439E-013  0.7246159E+02  0.7816164E-02  0.1226708E+00
        -11   -1    0    0    0    0  0.00000000000E+00  0.00000000000E+00  0.45593999997E+02  0.45594000000E+02  0.51100000000E-03 0. -1.
         11   -1    0    0    0    0 -0.00000000000E+00 -0.00000000000E+00 -0.45593999997E+02  0.45594000000E+02  0.51100000000E-03 0.  1.
    9900012    2    1    2    0    0 -0.66757801450E+00 -0.17352124361E+02 -0.70097539427E+01  0.72461587355E+02  0.70000022224E+02 0.  0.
        -12    1    1    2    0    0  0.66757801450E+00  0.17352124361E+02  0.70097539427E+01  0.18726412645E+02  0.00000000000E+00 0.  1.
         11    1    3    3    0    0 -0.29431346592E+01 -0.15219837377E+02  0.12806895518E+01  0.15554602451E+02  0.51100000000E-03 0. -1.
        -11    1    3    3    0    0 -0.77509594245E+00  0.41191373095E+01 -0.31961429725E+02  0.32235090448E+02  0.51100000000E-03 0.  1.
         12    1    3    3    0    0  0.30506525872E+01 -0.62514242928E+01  0.23670986231E+02  0.24671894455E+02  0.00000000000E+00 0. -1.
</event>
<event>
 7    1  0.1749439E-013  0.7246153E+02  0.7816164E-02  0.1226708E+00
        -11   -1    0    0    0    0  0.00000000000E+00  0.00000000000E+00  0.45593999997E+02  0.45594000000E+02  0.51100000000E-03 0. -1.
         11   -1    0    0    0    0 -0.00000000000E+00 -0.00000000000E+00 -0.45593999997E+02  0.45594000000E+02  0.51100000000E-03 0.  1.
    9900012    2    1    2    0    0 -0.30184501704E+01 -0.13195009898E+02  0.12940687375E+02  0.72461528966E+02  0.69999946162E+02 0.  0.
        -12    1    1    2    0    0  0.30184501704E+01  0.13195009898E+02 -0.12940687375E+02  0.18726471034E+02  0.00000000000E+00 0.  1.
         11    1    3    3    0    0 -0.28268045838E+02  0.12013750008E+02  0.68996181937E+01  0.31480427828E+02  0.51100000000E-03 0. -1.
        -11    1    3    3    0    0  0.90510294381E+01 -0.65254661311E+01 -0.68520064327E+01  0.13093999944E+02  0.51100000000E-03 0.  1.
        -12    1    3    3    0    0  0.16198566230E+02 -0.18683293775E+02  0.12893075614E+02  0.27887101194E+02  0.00000000000E+00 0.  1.
</event>
<event>
 7    1  0.1749439E-013  0.7246159E+02  0.7816164E-02  0.1226708E+00
        -11   -1    0    0    0    0  0.00000000000E+00  0.00000000000E+00  0.45593999997E+02  0.45594000000E+02  0.51100000000E-03 0.  1.
         11   -1    0    0    0    0 -0.00000000000E+00 -0.00000000000E+00 -0.45593999997E+02  0.45594000000E+02  0.51100000000E-03 0. -1.
    9900012    2    1    2    0    0 -0.12717187493E+02  0.75127723753E+01 -0.11511296898E+02  0.72461586494E+02  0.70000021104E+02 0.  0.
        -12    1    1    2    0    0  0.12717187493E+02 -0.75127723753E+01  0.11511296898E+02  0.18726413506E+02  0.00000000000E+00 0.  1.
         11    1    3    3    0    0 -0.22560678809E+01 -0.12867292830E+02 -0.86572955051E+01  0.15671816512E+02  0.51100000000E-03 0. -1.
        -11    1    3    3    0    0 -0.15687573080E+02 -0.95467522152E+01 -0.15355733320E+02  0.23938232455E+02  0.51100000000E-03 0.  1.
         12    1    3    3    0    0  0.52264534675E+01  0.29926817421E+02  0.12501731927E+02  0.32851537528E+02  0.00000000000E+00 0. -1.
</event>
<event>
 7    1  0.1749439E-013  0.7246152E+02  0.7816164E-02  0.1226708E+00
        -11   -1    0    0    0    0  0.00000000000E+00  0.00000000000E+00  0.45593999997E+02  0.45594000000E+02  0.51100000000E-03 0. -1.
         11   -1    0    0    0    0 -0.00000000000E+00 -0.00000000000E+00 -0.45593999997E+02  0.45594000000E+02  0.51100000000E-03 0.  1.
    9900012    2    1    2    0    0  0.56215665580E+01  0.77752295088E+01  0.16081815396E+02  0.72461521663E+02  0.69999936649E+02 0.  0.
        -12    1    1    2    0    0 -0.56215665580E+01 -0.77752295088E+01 -0.16081815396E+02  0.18726478337E+02  0.00000000000E+00 0.  1.
         11    1    3    3    0    0 -0.20416431241E+02 -0.24569387038E+01 -0.75172052856E+01  0.21894647473E+02  0.51100000000E-03 0. -1.
        -11    1    3    3    0    0  0.77236939538E+00 -0.97986648737E+01 -0.11840180734E+01  0.99001154967E+01  0.51100000000E-03 0.  1.
        -12    1    3    3    0    0  0.25265628403E+02  0.20030833086E+02  0.24783038754E+02  0.40666758694E+02  0.00000000000E+00 0.  1.
</event>
<event>
 7    1  0.1749439E-013  0.7246155E+02  0.7816164E-02  0.1226708E+00
        -11   -1    0    0    0    0  0.00000000000E+00  0.00000000000E+00  0.45593999997E+02  0.45594000000E+02  0.51100000000E-03 0. -1.
         11   -1    0    0    0    0 -0.00000000000E+00 -0.00000000000E+00 -0.45593999997E+02  0.45594000000E+02  0.51100000000E-03 0.  1.
    9900012    2    1    2    0    0 -0.11599273226E+02 -0.92780170095E+01  0.11404175159E+02  0.72461549454E+02  0.69999972852E+02 0.  0.
        -12    1    1    2    0    0  0.11599273226E+02  0.92780170095E+01 -0.11404175159E+02  0.18726450546E+02  0.00000000000E+00 0.  1.
         11    1    3    3    0    0  0.39283194194E+01  0.41478193096E+01  0.17100943320E+02  0.18029929594E+02  0.51100000000E-03 0. -1.
        -11    1    3    3    0    0  0.14810558105E+02  0.81255202904E+01 -0.10005176882E+01  0.16922699172E+02  0.51100000000E-03 0.  1.
        -12    1    3    3    0    0 -0.30338150750E+02 -0.21551356610E+02 -0.46962504726E+01  0.37508920688E+02  0.00000000000E+00 0.  1.
</event>
<event>
 7    1  0.1749439E-013  0.7246155E+02  0.7816164E-02  0.1226708E+00
        -11   -1    0    0    0    0  0.00000000000E+00  0.00000000000E+00  0.45593999997E+02  0.45594000000E+02  0.51100000000E-03 0.  1.
         11   -1    0    0    0    0 -0.00000000000E+00 -0.00000000000E+00 -0.45593999997E+02  0.45594000000E+02  0.51100000000E-03 0. -1.
    9900012    2    1    2    0    0 -0.10498814435E+02  0.10904719840E+02 -0.11024602746E+02  0.72461551190E+02  0.69999975112E+02 0.  0.
        -12    1    1    2    0    0  0.10498814435E+02 -0.10904719840E+02  0.11024602746E+02  0.18726448810E+02  0.00000000000E+00 0.  1.
         11    1    3    3    0    0  0.38789029535E+00 -0.17459652643E+02  0.20106166010E+02  0.26631707441E+02  0.51100000000E-03 0. -1.
        -11    1    3    3    0    0 -0.28704991449E+01  0.46251721070E+00  0.43997874006E+00  0.29406239243E+01  0.51100000000E-03 0.  1.
         12    1    3    3    0    0 -0.80162055851E+01  0.27901855273E+02 -0.31570747497E+02  0.42889219825E+02  0.00000000000E+00 0. -1.
</event>
<event>
 7    1  0.1749439E-013  0.7246156E+02  0.7816164E-02  0.1226708E+00
        -11   -1    0    0    0    0  0.00000000000E+00  0.00000000000E+00  0.45593999997E+02  0.45594000000E+02  0.51100000000E-03 0. -1.
         11   -1    0    0    0    0 -0.00000000000E+00 -0.00000000000E+00 -0.45593999997E+02  0.45594000000E+02  0.51100000000E-03 0.  1.
    9900012    2    1    2    0    0  0.72934436029E+01  0.13891169744E+02  0.10223533423E+02  0.72461560080E+02  0.69999986693E+02 0.  0.
        -12    1    1    2    0    0 -0.72934436029E+01 -0.13891169744E+02 -0.10223533423E+02  0.18726439920E+02  0.00000000000E+00 0.  1.
         11    1    3    3    0    0 -0.11724594640E+02  0.31483970361E+02 -0.52765087095E+01  0.34008058656E+02  0.51100000000E-03 0. -1.
        -11    1    3    3    0    0 -0.48254711746E+01 -0.35022584174E+01 -0.12423205686E+01  0.60905128467E+01  0.51100000000E-03 0.  1.
        -12    1    3    3    0    0  0.23843509417E+02 -0.14090542199E+02  0.16742362701E+02  0.32362988577E+02  0.00000000000E+00 0.  1.
</event>
<event>
 7    1  0.1749439E-013  0.7246176E+02  0.7816164E-02  0.1226708E+00
        -11   -1    0    0    0    0  0.00000000000E+00  0.00000000000E+00  0.45593999997E+02  0.45594000000E+02  0.51100000000E-03 0. -1.
         11   -1    0    0    0    0 -0.00000000000E+00 -0.00000000000E+00 -0.45593999997E+02  0.45594000000E+02  0.51100000000E-03 0.  1.
    9900012    2    1    2    0    0 -0.11585574360E+02  0.14706024877E+02 -0.42347902048E+00  0.72461760778E+02  0.70000248140E+02 0.  0.
        -12    1    1    2    0    0  0.11585574360E+02 -0.14706024877E+02  0.42347902048E+00  0.18726239222E+02  0.00000000000E+00 0.  1.
         11    1    3    3    0    0 -0.50574672655E+01 -0.72325970324E+01  0.45025371705E+01  0.99076372666E+01  0.51100000000E-03 0. -1.
        -11    1    3    3    0    0  0.18819422014E+02  0.21381667219E+02  0.13193439372E+02  0.31391291479E+02  0.51100000000E-03 0.  1.
         12    1    3    3    0    0 -0.25347529108E+02  0.55695469000E+00 -0.18119455563E+02  0.31162832033E+02  0.00000000000E+00 0. -1.
</event>
<event>
 7    1  0.1749439E-013  0.7246158E+02  0.7816164E-02  0.1226708E+00
        -11   -1    0    0    0    0  0.00000000000E+00  0.00000000000E+00  0.45593999997E+02  0.45594000000E+02  0.51100000000E-03 0.  1.
         11   -1    0    0    0    0 -0.00000000000E+00 -0.00000000000E+00 -0.45593999997E+02  0.45594000000E+02  0.51100000000E-03 0. -1.
    9900012    2    1    2    0    0 -0.12331351117E+02 -0.65842937465E+01 -0.12460480696E+02  0.72461582198E+02  0.70000015507E+02 0.  0.
        -12    1    1    2    0    0  0.12331351117E+02  0.65842937465E+01  0.12460480696E+02  0.18726417802E+02  0.00000000000E+00 0.  1.
         11    1    3    3    0    0  0.50443602092E+01 -0.13426019301E+01 -0.38680885132E+01  0.64969422708E+01  0.51100000000E-03 0. -1.
        -11    1    3    3    0    0  0.16533056171E+02  0.13552175309E+02  0.92428143966E+01  0.23290191502E+02  0.51100000000E-03 0.  1.
         12    1    3    3    0    0 -0.33908767497E+02 -0.18793867126E+02 -0.17835206580E+02  0.42674448426E+02  0.00000000000E+00 0. -1.
</event>
<event>
 7    1  0.1749439E-013  0.7246148E+02  0.7816164E-02  0.1226708E+00
        -11   -1    0    0    0    0  0.00000000000E+00  0.00000000000E+00  0.45593999997E+02  0.45594000000E+02  0.51100000000E-03 0.  1.
         11   -1    0    0    0    0 -0.00000000000E+00 -0.00000000000E+00 -0.45593999997E+02  0.45594000000E+02  0.51100000000E-03 0. -1.
    9900012    2    1    2    0    0 -0.62745858952E+01  0.11864209469E+02 -0.13059581700E+02  0.72461479536E+02  0.69999881771E+02 0.  0.
        -12    1    1    2    0    0  0.62745858952E+01 -0.11864209469E+02  0.13059581700E+02  0.18726520464E+02  0.00000000000E+00 0.  1.
         11    1    3    3    0    0 -0.15173253222E+02  0.79639946032E+01  0.12435915394E+01  0.17181366172E+02  0.51100000000E-03 0. -1.
        -11    1    3    3    0    0 -0.17504172315E+02 -0.83975160386E+01  0.53565636322E+01  0.20139689627E+02  0.51100000000E-03 0.  1.
        -12    1    3    3    0    0  0.26402839642E+02  0.12297730905E+02 -0.19659736872E+02  0.35140423737E+02  0.00000000000E+00 0.  1.
</event>
<event>
 7    1  0.1749439E-013  0.7246157E+02  0.7816164E-02  0.1226708E+00
        -11   -1    0    0    0    0  0.00000000000E+00  0.00000000000E+00  0.45593999997E+02  0.45594000000E+02  0.51100000000E-03 0. -1.
         11   -1    0    0    0    0 -0.00000000000E+00 -0.00000000000E+00 -0.45593999997E+02  0.45594000000E+02  0.51100000000E-03 0.  1.
    9900012    2    1    2    0    0 -0.12564797309E+02 -0.12295029698E+02 -0.64526826485E+01  0.72461574819E+02  0.70000005894E+02 0.  0.
        -12    1    1    2    0    0  0.12564797309E+02  0.12295029698E+02  0.64526826485E+01  0.18726425181E+02  0.00000000000E+00 0.  1.
         11    1    3    3    0    0 -0.46439909097E+00  0.16695359077E+01  0.78407355276E+01  0.80299533335E+01  0.51100000000E-03 0. -1.
        -11    1    3    3    0    0  0.17107943276E+02 -0.21918938607E+02  0.53903782775E+01  0.28322743000E+02  0.51100000000E-03 0.  1.
         12    1    3    3    0    0 -0.29208341494E+02  0.79543730014E+01 -0.19683796454E+02  0.36108878486E+02  0.00000000000E+00 0. -1.
</event>
<event>
 7    1  0.1749439E-013  0.7246170E+02  0.7816164E-02  0.1226708E+00
        -11   -1    0    0    0    0  0.00000000000E+00  0.00000000000E+00  0.45593999997E+02  0.45594000000E+02  0.51100000000E-03 0.  1.
         11   -1    0    0    0    0 -0.00000000000E+00 -0.00000000000E+00 -0.45593999997E+02  0.45594000000E+02  0.51100000000E-03 0. -1.
    9900012    2    1    2    0    0  0.15150639870E+02 -0.10475721822E+02  0.33751791277E+01  0.72461695765E+02  0.70000163449E+02 0.  0.
        -12    1    1    2    0    0 -0.15150639870E+02  0.10475721822E+02 -0.33751791277E+01  0.18726304235E+02  0.00000000000E+00 0.  1.
         11    1    3    3    0    0  0.34430523948E+01 -0.18920071951E+02 -0.13001521687E+02  0.23213429278E+02  0.51100000000E-03 0. -1.
        -11    1    3    3    0    0 -0.14314056992E+02 -0.65224154246E+01  0.16639112924E+01  0.15817797937E+02  0.51100000000E-03 0.  1.
         12    1    3    3    0    0  0.26021644467E+02  0.14966765554E+02  0.14712789522E+02  0.33430468549E+02  0.00000000000E+00 0. -1.
</event>
<event>
 7    1  0.1749439E-013  0.7246150E+02  0.7816164E-02  0.1226708E+00
        -11   -1    0    0    0    0  0.00000000000E+00  0.00000000000E+00  0.45593999997E+02  0.45594000000E+02  0.51100000000E-03 0.  1.
         11   -1    0    0    0    0 -0.00000000000E+00 -0.00000000000E+00 -0.45593999997E+02  0.45594000000E+02  0.51100000000E-03 0. -1.
    9900012    2    1    2    0    0  0.15367963110E+02  0.10690538465E+02  0.46889781565E+00  0.72461500915E+02  0.69999909620E+02 0.  0.
        -12    1    1    2    0    0 -0.15367963110E+02 -0.10690538465E+02 -0.46889781565E+00  0.18726499085E+02  0.00000000000E+00 0.  1.
         11    1    3    3    0    0 -0.93018959398E+01  0.10115344413E+01  0.81140516490E+01  0.12384922463E+02  0.51100000000E-03 0. -1.
        -11    1    3    3    0    0  0.27509083347E+01 -0.14476495359E+02  0.14482719285E+02  0.20661209372E+02  0.51100000000E-03 0.  1.
        -12    1    3    3    0    0  0.21918950715E+02  0.24155499383E+02 -0.22127873119E+02  0.39415369079E+02  0.00000000000E+00 0.  1.
</event>
<event>
 7    1  0.1749439E-013  0.7246155E+02  0.7816164E-02  0.1226708E+00
        -11   -1    0    0    0    0  0.00000000000E+00  0.00000000000E+00  0.45593999997E+02  0.45594000000E+02  0.51100000000E-03 0.  1.
         11   -1    0    0    0    0 -0.00000000000E+00 -0.00000000000E+00 -0.45593999997E+02  0.45594000000E+02  0.51100000000E-03 0. -1.
    9900012    2    1    2    0    0  0.11756500084E+01  0.11467350425E+02 -0.14757973888E+02  0.72461546198E+02  0.69999968610E+02 0.  0.
        -12    1    1    2    0    0 -0.11756500084E+01 -0.11467350425E+02  0.14757973888E+02  0.18726453802E+02  0.00000000000E+00 0.  1.
         11    1    3    3    0    0  0.10118539305E+02  0.18257155639E+02 -0.17430981646E+02  0.27194626144E+02  0.51100000000E-03 0. -1.
        -11    1    3    3    0    0  0.54038337759E+01 -0.15626253267E+02 -0.13923777515E+02  0.21616030884E+02  0.51100000000E-03 0.  1.
         12    1    3    3    0    0 -0.14346723073E+02  0.88364480530E+01  0.16596785273E+02  0.23650889170E+02  0.00000000000E+00 0. -1.
</event>
<event>
 7    1  0.1749439E-013  0.7246160E+02  0.7816164E-02  0.1226708E+00
        -11   -1    0    0    0    0  0.00000000000E+00  0.00000000000E+00  0.45593999997E+02  0.45594000000E+02  0.51100000000E-03 0.  1.
         11   -1    0    0    0    0 -0.00000000000E+00 -0.00000000000E+00 -0.45593999997E+02  0.45594000000E+02  0.51100000000E-03 0. -1.
    9900012    2    1    2    0    0 -0.15701429183E+02  0.76440766383E+01  0.67610054093E+01  0.72461602050E+02  0.70000041368E+02 0.  0.
        -12    1    1    2    0    0  0.15701429183E+02 -0.76440766383E+01 -0.67610054093E+01  0.18726397950E+02  0.00000000000E+00 0.  1.
         11    1    3    3    0    0 -0.10152921372E+02  0.10930910052E+02 -0.17587667264E+01  0.15021979484E+02  0.51100000000E-03 0. -1.
        -11    1    3    3    0    0 -0.13121768943E+02  0.17498328444E+02  0.22413390079E+02  0.31316646909E+02  0.51100000000E-03 0.  1.
         12    1    3    3    0    0  0.75732611323E+01 -0.20785161858E+02 -0.13893617943E+02  0.26122975657E+02  0.00000000000E+00 0. -1.
</event>
<event>
 7    1  0.1749439E-013  0.7246157E+02  0.7816164E-02  0.1226708E+00
        -11   -1    0    0    0    0  0.00000000000E+00  0.00000000000E+00  0.45593999997E+02  0.45594000000E+02  0.51100000000E-03 0. -1.
         11   -1    0    0    0    0 -0.00000000000E+00 -0.00000000000E+00 -0.45593999997E+02  0.45594000000E+02  0.51100000000E-03 0.  1.
    9900012    2    1    2    0    0  0.10801455635E+02  0.15296515922E+02 -0.15615773306E+00  0.72461568721E+02  0.69999997951E+02 0.  0.
        -12    1    1    2    0    0 -0.10801455635E+02 -0.15296515922E+02  0.15615773306E+00  0.18726431279E+02  0.00000000000E+00 0.  1.
         11    1    3    3    0    0 -0.64353549256E+01  0.20052573505E+01 -0.70445214371E+01  0.97498785941E+01  0.51100000000E-03 0. -1.
        -11    1    3    3    0    0  0.21441762382E+02  0.12432229244E+02 -0.22220861953E+02  0.33287778601E+02  0.51100000000E-03 0.  1.
         12    1    3    3    0    0 -0.42049518214E+01  0.85902932825E+00  0.29109225657E+02  0.29423911527E+02  0.00000000000E+00 0. -1.
</event>
<event>
 7    1  0.1749439E-013  0.7246162E+02  0.7816164E-02  0.1226708E+00
        -11   -1    0    0    0    0  0.00000000000E+00  0.00000000000E+00  0.45593999997E+02  0.45594000000E+02  0.51100000000E-03 0. -1.
         11   -1    0    0    0    0 -0.00000000000E+00 -0.00000000000E+00 -0.45593999997E+02  0.45594000000E+02  0.51100000000E-03 0.  1.
    9900012    2    1    2    0    0 -0.34932350282E+01  0.18188212431E+02  0.27683145339E+01  0.72461619470E+02  0.70000064060E+02 0.  0.
        -12    1    1    2    0    0  0.34932350282E+01 -0.18188212431E+02 -0.27683145339E+01  0.18726380530E+02  0.00000000000E+00 0.  1.
         11    1    3    3    0    0 -0.60640479763E+01  0.17395376630E+02 -0.11173553820E+02  0.21545767825E+02  0.51100000000E-03 0. -1.
        -11    1    3    3    0    0  0.17715624480E+02  0.60238263287E+00 -0.11626147545E+02  0.21198432077E+02  0.51100000000E-03 0.  1.
        -12    1    3    3    0    0 -0.15144811531E+02  0.19045316833E+00  0.25568015899E+02  0.29717419567E+02  0.00000000000E+00 0.  1.
</event>
<event>
 7    1  0.1749439E-013  0.7246155E+02  0.7816164E-02  0.1226708E+00
        -11   -1    0    0    0    0  0.00000000000E+00  0.00000000000E+00  0.45593999997E+02  0.45594000000E+02  0.51100000000E-03 0. -1.
         11   -1    0    0    0    0 -0.00000000000E+00 -0.00000000000E+00 -0.45593999997E+02  0.45594000000E+02  0.51100000000E-03 0.  1.
    9900012    2    1    2    0    0  0.17515965964E+02  0.65197227566E+01 -0.11679737931E+01  0.72461547819E+02  0.69999970722E+02 0.  0.
        -12    1    1    2    0    0 -0.17515965964E+02 -0.65197227566E+01  0.11679737931E+01  0.18726452181E+02  0.00000000000E+00 0.  1.
         11    1    3    3    0    0 -0.88864461927E+01  0.12875785716E+02 -0.42506102258E+01  0.16211800372E+02  0.51100000000E-03 0. -1.
        -11    1    3    3    0    0  0.50463654894E+01  0.19233107595E+02 -0.75434098479E+01  0.21266905389E+02  0.51100000000E-03 0.  1.
        -12    1    3    3    0    0  0.21356046668E+02 -0.25589170555E+02  0.10626046281E+02  0.34982842059E+02  0.00000000000E+00 0.  1.
</event>
<event>
 7    1  0.1749439E-013  0.7246163E+02  0.7816164E-02  0.1226708E+00
        -11   -1    0    0    0    0  0.00000000000E+00  0.00000000000E+00  0.45593999997E+02  0.45594000000E+02  0.51100000000E-03 0.  1.
         11   -1    0    0    0    0 -0.00000000000E+00 -0.00000000000E+00 -0.45593999997E+02  0.45594000000E+02  0.51100000000E-03 0. -1.
    9900012    2    1    2    0    0 -0.58456794841E+01 -0.42898097926E+00 -0.17785416083E+02  0.72461627726E+02  0.70000074815E+02 0.  0.
        -12    1    1    2    0    0  0.58456794841E+01  0.42898097926E+00  0.17785416083E+02  0.18726372274E+02  0.00000000000E+00 0.  1.
         11    1    3    3    0    0 -0.91082908880E+01 -0.12504294495E+02 -0.14620840772E+02  0.21285848089E+02  0.51100000000E-03 0. -1.
        -11    1    3    3    0    0  0.25034617820E+02 -0.12380721556E+01  0.19770152577E+01  0.25143060705E+02  0.51100000000E-03 0.  1.
         12    1    3    3    0    0 -0.21772006416E+02  0.13313385671E+02 -0.51415905680E+01  0.26032718932E+02  0.00000000000E+00 0. -1.
</event>
<event>
 7    1  0.1749439E-013  0.7246165E+02  0.7816164E-02  0.1226708E+00
        -11   -1    0    0    0    0  0.00000000000E+00  0.00000000000E+00  0.45593999997E+02  0.45594000000E+02  0.51100000000E-03 0.  1.
         11   -1    0    0    0    0 -0.00000000000E+00 -0.00000000000E+00 -0.45593999997E+02  0.45594000000E+02  0.51100000000E-03 0. -1.
    9900012    2    1    2    0    0  0.34265537899E+01  0.17646291867E+02 -0.52481566609E+01  0.72461653964E+02  0.70000108995E+02 0.  0.
        -12    1    1    2    0    0 -0.34265537899E+01 -0.17646291867E+02  0.52481566609E+01  0.18726346036E+02  0.00000000000E+00 0.  1.
         11    1    3    3    0    0  0.91205605425E+01 -0.64077056961E-01 -0.12751960856E+01  0.92094981295E+01  0.51100000000E-03 0. -1.
        -11    1    3    3    0    0 -0.28000026255E+02  0.17209069055E+01  0.13067799934E+02  0.30947219362E+02  0.51100000000E-03 0.  1.
         12    1    3    3    0    0  0.22306019503E+02  0.15989462019E+02 -0.17040760509E+02  0.32304936472E+02  0.00000000000E+00 0. -1.
</event>
<event>
 7    1  0.1749439E-013  0.7246151E+02  0.7816164E-02  0.1226708E+00
        -11   -1    0    0    0    0  0.00000000000E+00  0.00000000000E+00  0.45593999997E+02  0.45594000000E+02  0.51100000000E-03 0.  1.
         11   -1    0    0    0    0 -0.00000000000E+00 -0.00000000000E+00 -0.45593999997E+02  0.45594000000E+02  0.51100000000E-03 0. -1.
    9900012    2    1    2    0    0 -0.15627795933E+01 -0.16500796838E+02 -0.87156699021E+01  0.72461508652E+02  0.69999919700E+02 0.  0.
        -12    1    1    2    0    0  0.15627795933E+01  0.16500796838E+02  0.87156699021E+01  0.18726491348E+02  0.00000000000E+00 0.  1.
         11    1    3    3    0    0  0.17772272144E+01  0.12719288154E+02 -0.11703689708E+01  0.12896068839E+02  0.51100000000E-03 0. -1.
        -11    1    3    3    0    0  0.20197929617E+02 -0.22618398322E+02 -0.15238097062E+02  0.33937411595E+02  0.51100000000E-03 0.  1.
        -12    1    3    3    0    0 -0.23537936425E+02 -0.66016866709E+01  0.76927961305E+01  0.25628028218E+02  0.00000000000E+00 0.  1.
</event>
<event>
 7    1  0.1749439E-013  0.7246156E+02  0.7816164E-02  0.1226708E+00
        -11   -1    0    0    0    0  0.00000000000E+00  0.00000000000E+00  0.45593999997E+02  0.45594000000E+02  0.51100000000E-03 0. -1.
         11   -1    0    0    0    0 -0.00000000000E+00 -0.00000000000E+00 -0.45593999997E+02  0.45594000000E+02  0.51100000000E-03 0.  1.
    9900012    2    1    2    0    0  0.16661179972E+02 -0.66621767162E+01  0.53572244149E+01  0.72461564939E+02  0.69999993023E+02 0.  0.
        -12    1    1    2    0    0 -0.16661179972E+02  0.66621767162E+01 -0.53572244149E+01  0.18726435061E+02  0.00000000000E+00 0.  1.
         11    1    3    3    0    0  0.33604055253E+02  0.53776424327E+01  0.13534765580E+02  0.36624328624E+02  0.51100000000E-03 0. -1.
        -11    1    3    3    0    0 -0.24900795356E+01 -0.14010749724E+01  0.99361354586E+01  0.10338776295E+02  0.51100000000E-03 0.  1.
        -12    1    3    3    0    0 -0.14452795745E+02 -0.10638744177E+02 -0.18113676624E+02  0.25498460019E+02  0.00000000000E+00 0.  1.
</event>
<event>
 7    1  0.1749439E-013  0.7246156E+02  0.7816164E-02  0.1226708E+00
        -11   -1    0    0    0    0  0.00000000000E+00  0.00000000000E+00  0.45593999997E+02  0.45594000000E+02  0.51100000000E-03 0.  1.
         11   -1    0    0    0    0 -0.00000000000E+00 -0.00000000000E+00 -0.45593999997E+02  0.45594000000E+02  0.51100000000E-03 0. -1.
    9900012    2    1    2    0    0 -0.69089392668E+01 -0.93696988936E+01 -0.14668151983E+02  0.72461564628E+02  0.69999992618E+02 0.  0.
        -12    1    1    2    0    0  0.69089392668E+01  0.93696988936E+01  0.14668151983E+02  0.18726435372E+02  0.00000000000E+00 0.  1.
         11    1    3    3    0    0 -0.22431694062E+01  0.47552889493E+01 -0.14877346119E+02  0.15779100411E+02  0.51100000000E-03 0. -1.
        -11    1    3    3    0    0  0.19550194755E+01  0.19788779011E+02  0.77034260561E+01  0.21325117799E+02  0.51100000000E-03 0.  1.
        -12    1    3    3    0    0 -0.66207893361E+01 -0.33913766853E+02 -0.74942319208E+01  0.35357346418E+02  0.00000000000E+00 0.  1.
</event>
<event>
 7    1  0.1749439E-013  0.7246087E+02  0.7816164E-02  0.1226710E+00
        -11   -1    0    0    0    0  0.00000000000E+00  0.00000000000E+00  0.45593999997E+02  0.45594000000E+02  0.51100000000E-03 0. -1.
         11   -1    0    0    0    0 -0.00000000000E+00 -0.00000000000E+00 -0.45593999997E+02  0.45594000000E+02  0.51100000000E-03 0.  1.
    9900012    2    1    2    0    0  0.10092791957E+01 -0.14985721194E+02  0.11185479150E+02  0.72460869200E+02  0.69999086688E+02 0.  0.
        -12    1    1    2    0    0 -0.10092791957E+01  0.14985721194E+02 -0.11185479150E+02  0.18727130800E+02  0.00000000000E+00 0.  1.
         11    1    3    3    0    0 -0.92208233811E+01 -0.28463954911E+01 -0.59635048354E+01  0.11344114831E+02  0.51100000000E-03 0. -1.
        -11    1    3    3    0    0 -0.22124914892E+02 -0.34155077216E+01 -0.20762480558E+01  0.22483068256E+02  0.51100000000E-03 0.  1.
         12    1    3    3    0    0  0.32355017469E+02 -0.87238179814E+01  0.19225232041E+02  0.38633686112E+02  0.00000000000E+00 0. -1.
</event>
<event>
 7    1  0.1749439E-013  0.7246158E+02  0.7816164E-02  0.1226708E+00
        -11   -1    0    0    0    0  0.00000000000E+00  0.00000000000E+00  0.45593999997E+02  0.45594000000E+02  0.51100000000E-03 0. -1.
         11   -1    0    0    0    0 -0.00000000000E+00 -0.00000000000E+00 -0.45593999997E+02  0.45594000000E+02  0.51100000000E-03 0.  1.
    9900012    2    1    2    0    0  0.69488001809E+01  0.17366654396E+02 -0.89011698396E+00  0.72461579703E+02  0.70000012257E+02 0.  0.
        -12    1    1    2    0    0 -0.69488001809E+01 -0.17366654396E+02  0.89011698396E+00  0.18726420297E+02  0.00000000000E+00 0.  1.
         11    1    3    3    0    0  0.70800729367E+01  0.64916305944E+01  0.22734154415E+01  0.98710241918E+01  0.51100000000E-03 0. -1.
        -11    1    3    3    0    0 -0.18669303333E+02  0.24677347566E+02 -0.17346136920E+02  0.35473974068E+02  0.51100000000E-03 0.  1.
         12    1    3    3    0    0  0.18538030577E+02 -0.13802323764E+02  0.14182604495E+02  0.27116581444E+02  0.00000000000E+00 0. -1.
</event>
<event>
 7    1  0.1749439E-013  0.7246155E+02  0.7816164E-02  0.1226708E+00
        -11   -1    0    0    0    0  0.00000000000E+00  0.00000000000E+00  0.45593999997E+02  0.45594000000E+02  0.51100000000E-03 0. -1.
         11   -1    0    0    0    0 -0.00000000000E+00 -0.00000000000E+00 -0.45593999997E+02  0.45594000000E+02  0.51100000000E-03 0.  1.
    9900012    2    1    2    0    0 -0.62078067627E+01 -0.10495442639E+02  0.14212280421E+02  0.72461545563E+02  0.69999967783E+02 0.  0.
        -12    1    1    2    0    0  0.62078067627E+01  0.10495442639E+02 -0.14212280421E+02  0.18726454437E+02  0.00000000000E+00 0.  1.
         11    1    3    3    0    0 -0.97376549461E+01  0.10170950711E+02 -0.42958544946E+01  0.14721566775E+02  0.51100000000E-03 0. -1.
        -11    1    3    3    0    0 -0.22899527405E+02 -0.15430632114E+02  0.73251875730E+01  0.28568359001E+02  0.51100000000E-03 0.  1.
        -12    1    3    3    0    0  0.26429375588E+02 -0.52357612369E+01  0.11182947343E+02  0.29171619787E+02  0.00000000000E+00 0.  1.
</event>
<event>
 7    1  0.1749439E-013  0.7246158E+02  0.7816164E-02  0.1226708E+00
        -11   -1    0    0    0    0  0.00000000000E+00  0.00000000000E+00  0.45593999997E+02  0.45594000000E+02  0.51100000000E-03 0.  1.
         11   -1    0    0    0    0 -0.00000000000E+00 -0.00000000000E+00 -0.45593999997E+02  0.45594000000E+02  0.51100000000E-03 0. -1.
    9900012    2    1    2    0    0  0.24544068125E+01  0.18195976407E+02  0.36825288413E+01  0.72461583127E+02  0.70000016717E+02 0.  0.
        -12    1    1    2    0    0 -0.24544068125E+01 -0.18195976407E+02 -0.36825288413E+01  0.18726416873E+02  0.00000000000E+00 0.  1.
         11    1    3    3    0    0  0.45575353653E+01  0.17345948502E+02 -0.22011663373E+02  0.28393069273E+02  0.51100000000E-03 0. -1.
        -11    1    3    3    0    0 -0.12422187993E+02 -0.72983577072E+01 -0.86440112375E+00  0.14433432347E+02  0.51100000000E-03 0.  1.
        -12    1    3    3    0    0  0.10319059440E+02  0.81483856129E+01  0.26558593338E+02  0.29635081507E+02  0.00000000000E+00 0.  1.
</event>
<event>
 7    1  0.1749439E-013  0.7246160E+02  0.7816164E-02  0.1226708E+00
        -11   -1    0    0    0    0  0.00000000000E+00  0.00000000000E+00  0.45593999997E+02  0.45594000000E+02  0.51100000000E-03 0.  1.
         11   -1    0    0    0    0 -0.00000000000E+00 -0.00000000000E+00 -0.45593999997E+02  0.45594000000E+02  0.51100000000E-03 0. -1.
    9900012    2    1    2    0    0  0.17608172167E+02  0.94873744856E-01 -0.63734897827E+01  0.72461598848E+02  0.70000037196E+02 0.  0.
        -12    1    1    2    0    0 -0.17608172167E+02 -0.94873744856E-01  0.63734897827E+01  0.18726401152E+02  0.00000000000E+00 0.  1.
         11    1    3    3    0    0  0.17008409823E+02  0.95095709620E+01 -0.81295229701E+01  0.21114144278E+02  0.51100000000E-03 0. -1.
        -11    1    3    3    0    0 -0.60668932752E+01  0.19759543422E+02 -0.34969495603E+01  0.20963668733E+02  0.51100000000E-03 0.  1.
        -12    1    3    3    0    0  0.66666556193E+01 -0.29174240639E+02  0.52529827477E+01  0.30383785837E+02  0.00000000000E+00 0.  1.
</event>
<event>
 7    1  0.1749439E-013  0.7246160E+02  0.7816164E-02  0.1226708E+00
        -11   -1    0    0    0    0  0.00000000000E+00  0.00000000000E+00  0.45593999997E+02  0.45594000000E+02  0.51100000000E-03 0.  1.
         11   -1    0    0    0    0 -0.00000000000E+00 -0.00000000000E+00 -0.45593999997E+02  0.45594000000E+02  0.51100000000E-03 0. -1.
    9900012    2    1    2    0    0  0.15254943818E+02  0.63648382180E+01 -0.88007820935E+01  0.72461595063E+02  0.70000032265E+02 0.  0.
        -12    1    1    2    0    0 -0.15254943818E+02 -0.63648382180E+01  0.88007820935E+01  0.18726404937E+02  0.00000000000E+00 0.  1.
         11    1    3    3    0    0  0.34201476676E+01 -0.29414332875E+00  0.41866244480E+01  0.54140331450E+01  0.51100000000E-03 0. -1.
        -11    1    3    3    0    0  0.28733664481E+02  0.26810743450E+01  0.16194589535E+02  0.33091938060E+02  0.51100000000E-03 0.  1.
         12    1    3    3    0    0 -0.16898868330E+02  0.39779072018E+01 -0.29181996076E+02  0.33955623857E+02  0.00000000000E+00 0. -1.
</event>
<event>
 7    1  0.1749439E-013  0.7246156E+02  0.7816164E-02  0.1226708E+00
        -11   -1    0    0    0    0  0.00000000000E+00  0.00000000000E+00  0.45593999997E+02  0.45594000000E+02  0.51100000000E-03 0.  1.
         11   -1    0    0    0    0 -0.00000000000E+00 -0.00000000000E+00 -0.45593999997E+02  0.45594000000E+02  0.51100000000E-03 0. -1.
    9900012    2    1    2    0    0  0.18581632638E+01  0.12696607850E+02  0.13639027159E+02  0.72461556572E+02  0.69999982125E+02 0.  0.
        -12    1    1    2    0    0 -0.18581632638E+01 -0.12696607850E+02 -0.13639027159E+02  0.18726443428E+02  0.00000000000E+00 0.  1.
         11    1    3    3    0    0 -0.61002961287E+01  0.45364163477E+01  0.19261878805E+02  0.20707792290E+02  0.51100000000E-03 0. -1.
        -11    1    3    3    0    0 -0.12727769908E+02 -0.15473801168E+02 -0.24715884127E+01  0.20187704153E+02  0.51100000000E-03 0.  1.
         12    1    3    3    0    0  0.20686229300E+02  0.23633992670E+02 -0.31512632338E+01  0.31566060130E+02  0.00000000000E+00 0. -1.
</event>
<event>
 7    1  0.1749439E-013  0.7246157E+02  0.7816164E-02  0.1226708E+00
        -11   -1    0    0    0    0  0.00000000000E+00  0.00000000000E+00  0.45593999997E+02  0.45594000000E+02  0.51100000000E-03 0.  1.
         11   -1    0    0    0    0 -0.00000000000E+00 -0.00000000000E+00 -0.45593999997E+02  0.45594000000E+02  0.51100000000E-03 0. -1.
    9900012    2    1    2    0    0  0.50618333614E+01  0.43874190382E+01 -0.17487356965E+02  0.72461567975E+02  0.69999996978E+02 0.  0.
        -12    1    1    2    0    0 -0.50618333614E+01 -0.43874190382E+01  0.17487356965E+02  0.18726432025E+02  0.00000000000E+00 0.  1.
         11    1    3    3    0    0 -0.76008572921E+01  0.21681172814E+02 -0.27738271640E+02  0.36017467984E+02  0.51100000000E-03 0. -1.
        -11    1    3    3    0    0 -0.27030668295E+01  0.57366983234E+01 -0.12513895165E+01  0.64639193932E+01  0.51100000000E-03 0.  1.
        -12    1    3    3    0    0  0.15365757483E+02 -0.23030452099E+02  0.11502304192E+02  0.29980180597E+02  0.00000000000E+00 0.  1.
</event>
<event>
 7    1  0.1749439E-013  0.7246160E+02  0.7816164E-02  0.1226708E+00
        -11   -1    0    0    0    0  0.00000000000E+00  0.00000000000E+00  0.45593999997E+02  0.45594000000E+02  0.51100000000E-03 0. -1.
         11   -1    0    0    0    0 -0.00000000000E+00 -0.00000000000E+00 -0.45593999997E+02  0.45594000000E+02  0.51100000000E-03 0.  1.
    9900012    2    1    2    0    0 -0.78748590630E+01  0.53794007503E+01  0.16116043772E+02  0.72461595525E+02  0.70000032868E+02 0.  0.
        -12    1    1    2    0    0  0.78748590630E+01 -0.53794007503E+01 -0.16116043772E+02  0.18726404475E+02  0.00000000000E+00 0.  1.
         11    1    3    3    0    0 -0.30446388914E+01 -0.25949325930E+01 -0.81052327787E+00  0.40817213754E+01  0.51100000000E-03 0. -1.
        -11    1    3    3    0    0 -0.18924600297E+02  0.63194631941E+01 -0.20346529931E+02  0.28496620711E+02  0.51100000000E-03 0.  1.
         12    1    3    3    0    0  0.14094380125E+02  0.16548701491E+01  0.37273096981E+02  0.39883253439E+02  0.00000000000E+00 0. -1.
</event>
<event>
 7    1  0.1749439E-013  0.7246157E+02  0.7816164E-02  0.1226708E+00
        -11   -1    0    0    0    0  0.00000000000E+00  0.00000000000E+00  0.45593999997E+02  0.45594000000E+02  0.51100000000E-03 0.  1.
         11   -1    0    0    0    0 -0.00000000000E+00 -0.00000000000E+00 -0.45593999997E+02  0.45594000000E+02  0.51100000000E-03 0. -1.
    9900012    2    1    2    0    0 -0.36045827442E-01  0.11259862207E+02 -0.14963063191E+02  0.72461573318E+02  0.70000003939E+02 0.  0.
        -12    1    1    2    0    0  0.36045827442E-01 -0.11259862207E+02  0.14963063191E+02  0.18726426682E+02  0.00000000000E+00 0.  1.
         11    1    3    3    0    0  0.19358022310E+02 -0.95079496511E+01  0.47745630019E+01  0.22089150876E+02  0.51100000000E-03 0. -1.
        -11    1    3    3    0    0 -0.23394137029E-01  0.15204696827E+02  0.71239953181E+01  0.16790910114E+02  0.51100000000E-03 0.  1.
        -12    1    3    3    0    0 -0.19370674000E+02  0.55631150308E+01 -0.26861621511E+02  0.33581512328E+02  0.00000000000E+00 0.  1.
</event>
<event>
 7    1  0.1749439E-013  0.7246162E+02  0.7816164E-02  0.1226708E+00
        -11   -1    0    0    0    0  0.00000000000E+00  0.00000000000E+00  0.45593999997E+02  0.45594000000E+02  0.51100000000E-03 0.  1.
         11   -1    0    0    0    0 -0.00000000000E+00 -0.00000000000E+00 -0.45593999997E+02  0.45594000000E+02  0.51100000000E-03 0. -1.
    9900012    2    1    2    0    0 -0.41210968213E+00  0.18354017171E+02  0.36929215738E+01  0.72461616194E+02  0.70000059792E+02 0.  0.
        -12    1    1    2    0    0  0.41210968213E+00 -0.18354017171E+02 -0.36929215738E+01  0.18726383806E+02  0.00000000000E+00 0.  1.
         11    1    3    3    0    0 -0.16877721687E+02  0.59577742824E+01  0.54692624602E+01  0.18715378592E+02  0.51100000000E-03 0. -1.
        -11    1    3    3    0    0  0.88277862362E+01  0.29908266145E+02  0.81289239697E+01  0.32225977081E+02  0.51100000000E-03 0.  1.
         12    1    3    3    0    0  0.76378257684E+01 -0.17512023256E+02 -0.99052648561E+01  0.21520260520E+02  0.00000000000E+00 0. -1.
</event>
<event>
 7    1  0.1749439E-013  0.7246160E+02  0.7816164E-02  0.1226708E+00
        -11   -1    0    0    0    0  0.00000000000E+00  0.00000000000E+00  0.45593999997E+02  0.45594000000E+02  0.51100000000E-03 0. -1.
         11   -1    0    0    0    0 -0.00000000000E+00 -0.00000000000E+00 -0.45593999997E+02  0.45594000000E+02  0.51100000000E-03 0.  1.
    9900012    2    1    2    0    0 -0.13353885547E+02  0.13126838625E+02 -0.19442712834E+00  0.72461602765E+02  0.70000042300E+02 0.  0.
        -12    1    1    2    0    0  0.13353885547E+02 -0.13126838625E+02  0.19442712834E+00  0.18726397235E+02  0.00000000000E+00 0.  1.
         11    1    3    3    0    0  0.55339359736E+01  0.13343346210E+02 -0.23285564226E+02  0.27402314446E+02  0.51100000000E-03 0.  1.
        -11    1    3    3    0    0 -0.75514028006E+01  0.10887366901E+02 -0.38449743951E+01  0.13796458627E+02  0.51100000000E-03 0. -1.
         12    1    3    3    0    0 -0.11336418720E+02 -0.11103874486E+02  0.26936111493E+02  0.31262829692E+02  0.00000000000E+00 0. -1.
</event>
<event>
 7    1  0.1749439E-013  0.7246156E+02  0.7816164E-02  0.1226708E+00
        -11   -1    0    0    0    0  0.00000000000E+00  0.00000000000E+00  0.45593999997E+02  0.45594000000E+02  0.51100000000E-03 0.  1.
         11   -1    0    0    0    0 -0.00000000000E+00 -0.00000000000E+00 -0.45593999997E+02  0.45594000000E+02  0.51100000000E-03 0. -1.
    9900012    2    1    2    0    0 -0.38817189865E+01 -0.91236447020E+00 -0.18296972918E+02  0.72461564963E+02  0.69999993055E+02 0.  0.
        -12    1    1    2    0    0  0.38817189865E+01  0.91236447020E+00  0.18296972918E+02  0.18726435037E+02  0.00000000000E+00 0.  1.
         11    1    3    3    0    0  0.95215851197E+01  0.11002460702E+02 -0.10049132637E+02  0.17683319590E+02  0.51100000000E-03 0. -1.
        -11    1    3    3    0    0 -0.26872467597E+02  0.91964022823E+01 -0.87861435666E+01  0.29730449857E+02  0.51100000000E-03 0.  1.
         12    1    3    3    0    0  0.13469163491E+02 -0.21111227455E+02  0.53830328568E+00  0.25047795516E+02  0.00000000000E+00 0. -1.
</event>
<event>
 7    1  0.1749439E-013  0.7246155E+02  0.7816164E-02  0.1226708E+00
        -11   -1    0    0    0    0  0.00000000000E+00  0.00000000000E+00  0.45593999997E+02  0.45594000000E+02  0.51100000000E-03 0. -1.
         11   -1    0    0    0    0 -0.00000000000E+00 -0.00000000000E+00 -0.45593999997E+02  0.45594000000E+02  0.51100000000E-03 0.  1.
    9900012    2    1    2    0    0  0.27462074755E+01  0.18338091785E+02  0.26177332527E+01  0.72461553642E+02  0.69999978307E+02 0.  0.
        -12    1    1    2    0    0 -0.27462074755E+01 -0.18338091785E+02 -0.26177332527E+01  0.18726446358E+02  0.00000000000E+00 0.  1.
         11    1    3    3    0    0 -0.56842760162E+01  0.49465608094E+01 -0.11869728610E+02  0.14059513335E+02  0.51100000000E-03 0. -1.
        -11    1    3    3    0    0  0.21046078953E+02 -0.10917570961E+02 -0.56920030795E+01  0.24382979603E+02  0.51100000000E-03 0.  1.
         12    1    3    3    0    0 -0.12615595461E+02  0.24309101937E+02  0.20179464942E+02  0.34019060704E+02  0.00000000000E+00 0. -1.
</event>
<event>
 7    1  0.1749439E-013  0.7246175E+02  0.7816164E-02  0.1226708E+00
        -11   -1    0    0    0    0  0.00000000000E+00  0.00000000000E+00  0.45593999997E+02  0.45594000000E+02  0.51100000000E-03 0.  1.
         11   -1    0    0    0    0 -0.00000000000E+00 -0.00000000000E+00 -0.45593999997E+02  0.45594000000E+02  0.51100000000E-03 0. -1.
    9900012    2    1    2    0    0  0.15890131156E+02  0.75937180340E+01  0.63648734934E+01  0.72461750073E+02  0.70000234195E+02 0.  0.
        -12    1    1    2    0    0 -0.15890131156E+02 -0.75937180340E+01 -0.63648734934E+01  0.18726249927E+02  0.00000000000E+00 0.  1.
         11    1    3    3    0    0 -0.38389370486E+01 -0.18833772559E+02  0.97410438032E+01  0.21548465400E+02  0.51100000000E-03 0. -1.
        -11    1    3    3    0    0  0.16196034964E+02  0.33944439298E+01  0.14136224941E+02  0.21763884166E+02  0.51100000000E-03 0.  1.
         12    1    3    3    0    0  0.35330332409E+01  0.23033046663E+02 -0.17512395251E+02  0.29149400507E+02  0.00000000000E+00 0. -1.
</event>
<event>
 7    1  0.1749439E-013  0.7246158E+02  0.7816164E-02  0.1226708E+00
        -11   -1    0    0    0    0  0.00000000000E+00  0.00000000000E+00  0.45593999997E+02  0.45594000000E+02  0.51100000000E-03 0. -1.
         11   -1    0    0    0    0 -0.00000000000E+00 -0.00000000000E+00 -0.45593999997E+02  0.45594000000E+02  0.51100000000E-03 0.  1.
    9900012    2    1    2    0    0 -0.32568130646E+00 -0.18559527660E+02 -0.24732164192E+01  0.72461576563E+02  0.70000008166E+02 0.  0.
        -12    1    1    2    0    0  0.32568130646E+00  0.18559527660E+02  0.24732164192E+01  0.18726423437E+02  0.00000000000E+00 0.  1.
         11    1    3    3    0    0 -0.26107153721E+01  0.14794861032E+02  0.90569771207E+01  0.17542308358E+02  0.51100000000E-03 0. -1.
        -11    1    3    3    0    0 -0.12752393704E+02 -0.25347955690E+02  0.75281025730E+01  0.29356681206E+02  0.51100000000E-03 0.  1.
        -12    1    3    3    0    0  0.15037427769E+02 -0.80064330026E+01 -0.19058296113E+02  0.25562586999E+02  0.00000000000E+00 0.  1.
</event>
<event>
 7    1  0.1749439E-013  0.7246158E+02  0.7816164E-02  0.1226708E+00
        -11   -1    0    0    0    0  0.00000000000E+00  0.00000000000E+00  0.45593999997E+02  0.45594000000E+02  0.51100000000E-03 0. -1.
         11   -1    0    0    0    0 -0.00000000000E+00 -0.00000000000E+00 -0.45593999997E+02  0.45594000000E+02  0.51100000000E-03 0.  1.
    9900012    2    1    2    0    0  0.18099529327E+02 -0.31486955892E+01 -0.36292438534E+01  0.72461583987E+02  0.70000017837E+02 0.  0.
        -12    1    1    2    0    0 -0.18099529327E+02  0.31486955892E+01  0.36292438534E+01  0.18726416013E+02  0.00000000000E+00 0.  1.
         11    1    3    3    0    0  0.35151948293E+02  0.48972535715E+01 -0.12780643331E+02  0.37722505293E+02  0.51100000000E-03 0. -1.
        -11    1    3    3    0    0 -0.29599003909E+01 -0.57706862789E+01 -0.93448276064E+01  0.11374868514E+02  0.51100000000E-03 0.  1.
        -12    1    3    3    0    0 -0.14092518575E+02 -0.22752628818E+01  0.18496227084E+02  0.23364210180E+02  0.00000000000E+00 0.  1.
</event>
<event>
 7    1  0.1749439E-013  0.7246152E+02  0.7816164E-02  0.1226708E+00
        -11   -1    0    0    0    0  0.00000000000E+00  0.00000000000E+00  0.45593999997E+02  0.45594000000E+02  0.51100000000E-03 0.  1.
         11   -1    0    0    0    0 -0.00000000000E+00 -0.00000000000E+00 -0.45593999997E+02  0.45594000000E+02  0.51100000000E-03 0. -1.
    9900012    2    1    2    0    0 -0.40687478023E+01 -0.17934447319E+02  0.35329865778E+01  0.72461518657E+02  0.69999932733E+02 0.  0.
        -12    1    1    2    0    0  0.40687478023E+01  0.17934447319E+02 -0.35329865778E+01  0.18726481343E+02  0.00000000000E+00 0.  1.
         11    1    3    3    0    0  0.59846096421E+01 -0.32089901048E+02  0.66654470334E+01  0.33316744833E+02  0.51100000000E-03 0. -1.
        -11    1    3    3    0    0  0.15900555287E+01 -0.10129803731E+02  0.44316446620E+01  0.11170527064E+02  0.51100000000E-03 0.  1.
         12    1    3    3    0    0 -0.11643412973E+02  0.24285257460E+02 -0.75641051176E+01  0.27974246760E+02  0.00000000000E+00 0. -1.
</event>
<event>
 7    1  0.1749439E-013  0.7246113E+02  0.7816164E-02  0.1226709E+00
        -11   -1    0    0    0    0  0.00000000000E+00  0.00000000000E+00  0.45593999997E+02  0.45594000000E+02  0.51100000000E-03 0.  1.
         11   -1    0    0    0    0 -0.00000000000E+00 -0.00000000000E+00 -0.45593999997E+02  0.45594000000E+02  0.51100000000E-03 0. -1.
    9900012    2    1    2    0    0  0.18279742028E+02  0.98187962550E+00  0.39474812781E+01  0.72461129876E+02  0.69999426271E+02 0.  0.
        -12    1    1    2    0    0 -0.18279742028E+02 -0.98187962550E+00 -0.39474812781E+01  0.18726870124E+02  0.00000000000E+00 0.  1.
         11    1    3    3    0    0  0.90562661856E+00  0.41785956226E+01 -0.18601018422E+01  0.46627030866E+01  0.51100000000E-03 0. -1.
        -11    1    3    3    0    0  0.36040867204E+02  0.76271342833E+01  0.20052107700E+02  0.41942869593E+02  0.51100000000E-03 0.  1.
         12    1    3    3    0    0 -0.18666751795E+02 -0.10823850280E+02 -0.14244524580E+02  0.25855557197E+02  0.00000000000E+00 0. -1.
</event>
<event>
 7    1  0.1749439E-013  0.7246157E+02  0.7816164E-02  0.1226708E+00
        -11   -1    0    0    0    0  0.00000000000E+00  0.00000000000E+00  0.45593999997E+02  0.45594000000E+02  0.51100000000E-03 0.  1.
         11   -1    0    0    0    0 -0.00000000000E+00 -0.00000000000E+00 -0.45593999997E+02  0.45594000000E+02  0.51100000000E-03 0. -1.
    9900012    2    1    2    0    0 -0.12119578135E+02 -0.85972642948E+01 -0.11396580055E+02  0.72461570429E+02  0.70000000176E+02 0.  0.
        -12    1    1    2    0    0  0.12119578135E+02  0.85972642948E+01  0.11396580055E+02  0.18726429571E+02  0.00000000000E+00 0.  1.
         11    1    3    3    0    0 -0.13800772609E+02  0.11831726303E+02 -0.23799389450E+01  0.18333444345E+02  0.51100000000E-03 0. -1.
        -11    1    3    3    0    0 -0.25259520229E+01  0.13831179884E+02  0.74191149636E+01  0.15897334296E+02  0.51100000000E-03 0.  1.
        -12    1    3    3    0    0  0.42071464976E+01 -0.34260170481E+02 -0.16435756074E+02  0.38230791788E+02  0.00000000000E+00 0.  1.
</event>
<event>
 7    1  0.1749439E-013  0.7246149E+02  0.7816164E-02  0.1226708E+00
        -11   -1    0    0    0    0  0.00000000000E+00  0.00000000000E+00  0.45593999997E+02  0.45594000000E+02  0.51100000000E-03 0. -1.
         11   -1    0    0    0    0 -0.00000000000E+00 -0.00000000000E+00 -0.45593999997E+02  0.45594000000E+02  0.51100000000E-03 0.  1.
    9900012    2    1    2    0    0  0.88545225049E+01  0.14827661634E+02  0.72401781259E+01  0.72461486773E+02  0.69999891198E+02 0.  0.
        -12    1    1    2    0    0 -0.88545225049E+01 -0.14827661634E+02 -0.72401781259E+01  0.18726513227E+02  0.00000000000E+00 0.  1.
         11    1    3    3    0    0 -0.14808552530E+00 -0.10128788274E+02  0.21284870612E+02  0.23572441504E+02  0.51100000000E-03 0. -1.
        -11    1    3    3    0    0  0.16418212702E+01 -0.99190803151E+01 -0.77484130216E+01  0.12693369765E+02  0.51100000000E-03 0.  1.
        -12    1    3    3    0    0  0.73607867601E+01  0.34875530224E+02 -0.62962794643E+01  0.36195675504E+02  0.00000000000E+00 0.  1.
</event>
<event>
 7    1  0.1749439E-013  0.7246159E+02  0.7816164E-02  0.1226708E+00
        -11   -1    0    0    0    0  0.00000000000E+00  0.00000000000E+00  0.45593999997E+02  0.45594000000E+02  0.51100000000E-03 0.  1.
         11   -1    0    0    0    0 -0.00000000000E+00 -0.00000000000E+00 -0.45593999997E+02  0.45594000000E+02  0.51100000000E-03 0. -1.
    9900012    2    1    2    0    0  0.11056030812E+02  0.14292732379E+02 -0.49153332519E+01  0.72461587713E+02  0.70000022691E+02 0.  0.
        -12    1    1    2    0    0 -0.11056030812E+02 -0.14292732379E+02  0.49153332519E+01  0.18726412287E+02  0.00000000000E+00 0.  1.
         11    1    3    3    0    0  0.48361441487E+01  0.22667047208E+02 -0.20283242878E+01  0.23265799342E+02  0.51100000000E-03 0.  1.
        -11    1    3    3    0    0 -0.20275620437E+02 -0.35746774333E+00  0.40014520187E+01  0.20669789206E+02  0.51100000000E-03 0. -1.
        -12    1    3    3    0    0  0.26495507100E+02 -0.80168470861E+01 -0.68884609829E+01  0.28525999166E+02  0.00000000000E+00 0.  1.
</event>
<event>
 7    1  0.1749439E-013  0.7246162E+02  0.7816164E-02  0.1226708E+00
        -11   -1    0    0    0    0  0.00000000000E+00  0.00000000000E+00  0.45593999997E+02  0.45594000000E+02  0.51100000000E-03 0. -1.
         11   -1    0    0    0    0 -0.00000000000E+00 -0.00000000000E+00 -0.45593999997E+02  0.45594000000E+02  0.51100000000E-03 0.  1.
    9900012    2    1    2    0    0  0.95035332788E+01  0.10944300359E+02  0.11856752808E+02  0.72461616412E+02  0.70000060077E+02 0.  0.
        -12    1    1    2    0    0 -0.95035332788E+01 -0.10944300359E+02 -0.11856752808E+02  0.18726383588E+02  0.00000000000E+00 0.  1.
         11    1    3    3    0    0 -0.74583870644E+01  0.65642550893E+01  0.37983194065E+01  0.10636926861E+02  0.51100000000E-03 0. -1.
        -11    1    3    3    0    0 -0.17097872554E+01  0.17628085576E+02 -0.19270784368E+02  0.26173190557E+02  0.51100000000E-03 0.  1.
         12    1    3    3    0    0  0.18671707599E+02 -0.13248040306E+02  0.27329217770E+02  0.35651498994E+02  0.00000000000E+00 0. -1.
</event>
<event>
 7    1  0.1749439E-013  0.7246158E+02  0.7816164E-02  0.1226708E+00
        -11   -1    0    0    0    0  0.00000000000E+00  0.00000000000E+00  0.45593999997E+02  0.45594000000E+02  0.51100000000E-03 0. -1.
         11   -1    0    0    0    0 -0.00000000000E+00 -0.00000000000E+00 -0.45593999997E+02  0.45594000000E+02  0.51100000000E-03 0.  1.
    9900012    2    1    2    0    0 -0.54045997447E+01  0.15647406999E+02  0.87537321598E+01  0.72461578267E+02  0.70000010386E+02 0.  0.
        -12    1    1    2    0    0  0.54045997447E+01 -0.15647406999E+02 -0.87537321598E+01  0.18726421733E+02  0.00000000000E+00 0.  1.
         11    1    3    3    0    0  0.95432028664E+01  0.33689327735E+01 -0.12264476479E+02  0.15900937473E+02  0.51100000000E-03 0. -1.
        -11    1    3    3    0    0 -0.13687986756E+01 -0.18592440179E+02  0.94911485100E+01  0.20919711803E+02  0.51100000000E-03 0.  1.
         12    1    3    3    0    0 -0.13579003936E+02  0.30870914405E+02  0.11527060128E+02  0.35640928990E+02  0.00000000000E+00 0. -1.
</event>
<event>
 7    1  0.1749439E-013  0.7246168E+02  0.7816164E-02  0.1226708E+00
        -11   -1    0    0    0    0  0.00000000000E+00  0.00000000000E+00  0.45593999997E+02  0.45594000000E+02  0.51100000000E-03 0.  1.
         11   -1    0    0    0    0 -0.00000000000E+00 -0.00000000000E+00 -0.45593999997E+02  0.45594000000E+02  0.51100000000E-03 0. -1.
    9900012    2    1    2    0    0 -0.22267266760E+01  0.83077538009E-01 -0.18593272048E+02  0.72461682182E+02  0.70000145754E+02 0.  0.
        -12    1    1    2    0    0  0.22267266760E+01 -0.83077538009E-01  0.18593272048E+02  0.18726317818E+02  0.00000000000E+00 0.  1.
         11    1    3    3    0    0  0.17867359454E+02  0.13690917120E+02 -0.14175879696E+02  0.26601490763E+02  0.51100000000E-03 0. -1.
        -11    1    3    3    0    0  0.16800841979E+01  0.33904253770E+01  0.12774958475E+02  0.13323559264E+02  0.51100000000E-03 0.  1.
        -12    1    3    3    0    0 -0.21774170327E+02 -0.16998264958E+02 -0.17192350827E+02  0.32536632155E+02  0.00000000000E+00 0.  1.
</event>
<event>
 7    1  0.1749439E-013  0.7246152E+02  0.7816164E-02  0.1226708E+00
        -11   -1    0    0    0    0  0.00000000000E+00  0.00000000000E+00  0.45593999997E+02  0.45594000000E+02  0.51100000000E-03 0. -1.
         11   -1    0    0    0    0 -0.00000000000E+00 -0.00000000000E+00 -0.45593999997E+02  0.45594000000E+02  0.51100000000E-03 0.  1.
    9900012    2    1    2    0    0 -0.66553267951E+01  0.11211113811E+02  0.13442413741E+02  0.72461523161E+02  0.69999938600E+02 0.  0.
        -12    1    1    2    0    0  0.66553267951E+01 -0.11211113811E+02 -0.13442413741E+02  0.18726476839E+02  0.00000000000E+00 0.  1.
         11    1    3    3    0    0  0.32622688254E+01 -0.10740525633E+02  0.13929733370E+01  0.11311130082E+02  0.51100000000E-03 0. -1.
        -11    1    3    3    0    0  0.22755377357E+02  0.56940945730E+01  0.46276059264E+01  0.23909091337E+02  0.51100000000E-03 0.  1.
         12    1    3    3    0    0 -0.32672972978E+02  0.16257544871E+02  0.74218344776E+01  0.37241301742E+02  0.00000000000E+00 0. -1.
</event>
<event>
 7    1  0.1749439E-013  0.7246155E+02  0.7816164E-02  0.1226708E+00
        -11   -1    0    0    0    0  0.00000000000E+00  0.00000000000E+00  0.45593999997E+02  0.45594000000E+02  0.51100000000E-03 0. -1.
         11   -1    0    0    0    0 -0.00000000000E+00 -0.00000000000E+00 -0.45593999997E+02  0.45594000000E+02  0.51100000000E-03 0.  1.
    9900012    2    1    2    0    0 -0.11165377815E+02  0.12142696769E+02  0.88639294511E+01  0.72461548337E+02  0.69999971397E+02 0.  0.
        -12    1    1    2    0    0  0.11165377815E+02 -0.12142696769E+02 -0.88639294511E+01  0.18726451663E+02  0.00000000000E+00 0.  1.
         11    1    3    3    0    0 -0.12827078771E+02  0.54180805493E+00 -0.15412188609E+02  0.20058989599E+02  0.51100000000E-03 0. -1.
        -11    1    3    3    0    0 -0.84730601218E+01 -0.86225072344E+01 -0.68731367598E+01  0.13906127715E+02  0.51100000000E-03 0.  1.
        -12    1    3    3    0    0  0.10134761078E+02  0.20223395948E+02  0.31149254820E+02  0.38496431024E+02  0.00000000000E+00 0.  1.
</event>
<event>
 7    1  0.1749439E-013  0.7246157E+02  0.7816164E-02  0.1226708E+00
        -11   -1    0    0    0    0  0.00000000000E+00  0.00000000000E+00  0.45593999997E+02  0.45594000000E+02  0.51100000000E-03 0. -1.
         11   -1    0    0    0    0 -0.00000000000E+00 -0.00000000000E+00 -0.45593999997E+02  0.45594000000E+02  0.51100000000E-03 0.  1.
    9900012    2    1    2    0    0 -0.15513650934E+02  0.75072491669E+01  0.73244085728E+01  0.72461571715E+02  0.70000001851E+02 0.  0.
        -12    1    1    2    0    0  0.15513650934E+02 -0.75072491669E+01 -0.73244085728E+01  0.18726428285E+02  0.00000000000E+00 0.  1.
         11    1    3    3    0    0 -0.65757043231E+01  0.22051568600E+02  0.74279417076E+01  0.24180278810E+02  0.51100000000E-03 0. -1.
        -11    1    3    3    0    0  0.43422336742E+01  0.83644492627E+01 -0.15137426258E+02  0.17831451952E+02  0.51100000000E-03 0.  1.
         12    1    3    3    0    0 -0.13280180286E+02 -0.22908768696E+02  0.15033893123E+02  0.30449840952E+02  0.00000000000E+00 0. -1.
</event>
<event>
 7    1  0.1749439E-013  0.7246153E+02  0.7816164E-02  0.1226708E+00
        -11   -1    0    0    0    0  0.00000000000E+00  0.00000000000E+00  0.45593999997E+02  0.45594000000E+02  0.51100000000E-03 0. -1.
         11   -1    0    0    0    0 -0.00000000000E+00 -0.00000000000E+00 -0.45593999997E+02  0.45594000000E+02  0.51100000000E-03 0.  1.
    9900012    2    1    2    0    0  0.46304301936E+01  0.53737953997E+01  0.17330959156E+02  0.72461529269E+02  0.69999946556E+02 0.  0.
        -12    1    1    2    0    0 -0.46304301936E+01 -0.53737953997E+01 -0.17330959156E+02  0.18726470731E+02  0.00000000000E+00 0.  1.
         11    1    3    3    0    0 -0.20406330695E+01 -0.37993567981E+01  0.25581879347E+01  0.50143415494E+01  0.51100000000E-03 0. -1.
        -11    1    3    3    0    0 -0.11499511554E+02  0.79906372729E+01 -0.22192089475E+02  0.26240767624E+02  0.51100000000E-03 0.  1.
        -12    1    3    3    0    0  0.18170574817E+02  0.11825149249E+01  0.36964860696E+02  0.41206420095E+02  0.00000000000E+00 0.  1.
</event>
<event>
 7    1  0.1749439E-013  0.7246148E+02  0.7816164E-02  0.1226708E+00
        -11   -1    0    0    0    0  0.00000000000E+00  0.00000000000E+00  0.45593999997E+02  0.45594000000E+02  0.51100000000E-03 0.  1.
         11   -1    0    0    0    0 -0.00000000000E+00 -0.00000000000E+00 -0.45593999997E+02  0.45594000000E+02  0.51100000000E-03 0. -1.
    9900012    2    1    2    0    0 -0.76250534350E+01 -0.86135707693E+01 -0.14776585659E+02  0.72461480702E+02  0.69999883289E+02 0.  0.
        -12    1    1    2    0    0  0.76250534350E+01  0.86135707693E+01  0.14776585659E+02  0.18726519298E+02  0.00000000000E+00 0.  1.
         11    1    3    3    0    0 -0.15923844228E+01  0.56523726744E+01 -0.52457439073E+01  0.78741878567E+01  0.51100000000E-03 0. -1.
        -11    1    3    3    0    0  0.27430398814E+02 -0.82273792612E+00 -0.66374683706E+00  0.27450760224E+02  0.51100000000E-03 0.  1.
         12    1    3    3    0    0 -0.33463067826E+02 -0.13443205518E+02 -0.88670949144E+01  0.37136532621E+02  0.00000000000E+00 0. -1.
</event>
<event>
 7    1  0.1749439E-013  0.7246153E+02  0.7816164E-02  0.1226708E+00
        -11   -1    0    0    0    0  0.00000000000E+00  0.00000000000E+00  0.45593999997E+02  0.45594000000E+02  0.51100000000E-03 0.  1.
         11   -1    0    0    0    0 -0.00000000000E+00 -0.00000000000E+00 -0.45593999997E+02  0.45594000000E+02  0.51100000000E-03 0. -1.
    9900012    2    1    2    0    0  0.14726661816E+02  0.22598401378E+01  0.11344571012E+02  0.72461528439E+02  0.69999945475E+02 0.  0.
        -12    1    1    2    0    0 -0.14726661816E+02 -0.22598401378E+01 -0.11344571012E+02  0.18726471561E+02  0.00000000000E+00 0.  1.
         11    1    3    3    0    0  0.21095002316E+02 -0.25877350188E+02  0.56930682848E+01  0.33868088257E+02  0.51100000000E-03 0. -1.
        -11    1    3    3    0    0  0.85810655248E+01  0.17981171478E+02  0.10889194382E+01  0.19953519966E+02  0.51100000000E-03 0.  1.
        -12    1    3    3    0    0 -0.14949406025E+02  0.10156018848E+02  0.45625832895E+01  0.18639920215E+02  0.00000000000E+00 0.  1.
</event>
<event>
 7    1  0.1749439E-013  0.7246154E+02  0.7816164E-02  0.1226708E+00
        -11   -1    0    0    0    0  0.00000000000E+00  0.00000000000E+00  0.45593999997E+02  0.45594000000E+02  0.51100000000E-03 0.  1.
         11   -1    0    0    0    0 -0.00000000000E+00 -0.00000000000E+00 -0.45593999997E+02  0.45594000000E+02  0.51100000000E-03 0. -1.
    9900012    2    1    2    0    0 -0.17113458087E+01  0.17146866705E+02 -0.73305335498E+01  0.72461535721E+02  0.69999954962E+02 0.  0.
        -12    1    1    2    0    0  0.17113458087E+01 -0.17146866705E+02  0.73305335498E+01  0.18726464279E+02  0.00000000000E+00 0.  1.
         11    1    3    3    0    0 -0.92398694238E+01 -0.13831963787E+02 -0.10449027445E+02  0.19643843412E+02  0.51100000000E-03 0. -1.
        -11    1    3    3    0    0 -0.15092415850E+02  0.25170578989E+02  0.97414533539E+00  0.29364741140E+02  0.51100000000E-03 0.  1.
         12    1    3    3    0    0  0.22620939465E+02  0.58082515026E+01  0.21443485601E+01  0.23452951169E+02  0.00000000000E+00 0. -1.
</event>
<event>
 7    1  0.1749439E-013  0.7246157E+02  0.7816164E-02  0.1226708E+00
        -11   -1    0    0    0    0  0.00000000000E+00  0.00000000000E+00  0.45593999997E+02  0.45594000000E+02  0.51100000000E-03 0. -1.
         11   -1    0    0    0    0 -0.00000000000E+00 -0.00000000000E+00 -0.45593999997E+02  0.45594000000E+02  0.51100000000E-03 0.  1.
    9900012    2    1    2    0    0  0.52146890327E+01 -0.16285026394E+02  0.76343977248E+01  0.72461572284E+02  0.70000002592E+02 0.  0.
        -12    1    1    2    0    0 -0.52146890327E+01  0.16285026394E+02 -0.76343977248E+01  0.18726427716E+02  0.00000000000E+00 0.  1.
         11    1    3    3    0    0  0.13626780596E+02 -0.14810474912E+02  0.13233000858E+02  0.24086336967E+02  0.51100000000E-03 0. -1.
        -11    1    3    3    0    0  0.13985014709E+02 -0.16077208335E+02 -0.28133673016E+01  0.21493540892E+02  0.51100000000E-03 0.  1.
         12    1    3    3    0    0 -0.22397106272E+02  0.14602656853E+02 -0.27852358319E+01  0.26881694425E+02  0.00000000000E+00 0. -1.
</event>
<event>
 7    1  0.1749439E-013  0.7246151E+02  0.7816164E-02  0.1226708E+00
        -11   -1    0    0    0    0  0.00000000000E+00  0.00000000000E+00  0.45593999997E+02  0.45594000000E+02  0.51100000000E-03 0. -1.
         11   -1    0    0    0    0 -0.00000000000E+00 -0.00000000000E+00 -0.45593999997E+02  0.45594000000E+02  0.51100000000E-03 0.  1.
    9900012    2    1    2    0    0 -0.79269356856E+01 -0.16910699948E+02 -0.13687330333E+01  0.72461507744E+02  0.69999918517E+02 0.  0.
        -12    1    1    2    0    0  0.79269356856E+01  0.16910699948E+02  0.13687330333E+01  0.18726492256E+02  0.00000000000E+00 0.  1.
         11    1    3    3    0    0 -0.17884417099E+02  0.91988720944E+01 -0.20282627615E+01  0.20213497294E+02  0.51100000000E-03 0. -1.
        -11    1    3    3    0    0 -0.11808253336E+02 -0.16761303979E+02 -0.13595649745E+02  0.24601175788E+02  0.51100000000E-03 0.  1.
        -12    1    3    3    0    0  0.21765734750E+02 -0.93482680634E+01  0.14255179473E+02  0.27646834661E+02  0.00000000000E+00 0.  1.
</event>
<event>
 7    1  0.1749439E-013  0.7246157E+02  0.7816164E-02  0.1226708E+00
        -11   -1    0    0    0    0  0.00000000000E+00  0.00000000000E+00  0.45593999997E+02  0.45594000000E+02  0.51100000000E-03 0. -1.
         11   -1    0    0    0    0 -0.00000000000E+00 -0.00000000000E+00 -0.45593999997E+02  0.45594000000E+02  0.51100000000E-03 0.  1.
    9900012    2    1    2    0    0  0.59844352025E+01  0.43364813121E+01  0.17206418290E+02  0.72461565069E+02  0.69999993192E+02 0.  0.
        -12    1    1    2    0    0 -0.59844352025E+01 -0.43364813121E+01 -0.17206418290E+02  0.18726434931E+02  0.00000000000E+00 0.  1.
         11    1    3    3    0    0  0.25388800734E+02  0.92963107833E+01  0.40924165841E+01  0.27345209281E+02  0.51100000000E-03 0. -1.
        -11    1    3    3    0    0  0.77390467979E+01 -0.12733851232E+02  0.53656806054E+01  0.15837750508E+02  0.51100000000E-03 0.  1.
         12    1    3    3    0    0 -0.27143412329E+02  0.77740217610E+01  0.77483211008E+01  0.29278605279E+02  0.00000000000E+00 0. -1.
</event>
<event>
 7    1  0.1749439E-013  0.7246158E+02  0.7816164E-02  0.1226708E+00
        -11   -1    0    0    0    0  0.00000000000E+00  0.00000000000E+00  0.45593999997E+02  0.45594000000E+02  0.51100000000E-03 0.  1.
         11   -1    0    0    0    0 -0.00000000000E+00 -0.00000000000E+00 -0.45593999997E+02  0.45594000000E+02  0.51100000000E-03 0. -1.
    9900012    2    1    2    0    0  0.70048405853E+01  0.88365841006E+01 -0.14950774458E+02  0.72461583709E+02  0.70000017476E+02 0.  0.
        -12    1    1    2    0    0 -0.70048405853E+01 -0.88365841006E+01  0.14950774458E+02  0.18726416291E+02  0.00000000000E+00 0.  1.
         11    1    3    3    0    0  0.26040603108E+02  0.24536022613E+01  0.11432367460E+02  0.28545265812E+02  0.51100000000E-03 0. -1.
        -11    1    3    3    0    0 -0.20279875170E+01 -0.50691748014E+01  0.43433854668E+01  0.69766943541E+01  0.51100000000E-03 0.  1.
        -12    1    3    3    0    0 -0.17007775006E+02  0.11452156641E+02 -0.30726527385E+02  0.36939623543E+02  0.00000000000E+00 0.  1.
</event>
<event>
 7    1  0.1749439E-013  0.7246157E+02  0.7816164E-02  0.1226708E+00
        -11   -1    0    0    0    0  0.00000000000E+00  0.00000000000E+00  0.45593999997E+02  0.45594000000E+02  0.51100000000E-03 0.  1.
         11   -1    0    0    0    0 -0.00000000000E+00 -0.00000000000E+00 -0.45593999997E+02  0.45594000000E+02  0.51100000000E-03 0. -1.
    9900012    2    1    2    0    0  0.14647428166E+02  0.11608137987E+02 -0.11760448502E+01  0.72461572127E+02  0.70000002387E+02 0.  0.
        -12    1    1    2    0    0 -0.14647428166E+02 -0.11608137987E+02  0.11760448502E+01  0.18726427873E+02  0.00000000000E+00 0.  1.
         11    1    3    3    0    0 -0.87098206316E+01 -0.55457666054E+01  0.11875530868E+02  0.15736732073E+02  0.51100000000E-03 0. -1.
        -11    1    3    3    0    0 -0.51825142492E+00  0.11702868198E+02  0.15294261317E+02  0.19264997745E+02  0.51100000000E-03 0.  1.
        -12    1    3    3    0    0  0.23875500222E+02  0.54510363935E+01 -0.28345837035E+02  0.37459842310E+02  0.00000000000E+00 0.  1.
</event>
<event>
 7    1  0.1749439E-013  0.7246159E+02  0.7816164E-02  0.1226708E+00
        -11   -1    0    0    0    0  0.00000000000E+00  0.00000000000E+00  0.45593999997E+02  0.45594000000E+02  0.51100000000E-03 0.  1.
         11   -1    0    0    0    0 -0.00000000000E+00 -0.00000000000E+00 -0.45593999997E+02  0.45594000000E+02  0.51100000000E-03 0. -1.
    9900012    2    1    2    0    0 -0.57169648744E+01  0.54026455151E+01 -0.16994293976E+02  0.72461593680E+02  0.70000030464E+02 0.  0.
        -12    1    1    2    0    0  0.57169648744E+01 -0.54026455151E+01  0.16994293976E+02  0.18726406320E+02  0.00000000000E+00 0.  1.
         11    1    3    3    0    0  0.85132871766E+01  0.19256040794E+02 -0.31291024476E+02  0.37714710374E+02  0.51100000000E-03 0. -1.
        -11    1    3    3    0    0  0.93875106766E+00 -0.10979992774E+02 -0.31388717544E+01  0.11458359876E+02  0.51100000000E-03 0.  1.
        -12    1    3    3    0    0 -0.15169003119E+02 -0.28734025052E+01  0.17435602254E+02  0.23288523430E+02  0.00000000000E+00 0.  1.
</event>
<event>
 7    1  0.1749439E-013  0.7246157E+02  0.7816164E-02  0.1226708E+00
        -11   -1    0    0    0    0  0.00000000000E+00  0.00000000000E+00  0.45593999997E+02  0.45594000000E+02  0.51100000000E-03 0. -1.
         11   -1    0    0    0    0 -0.00000000000E+00 -0.00000000000E+00 -0.45593999997E+02  0.45594000000E+02  0.51100000000E-03 0.  1.
    9900012    2    1    2    0    0 -0.74218168589E+01 -0.10603552738E+01  0.17160172092E+02  0.72461568813E+02  0.69999998070E+02 0.  0.
        -12    1    1    2    0    0  0.74218168589E+01  0.10603552738E+01 -0.17160172092E+02  0.18726431187E+02  0.00000000000E+00 0.  1.
         11    1    3    3    0    0 -0.29706596903E+02  0.12626161355E+02  0.27867899906E+01  0.32398580970E+02  0.51100000000E-03 0.  1.
        -11    1    3    3    0    0 -0.41495832104E+01 -0.89752104757E+01  0.73153869848E+01  0.12299932150E+02  0.51100000000E-03 0. -1.
         12    1    3    3    0    0  0.26434363255E+02 -0.47113061531E+01  0.70579951161E+01  0.27763055693E+02  0.00000000000E+00 0. -1.
</event>
<event>
 7    1  0.1749439E-013  0.7246156E+02  0.7816164E-02  0.1226708E+00
        -11   -1    0    0    0    0  0.00000000000E+00  0.00000000000E+00  0.45593999997E+02  0.45594000000E+02  0.51100000000E-03 0.  1.
         11   -1    0    0    0    0 -0.00000000000E+00 -0.00000000000E+00 -0.45593999997E+02  0.45594000000E+02  0.51100000000E-03 0. -1.
    9900012    2    1    2    0    0  0.15791918706E+01  0.18085719485E+02  0.45926577000E+01  0.72461558774E+02  0.69999984993E+02 0.  0.
        -12    1    1    2    0    0 -0.15791918706E+01 -0.18085719485E+02 -0.45926577000E+01  0.18726441226E+02  0.00000000000E+00 0.  1.
         11    1    3    3    0    0 -0.11351142798E+02 -0.79785756062E+01  0.13242259060E+02  0.19179768945E+02  0.51100000000E-03 0. -1.
        -11    1    3    3    0    0 -0.15564542103E+02  0.11849664081E+02  0.20962762681E+01  0.19673939213E+02  0.51100000000E-03 0.  1.
         12    1    3    3    0    0  0.28494876772E+02  0.14214631010E+02 -0.10745877628E+02  0.33607850616E+02  0.00000000000E+00 0. -1.
</event>
<event>
 7    1  0.1749439E-013  0.7246188E+02  0.7816164E-02  0.1226707E+00
        -11   -1    0    0    0    0  0.00000000000E+00  0.00000000000E+00  0.45593999997E+02  0.45594000000E+02  0.51100000000E-03 0.  1.
         11   -1    0    0    0    0 -0.00000000000E+00 -0.00000000000E+00 -0.45593999997E+02  0.45594000000E+02  0.51100000000E-03 0. -1.
    9900012    2    1    2    0    0  0.16087594108E+00  0.15765219969E+02 -0.10104434875E+02  0.72461877981E+02  0.70000400817E+02 0.  0.
        -12    1    1    2    0    0 -0.16087594108E+00 -0.15765219969E+02  0.10104434875E+02  0.18726122019E+02  0.00000000000E+00 0.  1.
         11    1    3    3    0    0 -0.12495029233E+01  0.14912366448E+02  0.89976464480E+01  0.17461316460E+02  0.51100000000E-03 0. -1.
        -11    1    3    3    0    0 -0.20153959883E+02  0.10308250561E+02  0.28410302664E+01  0.22814766750E+02  0.51100000000E-03 0.  1.
        -12    1    3    3    0    0  0.21564338748E+02 -0.94553970407E+01 -0.21943111590E+02  0.32185794771E+02  0.00000000000E+00 0.  1.
</event>
<event>
 7    1  0.1749439E-013  0.7246155E+02  0.7816164E-02  0.1226708E+00
        -11   -1    0    0    0    0  0.00000000000E+00  0.00000000000E+00  0.45593999997E+02  0.45594000000E+02  0.51100000000E-03 0. -1.
         11   -1    0    0    0    0 -0.00000000000E+00 -0.00000000000E+00 -0.45593999997E+02  0.45594000000E+02  0.51100000000E-03 0.  1.
    9900012    2    1    2    0    0 -0.67295543579E+01 -0.35244868725E+01  0.17116393277E+02  0.72461552702E+02  0.69999977083E+02 0.  0.
        -12    1    1    2    0    0  0.67295543579E+01  0.35244868725E+01 -0.17116393277E+02  0.18726447298E+02  0.00000000000E+00 0.  1.
         11    1    3    3    0    0  0.71245639145E+01  0.41639614738E+01  0.32303923906E+02  0.33341288009E+02  0.51100000000E-03 0. -1.
        -11    1    3    3    0    0  0.34948204204E+01  0.57697986759E+01  0.56878012050E+01  0.88235723684E+01  0.51100000000E-03 0.  1.
        -12    1    3    3    0    0 -0.17348938693E+02 -0.13458247022E+02 -0.20875331833E+02  0.30296692325E+02  0.00000000000E+00 0.  1.
</event>
<event>
 7    1  0.1749439E-013  0.7246127E+02  0.7816164E-02  0.1226709E+00
        -11   -1    0    0    0    0  0.00000000000E+00  0.00000000000E+00  0.45593999997E+02  0.45594000000E+02  0.51100000000E-03 0.  1.
         11   -1    0    0    0    0 -0.00000000000E+00 -0.00000000000E+00 -0.45593999997E+02  0.45594000000E+02  0.51100000000E-03 0. -1.
    9900012    2    1    2    0    0  0.31352841645E+01  0.18191908370E+01 -0.18372560551E+02  0.72461269285E+02  0.69999607878E+02 0.  0.
        -12    1    1    2    0    0 -0.31352841645E+01 -0.18191908370E+01  0.18372560551E+02  0.18726730715E+02  0.00000000000E+00 0.  1.
         11    1    3    3    0    0  0.20194670408E+02  0.61750322010E+01 -0.23891564586E+02  0.31886715011E+02  0.51100000000E-03 0. -1.
        -11    1    3    3    0    0  0.64939377043E+01 -0.12580826339E+02 -0.24839653541E+01  0.14374230499E+02  0.51100000000E-03 0.  1.
        -12    1    3    3    0    0 -0.23553323948E+02  0.82249849754E+01  0.80029693894E+01  0.26200323775E+02  0.00000000000E+00 0.  1.
</event>
<event>
 7    1  0.1749439E-013  0.7246149E+02  0.7816164E-02  0.1226708E+00
        -11   -1    0    0    0    0  0.00000000000E+00  0.00000000000E+00  0.45593999997E+02  0.45594000000E+02  0.51100000000E-03 0.  1.
         11   -1    0    0    0    0 -0.00000000000E+00 -0.00000000000E+00 -0.45593999997E+02  0.45594000000E+02  0.51100000000E-03 0. -1.
    9900012    2    1    2    0    0 -0.73515426197E+01  0.16566125610E+01 -0.17143299394E+02  0.72461487827E+02  0.69999892570E+02 0.  0.
        -12    1    1    2    0    0  0.73515426197E+01 -0.16566125610E+01  0.17143299394E+02  0.18726512173E+02  0.00000000000E+00 0.  1.
         11    1    3    3    0    0 -0.33323411999E+02 -0.29923751948E+01 -0.11520234423E+02  0.35385306244E+02  0.51100000000E-03 0. -1.
        -11    1    3    3    0    0  0.40134073164E+01  0.44934371588E+01 -0.12657278940E+02  0.14018028613E+02  0.51100000000E-03 0.  1.
        -12    1    3    3    0    0  0.21958462063E+02  0.15555059692E+00  0.70342139688E+01  0.23058152969E+02  0.00000000000E+00 0.  1.
</event>
<event>
 7    1  0.1749439E-013  0.7246150E+02  0.7816164E-02  0.1226708E+00
        -11   -1    0    0    0    0  0.00000000000E+00  0.00000000000E+00  0.45593999997E+02  0.45594000000E+02  0.51100000000E-03 0.  1.
         11   -1    0    0    0    0 -0.00000000000E+00 -0.00000000000E+00 -0.45593999997E+02  0.45594000000E+02  0.51100000000E-03 0. -1.
    9900012    2    1    2    0    0 -0.38560828911E+01 -0.50121484350E+01 -0.17626423810E+02  0.72461499432E+02  0.69999907688E+02 0.  0.
        -12    1    1    2    0    0  0.38560828911E+01  0.50121484350E+01  0.17626423810E+02  0.18726500568E+02  0.00000000000E+00 0.  1.
         11    1    3    3    0    0 -0.14107828829E+02 -0.11076775572E+02  0.66335900990E+01  0.19124076689E+02  0.51100000000E-03 0. -1.
        -11    1    3    3    0    0 -0.32374349163E+01  0.31956291272E+01  0.12911865845E+02  0.13689752015E+02  0.51100000000E-03 0.  1.
        -12    1    3    3    0    0  0.13489180854E+02  0.28689980096E+01 -0.37171879755E+02  0.39647670728E+02  0.00000000000E+00 0.  1.
</event>
<event>
 7    1  0.1749439E-013  0.7246162E+02  0.7816164E-02  0.1226708E+00
        -11   -1    0    0    0    0  0.00000000000E+00  0.00000000000E+00  0.45593999997E+02  0.45594000000E+02  0.51100000000E-03 0.  1.
         11   -1    0    0    0    0 -0.00000000000E+00 -0.00000000000E+00 -0.45593999997E+02  0.45594000000E+02  0.51100000000E-03 0. -1.
    9900012    2    1    2    0    0  0.67854366919E+01  0.16792387415E+02 -0.47593076414E+01  0.72461616595E+02  0.70000060316E+02 0.  0.
        -12    1    1    2    0    0 -0.67854366919E+01 -0.16792387415E+02  0.47593076414E+01  0.18726383405E+02  0.00000000000E+00 0.  1.
         11    1    3    3    0    0 -0.89538756687E+01  0.12232384492E+02 -0.22897489627E+02  0.27460847608E+02  0.51100000000E-03 0. -1.
        -11    1    3    3    0    0 -0.91209413675E+01  0.10789990069E+02  0.12260210412E+02  0.18706368347E+02  0.51100000000E-03 0.  1.
        -12    1    3    3    0    0  0.24860253728E+02 -0.62299871462E+01  0.58779715734E+01  0.26294400641E+02  0.00000000000E+00 0.  1.
</event>
<event>
 7    1  0.1749439E-013  0.7246156E+02  0.7816164E-02  0.1226708E+00
        -11   -1    0    0    0    0  0.00000000000E+00  0.00000000000E+00  0.45593999997E+02  0.45594000000E+02  0.51100000000E-03 0.  1.
         11   -1    0    0    0    0 -0.00000000000E+00 -0.00000000000E+00 -0.45593999997E+02  0.45594000000E+02  0.51100000000E-03 0. -1.
    9900012    2    1    2    0    0 -0.42121852545E+01  0.15172470980E+02 -0.10135731657E+02  0.72461563167E+02  0.69999990715E+02 0.  0.
        -12    1    1    2    0    0  0.42121852545E+01 -0.15172470980E+02  0.10135731657E+02  0.18726436833E+02  0.00000000000E+00 0.  1.
         11    1    3    3    0    0 -0.24878590411E+02  0.18427364803E+02 -0.19182202843E+02  0.36420721308E+02  0.51100000000E-03 0. -1.
        -11    1    3    3    0    0  0.11791044840E+01 -0.74392439528E+01 -0.71295482473E+01  0.10371263011E+02  0.51100000000E-03 0.  1.
        -12    1    3    3    0    0  0.19487300673E+02  0.41843501294E+01  0.16176019433E+02  0.25669578847E+02  0.00000000000E+00 0.  1.
</event>
<event>
 7    1  0.1749439E-013  0.7246176E+02  0.7816164E-02  0.1226708E+00
        -11   -1    0    0    0    0  0.00000000000E+00  0.00000000000E+00  0.45593999997E+02  0.45594000000E+02  0.51100000000E-03 0.  1.
         11   -1    0    0    0    0 -0.00000000000E+00 -0.00000000000E+00 -0.45593999997E+02  0.45594000000E+02  0.51100000000E-03 0. -1.
    9900012    2    1    2    0    0  0.16183076173E+02 -0.34171867800E+00  0.94161232141E+01  0.72461758988E+02  0.70000245808E+02 0.  0.
        -12    1    1    2    0    0 -0.16183076173E+02  0.34171867800E+00 -0.94161232141E+01  0.18726241012E+02  0.00000000000E+00 0.  1.
         11    1    3    3    0    0 -0.22440884960E+01  0.29673316101E+01 -0.18546178310E+02  0.18915647497E+02  0.51100000000E-03 0. -1.
        -11    1    3    3    0    0 -0.21133465733E+01 -0.15526095943E+02 -0.13481824269E+01  0.15727157565E+02  0.51100000000E-03 0.  1.
         12    1    3    3    0    0  0.20540511242E+02  0.12217045655E+02  0.29310483951E+02  0.37818953926E+02  0.00000000000E+00 0. -1.
</event>
<event>
 7    1  0.1749439E-013  0.7246157E+02  0.7816164E-02  0.1226708E+00
        -11   -1    0    0    0    0  0.00000000000E+00  0.00000000000E+00  0.45593999997E+02  0.45594000000E+02  0.51100000000E-03 0.  1.
         11   -1    0    0    0    0 -0.00000000000E+00 -0.00000000000E+00 -0.45593999997E+02  0.45594000000E+02  0.51100000000E-03 0. -1.
    9900012    2    1    2    0    0  0.92225104833E+00  0.56023289219E+01 -0.17844961971E+02  0.72461566702E+02  0.69999995320E+02 0.  0.
        -12    1    1    2    0    0 -0.92225104833E+00 -0.56023289219E+01  0.17844961971E+02  0.18726433298E+02  0.00000000000E+00 0.  1.
         11    1    3    3    0    0  0.26633422899E+02 -0.66853351158E+01 -0.70038646325E+01  0.28338790394E+02  0.51100000000E-03 0. -1.
        -11    1    3    3    0    0  0.74614740764E+01  0.43240693507E+01 -0.15159206255E+01  0.87560942632E+01  0.51100000000E-03 0.  1.
        -12    1    3    3    0    0 -0.33172645927E+02  0.79635946869E+01 -0.93251767125E+01  0.35366682045E+02  0.00000000000E+00 0.  1.
</event>
<event>
 7    1  0.1749439E-013  0.7246155E+02  0.7816164E-02  0.1226708E+00
        -11   -1    0    0    0    0  0.00000000000E+00  0.00000000000E+00  0.45593999997E+02  0.45594000000E+02  0.51100000000E-03 0. -1.
         11   -1    0    0    0    0 -0.00000000000E+00 -0.00000000000E+00 -0.45593999997E+02  0.45594000000E+02  0.51100000000E-03 0.  1.
    9900012    2    1    2    0    0 -0.62201568580E+01  0.16719703241E+02  0.56957210227E+01  0.72461546365E+02  0.69999968827E+02 0.  0.
        -12    1    1    2    0    0  0.62201568580E+01 -0.16719703241E+02 -0.56957210227E+01  0.18726453635E+02  0.00000000000E+00 0.  1.
         11    1    3    3    0    0  0.14911558014E+02 -0.98558715078E+00  0.70853079654E+01  0.16538667832E+02  0.51100000000E-03 0. -1.
        -11    1    3    3    0    0  0.17618264690E+01  0.22872976576E+02 -0.16278096985E+02  0.28129229133E+02  0.51100000000E-03 0.  1.
         12    1    3    3    0    0 -0.22893541341E+02 -0.51676861843E+01  0.14888510042E+02  0.27793649399E+02  0.00000000000E+00 0. -1.
</event>
<event>
 7    1  0.1749439E-013  0.7246158E+02  0.7816164E-02  0.1226708E+00
        -11   -1    0    0    0    0  0.00000000000E+00  0.00000000000E+00  0.45593999997E+02  0.45594000000E+02  0.51100000000E-03 0.  1.
         11   -1    0    0    0    0 -0.00000000000E+00 -0.00000000000E+00 -0.45593999997E+02  0.45594000000E+02  0.51100000000E-03 0. -1.
    9900012    2    1    2    0    0  0.81482498999E+01 -0.10355851591E+02 -0.13305678763E+02  0.72461582138E+02  0.70000015428E+02 0.  0.
        -12    1    1    2    0    0 -0.81482498999E+01  0.10355851591E+02  0.13305678763E+02  0.18726417862E+02  0.00000000000E+00 0.  1.
         11    1    3    3    0    0 -0.12255819626E+02 -0.65940170576E+01  0.13112869423E+02  0.19121545974E+02  0.51100000000E-03 0. -1.
        -11    1    3    3    0    0 -0.11087773633E+02 -0.90050183402E+01 -0.10032463163E+02  0.17455067941E+02  0.51100000000E-03 0.  1.
         12    1    3    3    0    0  0.31491843159E+02  0.52431838072E+01 -0.16386085023E+02  0.35884968223E+02  0.00000000000E+00 0. -1.
</event>
<event>
 7    1  0.1749439E-013  0.7246159E+02  0.7816164E-02  0.1226708E+00
        -11   -1    0    0    0    0  0.00000000000E+00  0.00000000000E+00  0.45593999997E+02  0.45594000000E+02  0.51100000000E-03 0.  1.
         11   -1    0    0    0    0 -0.00000000000E+00 -0.00000000000E+00 -0.45593999997E+02  0.45594000000E+02  0.51100000000E-03 0. -1.
    9900012    2    1    2    0    0 -0.46522667186E+01  0.10305399723E+02 -0.14927606808E+02  0.72461593669E+02  0.70000030449E+02 0.  0.
        -12    1    1    2    0    0  0.46522667186E+01 -0.10305399723E+02  0.14927606808E+02  0.18726406331E+02  0.00000000000E+00 0.  1.
         11    1    3    3    0    0  0.43426826185E+01  0.17984986342E+02  0.41064584010E+00  0.18506411222E+02  0.51100000000E-03 0. -1.
        -11    1    3    3    0    0  0.18661678741E+02 -0.13059938620E+02 -0.22499969125E+01  0.22888484803E+02  0.51100000000E-03 0.  1.
        -12    1    3    3    0    0 -0.27656628078E+02  0.53803520014E+01 -0.13088255736E+02  0.31066697644E+02  0.00000000000E+00 0.  1.
</event>
<event>
 7    1  0.1749439E-013  0.7246158E+02  0.7816164E-02  0.1226708E+00
        -11   -1    0    0    0    0  0.00000000000E+00  0.00000000000E+00  0.45593999997E+02  0.45594000000E+02  0.51100000000E-03 0. -1.
         11   -1    0    0    0    0 -0.00000000000E+00 -0.00000000000E+00 -0.45593999997E+02  0.45594000000E+02  0.51100000000E-03 0.  1.
    9900012    2    1    2    0    0  0.18996630816E+01  0.18106586171E+02  0.43842637359E+01  0.72461576126E+02  0.70000007597E+02 0.  0.
        -12    1    1    2    0    0 -0.18996630816E+01 -0.18106586171E+02 -0.43842637359E+01  0.18726423874E+02  0.00000000000E+00 0.  1.
         11    1    3    3    0    0 -0.13187783793E+01  0.49485758087E+01  0.19594524786E+02  0.20252727737E+02  0.51100000000E-03 0. -1.
        -11    1    3    3    0    0 -0.19831794049E+02  0.65368814702E+01  0.42678856830E+01  0.21313041149E+02  0.51100000000E-03 0.  1.
        -12    1    3    3    0    0  0.23050235510E+02  0.66211288925E+01 -0.19478146733E+02  0.30895807240E+02  0.00000000000E+00 0.  1.
</event>
<event>
 7    1  0.1749439E-013  0.7246151E+02  0.7816164E-02  0.1226708E+00
        -11   -1    0    0    0    0  0.00000000000E+00  0.00000000000E+00  0.45593999997E+02  0.45594000000E+02  0.51100000000E-03 0. -1.
         11   -1    0    0    0    0 -0.00000000000E+00 -0.00000000000E+00 -0.45593999997E+02  0.45594000000E+02  0.51100000000E-03 0.  1.
    9900012    2    1    2    0    0  0.29482544677E+01  0.42328996398E+01  0.18001994836E+02  0.72461509089E+02  0.69999920269E+02 0.  0.
        -12    1    1    2    0    0 -0.29482544677E+01 -0.42328996398E+01 -0.18001994836E+02  0.18726490911E+02  0.00000000000E+00 0.  1.
         11    1    3    3    0    0 -0.15572212708E+01  0.44590301838E+00 -0.13516096556E+02  0.13612811391E+02  0.51100000000E-03 0. -1.
        -11    1    3    3    0    0  0.14143461913E+02  0.18843898667E+01 -0.91900700991E+01  0.16971912937E+02  0.51100000000E-03 0.  1.
         12    1    3    3    0    0 -0.96379861749E+01  0.19026067547E+01  0.40708161491E+02  0.41876784761E+02  0.00000000000E+00 0. -1.
</event>
<event>
 7    1  0.1749439E-013  0.7246083E+02  0.7816164E-02  0.1226710E+00
        -11   -1    0    0    0    0  0.00000000000E+00  0.00000000000E+00  0.45593999997E+02  0.45594000000E+02  0.51100000000E-03 0. -1.
         11   -1    0    0    0    0 -0.00000000000E+00 -0.00000000000E+00 -0.45593999997E+02  0.45594000000E+02  0.51100000000E-03 0.  1.
    9900012    2    1    2    0    0 -0.13364538388E+02  0.11717585011E+02  0.58986529671E+01  0.72460832792E+02  0.69999039260E+02 0.  0.
        -12    1    1    2    0    0  0.13364538388E+02 -0.11717585011E+02 -0.58986529671E+01  0.18727167208E+02  0.00000000000E+00 0.  1.
         11    1    3    3    0    0  0.53846150218E+01 -0.19955121644E+02 -0.92788487071E+01  0.22656080692E+02  0.51100000000E-03 0. -1.
        -11    1    3    3    0    0  0.66164739396E+01  0.56449216214E+01 -0.29593066732E+01  0.91869670595E+01  0.51100000000E-03 0.  1.
        -12    1    3    3    0    0 -0.25365627349E+02  0.26027785033E+02  0.18136808347E+02  0.40617785040E+02  0.00000000000E+00 0.  1.
</event>
<event>
 7    1  0.1749439E-013  0.7246153E+02  0.7816164E-02  0.1226708E+00
        -11   -1    0    0    0    0  0.00000000000E+00  0.00000000000E+00  0.45593999997E+02  0.45594000000E+02  0.51100000000E-03 0.  1.
         11   -1    0    0    0    0 -0.00000000000E+00 -0.00000000000E+00 -0.45593999997E+02  0.45594000000E+02  0.51100000000E-03 0. -1.
    9900012    2    1    2    0    0  0.13959232783E+01 -0.17421675954E+02 -0.67243730236E+01  0.72461532437E+02  0.69999950684E+02 0.  0.
        -12    1    1    2    0    0 -0.13959232783E+01  0.17421675954E+02  0.67243730236E+01  0.18726467563E+02  0.00000000000E+00 0.  1.
         11    1    3    3    0    0  0.18268585832E+01 -0.34135952863E+02  0.73802874029E+01  0.34972408161E+02  0.51100000000E-03 0. -1.
        -11    1    3    3    0    0  0.12268285474E+02  0.10457874026E+02  0.17716406031E+01  0.16217788638E+02  0.51100000000E-03 0.  1.
         12    1    3    3    0    0 -0.12699220779E+02  0.62564028837E+01 -0.15876301030E+02  0.21271335638E+02  0.00000000000E+00 0. -1.
</event>
<event>
 7    1  0.1749439E-013  0.7246160E+02  0.7816164E-02  0.1226708E+00
        -11   -1    0    0    0    0  0.00000000000E+00  0.00000000000E+00  0.45593999997E+02  0.45594000000E+02  0.51100000000E-03 0.  1.
         11   -1    0    0    0    0 -0.00000000000E+00 -0.00000000000E+00 -0.45593999997E+02  0.45594000000E+02  0.51100000000E-03 0. -1.
    9900012    2    1    2    0    0 -0.20039244726E+00  0.25155731241E+01 -0.18555587555E+02  0.72461598990E+02  0.70000037381E+02 0.  0.
        -12    1    1    2    0    0  0.20039244726E+00 -0.25155731241E+01  0.18555587555E+02  0.18726401010E+02  0.00000000000E+00 0.  1.
         11    1    3    3    0    0  0.41924616978E+01 -0.32237086695E+01 -0.15358596497E+02  0.16243630114E+02  0.51100000000E-03 0. -1.
        -11    1    3    3    0    0 -0.11892410785E+02 -0.16210558522E+02  0.16326822428E+02  0.25899358539E+02  0.51100000000E-03 0.  1.
         12    1    3    3    0    0  0.74995566398E+01  0.21949840315E+02 -0.19523813487E+02  0.30318610337E+02  0.00000000000E+00 0. -1.
</event>
<event>
 7    1  0.1749439E-013  0.7246159E+02  0.7816164E-02  0.1226708E+00
        -11   -1    0    0    0    0  0.00000000000E+00  0.00000000000E+00  0.45593999997E+02  0.45594000000E+02  0.51100000000E-03 0.  1.
         11   -1    0    0    0    0 -0.00000000000E+00 -0.00000000000E+00 -0.45593999997E+02  0.45594000000E+02  0.51100000000E-03 0. -1.
    9900012    2    1    2    0    0 -0.70031316432E+01  0.14334987776E+02 -0.98052478672E+01  0.72461585151E+02  0.70000019354E+02 0.  0.
        -12    1    1    2    0    0  0.70031316432E+01 -0.14334987776E+02  0.98052478672E+01  0.18726414849E+02  0.00000000000E+00 0.  1.
         11    1    3    3    0    0  0.13882228973E+02  0.33580302388E+02  0.16799665159E+01  0.36375476320E+02  0.51100000000E-03 0. -1.
        -11    1    3    3    0    0  0.24463158418E+01  0.26008944873E+00 -0.41157489564E+01  0.47949449895E+01  0.51100000000E-03 0.  1.
        -12    1    3    3    0    0 -0.23331676458E+02 -0.19505404061E+02 -0.73694654268E+01  0.31291163842E+02  0.00000000000E+00 0.  1.
</event>
<event>
 7    1  0.1749439E-013  0.7246159E+02  0.7816164E-02  0.1226708E+00
        -11   -1    0    0    0    0  0.00000000000E+00  0.00000000000E+00  0.45593999997E+02  0.45594000000E+02  0.51100000000E-03 0.  1.
         11   -1    0    0    0    0 -0.00000000000E+00 -0.00000000000E+00 -0.45593999997E+02  0.45594000000E+02  0.51100000000E-03 0. -1.
    9900012    2    1    2    0    0 -0.16448602518E+02 -0.85641356358E+01 -0.26033563548E+01  0.72461590619E+02  0.70000026477E+02 0.  0.
        -12    1    1    2    0    0  0.16448602518E+02  0.85641356358E+01  0.26033563548E+01  0.18726409381E+02  0.00000000000E+00 0.  1.
         11    1    3    3    0    0  0.16964331208E+02 -0.51478850126E+00  0.43517950783E+01  0.17521177507E+02  0.51100000000E-03 0.  1.
        -11    1    3    3    0    0 -0.35290311413E+01 -0.10629041555E+02 -0.19452376474E+02  0.22446058361E+02  0.51100000000E-03 0. -1.
         12    1    3    3    0    0 -0.29883902585E+02  0.25796944208E+01  0.12497225041E+02  0.32494354752E+02  0.00000000000E+00 0. -1.
</event>
<event>
 7    1  0.1749439E-013  0.7246151E+02  0.7816164E-02  0.1226708E+00
        -11   -1    0    0    0    0  0.00000000000E+00  0.00000000000E+00  0.45593999997E+02  0.45594000000E+02  0.51100000000E-03 0.  1.
         11   -1    0    0    0    0 -0.00000000000E+00 -0.00000000000E+00 -0.45593999997E+02  0.45594000000E+02  0.51100000000E-03 0. -1.
    9900012    2    1    2    0    0  0.45445377818E+01  0.16656440599E+02 -0.72520062703E+01  0.72461509885E+02  0.69999921306E+02 0.  0.
        -12    1    1    2    0    0 -0.45445377818E+01 -0.16656440599E+02  0.72520062703E+01  0.18726490115E+02  0.00000000000E+00 0.  1.
         11    1    3    3    0    0 -0.10779775585E+01 -0.22074861689E+01  0.20948546617E+02  0.21092098910E+02  0.51100000000E-03 0. -1.
        -11    1    3    3    0    0  0.10087914178E+01 -0.11797351622E+02 -0.63347439655E+01  0.13428482669E+02  0.51100000000E-03 0.  1.
         12    1    3    3    0    0  0.46137239225E+01  0.30661278390E+02 -0.21865808921E+02  0.37940928306E+02  0.00000000000E+00 0. -1.
</event>
<event>
 7    1  0.1749439E-013  0.7246158E+02  0.7816164E-02  0.1226708E+00
        -11   -1    0    0    0    0  0.00000000000E+00  0.00000000000E+00  0.45593999997E+02  0.45594000000E+02  0.51100000000E-03 0. -1.
         11   -1    0    0    0    0 -0.00000000000E+00 -0.00000000000E+00 -0.45593999997E+02  0.45594000000E+02  0.51100000000E-03 0.  1.
    9900012    2    1    2    0    0  0.11933110980E+02  0.12679619367E+02  0.68925383964E+01  0.72461575608E+02  0.70000006922E+02 0.  0.
        -12    1    1    2    0    0 -0.11933110980E+02 -0.12679619367E+02 -0.68925383964E+01  0.18726424392E+02  0.00000000000E+00 0.  1.
         11    1    3    3    0    0  0.94933573162E+01 -0.21744246989E+02 -0.30756238287E+00  0.23728268060E+02  0.51100000000E-03 0. -1.
        -11    1    3    3    0    0  0.17191397905E+02  0.12013865627E+02  0.73060481926E-01  0.20973375201E+02  0.51100000000E-03 0.  1.
        -12    1    3    3    0    0 -0.14751644241E+02  0.22410000729E+02  0.71270402973E+01  0.27759932347E+02  0.00000000000E+00 0.  1.
</event>
<event>
 7    1  0.1749439E-013  0.7246159E+02  0.7816164E-02  0.1226708E+00
        -11   -1    0    0    0    0  0.00000000000E+00  0.00000000000E+00  0.45593999997E+02  0.45594000000E+02  0.51100000000E-03 0. -1.
         11   -1    0    0    0    0 -0.00000000000E+00 -0.00000000000E+00 -0.45593999997E+02  0.45594000000E+02  0.51100000000E-03 0.  1.
    9900012    2    1    2    0    0 -0.47490837581E+00 -0.79509152049E+01  0.16948038982E+02  0.72461585076E+02  0.70000019256E+02 0.  0.
        -12    1    1    2    0    0  0.47490837581E+00  0.79509152049E+01 -0.16948038982E+02  0.18726414924E+02  0.00000000000E+00 0.  1.
         11    1    3    3    0    0  0.42964746608E+01  0.49004846579E-01  0.20992197401E+02  0.21427422803E+02  0.51100000000E-03 0. -1.
        -11    1    3    3    0    0 -0.21874313092E+02 -0.11648804656E+01  0.13389663805E+02  0.25673441858E+02  0.51100000000E-03 0.  1.
        -12    1    3    3    0    0  0.17102930056E+02 -0.68350395858E+01 -0.17433822224E+02  0.25360720415E+02  0.00000000000E+00 0.  1.
</event>
<event>
 7    1  0.1749439E-013  0.7246181E+02  0.7816164E-02  0.1226707E+00
        -11   -1    0    0    0    0  0.00000000000E+00  0.00000000000E+00  0.45593999997E+02  0.45594000000E+02  0.51100000000E-03 0. -1.
         11   -1    0    0    0    0 -0.00000000000E+00 -0.00000000000E+00 -0.45593999997E+02  0.45594000000E+02  0.51100000000E-03 0.  1.
    9900012    2    1    2    0    0 -0.99633442067E+01 -0.10921302713E+02  0.11494663293E+02  0.72461805380E+02  0.70000306242E+02 0.  0.
        -12    1    1    2    0    0  0.99633442067E+01  0.10921302713E+02 -0.11494663293E+02  0.18726194620E+02  0.00000000000E+00 0.  1.
         11    1    3    3    0    0 -0.23223139684E+02  0.11540898844E+02  0.50188265348E+01  0.26413920250E+02  0.51100000000E-03 0.  1.
        -11    1    3    3    0    0  0.10955794909E+02  0.27763222841E+01 -0.10594711777E+02  0.15491459757E+02  0.51100000000E-03 0. -1.
         12    1    3    3    0    0  0.23040005691E+01 -0.25238523841E+02  0.17070548535E+02  0.30556425373E+02  0.00000000000E+00 0. -1.
</event>
<event>
 7    1  0.1749439E-013  0.7246156E+02  0.7816164E-02  0.1226708E+00
        -11   -1    0    0    0    0  0.00000000000E+00  0.00000000000E+00  0.45593999997E+02  0.45594000000E+02  0.51100000000E-03 0. -1.
         11   -1    0    0    0    0 -0.00000000000E+00 -0.00000000000E+00 -0.45593999997E+02  0.45594000000E+02  0.51100000000E-03 0.  1.
    9900012    2    1    2    0    0 -0.10507684401E+02  0.12478513948E+02  0.91953656509E+01  0.72461561704E+02  0.69999988809E+02 0.  0.
        -12    1    1    2    0    0  0.10507684401E+02 -0.12478513948E+02 -0.91953656509E+01  0.18726438296E+02  0.00000000000E+00 0.  1.
         11    1    3    3    0    0  0.10972099018E+02 -0.10628529161E+01  0.63992587864E+01  0.12746259312E+02  0.51100000000E-03 0. -1.
        -11    1    3    3    0    0 -0.11672505333E+02 -0.19993549873E+02 -0.55184397745E+01  0.23800054518E+02  0.51100000000E-03 0.  1.
         12    1    3    3    0    0 -0.98072780858E+01  0.33534916737E+02  0.83145466390E+01  0.35915247873E+02  0.00000000000E+00 0. -1.
</event>
<event>
 7    1  0.1749439E-013  0.7246120E+02  0.7816164E-02  0.1226709E+00
        -11   -1    0    0    0    0  0.00000000000E+00  0.00000000000E+00  0.45593999997E+02  0.45594000000E+02  0.51100000000E-03 0. -1.
         11   -1    0    0    0    0 -0.00000000000E+00 -0.00000000000E+00 -0.45593999997E+02  0.45594000000E+02  0.51100000000E-03 0.  1.
    9900012    2    1    2    0    0 -0.18019001958E+02  0.47531419655E+01  0.18482920515E+01  0.72461201725E+02  0.69999519869E+02 0.  0.
        -12    1    1    2    0    0  0.18019001958E+02 -0.47531419655E+01 -0.18482920515E+01  0.18726798275E+02  0.00000000000E+00 0.  1.
         11    1    3    3    0    0 -0.39020936652E+01 -0.28707287546E+02 -0.19431474571E+01  0.29036365398E+02  0.51100000000E-03 0. -1.
        -11    1    3    3    0    0  0.97192845287E+00  0.10112683427E+02 -0.82914752470E+01  0.13113335695E+02  0.51100000000E-03 0.  1.
        -12    1    3    3    0    0 -0.15088836746E+02  0.23347746085E+02  0.12082914756E+02  0.30311500632E+02  0.00000000000E+00 0.  1.
</event>
<event>
 7    1  0.1749439E-013  0.7246164E+02  0.7816164E-02  0.1226708E+00
        -11   -1    0    0    0    0  0.00000000000E+00  0.00000000000E+00  0.45593999997E+02  0.45594000000E+02  0.51100000000E-03 0. -1.
         11   -1    0    0    0    0 -0.00000000000E+00 -0.00000000000E+00 -0.45593999997E+02  0.45594000000E+02  0.51100000000E-03 0.  1.
    9900012    2    1    2    0    0 -0.15171637387E+02 -0.99460493281E+01 -0.46448051757E+01  0.72461636408E+02  0.70000086125E+02 0.  0.
        -12    1    1    2    0    0  0.15171637387E+02  0.99460493281E+01  0.46448051757E+01  0.18726363592E+02  0.00000000000E+00 0.  1.
         11    1    3    3    0    0  0.10831197016E+01 -0.86610823066E+01 -0.94522741672E+01  0.12865962156E+02  0.51100000000E-03 0. -1.
        -11    1    3    3    0    0  0.17376118427E+02 -0.51607638509E+01 -0.12061117509E+02  0.21772311107E+02  0.51100000000E-03 0.  1.
         12    1    3    3    0    0 -0.33630875516E+02  0.38757968294E+01  0.16868586501E+02  0.37823363145E+02  0.00000000000E+00 0. -1.
</event>
<event>
 7    1  0.1749439E-013  0.7246162E+02  0.7816164E-02  0.1226708E+00
        -11   -1    0    0    0    0  0.00000000000E+00  0.00000000000E+00  0.45593999997E+02  0.45594000000E+02  0.51100000000E-03 0.  1.
         11   -1    0    0    0    0 -0.00000000000E+00 -0.00000000000E+00 -0.45593999997E+02  0.45594000000E+02  0.51100000000E-03 0. -1.
    9900012    2    1    2    0    0 -0.12942228995E+02  0.10189406916E+02 -0.89079781447E+01  0.72461618094E+02  0.70000062268E+02 0.  0.
        -12    1    1    2    0    0  0.12942228995E+02 -0.10189406916E+02  0.89079781447E+01  0.18726381906E+02  0.00000000000E+00 0.  1.
         11    1    3    3    0    0  0.83687125615E+00  0.31849140498E+02 -0.13159049859E+02  0.34470693313E+02  0.51100000000E-03 0. -1.
        -11    1    3    3    0    0  0.83827914051E+00  0.56502648034E+01  0.40713188654E+01  0.70145450195E+01  0.51100000000E-03 0.  1.
        -12    1    3    3    0    0 -0.14617379391E+02 -0.27309998386E+02  0.17975284920E+00  0.30976379762E+02  0.00000000000E+00 0.  1.
</event>
<event>
 7    1  0.1749439E-013  0.7246156E+02  0.7816164E-02  0.1226708E+00
        -11   -1    0    0    0    0  0.00000000000E+00  0.00000000000E+00  0.45593999997E+02  0.45594000000E+02  0.51100000000E-03 0. -1.
         11   -1    0    0    0    0 -0.00000000000E+00 -0.00000000000E+00 -0.45593999997E+02  0.45594000000E+02  0.51100000000E-03 0.  1.
    9900012    2    1    2    0    0 -0.58451226665E+01 -0.10351669710E+02  0.14469170903E+02  0.72461563302E+02  0.69999990891E+02 0.  0.
        -12    1    1    2    0    0  0.58451226665E+01  0.10351669710E+02 -0.14469170903E+02  0.18726436698E+02  0.00000000000E+00 0.  1.
         11    1    3    3    0    0  0.84029188602E+01 -0.25281736510E+02  0.11052435770E+02  0.28843224213E+02  0.51100000000E-03 0. -1.
        -11    1    3    3    0    0 -0.23020608630E+02  0.56661660921E+00 -0.66984581713E+01  0.23982052002E+02  0.51100000000E-03 0.  1.
         12    1    3    3    0    0  0.87725671033E+01  0.14363450190E+02  0.10115193305E+02  0.19636287087E+02  0.00000000000E+00 0. -1.
</event>
<event>
 7    1  0.1749439E-013  0.7246157E+02  0.7816164E-02  0.1226708E+00
        -11   -1    0    0    0    0  0.00000000000E+00  0.00000000000E+00  0.45593999997E+02  0.45594000000E+02  0.51100000000E-03 0. -1.
         11   -1    0    0    0    0 -0.00000000000E+00 -0.00000000000E+00 -0.45593999997E+02  0.45594000000E+02  0.51100000000E-03 0.  1.
    9900012    2    1    2    0    0 -0.60762401386E+01 -0.17260564452E+02  0.39788551363E+01  0.72461573015E+02  0.70000003544E+02 0.  0.
        -12    1    1    2    0    0  0.60762401386E+01  0.17260564452E+02 -0.39788551363E+01  0.18726426985E+02  0.00000000000E+00 0.  1.
         11    1    3    3    0    0 -0.10649620330E+01  0.91830352665E+01 -0.18699871799E+01  0.94318149447E+01  0.51100000000E-03 0. -1.
        -11    1    3    3    0    0 -0.10809621233E+02 -0.19605717983E+02 -0.23431371431E+02  0.32407734513E+02  0.51100000000E-03 0.  1.
         12    1    3    3    0    0  0.57983431271E+01 -0.68378817356E+01  0.29280213747E+02  0.30622023557E+02  0.00000000000E+00 0. -1.
</event>
<event>
 7    1  0.1749439E-013  0.7246155E+02  0.7816164E-02  0.1226708E+00
        -11   -1    0    0    0    0  0.00000000000E+00  0.00000000000E+00  0.45593999997E+02  0.45594000000E+02  0.51100000000E-03 0. -1.
         11   -1    0    0    0    0 -0.00000000000E+00 -0.00000000000E+00 -0.45593999997E+02  0.45594000000E+02  0.51100000000E-03 0.  1.
    9900012    2    1    2    0    0  0.44990558454E+01  0.57551641086E+00  0.18168848641E+02  0.72461553899E+02  0.69999978642E+02 0.  0.
        -12    1    1    2    0    0 -0.44990558454E+01 -0.57551641086E+00 -0.18168848641E+02  0.18726446101E+02  0.00000000000E+00 0.  1.
         11    1    3    3    0    0 -0.13110373076E+02  0.76503336319E+01  0.36252589688E+02  0.39302159562E+02  0.51100000000E-03 0. -1.
        -11    1    3    3    0    0  0.91317136660E+01 -0.52859630679E+01  0.24852373947E+01  0.10840018690E+02  0.51100000000E-03 0.  1.
        -12    1    3    3    0    0  0.84777152552E+01 -0.17888541531E+01 -0.20568978442E+02  0.22319375647E+02  0.00000000000E+00 0.  1.
</event>
<event>
 7    1  0.1749439E-013  0.7246159E+02  0.7816164E-02  0.1226708E+00
        -11   -1    0    0    0    0  0.00000000000E+00  0.00000000000E+00  0.45593999997E+02  0.45594000000E+02  0.51100000000E-03 0.  1.
         11   -1    0    0    0    0 -0.00000000000E+00 -0.00000000000E+00 -0.45593999997E+02  0.45594000000E+02  0.51100000000E-03 0. -1.
    9900012    2    1    2    0    0  0.48112083051E+01 -0.12635286852E+02 -0.12956855357E+02  0.72461593513E+02  0.70000030246E+02 0.  0.
        -12    1    1    2    0    0 -0.48112083051E+01  0.12635286852E+02  0.12956855357E+02  0.18726406487E+02  0.00000000000E+00 0.  1.
         11    1    3    3    0    0  0.60911032561E+01  0.42690884517E+01 -0.40819939014E+01  0.84846525891E+01  0.51100000000E-03 0. -1.
        -11    1    3    3    0    0  0.11424332632E+02 -0.11178085621E+02 -0.32687839784E+02  0.36386259003E+02  0.51100000000E-03 0.  1.
         12    1    3    3    0    0 -0.12704227583E+02 -0.57262896825E+01  0.23812978328E+02  0.27590681921E+02  0.00000000000E+00 0. -1.
</event>
<event>
 7    1  0.1749439E-013  0.7246158E+02  0.7816164E-02  0.1226708E+00
        -11   -1    0    0    0    0  0.00000000000E+00  0.00000000000E+00  0.45593999997E+02  0.45594000000E+02  0.51100000000E-03 0.  1.
         11   -1    0    0    0    0 -0.00000000000E+00 -0.00000000000E+00 -0.45593999997E+02  0.45594000000E+02  0.51100000000E-03 0. -1.
    9900012    2    1    2    0    0  0.16858683477E+02  0.73113595249E+01  0.36065997443E+01  0.72461581538E+02  0.70000014647E+02 0.  0.
        -12    1    1    2    0    0 -0.16858683477E+02 -0.73113595249E+01 -0.36065997443E+01  0.18726418462E+02  0.00000000000E+00 0.  1.
         11    1    3    3    0    0  0.53040414262E+01  0.88440612893E+01  0.16378548896E+02  0.19354770464E+02  0.51100000000E-03 0. -1.
        -11    1    3    3    0    0 -0.30183292104E+00  0.17713859784E+02  0.10556122167E+02  0.20622891335E+02  0.51100000000E-03 0.  1.
         12    1    3    3    0    0  0.11856474972E+02 -0.19246561548E+02 -0.23328071318E+02  0.32483919739E+02  0.00000000000E+00 0. -1.
</event>
<event>
 7    1  0.1749439E-013  0.7246117E+02  0.7816164E-02  0.1226709E+00
        -11   -1    0    0    0    0  0.00000000000E+00  0.00000000000E+00  0.45593999997E+02  0.45594000000E+02  0.51100000000E-03 0. -1.
         11   -1    0    0    0    0 -0.00000000000E+00 -0.00000000000E+00 -0.45593999997E+02  0.45594000000E+02  0.51100000000E-03 0.  1.
    9900012    2    1    2    0    0  0.15685927187E+02  0.99728706001E+01 -0.22776933298E+01  0.72461165067E+02  0.69999472114E+02 0.  0.
        -12    1    1    2    0    0 -0.15685927187E+02 -0.99728706001E+01  0.22776933298E+01  0.18726834933E+02  0.00000000000E+00 0.  1.
         11    1    3    3    0    0  0.80840912769E+01  0.76798413357E+00 -0.62535286863E+01  0.10249339134E+02  0.51100000000E-03 0. -1.
        -11    1    3    3    0    0 -0.11287374455E+01 -0.23701768672E+02 -0.95499038311E+01  0.25578282777E+02  0.51100000000E-03 0.  1.
         12    1    3    3    0    0  0.87305733553E+01  0.32906655138E+02  0.13525739188E+02  0.36633543155E+02  0.00000000000E+00 0. -1.
</event>
<event>
 7    1  0.1749439E-013  0.7246157E+02  0.7816164E-02  0.1226708E+00
        -11   -1    0    0    0    0  0.00000000000E+00  0.00000000000E+00  0.45593999997E+02  0.45594000000E+02  0.51100000000E-03 0.  1.
         11   -1    0    0    0    0 -0.00000000000E+00 -0.00000000000E+00 -0.45593999997E+02  0.45594000000E+02  0.51100000000E-03 0. -1.
    9900012    2    1    2    0    0  0.15380967897E+02  0.79486510012E+01  0.71361079272E+01  0.72461567811E+02  0.69999996765E+02 0.  0.
        -12    1    1    2    0    0 -0.15380967897E+02 -0.79486510012E+01 -0.71361079272E+01  0.18726432189E+02  0.00000000000E+00 0.  1.
         11    1    3    3    0    0  0.43007648583E+00 -0.37026275592E+01  0.62373761139E+01  0.72663111461E+01  0.51100000000E-03 0. -1.
        -11    1    3    3    0    0  0.12088652325E+02  0.21253812131E+02  0.27482875550E+02  0.36785438612E+02  0.51100000000E-03 0.  1.
         12    1    3    3    0    0  0.28622390861E+01 -0.96025335707E+01 -0.26584143737E+02  0.28409818053E+02  0.00000000000E+00 0. -1.
</event>
<event>
 7    1  0.1983883E-013  0.7246155E+02  0.7816164E-02  0.1226708E+00
        -11   -1    0    0    0    0  0.00000000000E+00  0.00000000000E+00  0.45593999997E+02  0.45594000000E+02  0.51100000000E-03 0. -1.
         11   -1    0    0    0    0 -0.00000000000E+00 -0.00000000000E+00 -0.45593999997E+02  0.45594000000E+02  0.51100000000E-03 0.  1.
    9900012    2    1    2    0    0  0.13168174841E+02  0.55223156113E+01  0.12115409166E+02  0.72461549787E+02  0.69999973285E+02 0.  0.
        -12    1    1    2    0    0 -0.13168174841E+02 -0.55223156113E+01 -0.12115409166E+02  0.18726450213E+02  0.00000000000E+00 0.  1.
         11    1    3    3    0    0  0.36486870232E+01 -0.11012824020E+02  0.25782842799E+02  0.28272781840E+02  0.51100000000E-03 0. -1.
        -11    1    3    3    0    0  0.52233097588E+01 -0.10944146315E+02 -0.10781298599E+02  0.16226327469E+02  0.51100000000E-03 0.  1.
        -12    1    3    3    0    0  0.42961780588E+01  0.27479285946E+02 -0.28861350350E+01  0.27962440478E+02  0.00000000000E+00 0.  1.
</event>
<event>
 7    1  0.1749439E-013  0.7246147E+02  0.7816164E-02  0.1226708E+00
        -11   -1    0    0    0    0  0.00000000000E+00  0.00000000000E+00  0.45593999997E+02  0.45594000000E+02  0.51100000000E-03 0.  1.
         11   -1    0    0    0    0 -0.00000000000E+00 -0.00000000000E+00 -0.45593999997E+02  0.45594000000E+02  0.51100000000E-03 0. -1.
    9900012    2    1    2    0    0 -0.25407748408E+01 -0.18459105689E+02  0.18677961301E+01  0.72461473840E+02  0.69999874351E+02 0.  0.
        -12    1    1    2    0    0  0.25407748408E+01  0.18459105689E+02 -0.18677961301E+01  0.18726526160E+02  0.00000000000E+00 0.  1.
         11    1    3    3    0    0  0.12745050004E+02  0.68119485845E+00 -0.60143526298E+01  0.14109314791E+02  0.51100000000E-03 0. -1.
        -11    1    3    3    0    0  0.18193431906E+02 -0.80776817984E+01  0.11363370497E+02  0.22921084116E+02  0.51100000000E-03 0.  1.
         12    1    3    3    0    0 -0.33479256751E+02 -0.11062618749E+02 -0.34812217368E+01  0.35431074934E+02  0.00000000000E+00 0. -1.
</event>
<event>
 7    1  0.1749439E-013  0.7246166E+02  0.7816164E-02  0.1226708E+00
        -11   -1    0    0    0    0  0.00000000000E+00  0.00000000000E+00  0.45593999997E+02  0.45594000000E+02  0.51100000000E-03 0.  1.
         11   -1    0    0    0    0 -0.00000000000E+00 -0.00000000000E+00 -0.45593999997E+02  0.45594000000E+02  0.51100000000E-03 0. -1.
    9900012    2    1    2    0    0 -0.10517910715E+02  0.15078523083E+02 -0.35619749776E+01  0.72461655725E+02  0.70000111289E+02 0.  0.
        -12    1    1    2    0    0  0.10517910715E+02 -0.15078523083E+02  0.35619749776E+01  0.18726344275E+02  0.00000000000E+00 0.  1.
         11    1    3    3    0    0 -0.84712727975E+01 -0.14814236425E+02  0.28938662803E+01  0.17308914639E+02  0.51100000000E-03 0. -1.
        -11    1    3    3    0    0 -0.15034448838E+02  0.27090356604E+02  0.11297431970E+02  0.32978084271E+02  0.51100000000E-03 0.  1.
        -12    1    3    3    0    0  0.12987810920E+02  0.28024029039E+01 -0.17753273228E+02  0.22174656815E+02  0.00000000000E+00 0.  1.
</event>
<event>
 7    1  0.1749439E-013  0.7246153E+02  0.7816164E-02  0.1226708E+00
        -11   -1    0    0    0    0  0.00000000000E+00  0.00000000000E+00  0.45593999997E+02  0.45594000000E+02  0.51100000000E-03 0.  1.
         11   -1    0    0    0    0 -0.00000000000E+00 -0.00000000000E+00 -0.45593999997E+02  0.45594000000E+02  0.51100000000E-03 0. -1.
    9900012    2    1    2    0    0  0.98782851564E+01 -0.15772335097E+02 -0.20817133092E+01  0.72461532037E+02  0.69999950163E+02 0.  0.
        -12    1    1    2    0    0 -0.98782851564E+01  0.15772335097E+02  0.20817133092E+01  0.18726467963E+02  0.00000000000E+00 0.  1.
         11    1    3    3    0    0 -0.21202334225E+01 -0.15198317537E+02 -0.12120043074E+02  0.19554531191E+02  0.51100000000E-03 0. -1.
        -11    1    3    3    0    0 -0.17495122291E+02  0.89069905322E+01 -0.18616914661E+01  0.19720032447E+02  0.51100000000E-03 0.  1.
        -12    1    3    3    0    0  0.29493640870E+02 -0.94810080922E+01  0.11900021231E+02  0.33186968399E+02  0.00000000000E+00 0.  1.
</event>
<event>
 7    1  0.1749439E-013  0.7246155E+02  0.7816164E-02  0.1226708E+00
        -11   -1    0    0    0    0  0.00000000000E+00  0.00000000000E+00  0.45593999997E+02  0.45594000000E+02  0.51100000000E-03 0.  1.
         11   -1    0    0    0    0 -0.00000000000E+00 -0.00000000000E+00 -0.45593999997E+02  0.45594000000E+02  0.51100000000E-03 0. -1.
    9900012    2    1    2    0    0 -0.14940010817E+02  0.19359627191E+01 -0.11123316036E+02  0.72461547199E+02  0.69999969914E+02 0.  0.
        -12    1    1    2    0    0  0.14940010817E+02 -0.19359627191E+01  0.11123316036E+02  0.18726452801E+02  0.00000000000E+00 0.  1.
         11    1    3    3    0    0 -0.21953856119E+00 -0.16513460694E+02 -0.28007348860E+02  0.32513907358E+02  0.51100000000E-03 0. -1.
        -11    1    3    3    0    0  0.94262921637E+00  0.86381192190E+01 -0.59795492404E+01  0.10548017011E+02  0.51100000000E-03 0.  1.
        -12    1    3    3    0    0 -0.15663101472E+02  0.98113041943E+01  0.22863582065E+02  0.29399622830E+02  0.00000000000E+00 0.  1.
</event>
<event>
 7    1  0.1749439E-013  0.7246158E+02  0.7816164E-02  0.1226708E+00
        -11   -1    0    0    0    0  0.00000000000E+00  0.00000000000E+00  0.45593999997E+02  0.45594000000E+02  0.51100000000E-03 0.  1.
         11   -1    0    0    0    0 -0.00000000000E+00 -0.00000000000E+00 -0.45593999997E+02  0.45594000000E+02  0.51100000000E-03 0. -1.
    9900012    2    1    2    0    0  0.35251981171E+01  0.15442462003E+02 -0.99891018693E+01  0.72461579877E+02  0.70000012483E+02 0.  0.
        -12    1    1    2    0    0 -0.35251981171E+01 -0.15442462003E+02  0.99891018693E+01  0.18726420123E+02  0.00000000000E+00 0.  1.
         11    1    3    3    0    0  0.12830842729E+02 -0.13529151788E+02 -0.25088556969E+02  0.31258665427E+02  0.51100000000E-03 0. -1.
        -11    1    3    3    0    0  0.97669891417E+00  0.84349217041E+01 -0.56922039651E+01  0.10222672408E+02  0.51100000000E-03 0.  1.
        -12    1    3    3    0    0 -0.10282343526E+02  0.20536692087E+02  0.20791659065E+02  0.30980242041E+02  0.00000000000E+00 0.  1.
</event>
<event>
 7    1  0.1749439E-013  0.7246158E+02  0.7816164E-02  0.1226708E+00
        -11   -1    0    0    0    0  0.00000000000E+00  0.00000000000E+00  0.45593999997E+02  0.45594000000E+02  0.51100000000E-03 0.  1.
         11   -1    0    0    0    0 -0.00000000000E+00 -0.00000000000E+00 -0.45593999997E+02  0.45594000000E+02  0.51100000000E-03 0. -1.
    9900012    2    1    2    0    0 -0.72149707988E+01  0.45105224127E+01 -0.16681674142E+02  0.72461578338E+02  0.70000010479E+02 0.  0.
        -12    1    1    2    0    0  0.72149707988E+01 -0.45105224127E+01  0.16681674142E+02  0.18726421662E+02  0.00000000000E+00 0.  1.
         11    1    3    3    0    0 -0.11213260528E+02 -0.23248479902E+02 -0.94572047174E+01  0.27489411612E+02  0.51100000000E-03 0. -1.
        -11    1    3    3    0    0 -0.98114454303E+01 -0.19267293761E+01 -0.70441912845E+01  0.12231000721E+02  0.51100000000E-03 0.  1.
        -12    1    3    3    0    0  0.13809735160E+02  0.29685731691E+02 -0.18027814032E+00  0.32741166006E+02  0.00000000000E+00 0.  1.
</event>
<event>
 7    1  0.1749439E-013  0.7246167E+02  0.7816164E-02  0.1226708E+00
        -11   -1    0    0    0    0  0.00000000000E+00  0.00000000000E+00  0.45593999997E+02  0.45594000000E+02  0.51100000000E-03 0. -1.
         11   -1    0    0    0    0 -0.00000000000E+00 -0.00000000000E+00 -0.45593999997E+02  0.45594000000E+02  0.51100000000E-03 0.  1.
    9900012    2    1    2    0    0 -0.10908004494E+02  0.15209071871E+02  0.61243291526E+00  0.72461668184E+02  0.70000127519E+02 0.  0.
        -12    1    1    2    0    0  0.10908004494E+02 -0.15209071871E+02 -0.61243291526E+00  0.18726331816E+02  0.00000000000E+00 0.  1.
         11    1    3    3    0    0 -0.19022225608E+02  0.19205172435E+01  0.16392442752E+02  0.25184233822E+02  0.51100000000E-03 0. -1.
        -11    1    3    3    0    0  0.23122416078E+02  0.32584969831E+01 -0.75684883193E-01  0.23351009750E+02  0.51100000000E-03 0.  1.
         12    1    3    3    0    0 -0.15008194964E+02  0.10030057644E+02 -0.15704324954E+02  0.23926424611E+02  0.00000000000E+00 0. -1.
</event>
<event>
 7    1  0.1749439E-013  0.7246158E+02  0.7816164E-02  0.1226708E+00
        -11   -1    0    0    0    0  0.00000000000E+00  0.00000000000E+00  0.45593999997E+02  0.45594000000E+02  0.51100000000E-03 0.  1.
         11   -1    0    0    0    0 -0.00000000000E+00 -0.00000000000E+00 -0.45593999997E+02  0.45594000000E+02  0.51100000000E-03 0. -1.
    9900012    2    1    2    0    0  0.13123977364E+01  0.13572065094E+02  0.12835712310E+02  0.72461578846E+02  0.70000011140E+02 0.  0.
        -12    1    1    2    0    0 -0.13123977364E+01 -0.13572065094E+02 -0.12835712310E+02  0.18726421154E+02  0.00000000000E+00 0.  1.
         11    1    3    3    0    0  0.53333731142E+01  0.25042502688E+01 -0.61185649057E+01  0.84942907268E+01  0.51100000000E-03 0. -1.
        -11    1    3    3    0    0 -0.14626056672E+02  0.10086155647E+02 -0.18129944313E+02  0.25383990044E+02  0.51100000000E-03 0.  1.
        -12    1    3    3    0    0  0.10605081295E+02  0.98165917799E+00  0.37084221528E+02  0.38583298075E+02  0.00000000000E+00 0.  1.
</event>
<event>
 7    1  0.1749439E-013  0.7246135E+02  0.7816164E-02  0.1226709E+00
        -11   -1    0    0    0    0  0.00000000000E+00  0.00000000000E+00  0.45593999997E+02  0.45594000000E+02  0.51100000000E-03 0. -1.
         11   -1    0    0    0    0 -0.00000000000E+00 -0.00000000000E+00 -0.45593999997E+02  0.45594000000E+02  0.51100000000E-03 0.  1.
    9900012    2    1    2    0    0 -0.17648564539E+02  0.10957844538E+01  0.61656168099E+01  0.72461350419E+02  0.69999713571E+02 0.  0.
        -12    1    1    2    0    0  0.17648564539E+02 -0.10957844538E+01 -0.61656168099E+01  0.18726649581E+02  0.00000000000E+00 0.  1.
         11    1    3    3    0    0 -0.18782614774E+02  0.25007481991E+01  0.14692745523E+02  0.23977429607E+02  0.51100000000E-03 0. -1.
        -11    1    3    3    0    0  0.24310052704E+02 -0.29849059971E+01 -0.39997719909E+01  0.24817060715E+02  0.51100000000E-03 0.  1.
         12    1    3    3    0    0 -0.23176002470E+02  0.15799422519E+01 -0.45273567220E+01  0.23666860098E+02  0.00000000000E+00 0. -1.
</event>
<event>
 7    1  0.1749439E-013  0.7246152E+02  0.7816164E-02  0.1226708E+00
        -11   -1    0    0    0    0  0.00000000000E+00  0.00000000000E+00  0.45593999997E+02  0.45594000000E+02  0.51100000000E-03 0.  1.
         11   -1    0    0    0    0 -0.00000000000E+00 -0.00000000000E+00 -0.45593999997E+02  0.45594000000E+02  0.51100000000E-03 0. -1.
    9900012    2    1    2    0    0 -0.10568042018E+02 -0.98986033939E+01 -0.11874980082E+02  0.72461521068E+02  0.69999935874E+02 0.  0.
        -12    1    1    2    0    0  0.10568042018E+02  0.98986033939E+01  0.11874980082E+02  0.18726478932E+02  0.00000000000E+00 0.  1.
         11    1    3    3    0    0 -0.80738308236E+01 -0.18456431537E+01  0.34857397084E+01  0.89857400583E+01  0.51100000000E-03 0. -1.
        -11    1    3    3    0    0  0.12556804482E+01 -0.78981699307E+01  0.23299503882E+02  0.24633812191E+02  0.51100000000E-03 0.  1.
         12    1    3    3    0    0 -0.37498916425E+01 -0.15479030945E+00 -0.38660223672E+02  0.38841968819E+02  0.00000000000E+00 0. -1.
</event>
<event>
 7    1  0.1749439E-013  0.7246163E+02  0.7816164E-02  0.1226708E+00
        -11   -1    0    0    0    0  0.00000000000E+00  0.00000000000E+00  0.45593999997E+02  0.45594000000E+02  0.51100000000E-03 0. -1.
         11   -1    0    0    0    0 -0.00000000000E+00 -0.00000000000E+00 -0.45593999997E+02  0.45594000000E+02  0.51100000000E-03 0.  1.
    9900012    2    1    2    0    0 -0.17795778600E+02 -0.55622619924E+01 -0.17459283963E+01  0.72461634618E+02  0.70000083794E+02 0.  0.
        -12    1    1    2    0    0  0.17795778600E+02  0.55622619924E+01  0.17459283963E+01  0.18726365382E+02  0.00000000000E+00 0.  1.
         11    1    3    3    0    0 -0.10101858364E+02 -0.69335627342E+01  0.93043729612E+01  0.15384836400E+02  0.51100000000E-03 0. -1.
        -11    1    3    3    0    0  0.67103295497E+01  0.32099925201E+01  0.20790462343E+02  0.22081120880E+02  0.51100000000E-03 0.  1.
         12    1    3    3    0    0 -0.14404249786E+02 -0.18386917783E+01 -0.31840763700E+02  0.34995677338E+02  0.00000000000E+00 0. -1.
</event>
<event>
 7    1  0.1749439E-013  0.7246153E+02  0.7816164E-02  0.1226708E+00
        -11   -1    0    0    0    0  0.00000000000E+00  0.00000000000E+00  0.45593999997E+02  0.45594000000E+02  0.51100000000E-03 0.  1.
         11   -1    0    0    0    0 -0.00000000000E+00 -0.00000000000E+00 -0.45593999997E+02  0.45594000000E+02  0.51100000000E-03 0. -1.
    9900012    2    1    2    0    0 -0.12634583356E+02  0.12213496222E+02 -0.64713478163E+01  0.72461533993E+02  0.69999952711E+02 0.  0.
        -12    1    1    2    0    0  0.12634583356E+02 -0.12213496222E+02  0.64713478163E+01  0.18726466007E+02  0.00000000000E+00 0.  1.
         11    1    3    3    0    0  0.36981143584E+01 -0.43062928615E+01  0.17566953420E+02  0.18461258374E+02  0.51100000000E-03 0. -1.
        -11    1    3    3    0    0 -0.24110553657E+02 -0.13722483180E+01 -0.15074201487E+01  0.24196573701E+02  0.51100000000E-03 0.  1.
         12    1    3    3    0    0  0.77778559426E+01  0.17892037402E+02 -0.22530881088E+02  0.29803701919E+02  0.00000000000E+00 0. -1.
</event>
<event>
 7    1  0.1749439E-013  0.7246154E+02  0.7816164E-02  0.1226708E+00
        -11   -1    0    0    0    0  0.00000000000E+00  0.00000000000E+00  0.45593999997E+02  0.45594000000E+02  0.51100000000E-03 0. -1.
         11   -1    0    0    0    0 -0.00000000000E+00 -0.00000000000E+00 -0.45593999997E+02  0.45594000000E+02  0.51100000000E-03 0.  1.
    9900012    2    1    2    0    0 -0.10879027889E+02 -0.91413901893E+01 -0.12196812142E+02  0.72461535069E+02  0.69999954112E+02 0.  0.
        -12    1    1    2    0    0  0.10879027889E+02  0.91413901893E+01  0.12196812142E+02  0.18726464931E+02  0.00000000000E+00 0.  1.
         11    1    3    3    0    0  0.36201930882E+01 -0.14693477526E+02  0.38406140281E+00  0.15137753573E+02  0.51100000000E-03 0. -1.
        -11    1    3    3    0    0 -0.19504492254E+00 -0.12106243349E+02  0.16469268720E+02  0.20441036739E+02  0.51100000000E-03 0.  1.
        -12    1    3    3    0    0 -0.14304176054E+02  0.17658330686E+02 -0.29050142264E+02  0.36882744757E+02  0.00000000000E+00 0.  1.
</event>
<event>
 7    1  0.1749439E-013  0.7246170E+02  0.7816164E-02  0.1226708E+00
        -11   -1    0    0    0    0  0.00000000000E+00  0.00000000000E+00  0.45593999997E+02  0.45594000000E+02  0.51100000000E-03 0. -1.
         11   -1    0    0    0    0 -0.00000000000E+00 -0.00000000000E+00 -0.45593999997E+02  0.45594000000E+02  0.51100000000E-03 0.  1.
    9900012    2    1    2    0    0 -0.29507214734E+01 -0.48604437675E+01  0.17842185901E+02  0.72461701152E+02  0.70000170466E+02 0.  0.
        -12    1    1    2    0    0  0.29507214734E+01  0.48604437675E+01 -0.17842185901E+02  0.18726298848E+02  0.00000000000E+00 0.  1.
         11    1    3    3    0    0 -0.81606731452E+01 -0.44594849286E+01  0.15810688158E+02  0.18342885604E+02  0.51100000000E-03 0. -1.
        -11    1    3    3    0    0 -0.20852939131E+02  0.66485083277E+00  0.14299199330E+02  0.25293362741E+02  0.51100000000E-03 0.  1.
        -12    1    3    3    0    0  0.26062890803E+02 -0.10658096717E+01 -0.12267701587E+02  0.28825452806E+02  0.00000000000E+00 0.  1.
</event>
<event>
 7    1  0.1749439E-013  0.7246154E+02  0.7816164E-02  0.1226708E+00
        -11   -1    0    0    0    0  0.00000000000E+00  0.00000000000E+00  0.45593999997E+02  0.45594000000E+02  0.51100000000E-03 0. -1.
         11   -1    0    0    0    0 -0.00000000000E+00 -0.00000000000E+00 -0.45593999997E+02  0.45594000000E+02  0.51100000000E-03 0.  1.
    9900012    2    1    2    0    0  0.17206267737E+02 -0.73466229505E+01 -0.80733560236E+00  0.72461539870E+02  0.69999960367E+02 0.  0.
        -12    1    1    2    0    0 -0.17206267737E+02  0.73466229505E+01  0.80733560236E+00  0.18726460130E+02  0.00000000000E+00 0.  1.
         11    1    3    3    0    0  0.11985540118E+02 -0.59460590429E+01  0.47713035922E+01  0.14204722042E+02  0.51100000000E-03 0. -1.
        -11    1    3    3    0    0  0.11226550696E+02  0.66497866001E+01  0.23836539256E+02  0.27174173517E+02  0.51100000000E-03 0.  1.
         12    1    3    3    0    0 -0.60058230768E+01 -0.80503505078E+01 -0.29415178451E+02  0.31082644312E+02  0.00000000000E+00 0. -1.
</event>
<event>
 7    1  0.1749439E-013  0.7246160E+02  0.7816164E-02  0.1226708E+00
        -11   -1    0    0    0    0  0.00000000000E+00  0.00000000000E+00  0.45593999997E+02  0.45594000000E+02  0.51100000000E-03 0. -1.
         11   -1    0    0    0    0 -0.00000000000E+00 -0.00000000000E+00 -0.45593999997E+02  0.45594000000E+02  0.51100000000E-03 0.  1.
    9900012    2    1    2    0    0  0.16769461620E+02  0.82941722612E+01  0.81856800852E+00  0.72461596445E+02  0.70000034066E+02 0.  0.
        -12    1    1    2    0    0 -0.16769461620E+02 -0.82941722612E+01 -0.81856800852E+00  0.18726403555E+02  0.00000000000E+00 0.  1.
         11    1    3    3    0    0 -0.87015503753E+01  0.21764722345E+02  0.11018815293E+02  0.25900471200E+02  0.51100000000E-03 0. -1.
        -11    1    3    3    0    0  0.11794362760E+02  0.10084048558E+02 -0.11466458318E+02  0.19294421340E+02  0.51100000000E-03 0.  1.
         12    1    3    3    0    0  0.13676649236E+02 -0.23554598641E+02  0.12662110328E+01  0.27266703905E+02  0.00000000000E+00 0. -1.
</event>
<event>
 7    1  0.1749439E-013  0.7246160E+02  0.7816164E-02  0.1226708E+00
        -11   -1    0    0    0    0  0.00000000000E+00  0.00000000000E+00  0.45593999997E+02  0.45594000000E+02  0.51100000000E-03 0.  1.
         11   -1    0    0    0    0 -0.00000000000E+00 -0.00000000000E+00 -0.45593999997E+02  0.45594000000E+02  0.51100000000E-03 0. -1.
    9900012    2    1    2    0    0 -0.13970338020E+02  0.11461676969E+02 -0.49129976057E+01  0.72461603422E+02  0.70000043154E+02 0.  0.
        -12    1    1    2    0    0  0.13970338020E+02 -0.11461676969E+02  0.49129976057E+01  0.18726396578E+02  0.00000000000E+00 0.  1.
         11    1    3    3    0    0 -0.41665506369E+01 -0.22203994953E+02 -0.13888582982E+02  0.26519243458E+02  0.51100000000E-03 0. -1.
        -11    1    3    3    0    0 -0.79260066170E+01 -0.92677131064E+00  0.79789057621E+01  0.11284654331E+02  0.51100000000E-03 0.  1.
        -12    1    3    3    0    0 -0.18777807659E+01  0.34592443233E+02  0.99667961423E+00  0.34657705632E+02  0.00000000000E+00 0.  1.
</event>
<event>
 7    1  0.1749439E-013  0.7246159E+02  0.7816164E-02  0.1226708E+00
        -11   -1    0    0    0    0  0.00000000000E+00  0.00000000000E+00  0.45593999997E+02  0.45594000000E+02  0.51100000000E-03 0. -1.
         11   -1    0    0    0    0 -0.00000000000E+00 -0.00000000000E+00 -0.45593999997E+02  0.45594000000E+02  0.51100000000E-03 0.  1.
    9900012    2    1    2    0    0  0.90067127558E+01  0.29234378290E+01  0.16155833376E+02  0.72461593098E+02  0.70000029706E+02 0.  0.
        -12    1    1    2    0    0 -0.90067127558E+01 -0.29234378290E+01 -0.16155833376E+02  0.18726406902E+02  0.00000000000E+00 0.  1.
         11    1    3    3    0    0  0.20256884113E+02  0.27858406374E+01  0.41898879166E+01  0.20872408175E+02  0.51100000000E-03 0. -1.
        -11    1    3    3    0    0  0.16394524418E+02 -0.11642382447E+02  0.40080605564E+01  0.20503415560E+02  0.51100000000E-03 0.  1.
         12    1    3    3    0    0 -0.27644695775E+02  0.11779979639E+02  0.79578849026E+01  0.31085769363E+02  0.00000000000E+00 0. -1.
</event>
<event>
 7    1  0.1749439E-013  0.7246157E+02  0.7816164E-02  0.1226708E+00
        -11   -1    0    0    0    0  0.00000000000E+00  0.00000000000E+00  0.45593999997E+02  0.45594000000E+02  0.51100000000E-03 0.  1.
         11   -1    0    0    0    0 -0.00000000000E+00 -0.00000000000E+00 -0.45593999997E+02  0.45594000000E+02  0.51100000000E-03 0. -1.
    9900012    2    1    2    0    0  0.16269144114E+02 -0.48033691131E+01 -0.79323278048E+01  0.72461568694E+02  0.69999997915E+02 0.  0.
        -12    1    1    2    0    0 -0.16269144114E+02  0.48033691131E+01  0.79323278048E+01  0.18726431306E+02  0.00000000000E+00 0.  1.
         11    1    3    3    0    0  0.18238927440E+02 -0.12001344480E+02  0.52963121351E+01  0.22466456463E+02  0.51100000000E-03 0. -1.
        -11    1    3    3    0    0 -0.74347020382E+01  0.16387628335E+01  0.17080048161E+02  0.18699956777E+02  0.51100000000E-03 0.  1.
        -12    1    3    3    0    0  0.54649187124E+01  0.55592125339E+01 -0.30308688101E+02  0.31295155454E+02  0.00000000000E+00 0.  1.
</event>
<event>
 7    1  0.1749439E-013  0.7246156E+02  0.7816164E-02  0.1226708E+00
        -11   -1    0    0    0    0  0.00000000000E+00  0.00000000000E+00  0.45593999997E+02  0.45594000000E+02  0.51100000000E-03 0.  1.
         11   -1    0    0    0    0 -0.00000000000E+00 -0.00000000000E+00 -0.45593999997E+02  0.45594000000E+02  0.51100000000E-03 0. -1.
    9900012    2    1    2    0    0  0.49670513258E+01  0.18039518479E+02  0.76407781710E+00  0.72461557713E+02  0.69999983610E+02 0.  0.
        -12    1    1    2    0    0 -0.49670513258E+01 -0.18039518479E+02 -0.76407781710E+00  0.18726442287E+02  0.00000000000E+00 0.  1.
         11    1    3    3    0    0 -0.87325958873E+00  0.30914389791E+02 -0.29977641617E+01  0.31071669873E+02  0.51100000000E-03 0. -1.
        -11    1    3    3    0    0  0.11080806884E+02  0.89063927466E+01  0.10859540842E+02  0.17889598668E+02  0.51100000000E-03 0.  1.
        -12    1    3    3    0    0 -0.52404959694E+01 -0.21781264059E+02 -0.70976988630E+01  0.23500289171E+02  0.00000000000E+00 0.  1.
</event>
<event>
 7    1  0.1749439E-013  0.7246142E+02  0.7816164E-02  0.1226708E+00
        -11   -1    0    0    0    0  0.00000000000E+00  0.00000000000E+00  0.45593999997E+02  0.45594000000E+02  0.51100000000E-03 0.  1.
         11   -1    0    0    0    0 -0.00000000000E+00 -0.00000000000E+00 -0.45593999997E+02  0.45594000000E+02  0.51100000000E-03 0. -1.
    9900012    2    1    2    0    0 -0.97502371839E+01 -0.29018690376E+01  0.15722498551E+02  0.72461416495E+02  0.69999799648E+02 0.  0.
        -12    1    1    2    0    0  0.97502371839E+01  0.29018690376E+01 -0.15722498551E+02  0.18726583505E+02  0.00000000000E+00 0.  1.
         11    1    3    3    0    0  0.72043101013E+01  0.76740916707E+01 -0.73570905918E+00  0.10551541835E+02  0.51100000000E-03 0. -1.
        -11    1    3    3    0    0 -0.32426714798E+02  0.81168478017E+01  0.17282336383E+02  0.37630495638E+02  0.51100000000E-03 0.  1.
         12    1    3    3    0    0  0.15472167512E+02 -0.18692808510E+02 -0.82412877258E+00  0.24279379023E+02  0.00000000000E+00 0. -1.
</event>
<event>
 7    1  0.1749439E-013  0.7246153E+02  0.7816164E-02  0.1226708E+00
        -11   -1    0    0    0    0  0.00000000000E+00  0.00000000000E+00  0.45593999997E+02  0.45594000000E+02  0.51100000000E-03 0. -1.
         11   -1    0    0    0    0 -0.00000000000E+00 -0.00000000000E+00 -0.45593999997E+02  0.45594000000E+02  0.51100000000E-03 0.  1.
    9900012    2    1    2    0    0 -0.18021157778E+02 -0.27934004167E+01  0.42562197534E+01  0.72461531563E+02  0.69999949545E+02 0.  0.
        -12    1    1    2    0    0  0.18021157778E+02  0.27934004167E+01 -0.42562197534E+01  0.18726468437E+02  0.00000000000E+00 0.  1.
         11    1    3    3    0    0 -0.67896972827E+01  0.32379981048E+01 -0.17953936814E+01  0.77335670715E+01  0.51100000000E-03 0. -1.
        -11    1    3    3    0    0 -0.73605119737E+01 -0.72368246175E+01 -0.28307349468E+02  0.30130628955E+02  0.51100000000E-03 0.  1.
         12    1    3    3    0    0 -0.38709485212E+01  0.12054260960E+01  0.34358962902E+02  0.34597335537E+02  0.00000000000E+00 0. -1.
</event>
<event>
 7    1  0.1749439E-013  0.7246154E+02  0.7816164E-02  0.1226708E+00
        -11   -1    0    0    0    0  0.00000000000E+00  0.00000000000E+00  0.45593999997E+02  0.45594000000E+02  0.51100000000E-03 0.  1.
         11   -1    0    0    0    0 -0.00000000000E+00 -0.00000000000E+00 -0.45593999997E+02  0.45594000000E+02  0.51100000000E-03 0. -1.
    9900012    2    1    2    0    0 -0.14668614674E+02 -0.71855338541E+01 -0.91586184228E+01  0.72461536249E+02  0.69999955649E+02 0.  0.
        -12    1    1    2    0    0  0.14668614674E+02  0.71855338541E+01  0.91586184228E+01  0.18726463751E+02  0.00000000000E+00 0.  1.
         11    1    3    3    0    0 -0.70102808085E+01 -0.12930084856E+02 -0.15170387265E+02  0.21129878879E+02  0.51100000000E-03 0. -1.
        -11    1    3    3    0    0 -0.14992156523E+01 -0.18994517967E+02  0.15052327558E+02  0.24281925902E+02  0.51100000000E-03 0.  1.
         12    1    3    3    0    0 -0.61591182129E+01  0.24739068968E+02 -0.90405587152E+01  0.27049731468E+02  0.00000000000E+00 0. -1.
</event>
<event>
 7    1  0.1749439E-013  0.7246162E+02  0.7816164E-02  0.1226708E+00
        -11   -1    0    0    0    0  0.00000000000E+00  0.00000000000E+00  0.45593999997E+02  0.45594000000E+02  0.51100000000E-03 0.  1.
         11   -1    0    0    0    0 -0.00000000000E+00 -0.00000000000E+00 -0.45593999997E+02  0.45594000000E+02  0.51100000000E-03 0. -1.
    9900012    2    1    2    0    0 -0.69143102413E+01  0.12810946754E+02 -0.11779187030E+02  0.72461620480E+02  0.70000065376E+02 0.  0.
        -12    1    1    2    0    0  0.69143102413E+01 -0.12810946754E+02  0.11779187030E+02  0.18726379520E+02  0.00000000000E+00 0.  1.
         11    1    3    3    0    0  0.83420390465E+01  0.34674980281E+02  0.69938666192E+01  0.36343610766E+02  0.51100000000E-03 0. -1.
        -11    1    3    3    0    0 -0.47977708582E+01 -0.20463609056E+01 -0.11385754416E+02  0.12523641724E+02  0.51100000000E-03 0.  1.
        -12    1    3    3    0    0 -0.10458578430E+02 -0.19817672621E+02 -0.73872992335E+01  0.23594367990E+02  0.00000000000E+00 0.  1.
</event>
<event>
 7    1  0.1749439E-013  0.7246160E+02  0.7816164E-02  0.1226708E+00
        -11   -1    0    0    0    0  0.00000000000E+00  0.00000000000E+00  0.45593999997E+02  0.45594000000E+02  0.51100000000E-03 0.  1.
         11   -1    0    0    0    0 -0.00000000000E+00 -0.00000000000E+00 -0.45593999997E+02  0.45594000000E+02  0.51100000000E-03 0. -1.
    9900012    2    1    2    0    0  0.20595193973E+01 -0.28002259142E+01 -0.18400952013E+02  0.72461603648E+02  0.70000043450E+02 0.  0.
        -12    1    1    2    0    0 -0.20595193973E+01  0.28002259142E+01  0.18400952013E+02  0.18726396352E+02  0.00000000000E+00 0.  1.
         11    1    3    3    0    0 -0.11644687008E+02  0.20185559393E+02 -0.20837060649E+02  0.31260816372E+02  0.51100000000E-03 0. -1.
        -11    1    3    3    0    0  0.17742983723E+02 -0.50200665751E+01 -0.79266774016E+01  0.20071042691E+02  0.51100000000E-03 0.  1.
        -12    1    3    3    0    0 -0.40387773180E+01 -0.17965718732E+02  0.10362786037E+02  0.21129744585E+02  0.00000000000E+00 0.  1.
</event>
<event>
 7    1  0.1749439E-013  0.7246159E+02  0.7816164E-02  0.1226708E+00
        -11   -1    0    0    0    0  0.00000000000E+00  0.00000000000E+00  0.45593999997E+02  0.45594000000E+02  0.51100000000E-03 0. -1.
         11   -1    0    0    0    0 -0.00000000000E+00 -0.00000000000E+00 -0.45593999997E+02  0.45594000000E+02  0.51100000000E-03 0.  1.
    9900012    2    1    2    0    0  0.46712029360E+01  0.54883622039E+01  0.17283991238E+02  0.72461585243E+02  0.70000019473E+02 0.  0.
        -12    1    1    2    0    0 -0.46712029360E+01 -0.54883622039E+01 -0.17283991238E+02  0.18726414757E+02  0.00000000000E+00 0.  1.
         11    1    3    3    0    0 -0.13293208526E+01  0.60129676898E+00  0.13051535655E+00  0.14648161157E+01  0.51100000000E-03 0. -1.
        -11    1    3    3    0    0  0.24757179879E+02  0.28404558162E+02  0.15878593970E+02  0.40888465692E+02  0.51100000000E-03 0.  1.
         12    1    3    3    0    0 -0.18756656090E+02 -0.23517492727E+02  0.12748819110E+01  0.30108303435E+02  0.00000000000E+00 0. -1.
</event>
<event>
 7    1  0.1749439E-013  0.7246167E+02  0.7816164E-02  0.1226708E+00
        -11   -1    0    0    0    0  0.00000000000E+00  0.00000000000E+00  0.45593999997E+02  0.45594000000E+02  0.51100000000E-03 0. -1.
         11   -1    0    0    0    0 -0.00000000000E+00 -0.00000000000E+00 -0.45593999997E+02  0.45594000000E+02  0.51100000000E-03 0.  1.
    9900012    2    1    2    0    0  0.13051923058E+01  0.50341724169E+00  0.18674006189E+02  0.72461669259E+02  0.70000128920E+02 0.  0.
        -12    1    1    2    0    0 -0.13051923058E+01 -0.50341724169E+00 -0.18674006189E+02  0.18726330741E+02  0.00000000000E+00 0.  1.
         11    1    3    3    0    0 -0.23559168107E+02 -0.79981703587E+01  0.19826271937E+02  0.31813302095E+02  0.51100000000E-03 0. -1.
        -11    1    3    3    0    0 -0.74051917832E+01  0.91414286421E+00  0.29497507230E+00  0.74672306163E+01  0.51100000000E-03 0.  1.
        -12    1    3    3    0    0  0.32269552196E+02  0.75874447362E+01 -0.14472408204E+01  0.33181136547E+02  0.00000000000E+00 0.  1.
</event>
<event>
 7    1  0.1749439E-013  0.7246165E+02  0.7816164E-02  0.1226708E+00
        -11   -1    0    0    0    0  0.00000000000E+00  0.00000000000E+00  0.45593999997E+02  0.45594000000E+02  0.51100000000E-03 0. -1.
         11   -1    0    0    0    0 -0.00000000000E+00 -0.00000000000E+00 -0.45593999997E+02  0.45594000000E+02  0.51100000000E-03 0.  1.
    9900012    2    1    2    0    0  0.11525832910E+02 -0.11062517996E+02 -0.97699586557E+01  0.72461649026E+02  0.70000102562E+02 0.  0.
        -12    1    1    2    0    0 -0.11525832910E+02  0.11062517996E+02  0.97699586557E+01  0.18726350974E+02  0.00000000000E+00 0.  1.
         11    1    3    3    0    0  0.22834708342E+02 -0.77089666739E+01 -0.19146412840E+02  0.30780467786E+02  0.51100000000E-03 0. -1.
        -11    1    3    3    0    0  0.10773243731E+01 -0.19885452757E+02  0.36667021605E+01  0.20249359599E+02  0.51100000000E-03 0.  1.
        -12    1    3    3    0    0 -0.12386199805E+02  0.16531901436E+02  0.57097520235E+01  0.21431821641E+02  0.00000000000E+00 0.  1.
</event>
<event>
 7    1  0.1749439E-013  0.7246154E+02  0.7816164E-02  0.1226708E+00
        -11   -1    0    0    0    0  0.00000000000E+00  0.00000000000E+00  0.45593999997E+02  0.45594000000E+02  0.51100000000E-03 0.  1.
         11   -1    0    0    0    0 -0.00000000000E+00 -0.00000000000E+00 -0.45593999997E+02  0.45594000000E+02  0.51100000000E-03 0. -1.
    9900012    2    1    2    0    0 -0.71169981680E+01  0.74894198491E+01 -0.15618484274E+02  0.72461544820E+02  0.69999966815E+02 0.  0.
        -12    1    1    2    0    0  0.71169981680E+01 -0.74894198491E+01  0.15618484274E+02  0.18726455180E+02  0.00000000000E+00 0.  1.
         11    1    3    3    0    0  0.15470458836E+02  0.20215157365E+02 -0.20355516663E+02  0.32593476997E+02  0.51100000000E-03 0. -1.
        -11    1    3    3    0    0 -0.75721772812E+01  0.98264566660E+01  0.27152026063E+01  0.12699190716E+02  0.51100000000E-03 0.  1.
        -12    1    3    3    0    0 -0.15015279723E+02 -0.22552194182E+02  0.20218297827E+01  0.27168877107E+02  0.00000000000E+00 0.  1.
</event>
<event>
 7    1  0.1749439E-013  0.7246158E+02  0.7816164E-02  0.1226708E+00
        -11   -1    0    0    0    0  0.00000000000E+00  0.00000000000E+00  0.45593999997E+02  0.45594000000E+02  0.51100000000E-03 0. -1.
         11   -1    0    0    0    0 -0.00000000000E+00 -0.00000000000E+00 -0.45593999997E+02  0.45594000000E+02  0.51100000000E-03 0.  1.
    9900012    2    1    2    0    0  0.62301705235E+01 -0.11065575765E+02  0.13762883887E+02  0.72461575765E+02  0.70000007126E+02 0.  0.
        -12    1    1    2    0    0 -0.62301705235E+01  0.11065575765E+02 -0.13762883887E+02  0.18726424235E+02  0.00000000000E+00 0.  1.
         11    1    3    3    0    0  0.14073283706E+02 -0.26596386961E+02 -0.32976040193E+01  0.30270436174E+02  0.51100000000E-03 0. -1.
        -11    1    3    3    0    0  0.11764477968E+02  0.25573772544E+01 -0.16393172908E+01  0.12150328461E+02  0.51100000000E-03 0.  1.
         12    1    3    3    0    0 -0.19607591150E+02  0.12973433942E+02  0.18699805197E+02  0.30040811130E+02  0.00000000000E+00 0. -1.
</event>
<event>
 7    1  0.1749439E-013  0.7246156E+02  0.7816164E-02  0.1226708E+00
        -11   -1    0    0    0    0  0.00000000000E+00  0.00000000000E+00  0.45593999997E+02  0.45594000000E+02  0.51100000000E-03 0.  1.
         11   -1    0    0    0    0 -0.00000000000E+00 -0.00000000000E+00 -0.45593999997E+02  0.45594000000E+02  0.51100000000E-03 0. -1.
    9900012    2    1    2    0    0  0.40694859075E+01 -0.14901260657E+02 -0.10586378184E+02  0.72461556456E+02  0.69999981973E+02 0.  0.
        -12    1    1    2    0    0 -0.40694859075E+01  0.14901260657E+02  0.10586378184E+02  0.18726443544E+02  0.00000000000E+00 0.  1.
         11    1    3    3    0    0  0.13662436500E+02  0.13442661780E+02 -0.19864725172E+02  0.27603888010E+02  0.51100000000E-03 0. -1.
        -11    1    3    3    0    0 -0.19771012662E+01 -0.12420075907E+02 -0.11882006977E+02  0.17301713932E+02  0.51100000000E-03 0.  1.
        -12    1    3    3    0    0 -0.76158493266E+01 -0.15923846531E+02  0.21160353964E+02  0.27555954514E+02  0.00000000000E+00 0.  1.
</event>
<event>
 7    1  0.1749439E-013  0.7246147E+02  0.7816164E-02  0.1226708E+00
        -11   -1    0    0    0    0  0.00000000000E+00  0.00000000000E+00  0.45593999997E+02  0.45594000000E+02  0.51100000000E-03 0.  1.
         11   -1    0    0    0    0 -0.00000000000E+00 -0.00000000000E+00 -0.45593999997E+02  0.45594000000E+02  0.51100000000E-03 0. -1.
    9900012    2    1    2    0    0  0.50760010052E+01  0.15933684508E+02 -0.84282238920E+01  0.72461466787E+02  0.69999865162E+02 0.  0.
        -12    1    1    2    0    0 -0.50760010052E+01 -0.15933684508E+02  0.84282238920E+01  0.18726533213E+02  0.00000000000E+00 0.  1.
         11    1    3    3    0    0 -0.32560268570E+01 -0.40518152005E+01  0.79207477561E+01  0.94740256802E+01  0.51100000000E-03 0. -1.
        -11    1    3    3    0    0  0.20518852204E+02 -0.88375746891E+01  0.75815969519E+01  0.23592512260E+02  0.51100000000E-03 0.  1.
         12    1    3    3    0    0 -0.12186824341E+02  0.28823074398E+02 -0.23930568600E+02  0.39394928846E+02  0.00000000000E+00 0. -1.
</event>
<event>
 7    1  0.1749439E-013  0.7246163E+02  0.7816164E-02  0.1226708E+00
        -11   -1    0    0    0    0  0.00000000000E+00  0.00000000000E+00  0.45593999997E+02  0.45594000000E+02  0.51100000000E-03 0. -1.
         11   -1    0    0    0    0 -0.00000000000E+00 -0.00000000000E+00 -0.45593999997E+02  0.45594000000E+02  0.51100000000E-03 0.  1.
    9900012    2    1    2    0    0  0.13973371232E+02 -0.33881816767E+01  0.11997580890E+02  0.72461632870E+02  0.70000081516E+02 0.  0.
        -12    1    1    2    0    0 -0.13973371232E+02  0.33881816767E+01 -0.11997580890E+02  0.18726367130E+02  0.00000000000E+00 0.  1.
         11    1    3    3    0    0 -0.98020889464E+01 -0.28723311269E+00 -0.17960100117E+02  0.20462860187E+02  0.51100000000E-03 0. -1.
        -11    1    3    3    0    0  0.87152807162E+00  0.60086541021E+01 -0.59132319267E+01  0.84752461545E+01  0.51100000000E-03 0.  1.
         12    1    3    3    0    0  0.22903932107E+02 -0.91096026661E+01  0.35870912934E+02  0.43523526528E+02  0.00000000000E+00 0. -1.
</event>
<event>
 7    1  0.1749439E-013  0.7246160E+02  0.7816164E-02  0.1226708E+00
        -11   -1    0    0    0    0  0.00000000000E+00  0.00000000000E+00  0.45593999997E+02  0.45594000000E+02  0.51100000000E-03 0. -1.
         11   -1    0    0    0    0 -0.00000000000E+00 -0.00000000000E+00 -0.45593999997E+02  0.45594000000E+02  0.51100000000E-03 0.  1.
    9900012    2    1    2    0    0  0.17644357416E+02 -0.40797755729E+01 -0.47655124005E+01  0.72461600832E+02  0.70000039781E+02 0.  0.
        -12    1    1    2    0    0 -0.17644357416E+02  0.40797755729E+01  0.47655124005E+01  0.18726399168E+02  0.00000000000E+00 0.  1.
         11    1    3    3    0    0  0.27266536934E+02 -0.61287249009E+01 -0.10628410679E+02  0.29899639114E+02  0.51100000000E-03 0. -1.
        -11    1    3    3    0    0  0.80799039548E+01 -0.14649761308E+02  0.71467127010E+01  0.18192741877E+02  0.51100000000E-03 0.  1.
         12    1    3    3    0    0 -0.17702083473E+02  0.16698710636E+02 -0.12838144224E+01  0.24369219841E+02  0.00000000000E+00 0. -1.
</event>
<event>
 7    1  0.1749439E-013  0.7246158E+02  0.7816164E-02  0.1226708E+00
        -11   -1    0    0    0    0  0.00000000000E+00  0.00000000000E+00  0.45593999997E+02  0.45594000000E+02  0.51100000000E-03 0. -1.
         11   -1    0    0    0    0 -0.00000000000E+00 -0.00000000000E+00 -0.45593999997E+02  0.45594000000E+02  0.51100000000E-03 0.  1.
    9900012    2    1    2    0    0  0.83397484510E+01  0.10916490835E+02  0.12726254752E+02  0.72461581859E+02  0.70000015065E+02 0.  0.
        -12    1    1    2    0    0 -0.83397484510E+01 -0.10916490835E+02 -0.12726254752E+02  0.18726418141E+02  0.00000000000E+00 0.  1.
         11    1    3    3    0    0  0.29893954975E+02 -0.34232485663E+01  0.86113394873E+01  0.31297321655E+02  0.51100000000E-03 0. -1.
        -11    1    3    3    0    0  0.26939211619E+01  0.13844231415E+02 -0.54125762075E+01  0.15106817539E+02  0.51100000000E-03 0.  1.
        -12    1    3    3    0    0 -0.24248127686E+02  0.49550798605E+00  0.95274914726E+01  0.26057442664E+02  0.00000000000E+00 0.  1.
</event>
<event>
 7    1  0.1749439E-013  0.7246156E+02  0.7816164E-02  0.1226708E+00
        -11   -1    0    0    0    0  0.00000000000E+00  0.00000000000E+00  0.45593999997E+02  0.45594000000E+02  0.51100000000E-03 0.  1.
         11   -1    0    0    0    0 -0.00000000000E+00 -0.00000000000E+00 -0.45593999997E+02  0.45594000000E+02  0.51100000000E-03 0. -1.
    9900012    2    1    2    0    0  0.82065726406E+01 -0.11390544506E+02 -0.12393027154E+02  0.72461562520E+02  0.69999989873E+02 0.  0.
        -12    1    1    2    0    0 -0.82065726406E+01  0.11390544506E+02  0.12393027154E+02  0.18726437480E+02  0.00000000000E+00 0.  1.
         11    1    3    3    0    0 -0.17469475473E+01  0.26054489454E+01 -0.16612296296E+02  0.16905874080E+02  0.51100000000E-03 0. -1.
        -11    1    3    3    0    0  0.27611515730E+02 -0.87764539728E+01 -0.11669796001E+02  0.31234693599E+02  0.51100000000E-03 0.  1.
        -12    1    3    3    0    0 -0.17657995542E+02 -0.52195394781E+01  0.15889065143E+02  0.24320994841E+02  0.00000000000E+00 0.  1.
</event>
<event>
 7    1  0.1749439E-013  0.7246159E+02  0.7816164E-02  0.1226708E+00
        -11   -1    0    0    0    0  0.00000000000E+00  0.00000000000E+00  0.45593999997E+02  0.45594000000E+02  0.51100000000E-03 0. -1.
         11   -1    0    0    0    0 -0.00000000000E+00 -0.00000000000E+00 -0.45593999997E+02  0.45594000000E+02  0.51100000000E-03 0.  1.
    9900012    2    1    2    0    0  0.12292256673E+02  0.11248880732E+02  0.85464419619E+01  0.72461586514E+02  0.70000021129E+02 0.  0.
        -12    1    1    2    0    0 -0.12292256673E+02 -0.11248880732E+02 -0.85464419619E+01  0.18726413486E+02  0.00000000000E+00 0.  1.
         11    1    3    3    0    0 -0.18053943061E+02  0.61424549281E+01  0.74663563164E+01  0.20479772692E+02  0.51100000000E-03 0. -1.
        -11    1    3    3    0    0  0.16547521903E+01  0.18754957382E+02 -0.53333761025E+01  0.19568636440E+02  0.51100000000E-03 0.  1.
         12    1    3    3    0    0  0.28691447544E+02 -0.13648531578E+02  0.64134617480E+01  0.32413177382E+02  0.00000000000E+00 0. -1.
</event>
<event>
 7    1  0.1749439E-013  0.7246159E+02  0.7816164E-02  0.1226708E+00
        -11   -1    0    0    0    0  0.00000000000E+00  0.00000000000E+00  0.45593999997E+02  0.45594000000E+02  0.51100000000E-03 0. -1.
         11   -1    0    0    0    0 -0.00000000000E+00 -0.00000000000E+00 -0.45593999997E+02  0.45594000000E+02  0.51100000000E-03 0.  1.
    9900012    2    1    2    0    0  0.54475106075E+01 -0.13617035669E+02  0.11643850641E+02  0.72461593778E+02  0.70000030592E+02 0.  0.
        -12    1    1    2    0    0 -0.54475106075E+01  0.13617035669E+02 -0.11643850641E+02  0.18726406222E+02  0.00000000000E+00 0.  1.
         11    1    3    3    0    0 -0.18022389846E+02 -0.10239752048E+02  0.11585918348E+02  0.23746422088E+02  0.51100000000E-03 0.  1.
        -11    1    3    3    0    0 -0.39537182397E+00 -0.18646956436E+02  0.63318182246E+01  0.19696629800E+02  0.51100000000E-03 0. -1.
        -12    1    3    3    0    0  0.23865272277E+02  0.15269672815E+02 -0.62738859317E+01  0.29018541890E+02  0.00000000000E+00 0.  1.
</event>
<event>
 7    1  0.1749439E-013  0.7246155E+02  0.7816164E-02  0.1226708E+00
        -11   -1    0    0    0    0  0.00000000000E+00  0.00000000000E+00  0.45593999997E+02  0.45594000000E+02  0.51100000000E-03 0.  1.
         11   -1    0    0    0    0 -0.00000000000E+00 -0.00000000000E+00 -0.45593999997E+02  0.45594000000E+02  0.51100000000E-03 0. -1.
    9900012    2    1    2    0    0 -0.15261275960E+02 -0.70044770148E+00  0.10829712770E+02  0.72461552136E+02  0.69999976346E+02 0.  0.
        -12    1    1    2    0    0  0.15261275960E+02  0.70044770148E+00 -0.10829712770E+02  0.18726447864E+02  0.00000000000E+00 0.  1.
         11    1    3    3    0    0 -0.15286516678E+01  0.55109407407E+01 -0.10318711424E+02  0.11797586595E+02  0.51100000000E-03 0. -1.
        -11    1    3    3    0    0  0.11949707963E+02  0.30002081033E+01 -0.12360299998E+02  0.17452042441E+02  0.51100000000E-03 0.  1.
        -12    1    3    3    0    0 -0.25682332255E+02 -0.92115965455E+01  0.33508724192E+02  0.43211923100E+02  0.00000000000E+00 0.  1.
</event>
<event>
 7    1  0.1749439E-013  0.7246157E+02  0.7816164E-02  0.1226708E+00
        -11   -1    0    0    0    0  0.00000000000E+00  0.00000000000E+00  0.45593999997E+02  0.45594000000E+02  0.51100000000E-03 0.  1.
         11   -1    0    0    0    0 -0.00000000000E+00 -0.00000000000E+00 -0.45593999997E+02  0.45594000000E+02  0.51100000000E-03 0. -1.
    9900012    2    1    2    0    0  0.10424144395E+02 -0.15512313241E+02  0.11767373241E+01  0.72461565230E+02  0.69999993403E+02 0.  0.
        -12    1    1    2    0    0 -0.10424144395E+02  0.15512313241E+02 -0.11767373241E+01  0.18726434770E+02  0.00000000000E+00 0.  1.
         11    1    3    3    0    0 -0.20346585969E+02 -0.26485663142E+02 -0.49269196411E+01  0.33760160694E+02  0.51100000000E-03 0. -1.
        -11    1    3    3    0    0  0.17006160759E+02 -0.42893691924E+01  0.43745483580E+01  0.18076085456E+02  0.51100000000E-03 0.  1.
        -12    1    3    3    0    0  0.13764569606E+02  0.15262719094E+02  0.17291086072E+01  0.20625319080E+02  0.00000000000E+00 0.  1.
</event>
<event>
 7    1  0.1749439E-013  0.7246154E+02  0.7816164E-02  0.1226708E+00
        -11   -1    0    0    0    0  0.00000000000E+00  0.00000000000E+00  0.45593999997E+02  0.45594000000E+02  0.51100000000E-03 0.  1.
         11   -1    0    0    0    0 -0.00000000000E+00 -0.00000000000E+00 -0.45593999997E+02  0.45594000000E+02  0.51100000000E-03 0. -1.
    9900012    2    1    2    0    0  0.24212481580E+01 -0.14940802370E+02 -0.11026794494E+02  0.72461542382E+02  0.69999963639E+02 0.  0.
        -12    1    1    2    0    0 -0.24212481580E+01  0.14940802370E+02  0.11026794494E+02  0.18726457618E+02  0.00000000000E+00 0.  1.
         11    1    3    3    0    0  0.21176771674E+02  0.12470690459E+01 -0.86066425392E+01  0.22892905797E+02  0.51100000000E-03 0. -1.
        -11    1    3    3    0    0  0.91398936301E+01 -0.73636098635E+01 -0.13852680864E+02  0.18156463675E+02  0.51100000000E-03 0.  1.
        -12    1    3    3    0    0 -0.27895417147E+02 -0.88242615525E+01  0.11432528909E+02  0.31412172911E+02  0.00000000000E+00 0.  1.
</event>
<event>
 7    1  0.1749439E-013  0.7246146E+02  0.7816164E-02  0.1226708E+00
        -11   -1    0    0    0    0  0.00000000000E+00  0.00000000000E+00  0.45593999997E+02  0.45594000000E+02  0.51100000000E-03 0.  1.
         11   -1    0    0    0    0 -0.00000000000E+00 -0.00000000000E+00 -0.45593999997E+02  0.45594000000E+02  0.51100000000E-03 0. -1.
    9900012    2    1    2    0    0 -0.18624298700E+02  0.63476192167E+00  0.18481990114E+01  0.72461460962E+02  0.69999857575E+02 0.  0.
        -12    1    1    2    0    0  0.18624298700E+02 -0.63476192167E+00 -0.18481990114E+01  0.18726539038E+02  0.00000000000E+00 0.  1.
         11    1    3    3    0    0  0.61401152755E+01 -0.13733500054E+02 -0.85199389556E+00  0.15067711610E+02  0.51100000000E-03 0. -1.
        -11    1    3    3    0    0 -0.21650010925E+02 -0.14486628946E+02  0.92466514824E+01  0.27642104753E+02  0.51100000000E-03 0.  1.
        -12    1    3    3    0    0 -0.31144030496E+01  0.28854890921E+02 -0.65464585754E+01  0.29751644599E+02  0.00000000000E+00 0.  1.
</event>
<event>
 7    1  0.1749439E-013  0.7246156E+02  0.7816164E-02  0.1226708E+00
        -11   -1    0    0    0    0  0.00000000000E+00  0.00000000000E+00  0.45593999997E+02  0.45594000000E+02  0.51100000000E-03 0. -1.
         11   -1    0    0    0    0 -0.00000000000E+00 -0.00000000000E+00 -0.45593999997E+02  0.45594000000E+02  0.51100000000E-03 0.  1.
    9900012    2    1    2    0    0 -0.10884740554E+02 -0.54667372044E+01  0.14223805902E+02  0.72461562888E+02  0.69999990352E+02 0.  0.
        -12    1    1    2    0    0  0.10884740554E+02  0.54667372044E+01 -0.14223805902E+02  0.18726437112E+02  0.00000000000E+00 0.  1.
         11    1    3    3    0    0 -0.21923586357E+01 -0.38980070940E+01  0.18988233122E+02  0.19507790574E+02  0.51100000000E-03 0. -1.
        -11    1    3    3    0    0 -0.64669841097E+01 -0.23945403687E+02  0.92330606847E+01  0.26466084921E+02  0.51100000000E-03 0.  1.
        -12    1    3    3    0    0 -0.22253978085E+01  0.22376673576E+02 -0.13997487905E+02  0.26487687393E+02  0.00000000000E+00 0.  1.
</event>
<event>
 7    1  0.1749439E-013  0.7246159E+02  0.7816164E-02  0.1226708E+00
        -11   -1    0    0    0    0  0.00000000000E+00  0.00000000000E+00  0.45593999997E+02  0.45594000000E+02  0.51100000000E-03 0. -1.
         11   -1    0    0    0    0 -0.00000000000E+00 -0.00000000000E+00 -0.45593999997E+02  0.45594000000E+02  0.51100000000E-03 0.  1.
    9900012    2    1    2    0    0 -0.10585897618E+02 -0.41244749167E+01  0.14886435127E+02  0.72461588904E+02  0.70000024243E+02 0.  0.
        -12    1    1    2    0    0  0.10585897618E+02  0.41244749167E+01 -0.14886435127E+02  0.18726411096E+02  0.00000000000E+00 0.  1.
         11    1    3    3    0    0 -0.67882846253E+00 -0.57183071709E+01 -0.12227969582E+02  0.13516030680E+02  0.51100000000E-03 0. -1.
        -11    1    3    3    0    0  0.12855446133E+02  0.83417917987E+01 -0.74286024636E+01  0.17030329431E+02  0.51100000000E-03 0.  1.
         12    1    3    3    0    0 -0.22762515289E+02 -0.67479595446E+01  0.34543007173E+02  0.41915228794E+02  0.00000000000E+00 0. -1.
</event>
<event>
 7    1  0.1749439E-013  0.7246155E+02  0.7816164E-02  0.1226708E+00
        -11   -1    0    0    0    0  0.00000000000E+00  0.00000000000E+00  0.45593999997E+02  0.45594000000E+02  0.51100000000E-03 0.  1.
         11   -1    0    0    0    0 -0.00000000000E+00 -0.00000000000E+00 -0.45593999997E+02  0.45594000000E+02  0.51100000000E-03 0. -1.
    9900012    2    1    2    0    0  0.89698591467E+00 -0.17136846041E+02 -0.74969197078E+01  0.72461551296E+02  0.69999975251E+02 0.  0.
        -12    1    1    2    0    0 -0.89698591467E+00  0.17136846041E+02  0.74969197078E+01  0.18726448704E+02  0.00000000000E+00 0.  1.
         11    1    3    3    0    0 -0.16176962533E+02  0.14047204749E+02  0.28711937746E+01  0.21616240006E+02  0.51100000000E-03 0. -1.
        -11    1    3    3    0    0  0.38701389038E+01  0.71987755472E+01  0.19964142321E+01  0.84134424917E+01  0.51100000000E-03 0.  1.
        -12    1    3    3    0    0  0.13203809544E+02 -0.38382826337E+02 -0.12364527715E+02  0.42431868798E+02  0.00000000000E+00 0.  1.
</event>
<event>
 7    1  0.1749439E-013  0.7246154E+02  0.7816164E-02  0.1226708E+00
        -11   -1    0    0    0    0  0.00000000000E+00  0.00000000000E+00  0.45593999997E+02  0.45594000000E+02  0.51100000000E-03 0.  1.
         11   -1    0    0    0    0 -0.00000000000E+00 -0.00000000000E+00 -0.45593999997E+02  0.45594000000E+02  0.51100000000E-03 0. -1.
    9900012    2    1    2    0    0  0.35857700756E+01 -0.82504225045E+01 -0.16424160052E+02  0.72461541394E+02  0.69999962351E+02 0.  0.
        -12    1    1    2    0    0 -0.35857700756E+01  0.82504225045E+01  0.16424160052E+02  0.18726458606E+02  0.00000000000E+00 0.  1.
         11    1    3    3    0    0  0.71268286607E+01 -0.68143850848E+01 -0.24114651828E+02  0.26052715096E+02  0.51100000000E-03 0. -1.
        -11    1    3    3    0    0 -0.68434838329E+01  0.13807069027E+02 -0.13232857568E+02  0.20311990197E+02  0.51100000000E-03 0.  1.
        -12    1    3    3    0    0  0.33024252479E+01 -0.15243106447E+02  0.20923349344E+02  0.26096836100E+02  0.00000000000E+00 0.  1.
</event>
<event>
 7    1  0.1749439E-013  0.7246154E+02  0.7816164E-02  0.1226708E+00
        -11   -1    0    0    0    0  0.00000000000E+00  0.00000000000E+00  0.45593999997E+02  0.45594000000E+02  0.51100000000E-03 0.  1.
         11   -1    0    0    0    0 -0.00000000000E+00 -0.00000000000E+00 -0.45593999997E+02  0.45594000000E+02  0.51100000000E-03 0. -1.
    9900012    2    1    2    0    0 -0.18358888073E+02 -0.36701136865E+01  0.40201289515E+00  0.72461544913E+02  0.69999966937E+02 0.  0.
        -12    1    1    2    0    0  0.18358888073E+02  0.36701136865E+01 -0.40201289515E+00  0.18726455087E+02  0.00000000000E+00 0.  1.
         11    1    3    3    0    0  0.13187202427E+02  0.16647235251E+02  0.94105405182E+01  0.23229098615E+02  0.51100000000E-03 0. -1.
        -11    1    3    3    0    0  0.71730959720E+00 -0.10070524677E+02  0.64895913009E+01  0.12001866349E+02  0.51100000000E-03 0.  1.
        -12    1    3    3    0    0 -0.32263400097E+02 -0.10246824260E+02 -0.15498118924E+02  0.37230579950E+02  0.00000000000E+00 0.  1.
</event>
<event>
 7    1  0.1749439E-013  0.7246163E+02  0.7816164E-02  0.1226708E+00
        -11   -1    0    0    0    0  0.00000000000E+00  0.00000000000E+00  0.45593999997E+02  0.45594000000E+02  0.51100000000E-03 0.  1.
         11   -1    0    0    0    0 -0.00000000000E+00 -0.00000000000E+00 -0.45593999997E+02  0.45594000000E+02  0.51100000000E-03 0. -1.
    9900012    2    1    2    0    0  0.82011516878E+01 -0.54811290120E+00 -0.16826095295E+02  0.72461633571E+02  0.70000082430E+02 0.  0.
        -12    1    1    2    0    0 -0.82011516878E+01  0.54811290120E+00  0.16826095295E+02  0.18726366429E+02  0.00000000000E+00 0.  1.
         11    1    3    3    0    0 -0.31332133319E+01 -0.35566022918E+01  0.11719404406E+02  0.12641633025E+02  0.51100000000E-03 0. -1.
        -11    1    3    3    0    0 -0.17270339313E+02 -0.47876734398E+01  0.10186247262E+01  0.17950599810E+02  0.51100000000E-03 0.  1.
         12    1    3    3    0    0  0.28604704333E+02  0.77961628304E+01 -0.29564124427E+02  0.41869400736E+02  0.00000000000E+00 0. -1.
</event>
<event>
 7    1  0.1749439E-013  0.7246154E+02  0.7816164E-02  0.1226708E+00
        -11   -1    0    0    0    0  0.00000000000E+00  0.00000000000E+00  0.45593999997E+02  0.45594000000E+02  0.51100000000E-03 0.  1.
         11   -1    0    0    0    0 -0.00000000000E+00 -0.00000000000E+00 -0.45593999997E+02  0.45594000000E+02  0.51100000000E-03 0. -1.
    9900012    2    1    2    0    0 -0.50040766926E+01  0.93061412439E+01 -0.15460766588E+02  0.72461538725E+02  0.69999958875E+02 0.  0.
        -12    1    1    2    0    0  0.50040766926E+01 -0.93061412439E+01  0.15460766588E+02  0.18726461275E+02  0.00000000000E+00 0.  1.
         11    1    3    3    0    0 -0.18408959167E+02 -0.16972466092E+02 -0.59688173889E+01  0.25740651975E+02  0.51100000000E-03 0. -1.
        -11    1    3    3    0    0 -0.11746166160E+02  0.11460599767E+02 -0.52027343025E+01  0.17215870903E+02  0.51100000000E-03 0.  1.
        -12    1    3    3    0    0  0.25151048634E+02  0.14818007568E+02 -0.42892148967E+01  0.29505015846E+02  0.00000000000E+00 0.  1.
</event>
<event>
 7    1  0.1749439E-013  0.7246164E+02  0.7816164E-02  0.1226708E+00
        -11   -1    0    0    0    0  0.00000000000E+00  0.00000000000E+00  0.45593999997E+02  0.45594000000E+02  0.51100000000E-03 0. -1.
         11   -1    0    0    0    0 -0.00000000000E+00 -0.00000000000E+00 -0.45593999997E+02  0.45594000000E+02  0.51100000000E-03 0.  1.
    9900012    2    1    2    0    0  0.89461330018E+01  0.16391290554E+02  0.14031263667E+01  0.72461642498E+02  0.70000094058E+02 0.  0.
        -12    1    1    2    0    0 -0.89461330018E+01 -0.16391290554E+02 -0.14031263667E+01  0.18726357502E+02  0.00000000000E+00 0.  1.
         11    1    3    3    0    0 -0.15011241986E+02  0.23836737022E+00  0.21603489654E+02  0.26307887989E+02  0.51100000000E-03 0. -1.
        -11    1    3    3    0    0  0.17782977217E+02 -0.64208633002E+00  0.16966118619E+01  0.17875263512E+02  0.51100000000E-03 0.  1.
        -12    1    3    3    0    0  0.61743977705E+01  0.16795009513E+02 -0.21896975149E+02  0.28278490997E+02  0.00000000000E+00 0.  1.
</event>
<event>
 7    1  0.1749439E-013  0.7246164E+02  0.7816164E-02  0.1226708E+00
        -11   -1    0    0    0    0  0.00000000000E+00  0.00000000000E+00  0.45593999997E+02  0.45594000000E+02  0.51100000000E-03 0.  1.
         11   -1    0    0    0    0 -0.00000000000E+00 -0.00000000000E+00 -0.45593999997E+02  0.45594000000E+02  0.51100000000E-03 0. -1.
    9900012    2    1    2    0    0 -0.60463440688E+01 -0.10903813746E+02 -0.13972297277E+02  0.72461640984E+02  0.70000092086E+02 0.  0.
        -12    1    1    2    0    0  0.60463440688E+01  0.10903813746E+02  0.13972297277E+02  0.18726359016E+02  0.00000000000E+00 0.  1.
         11    1    3    3    0    0 -0.13884281215E+02 -0.65714676871E+01 -0.66545859808E+01  0.16740399257E+02  0.51100000000E-03 0. -1.
        -11    1    3    3    0    0 -0.86153675905E+01 -0.17112742596E+02  0.15630791971E+02  0.24726345783E+02  0.51100000000E-03 0.  1.
         12    1    3    3    0    0  0.16453304737E+02  0.12780396537E+02 -0.22948503267E+02  0.30994895945E+02  0.00000000000E+00 0. -1.
</event>
<event>
 7    1  0.1749439E-013  0.7246159E+02  0.7816164E-02  0.1226708E+00
        -11   -1    0    0    0    0  0.00000000000E+00  0.00000000000E+00  0.45593999997E+02  0.45594000000E+02  0.51100000000E-03 0. -1.
         11   -1    0    0    0    0 -0.00000000000E+00 -0.00000000000E+00 -0.45593999997E+02  0.45594000000E+02  0.51100000000E-03 0.  1.
    9900012    2    1    2    0    0  0.20710860300E+01  0.10389391222E+02  0.15441816226E+02  0.72461587218E+02  0.70000022047E+02 0.  0.
        -12    1    1    2    0    0 -0.20710860300E+01 -0.10389391222E+02 -0.15441816226E+02  0.18726412782E+02  0.00000000000E+00 0.  1.
         11    1    3    3    0    0  0.14475591740E+02 -0.14702654917E+02  0.14020329548E+02  0.24945549878E+02  0.51100000000E-03 0. -1.
        -11    1    3    3    0    0  0.79428625295E+00 -0.71003717424E+01 -0.87217698155E+01  0.11274548262E+02  0.51100000000E-03 0.  1.
        -12    1    3    3    0    0 -0.13198791963E+02  0.32192417881E+02  0.10143256494E+02  0.36241489078E+02  0.00000000000E+00 0.  1.
</event>
<event>
 7    1  0.1749439E-013  0.7246167E+02  0.7816164E-02  0.1226708E+00
        -11   -1    0    0    0    0  0.00000000000E+00  0.00000000000E+00  0.45593999997E+02  0.45594000000E+02  0.51100000000E-03 0.  1.
         11   -1    0    0    0    0 -0.00000000000E+00 -0.00000000000E+00 -0.45593999997E+02  0.45594000000E+02  0.51100000000E-03 0. -1.
    9900012    2    1    2    0    0 -0.25616311219E+01 -0.15771554037E+02 -0.97658433437E+01  0.72461666484E+02  0.70000125304E+02 0.  0.
        -12    1    1    2    0    0  0.25616311219E+01  0.15771554037E+02  0.97658433437E+01  0.18726333516E+02  0.00000000000E+00 0.  1.
         11    1    3    3    0    0 -0.13737913407E+02 -0.19289128065E+02 -0.68033733748E+01  0.24639127741E+02  0.51100000000E-03 0. -1.
        -11    1    3    3    0    0  0.61465474230E+01 -0.33546043261E+01  0.21134839877E+02  0.22264655225E+02  0.51100000000E-03 0.  1.
         12    1    3    3    0    0  0.50297348617E+01  0.68721783542E+01 -0.24097309846E+02  0.25557883518E+02  0.00000000000E+00 0. -1.
</event>
<event>
 7    1  0.1749439E-013  0.7246115E+02  0.7816164E-02  0.1226709E+00
        -11   -1    0    0    0    0  0.00000000000E+00  0.00000000000E+00  0.45593999997E+02  0.45594000000E+02  0.51100000000E-03 0.  1.
         11   -1    0    0    0    0 -0.00000000000E+00 -0.00000000000E+00 -0.45593999997E+02  0.45594000000E+02  0.51100000000E-03 0. -1.
    9900012    2    1    2    0    0 -0.10310002176E+02  0.10650764145E+02 -0.11443778834E+02  0.72461147735E+02  0.69999449536E+02 0.  0.
        -12    1    1    2    0    0  0.10310002176E+02 -0.10650764145E+02  0.11443778834E+02  0.18726852265E+02  0.00000000000E+00 0.  1.
         11    1    3    3    0    0 -0.20635636668E+01  0.12718260778E+02 -0.15940850115E+02  0.20496905983E+02  0.51100000000E-03 0. -1.
        -11    1    3    3    0    0 -0.24964876402E+02  0.13082084717E+02 -0.26214164382E+01  0.28306497818E+02  0.51100000000E-03 0.  1.
        -12    1    3    3    0    0  0.16718437892E+02 -0.15149581350E+02  0.71184877192E+01  0.23657743934E+02  0.00000000000E+00 0.  1.
</event>
<event>
 7    1  0.1749439E-013  0.7246156E+02  0.7816164E-02  0.1226708E+00
        -11   -1    0    0    0    0  0.00000000000E+00  0.00000000000E+00  0.45593999997E+02  0.45594000000E+02  0.51100000000E-03 0. -1.
         11   -1    0    0    0    0 -0.00000000000E+00 -0.00000000000E+00 -0.45593999997E+02  0.45594000000E+02  0.51100000000E-03 0.  1.
    9900012    2    1    2    0    0  0.17930484152E+02 -0.49797371348E+01 -0.20927086761E+01  0.72461562179E+02  0.69999989428E+02 0.  0.
        -12    1    1    2    0    0 -0.17930484152E+02  0.49797371348E+01  0.20927086761E+01  0.18726437821E+02  0.00000000000E+00 0.  1.
         11    1    3    3    0    0  0.22273178636E+02  0.13232134412E+02  0.19202294554E+02  0.32247666335E+02  0.51100000000E-03 0. -1.
        -11    1    3    3    0    0 -0.90665438680E+01 -0.15351978525E+02  0.39325078411E+00  0.17833679059E+02  0.51100000000E-03 0.  1.
        -12    1    3    3    0    0  0.47238493846E+01 -0.28598930222E+01 -0.21688254015E+02  0.22380216784E+02  0.00000000000E+00 0.  1.
</event>
<event>
 7    1  0.1749439E-013  0.7246149E+02  0.7816164E-02  0.1226708E+00
        -11   -1    0    0    0    0  0.00000000000E+00  0.00000000000E+00  0.45593999997E+02  0.45594000000E+02  0.51100000000E-03 0. -1.
         11   -1    0    0    0    0 -0.00000000000E+00 -0.00000000000E+00 -0.45593999997E+02  0.45594000000E+02  0.51100000000E-03 0.  1.
    9900012    2    1    2    0    0 -0.13896642046E+02 -0.40554058250E+01  0.11879359384E+02  0.72461490557E+02  0.69999896127E+02 0.  0.
        -12    1    1    2    0    0  0.13896642046E+02  0.40554058250E+01 -0.11879359384E+02  0.18726509443E+02  0.00000000000E+00 0.  1.
         11    1    3    3    0    0 -0.11625206080E+01 -0.13118267621E+02  0.10488320693E+02  0.16835832940E+02  0.51100000000E-03 0. -1.
        -11    1    3    3    0    0 -0.14428245822E+02 -0.46607803334E+01  0.24431631591E+02  0.28754160973E+02  0.51100000000E-03 0.  1.
        -12    1    3    3    0    0  0.16941243835E+01  0.13723642129E+02 -0.23040592900E+02  0.26871496644E+02  0.00000000000E+00 0.  1.
</event>
<event>
 7    1  0.1749439E-013  0.7246153E+02  0.7816164E-02  0.1226708E+00
        -11   -1    0    0    0    0  0.00000000000E+00  0.00000000000E+00  0.45593999997E+02  0.45594000000E+02  0.51100000000E-03 0.  1.
         11   -1    0    0    0    0 -0.00000000000E+00 -0.00000000000E+00 -0.45593999997E+02  0.45594000000E+02  0.51100000000E-03 0. -1.
    9900012    2    1    2    0    0  0.14828898188E+02 -0.10642143477E+01  0.11386476068E+02  0.72461531809E+02  0.69999949866E+02 0.  0.
        -12    1    1    2    0    0 -0.14828898188E+02  0.10642143477E+01 -0.11386476068E+02  0.18726468191E+02  0.00000000000E+00 0.  1.
         11    1    3    3    0    0  0.27932373020E+02  0.41430267118E+01 -0.12368084991E+02  0.30827774157E+02  0.51100000000E-03 0. -1.
        -11    1    3    3    0    0 -0.13101584920E+02  0.92775106491E+01  0.30113294271E+01  0.16333763695E+02  0.51100000000E-03 0.  1.
        -12    1    3    3    0    0 -0.18899119662E-02 -0.14484751709E+02  0.20743231633E+02  0.25299993957E+02  0.00000000000E+00 0.  1.
</event>
<event>
 7    1  0.1749439E-013  0.7246158E+02  0.7816164E-02  0.1226708E+00
        -11   -1    0    0    0    0  0.00000000000E+00  0.00000000000E+00  0.45593999997E+02  0.45594000000E+02  0.51100000000E-03 0.  1.
         11   -1    0    0    0    0 -0.00000000000E+00 -0.00000000000E+00 -0.45593999997E+02  0.45594000000E+02  0.51100000000E-03 0. -1.
    9900012    2    1    2    0    0 -0.53316066685E+01  0.17369885566E+01 -0.17867170080E+02  0.72461576808E+02  0.70000008485E+02 0.  0.
        -12    1    1    2    0    0  0.53316066685E+01 -0.17369885566E+01  0.17867170080E+02  0.18726423192E+02  0.00000000000E+00 0.  1.
         11    1    3    3    0    0 -0.23089179599E+01  0.14078574127E+02 -0.40149194137E+02  0.42608627550E+02  0.51100000000E-03 0. -1.
        -11    1    3    3    0    0  0.27371710872E-01  0.35855101516E+01  0.31486720284E+01  0.47718725949E+01  0.51100000000E-03 0.  1.
        -12    1    3    3    0    0 -0.30500604195E+01 -0.15927095722E+02  0.19133352029E+02  0.25081076662E+02  0.00000000000E+00 0.  1.
</event>
<event>
 7    1  0.1749439E-013  0.7246155E+02  0.7816164E-02  0.1226708E+00
        -11   -1    0    0    0    0  0.00000000000E+00  0.00000000000E+00  0.45593999997E+02  0.45594000000E+02  0.51100000000E-03 0.  1.
         11   -1    0    0    0    0 -0.00000000000E+00 -0.00000000000E+00 -0.45593999997E+02  0.45594000000E+02  0.51100000000E-03 0. -1.
    9900012    2    1    2    0    0 -0.13614677308E+02  0.12206607308E+02 -0.40397023029E+01  0.72461550927E+02  0.69999974771E+02 0.  0.
        -12    1    1    2    0    0  0.13614677308E+02 -0.12206607308E+02  0.40397023029E+01  0.18726449073E+02  0.00000000000E+00 0.  1.
         11    1    3    3    0    0 -0.13663538174E+02  0.56417459998E+01 -0.57860268598E+01  0.15874497801E+02  0.51100000000E-03 0. -1.
        -11    1    3    3    0    0  0.58509711052E+00  0.31499348306E+02  0.27659522539E+01  0.31625966775E+02  0.51100000000E-03 0.  1.
         12    1    3    3    0    0 -0.53623624534E+00 -0.24934486998E+02 -0.10196276969E+01  0.24961086351E+02  0.00000000000E+00 0. -1.
</event>
<event>
 7    1  0.1749439E-013  0.7246160E+02  0.7816164E-02  0.1226708E+00
        -11   -1    0    0    0    0  0.00000000000E+00  0.00000000000E+00  0.45593999997E+02  0.45594000000E+02  0.51100000000E-03 0.  1.
         11   -1    0    0    0    0 -0.00000000000E+00 -0.00000000000E+00 -0.45593999997E+02  0.45594000000E+02  0.51100000000E-03 0. -1.
    9900012    2    1    2    0    0  0.77290132447E+01  0.16853585073E+02  0.26261952274E+01  0.72461604808E+02  0.70000044960E+02 0.  0.
        -12    1    1    2    0    0 -0.77290132447E+01 -0.16853585073E+02 -0.26261952274E+01  0.18726395192E+02  0.00000000000E+00 0.  1.
         11    1    3    3    0    0 -0.88524114188E+01  0.77308085960E+01  0.27152529569E+02  0.29586998019E+02  0.51100000000E-03 0.  1.
        -11    1    3    3    0    0  0.29258374564E+01  0.15739520096E+02 -0.26140141736E+01  0.16221161735E+02  0.51100000000E-03 0. -1.
        -12    1    3    3    0    0  0.13655587207E+02 -0.66167436193E+01 -0.21912320168E+02  0.26653445054E+02  0.00000000000E+00 0.  1.
</event>
<event>
 7    1  0.1749439E-013  0.7246162E+02  0.7816164E-02  0.1226708E+00
        -11   -1    0    0    0    0  0.00000000000E+00  0.00000000000E+00  0.45593999997E+02  0.45594000000E+02  0.51100000000E-03 0.  1.
         11   -1    0    0    0    0 -0.00000000000E+00 -0.00000000000E+00 -0.45593999997E+02  0.45594000000E+02  0.51100000000E-03 0. -1.
    9900012    2    1    2    0    0 -0.17474897759E+02 -0.43707281922E+01  0.51187797216E+01  0.72461622281E+02  0.70000067723E+02 0.  0.
        -12    1    1    2    0    0  0.17474897759E+02  0.43707281922E+01 -0.51187797216E+01  0.18726377719E+02  0.00000000000E+00 0.  1.
         11    1    3    3    0    0 -0.26599669071E+02  0.12756051875E+02  0.63520554142E+01  0.30176279797E+02  0.51100000000E-03 0. -1.
        -11    1    3    3    0    0  0.67747525224E+00  0.88966644338E+01  0.93735675120E+01  0.12941150603E+02  0.51100000000E-03 0.  1.
        -12    1    3    3    0    0  0.84472960602E+01 -0.26023444501E+02 -0.10606843205E+02  0.29344191882E+02  0.00000000000E+00 0.  1.
</event>
<event>
 7    1  0.1749439E-013  0.7246155E+02  0.7816164E-02  0.1226708E+00
        -11   -1    0    0    0    0  0.00000000000E+00  0.00000000000E+00  0.45593999997E+02  0.45594000000E+02  0.51100000000E-03 0.  1.
         11   -1    0    0    0    0 -0.00000000000E+00 -0.00000000000E+00 -0.45593999997E+02  0.45594000000E+02  0.51100000000E-03 0. -1.
    9900012    2    1    2    0    0  0.13759154394E+02  0.88025456741E+01 -0.91586535953E+01  0.72461546100E+02  0.69999968483E+02 0.  0.
        -12    1    1    2    0    0 -0.13759154394E+02 -0.88025456741E+01  0.91586535953E+01  0.18726453900E+02  0.00000000000E+00 0.  1.
         11    1    3    3    0    0 -0.68403402470E+00  0.54035998571E+01  0.54123290972E+01  0.76785480711E+01  0.51100000000E-03 0. -1.
        -11    1    3    3    0    0  0.29442043157E+02  0.17831308376E+02  0.66505631212E+01  0.35057373743E+02  0.51100000000E-03 0.  1.
         12    1    3    3    0    0 -0.14998854738E+02 -0.14432362559E+02 -0.21221545814E+02  0.29725624286E+02  0.00000000000E+00 0. -1.
</event>
<event>
 7    1  0.1749439E-013  0.7246159E+02  0.7816164E-02  0.1226708E+00
        -11   -1    0    0    0    0  0.00000000000E+00  0.00000000000E+00  0.45593999997E+02  0.45594000000E+02  0.51100000000E-03 0.  1.
         11   -1    0    0    0    0 -0.00000000000E+00 -0.00000000000E+00 -0.45593999997E+02  0.45594000000E+02  0.51100000000E-03 0. -1.
    9900012    2    1    2    0    0 -0.95290207682E+01 -0.10891263527E+02 -0.11885143426E+02  0.72461588377E+02  0.70000023556E+02 0.  0.
        -12    1    1    2    0    0  0.95290207682E+01  0.10891263527E+02  0.11885143426E+02  0.18726411623E+02  0.00000000000E+00 0.  1.
         11    1    3    3    0    0  0.48283601806E+01  0.23201024166E+01  0.28178843525E+01  0.60528018092E+01  0.51100000000E-03 0. -1.
        -11    1    3    3    0    0 -0.24342833217E+02 -0.25259563710E+02  0.10609898329E+02  0.36649543389E+02  0.51100000000E-03 0.  1.
         12    1    3    3    0    0  0.99854522680E+01  0.12048197766E+02 -0.25312926108E+02  0.29759243178E+02  0.00000000000E+00 0. -1.
</event>
<event>
 7    1  0.1749439E-013  0.7246158E+02  0.7816164E-02  0.1226708E+00
        -11   -1    0    0    0    0  0.00000000000E+00  0.00000000000E+00  0.45593999997E+02  0.45594000000E+02  0.51100000000E-03 0. -1.
         11   -1    0    0    0    0 -0.00000000000E+00 -0.00000000000E+00 -0.45593999997E+02  0.45594000000E+02  0.51100000000E-03 0.  1.
    9900012    2    1    2    0    0 -0.44650093725E+00 -0.17023981020E+02  0.77886836956E+01  0.72461577849E+02  0.70000009841E+02 0.  0.
        -12    1    1    2    0    0  0.44650093725E+00  0.17023981020E+02 -0.77886836956E+01  0.18726422151E+02  0.00000000000E+00 0.  1.
         11    1    3    3    0    0 -0.13290690188E+02  0.53639312319E+00  0.13391678823E+02  0.18875042390E+02  0.51100000000E-03 0. -1.
        -11    1    3    3    0    0  0.23933354963E+02  0.27109676875E+01  0.95982195748E+01  0.25928375284E+02  0.51100000000E-03 0.  1.
         12    1    3    3    0    0 -0.11089165713E+02 -0.20271341831E+02 -0.15201214702E+02  0.27658160175E+02  0.00000000000E+00 0. -1.
</event>
<event>
 7    1  0.1749439E-013  0.7246150E+02  0.7816164E-02  0.1226708E+00
        -11   -1    0    0    0    0  0.00000000000E+00  0.00000000000E+00  0.45593999997E+02  0.45594000000E+02  0.51100000000E-03 0.  1.
         11   -1    0    0    0    0 -0.00000000000E+00 -0.00000000000E+00 -0.45593999997E+02  0.45594000000E+02  0.51100000000E-03 0. -1.
    9900012    2    1    2    0    0  0.93705805096E+01  0.10157868252E+02 -0.12636923024E+02  0.72461497656E+02  0.69999905375E+02 0.  0.
        -12    1    1    2    0    0 -0.93705805096E+01 -0.10157868252E+02  0.12636923024E+02  0.18726502344E+02  0.00000000000E+00 0.  1.
         11    1    3    3    0    0  0.53656867049E+01  0.26926876590E+02 -0.21839039470E+02  0.35082629918E+02  0.51100000000E-03 0. -1.
        -11    1    3    3    0    0 -0.13367785151E+02 -0.59383970168E+01  0.84501866430E+01  0.16892835568E+02  0.51100000000E-03 0.  1.
        -12    1    3    3    0    0  0.17372678955E+02 -0.10830611321E+02  0.75192980326E+00  0.20486032171E+02  0.00000000000E+00 0.  1.
</event>
<event>
 7    1  0.1749439E-013  0.7246156E+02  0.7816164E-02  0.1226708E+00
        -11   -1    0    0    0    0  0.00000000000E+00  0.00000000000E+00  0.45593999997E+02  0.45594000000E+02  0.51100000000E-03 0.  1.
         11   -1    0    0    0    0 -0.00000000000E+00 -0.00000000000E+00 -0.45593999997E+02  0.45594000000E+02  0.51100000000E-03 0. -1.
    9900012    2    1    2    0    0 -0.55835097634E+01 -0.77137227509E+01 -0.16124590856E+02  0.72461560663E+02  0.69999987453E+02 0.  0.
        -12    1    1    2    0    0  0.55835097634E+01  0.77137227509E+01  0.16124590856E+02  0.18726439337E+02  0.00000000000E+00 0.  1.
         11    1    3    3    0    0 -0.10431150688E+02 -0.26084261019E+02 -0.24845461843E+01  0.28202314579E+02  0.51100000000E-03 0. -1.
        -11    1    3    3    0    0  0.34444451946E+01 -0.11577746828E+02 -0.30018092467E+01  0.12446657516E+02  0.51100000000E-03 0.  1.
         12    1    3    3    0    0  0.14031957300E+01  0.29948285096E+02 -0.10638235425E+02  0.31812588568E+02  0.00000000000E+00 0. -1.
</event>
<event>
 7    1  0.1749439E-013  0.7246156E+02  0.7816164E-02  0.1226708E+00
        -11   -1    0    0    0    0  0.00000000000E+00  0.00000000000E+00  0.45593999997E+02  0.45594000000E+02  0.51100000000E-03 0.  1.
         11   -1    0    0    0    0 -0.00000000000E+00 -0.00000000000E+00 -0.45593999997E+02  0.45594000000E+02  0.51100000000E-03 0. -1.
    9900012    2    1    2    0    0  0.48252371280E+00  0.18435161999E+02 -0.32544460753E+01  0.72461562904E+02  0.69999990373E+02 0.  0.
        -12    1    1    2    0    0 -0.48252371280E+00 -0.18435161999E+02  0.32544460753E+01  0.18726437096E+02  0.00000000000E+00 0.  1.
         11    1    3    3    0    0 -0.11710477875E+02  0.12810027769E+02 -0.49523821032E+01  0.18048772597E+02  0.51100000000E-03 0. -1.
        -11    1    3    3    0    0 -0.20620958956E+02  0.71880455146E+00 -0.31810328092E+01  0.20877250735E+02  0.51100000000E-03 0.  1.
        -12    1    3    3    0    0  0.32813960544E+02  0.49063296785E+01  0.48789688371E+01  0.33535539572E+02  0.00000000000E+00 0.  1.
</event>
<event>
 7    1  0.1749439E-013  0.7246158E+02  0.7816164E-02  0.1226708E+00
        -11   -1    0    0    0    0  0.00000000000E+00  0.00000000000E+00  0.45593999997E+02  0.45594000000E+02  0.51100000000E-03 0.  1.
         11   -1    0    0    0    0 -0.00000000000E+00 -0.00000000000E+00 -0.45593999997E+02  0.45594000000E+02  0.51100000000E-03 0. -1.
    9900012    2    1    2    0    0 -0.98755758604E+01 -0.58535272496E+01 -0.14794859903E+02  0.72461583915E+02  0.70000017744E+02 0.  0.
        -12    1    1    2    0    0  0.98755758604E+01  0.58535272496E+01  0.14794859903E+02  0.18726416085E+02  0.00000000000E+00 0.  1.
         11    1    3    3    0    0 -0.97298605875E+01 -0.12579541762E+02  0.65814340388E+01  0.17211343128E+02  0.51100000000E-03 0. -1.
        -11    1    3    3    0    0 -0.88313133075E+00 -0.19379950854E+02  0.28732744756E+01  0.19611683317E+02  0.51100000000E-03 0.  1.
         12    1    3    3    0    0  0.73741605781E+00  0.26105965366E+02 -0.24249568417E+02  0.35638557471E+02  0.00000000000E+00 0. -1.
</event>
<event>
 7    1  0.1749439E-013  0.7246157E+02  0.7816164E-02  0.1226708E+00
        -11   -1    0    0    0    0  0.00000000000E+00  0.00000000000E+00  0.45593999997E+02  0.45594000000E+02  0.51100000000E-03 0.  1.
         11   -1    0    0    0    0 -0.00000000000E+00 -0.00000000000E+00 -0.45593999997E+02  0.45594000000E+02  0.51100000000E-03 0. -1.
    9900012    2    1    2    0    0  0.16888516612E+02 -0.60559572944E+01 -0.53649359970E+01  0.72461570806E+02  0.70000000667E+02 0.  0.
        -12    1    1    2    0    0 -0.16888516612E+02  0.60559572944E+01  0.53649359970E+01  0.18726429194E+02  0.00000000000E+00 0.  1.
         11    1    3    3    0    0 -0.56168395532E+01 -0.13568472348E+02  0.54432481675E+01  0.15661458403E+02  0.51100000000E-03 0. -1.
        -11    1    3    3    0    0  0.10249357329E+02 -0.18033208888E+02 -0.18115504685E+02  0.27539380143E+02  0.51100000000E-03 0.  1.
        -12    1    3    3    0    0  0.12255998837E+02  0.25545723942E+02  0.73073205204E+01  0.29260732260E+02  0.00000000000E+00 0.  1.
</event>
<event>
 7    1  0.1749439E-013  0.7246176E+02  0.7816164E-02  0.1226708E+00
        -11   -1    0    0    0    0  0.00000000000E+00  0.00000000000E+00  0.45593999997E+02  0.45594000000E+02  0.51100000000E-03 0.  1.
         11   -1    0    0    0    0 -0.00000000000E+00 -0.00000000000E+00 -0.45593999997E+02  0.45594000000E+02  0.51100000000E-03 0. -1.
    9900012    2    1    2    0    0  0.12347470298E+02 -0.66359845961E+01 -0.12416754043E+02  0.72461759179E+02  0.70000246057E+02 0.  0.
        -12    1    1    2    0    0 -0.12347470298E+02  0.66359845961E+01  0.12416754043E+02  0.18726240821E+02  0.00000000000E+00 0.  1.
         11    1    3    3    0    0 -0.24862899741E+01 -0.33395034092E+01 -0.14497557137E+02  0.15083536855E+02  0.51100000000E-03 0. -1.
        -11    1    3    3    0    0  0.18155006580E+02  0.23102625783E+02  0.72725648224E+01  0.30269221684E+02  0.51100000000E-03 0.  1.
         12    1    3    3    0    0 -0.33212463078E+01 -0.26399106970E+02 -0.51917617285E+01  0.27109000640E+02  0.00000000000E+00 0. -1.
</event>
<event>
 7    1  0.1749439E-013  0.7246161E+02  0.7816164E-02  0.1226708E+00
        -11   -1    0    0    0    0  0.00000000000E+00  0.00000000000E+00  0.45593999997E+02  0.45594000000E+02  0.51100000000E-03 0. -1.
         11   -1    0    0    0    0 -0.00000000000E+00 -0.00000000000E+00 -0.45593999997E+02  0.45594000000E+02  0.51100000000E-03 0.  1.
    9900012    2    1    2    0    0  0.31756428150E+01  0.92149454097E+01  0.15989930517E+02  0.72461606750E+02  0.70000047491E+02 0.  0.
        -12    1    1    2    0    0 -0.31756428150E+01 -0.92149454097E+01 -0.15989930517E+02  0.18726393250E+02  0.00000000000E+00 0.  1.
         11    1    3    3    0    0  0.16007002050E+02  0.28122785700E+02  0.24569233075E+02  0.40629575487E+02  0.51100000000E-03 0. -1.
        -11    1    3    3    0    0  0.92595627846E+00 -0.10338333810E+01  0.52125801020E+01  0.53941818722E+01  0.51100000000E-03 0.  1.
        -12    1    3    3    0    0 -0.13757315513E+02 -0.17874006909E+02 -0.13791882660E+02  0.26437849391E+02  0.00000000000E+00 0.  1.
</event>
<event>
 7    1  0.1749439E-013  0.7246155E+02  0.7816164E-02  0.1226708E+00
        -11   -1    0    0    0    0  0.00000000000E+00  0.00000000000E+00  0.45593999997E+02  0.45594000000E+02  0.51100000000E-03 0.  1.
         11   -1    0    0    0    0 -0.00000000000E+00 -0.00000000000E+00 -0.45593999997E+02  0.45594000000E+02  0.51100000000E-03 0. -1.
    9900012    2    1    2    0    0  0.13206234642E+02 -0.11954702261E+02 -0.57758346622E+01  0.72461553311E+02  0.69999977876E+02 0.  0.
        -12    1    1    2    0    0 -0.13206234642E+02  0.11954702261E+02  0.57758346622E+01  0.18726446689E+02  0.00000000000E+00 0.  1.
         11    1    3    3    0    0 -0.58898448162E+01  0.33400465769E+01 -0.16417835994E+02  0.17759265809E+02  0.51100000000E-03 0. -1.
        -11    1    3    3    0    0  0.40804884696E+01  0.17027073778E+02  0.70758468932E+01  0.18884894417E+02  0.51100000000E-03 0.  1.
         12    1    3    3    0    0  0.15015590988E+02 -0.32321822616E+02  0.35661544386E+01  0.35817393085E+02  0.00000000000E+00 0. -1.
</event>
<event>
 7    1  0.1749439E-013  0.7246159E+02  0.7816164E-02  0.1226708E+00
        -11   -1    0    0    0    0  0.00000000000E+00  0.00000000000E+00  0.45593999997E+02  0.45594000000E+02  0.51100000000E-03 0. -1.
         11   -1    0    0    0    0 -0.00000000000E+00 -0.00000000000E+00 -0.45593999997E+02  0.45594000000E+02  0.51100000000E-03 0.  1.
    9900012    2    1    2    0    0  0.15050477643E+00 -0.13415665206E+02  0.13064292365E+02  0.72461589249E+02  0.70000024692E+02 0.  0.
        -12    1    1    2    0    0 -0.15050477643E+00  0.13415665206E+02 -0.13064292365E+02  0.18726410751E+02  0.00000000000E+00 0.  1.
         11    1    3    3    0    0  0.15752280141E+01 -0.22988581519E+02  0.20133011369E+02  0.30598927606E+02  0.51100000000E-03 0. -1.
        -11    1    3    3    0    0  0.38314097819E+01  0.19567877256E+02  0.92797887359E+01  0.21993089834E+02  0.51100000000E-03 0.  1.
         12    1    3    3    0    0 -0.52561330196E+01 -0.99949609426E+01 -0.16348507740E+02  0.19869571809E+02  0.00000000000E+00 0. -1.
</event>
<event>
 7    1  0.1749439E-013  0.7246152E+02  0.7816164E-02  0.1226708E+00
        -11   -1    0    0    0    0  0.00000000000E+00  0.00000000000E+00  0.45593999997E+02  0.45594000000E+02  0.51100000000E-03 0.  1.
         11   -1    0    0    0    0 -0.00000000000E+00 -0.00000000000E+00 -0.45593999997E+02  0.45594000000E+02  0.51100000000E-03 0. -1.
    9900012    2    1    2    0    0 -0.57345774001E+01  0.11233855243E+02 -0.13841833465E+02  0.72461515139E+02  0.69999928150E+02 0.  0.
        -12    1    1    2    0    0  0.57345774001E+01 -0.11233855243E+02  0.13841833465E+02  0.18726484861E+02  0.00000000000E+00 0.  1.
         11    1    3    3    0    0 -0.11867845769E+02  0.97142045584E+01 -0.29062293892E+01  0.15609538844E+02  0.51100000000E-03 0. -1.
        -11    1    3    3    0    0 -0.55937245225E+01  0.63042858677E+01 -0.31550688770E+02  0.32657001339E+02  0.51100000000E-03 0.  1.
        -12    1    3    3    0    0  0.11726992892E+02 -0.47846351833E+01  0.20615084694E+02  0.24194974955E+02  0.00000000000E+00 0.  1.
</event>
<event>
 7    1  0.1749439E-013  0.7246155E+02  0.7816164E-02  0.1226708E+00
        -11   -1    0    0    0    0  0.00000000000E+00  0.00000000000E+00  0.45593999997E+02  0.45594000000E+02  0.51100000000E-03 0.  1.
         11   -1    0    0    0    0 -0.00000000000E+00 -0.00000000000E+00 -0.45593999997E+02  0.45594000000E+02  0.51100000000E-03 0. -1.
    9900012    2    1    2    0    0 -0.14481317925E+02 -0.62568685171E+01 -0.10090729887E+02  0.72461553404E+02  0.69999977997E+02 0.  0.
        -12    1    1    2    0    0  0.14481317925E+02  0.62568685171E+01  0.10090729887E+02  0.18726446596E+02  0.00000000000E+00 0.  1.
         11    1    3    3    0    0  0.38181228506E+01  0.20803215077E+02  0.75266081534E+01  0.22449981073E+02  0.51100000000E-03 0. -1.
        -11    1    3    3    0    0 -0.15597865551E+01 -0.46995355093E+01  0.97320957435E+01  0.10919352358E+02  0.51100000000E-03 0.  1.
         12    1    3    3    0    0 -0.16739654220E+02 -0.22360548085E+02 -0.27349433784E+02  0.39092219972E+02  0.00000000000E+00 0. -1.
</event>
<event>
 7    1  0.1749439E-013  0.7246156E+02  0.7816164E-02  0.1226708E+00
        -11   -1    0    0    0    0  0.00000000000E+00  0.00000000000E+00  0.45593999997E+02  0.45594000000E+02  0.51100000000E-03 0. -1.
         11   -1    0    0    0    0 -0.00000000000E+00 -0.00000000000E+00 -0.45593999997E+02  0.45594000000E+02  0.51100000000E-03 0.  1.
    9900012    2    1    2    0    0 -0.10017503341E+02 -0.15046210366E+02 -0.48929241787E+01  0.72461560761E+02  0.69999987581E+02 0.  0.
        -12    1    1    2    0    0  0.10017503341E+02  0.15046210366E+02  0.48929241787E+01  0.18726439239E+02  0.00000000000E+00 0.  1.
         11    1    3    3    0    0 -0.96679956183E+01 -0.39579636462E+01  0.12419402769E+02  0.16228899559E+02  0.51100000000E-03 0. -1.
        -11    1    3    3    0    0 -0.12251914231E+02  0.17823103929E+02 -0.11271450403E+02  0.24388891538E+02  0.51100000000E-03 0.  1.
         12    1    3    3    0    0  0.11902406509E+02 -0.28911350648E+02 -0.60408765445E+01  0.31843769664E+02  0.00000000000E+00 0. -1.
</event>
<event>
 7    1  0.1749439E-013  0.7246156E+02  0.7816164E-02  0.1226708E+00
        -11   -1    0    0    0    0  0.00000000000E+00  0.00000000000E+00  0.45593999997E+02  0.45594000000E+02  0.51100000000E-03 0. -1.
         11   -1    0    0    0    0 -0.00000000000E+00 -0.00000000000E+00 -0.45593999997E+02  0.45594000000E+02  0.51100000000E-03 0.  1.
    9900012    2    1    2    0    0 -0.15331915381E+02  0.80518525464E+01  0.71259811540E+01  0.72461559706E+02  0.69999986207E+02 0.  0.
        -12    1    1    2    0    0  0.15331915381E+02 -0.80518525464E+01 -0.71259811540E+01  0.18726440294E+02  0.00000000000E+00 0.  1.
         11    1    3    3    0    0 -0.16716569499E+02 -0.50139589544E+01  0.12270085504E+02  0.21333974753E+02  0.51100000000E-03 0. -1.
        -11    1    3    3    0    0 -0.21522740233E+02  0.73973716535E+01 -0.13056892639E+02  0.26237985825E+02  0.51100000000E-03 0.  1.
        -12    1    3    3    0    0  0.22907394351E+02  0.56684398473E+01  0.79127882885E+01  0.24889599128E+02  0.00000000000E+00 0.  1.
</event>
<event>
 7    1  0.1749439E-013  0.7246158E+02  0.7816164E-02  0.1226708E+00
        -11   -1    0    0    0    0  0.00000000000E+00  0.00000000000E+00  0.45593999997E+02  0.45594000000E+02  0.51100000000E-03 0.  1.
         11   -1    0    0    0    0 -0.00000000000E+00 -0.00000000000E+00 -0.45593999997E+02  0.45594000000E+02  0.51100000000E-03 0. -1.
    9900012    2    1    2    0    0  0.17441861341E+02  0.55794221146E+01  0.39154111925E+01  0.72461576877E+02  0.70000008576E+02 0.  0.
        -12    1    1    2    0    0 -0.17441861341E+02 -0.55794221146E+01 -0.39154111925E+01  0.18726423123E+02  0.00000000000E+00 0.  1.
         11    1    3    3    0    0  0.13036736233E+02  0.76319947622E+01  0.21630337057E+01  0.15260489859E+02  0.51100000000E-03 0. -1.
        -11    1    3    3    0    0  0.12296164128E+01  0.18094031345E+02  0.21966444124E+02  0.28485620839E+02  0.51100000000E-03 0.  1.
         12    1    3    3    0    0  0.31755086951E+01 -0.20146603993E+02 -0.20214066637E+02  0.28715466180E+02  0.00000000000E+00 0. -1.
</event>
<event>
 7    1  0.1749439E-013  0.7246166E+02  0.7816164E-02  0.1226708E+00
        -11   -1    0    0    0    0  0.00000000000E+00  0.00000000000E+00  0.45593999997E+02  0.45594000000E+02  0.51100000000E-03 0. -1.
         11   -1    0    0    0    0 -0.00000000000E+00 -0.00000000000E+00 -0.45593999997E+02  0.45594000000E+02  0.51100000000E-03 0.  1.
    9900012    2    1    2    0    0  0.46385855603E+01  0.41320108648E+01  0.17665951582E+02  0.72461659324E+02  0.70000115978E+02 0.  0.
        -12    1    1    2    0    0 -0.46385855603E+01 -0.41320108648E+01 -0.17665951582E+02  0.18726340676E+02  0.00000000000E+00 0.  1.
         11    1    3    3    0    0 -0.28047714780E+02 -0.10763007557E+02  0.90649959030E+01  0.31379783094E+02  0.51100000000E-03 0. -1.
        -11    1    3    3    0    0 -0.77526558570E+00  0.51785953267E+01  0.20741068403E+01  0.56321226667E+01  0.51100000000E-03 0.  1.
        -12    1    3    3    0    0  0.33461565926E+02  0.97164230947E+01  0.65268488392E+01  0.35449753564E+02  0.00000000000E+00 0.  1.
</event>
<event>
 7    1  0.1749439E-013  0.7246159E+02  0.7816164E-02  0.1226708E+00
        -11   -1    0    0    0    0  0.00000000000E+00  0.00000000000E+00  0.45593999997E+02  0.45594000000E+02  0.51100000000E-03 0.  1.
         11   -1    0    0    0    0 -0.00000000000E+00 -0.00000000000E+00 -0.45593999997E+02  0.45594000000E+02  0.51100000000E-03 0. -1.
    9900012    2    1    2    0    0 -0.77133268486E+01 -0.90457308338E+01 -0.14469205852E+02  0.72461586158E+02  0.70000020666E+02 0.  0.
        -12    1    1    2    0    0  0.77133268486E+01  0.90457308338E+01  0.14469205852E+02  0.18726413842E+02  0.00000000000E+00 0.  1.
         11    1    3    3    0    0 -0.17808066965E+02 -0.44643861463E+01 -0.16704703888E+02  0.24821465004E+02  0.51100000000E-03 0. -1.
        -11    1    3    3    0    0  0.34225223469E+01 -0.24477269701E+02 -0.54194882000E+01  0.25302593619E+02  0.51100000000E-03 0.  1.
         12    1    3    3    0    0  0.66722177694E+01  0.19895925014E+02  0.76549862367E+01  0.22337527535E+02  0.00000000000E+00 0. -1.
</event>
<event>
 7    1  0.1749439E-013  0.7246157E+02  0.7816164E-02  0.1226708E+00
        -11   -1    0    0    0    0  0.00000000000E+00  0.00000000000E+00  0.45593999997E+02  0.45594000000E+02  0.51100000000E-03 0. -1.
         11   -1    0    0    0    0 -0.00000000000E+00 -0.00000000000E+00 -0.45593999997E+02  0.45594000000E+02  0.51100000000E-03 0.  1.
    9900012    2    1    2    0    0  0.92567040397E+01  0.71022977143E+01  0.14647521663E+02  0.72461572328E+02  0.70000002649E+02 0.  0.
        -12    1    1    2    0    0 -0.92567040397E+01 -0.71022977143E+01 -0.14647521663E+02  0.18726427672E+02  0.00000000000E+00 0.  1.
         11    1    3    3    0    0 -0.14624881508E+01 -0.43439674667E+00  0.99544011746E+01  0.10070634296E+02  0.51100000000E-03 0. -1.
        -11    1    3    3    0    0  0.17178448655E+02 -0.24089853769E+02  0.55339391462E+01  0.30100575336E+02  0.51100000000E-03 0.  1.
         12    1    3    3    0    0 -0.64592564648E+01  0.31626548230E+02 -0.84081865796E+00  0.32290362696E+02  0.00000000000E+00 0. -1.
</event>
<event>
 7    1  0.1749439E-013  0.7246152E+02  0.7816164E-02  0.1226708E+00
        -11   -1    0    0    0    0  0.00000000000E+00  0.00000000000E+00  0.45593999997E+02  0.45594000000E+02  0.51100000000E-03 0.  1.
         11   -1    0    0    0    0 -0.00000000000E+00 -0.00000000000E+00 -0.45593999997E+02  0.45594000000E+02  0.51100000000E-03 0. -1.
    9900012    2    1    2    0    0 -0.92154665620E+01 -0.11614419799E+02  0.11439462381E+02  0.72461524870E+02  0.69999940826E+02 0.  0.
        -12    1    1    2    0    0  0.92154665620E+01  0.11614419799E+02 -0.11439462381E+02  0.18726475130E+02  0.00000000000E+00 0.  1.
         11    1    3    3    0    0 -0.94394519477E+01  0.23490682705E+02  0.24034525448E+02  0.34908077014E+02  0.51100000000E-03 0.  1.
        -11    1    3    3    0    0 -0.11663886708E-01 -0.37945005031E+01 -0.28985253894E+01  0.47749156860E+01  0.51100000000E-03 0. -1.
        -12    1    3    3    0    0  0.23564927237E+00 -0.31310602002E+02 -0.96965376778E+01  0.32778532170E+02  0.00000000000E+00 0.  1.
</event>
<event>
 7    1  0.1749439E-013  0.7246154E+02  0.7816164E-02  0.1226708E+00
        -11   -1    0    0    0    0  0.00000000000E+00  0.00000000000E+00  0.45593999997E+02  0.45594000000E+02  0.51100000000E-03 0.  1.
         11   -1    0    0    0    0 -0.00000000000E+00 -0.00000000000E+00 -0.45593999997E+02  0.45594000000E+02  0.51100000000E-03 0. -1.
    9900012    2    1    2    0    0 -0.53169037241E+01 -0.16432795541E+02 -0.72369844374E+01  0.72461543361E+02  0.69999964914E+02 0.  0.
        -12    1    1    2    0    0  0.53169037241E+01  0.16432795541E+02  0.72369844374E+01  0.18726456639E+02  0.00000000000E+00 0.  1.
         11    1    3    3    0    0  0.78735258219E+01  0.16003911087E+02 -0.66153416862E+01  0.19023152337E+02  0.51100000000E-03 0. -1.
        -11    1    3    3    0    0  0.13854486078E+02 -0.47093534534E+01 -0.13816495562E+01  0.14698086617E+02  0.51100000000E-03 0.  1.
         12    1    3    3    0    0 -0.27044915624E+02 -0.27727353175E+02  0.76000680501E+00  0.38740304407E+02  0.00000000000E+00 0. -1.
</event>
<event>
 7    1  0.1749439E-013  0.7246157E+02  0.7816164E-02  0.1226708E+00
        -11   -1    0    0    0    0  0.00000000000E+00  0.00000000000E+00  0.45593999997E+02  0.45594000000E+02  0.51100000000E-03 0.  1.
         11   -1    0    0    0    0 -0.00000000000E+00 -0.00000000000E+00 -0.45593999997E+02  0.45594000000E+02  0.51100000000E-03 0. -1.
    9900012    2    1    2    0    0  0.14587403009E+02  0.77575948842E+01 -0.88151358602E+01  0.72461568808E+02  0.69999998064E+02 0.  0.
        -12    1    1    2    0    0 -0.14587403009E+02 -0.77575948842E+01  0.88151358602E+01  0.18726431192E+02  0.00000000000E+00 0.  1.
         11    1    3    3    0    0 -0.10321904544E+01  0.21798340142E+02 -0.69360692358E+01  0.22898517568E+02  0.51100000000E-03 0. -1.
        -11    1    3    3    0    0 -0.70875765425E+01 -0.23743400150E+02 -0.21138192405E+01  0.24868675557E+02  0.51100000000E-03 0.  1.
         12    1    3    3    0    0  0.22707170006E+02  0.97026548916E+01  0.23475261609E+00  0.24694375684E+02  0.00000000000E+00 0. -1.
</event>
<event>
 7    1  0.1749439E-013  0.7246148E+02  0.7816164E-02  0.1226708E+00
        -11   -1    0    0    0    0  0.00000000000E+00  0.00000000000E+00  0.45593999997E+02  0.45594000000E+02  0.51100000000E-03 0.  1.
         11   -1    0    0    0    0 -0.00000000000E+00 -0.00000000000E+00 -0.45593999997E+02  0.45594000000E+02  0.51100000000E-03 0. -1.
    9900012    2    1    2    0    0  0.17640432990E+02  0.62315500086E+00 -0.62537509954E+01  0.72461478707E+02  0.69999880690E+02 0.  0.
        -12    1    1    2    0    0 -0.17640432990E+02 -0.62315500086E+00  0.62537509954E+01  0.18726521293E+02  0.00000000000E+00 0.  1.
         11    1    3    3    0    0  0.53196191623E+01  0.22677511913E+02  0.58139079696E+01  0.24007695032E+02  0.51100000000E-03 0. -1.
        -11    1    3    3    0    0  0.15271157247E+02  0.59717382837E+01 -0.11920650499E+02  0.20272439674E+02  0.51100000000E-03 0.  1.
        -12    1    3    3    0    0 -0.29503434192E+01 -0.28026095196E+02 -0.14700846638E+00  0.28181344001E+02  0.00000000000E+00 0.  1.
</event>
<event>
 7    1  0.1749439E-013  0.7246139E+02  0.7816164E-02  0.1226709E+00
        -11   -1    0    0    0    0  0.00000000000E+00  0.00000000000E+00  0.45593999997E+02  0.45594000000E+02  0.51100000000E-03 0. -1.
         11   -1    0    0    0    0 -0.00000000000E+00 -0.00000000000E+00 -0.45593999997E+02  0.45594000000E+02  0.51100000000E-03 0.  1.
    9900012    2    1    2    0    0 -0.16199092746E+02 -0.49338819782E+01  0.79957673842E+01  0.72461385431E+02  0.69999759180E+02 0.  0.
        -12    1    1    2    0    0  0.16199092746E+02  0.49338819782E+01 -0.79957673842E+01  0.18726614569E+02  0.00000000000E+00 0.  1.
         11    1    3    3    0    0 -0.24151025139E+02  0.21041723625E+02  0.45074754408E+01  0.32347233011E+02  0.51100000000E-03 0. -1.
        -11    1    3    3    0    0  0.57917835976E+01  0.57359679330E+01  0.12931273446E+01  0.82533789420E+01  0.51100000000E-03 0.  1.
         12    1    3    3    0    0  0.21601487951E+01 -0.31711573536E+02  0.21951645989E+01  0.31860773477E+02  0.00000000000E+00 0. -1.
</event>
<event>
 7    1  0.1749439E-013  0.7246156E+02  0.7816164E-02  0.1226708E+00
        -11   -1    0    0    0    0  0.00000000000E+00  0.00000000000E+00  0.45593999997E+02  0.45594000000E+02  0.51100000000E-03 0.  1.
         11   -1    0    0    0    0 -0.00000000000E+00 -0.00000000000E+00 -0.45593999997E+02  0.45594000000E+02  0.51100000000E-03 0. -1.
    9900012    2    1    2    0    0 -0.27978120153E+01  0.14049007009E+02 -0.12061391695E+02  0.72461560947E+02  0.69999987823E+02 0.  0.
        -12    1    1    2    0    0  0.27978120153E+01 -0.14049007009E+02  0.12061391695E+02  0.18726439053E+02  0.00000000000E+00 0.  1.
         11    1    3    3    0    0 -0.15886080439E+02 -0.22439335031E+01  0.19183401011E+01  0.16158057379E+02  0.51100000000E-03 0. -1.
        -11    1    3    3    0    0 -0.16248532373E+02  0.10135678714E+02  0.62445397577E+01  0.20143015273E+02  0.51100000000E-03 0.  1.
         12    1    3    3    0    0  0.29336800796E+02  0.61572617979E+01 -0.20224271553E+02  0.36160488294E+02  0.00000000000E+00 0. -1.
</event>
<event>
 7    1  0.1749439E-013  0.7246163E+02  0.7816164E-02  0.1226708E+00
        -11   -1    0    0    0    0  0.00000000000E+00  0.00000000000E+00  0.45593999997E+02  0.45594000000E+02  0.51100000000E-03 0.  1.
         11   -1    0    0    0    0 -0.00000000000E+00 -0.00000000000E+00 -0.45593999997E+02  0.45594000000E+02  0.51100000000E-03 0. -1.
    9900012    2    1    2    0    0  0.14827140129E+02 -0.77228238678E+01 -0.84374725261E+01  0.72461627272E+02  0.70000074225E+02 0.  0.
        -12    1    1    2    0    0 -0.14827140129E+02  0.77228238678E+01  0.84374725261E+01  0.18726372728E+02  0.00000000000E+00 0.  1.
         11    1    3    3    0    0  0.69858224381E+00  0.11309124189E+01  0.19736873752E+01  0.23795844526E+01  0.51100000000E-03 0. -1.
        -11    1    3    3    0    0  0.45698556009E+01 -0.15994685973E+02  0.26501086172E+02  0.31289313322E+02  0.51100000000E-03 0.  1.
         12    1    3    3    0    0  0.95587022844E+01  0.71409496865E+01 -0.36912246073E+02  0.38792729498E+02  0.00000000000E+00 0. -1.
</event>
<event>
 7    1  0.1749439E-013  0.7246152E+02  0.7816164E-02  0.1226708E+00
        -11   -1    0    0    0    0  0.00000000000E+00  0.00000000000E+00  0.45593999997E+02  0.45594000000E+02  0.51100000000E-03 0. -1.
         11   -1    0    0    0    0 -0.00000000000E+00 -0.00000000000E+00 -0.45593999997E+02  0.45594000000E+02  0.51100000000E-03 0.  1.
    9900012    2    1    2    0    0  0.53801388663E+01  0.17361360899E+02  0.45075906279E+01  0.72461518223E+02  0.69999932168E+02 0.  0.
        -12    1    1    2    0    0 -0.53801388663E+01 -0.17361360899E+02 -0.45075906279E+01  0.18726481777E+02  0.00000000000E+00 0.  1.
         11    1    3    3    0    0  0.17536556819E+00  0.61929281185E+01  0.27590061768E+02  0.28277104173E+02  0.51100000000E-03 0. -1.
        -11    1    3    3    0    0  0.62688950333E+01 -0.77950032466E+00  0.83906973992E+01  0.10502879072E+02  0.51100000000E-03 0.  1.
        -12    1    3    3    0    0 -0.10641217352E+01  0.11947933105E+02 -0.31473168540E+02  0.33681534978E+02  0.00000000000E+00 0.  1.
</event>
<event>
 7    1  0.1749439E-013  0.7246152E+02  0.7816164E-02  0.1226708E+00
        -11   -1    0    0    0    0  0.00000000000E+00  0.00000000000E+00  0.45593999997E+02  0.45594000000E+02  0.51100000000E-03 0. -1.
         11   -1    0    0    0    0 -0.00000000000E+00 -0.00000000000E+00 -0.45593999997E+02  0.45594000000E+02  0.51100000000E-03 0.  1.
    9900012    2    1    2    0    0 -0.14223792289E+02 -0.12180249675E+02 -0.78256046975E-01  0.72461524805E+02  0.69999940742E+02 0.  0.
        -12    1    1    2    0    0  0.14223792289E+02  0.12180249675E+02  0.78256046975E-01  0.18726475195E+02  0.00000000000E+00 0.  1.
         11    1    3    3    0    0 -0.17830689356E+02  0.11421950201E+02  0.13151312623E+02  0.24926922259E+02  0.51100000000E-03 0. -1.
        -11    1    3    3    0    0  0.17813258569E+02 -0.43431230387E+01  0.30548797185E+01  0.18587823674E+02  0.51100000000E-03 0.  1.
        -12    1    3    3    0    0 -0.14206361502E+02 -0.19259076837E+02 -0.16284448389E+02  0.28946778872E+02  0.00000000000E+00 0.  1.
</event>
<event>
 7    1  0.1749439E-013  0.7246157E+02  0.7816164E-02  0.1226708E+00
        -11   -1    0    0    0    0  0.00000000000E+00  0.00000000000E+00  0.45593999997E+02  0.45594000000E+02  0.51100000000E-03 0.  1.
         11   -1    0    0    0    0 -0.00000000000E+00 -0.00000000000E+00 -0.45593999997E+02  0.45594000000E+02  0.51100000000E-03 0. -1.
    9900012    2    1    2    0    0 -0.79079721343E+01  0.14544025763E+02 -0.87529781776E+01  0.72461565859E+02  0.69999994222E+02 0.  0.
        -12    1    1    2    0    0  0.79079721343E+01 -0.14544025763E+02  0.87529781776E+01  0.18726434141E+02  0.00000000000E+00 0.  1.
         11    1    3    3    0    0  0.32559529857E+01  0.87352935422E+01  0.58937132895E+01  0.11029163147E+02  0.51100000000E-03 0. -1.
        -11    1    3    3    0    0  0.17410046709E+02  0.18265236093E+02 -0.16593568590E+02  0.30200581034E+02  0.51100000000E-03 0.  1.
         12    1    3    3    0    0 -0.28573971829E+02 -0.12456503873E+02  0.19468771230E+01  0.31231821679E+02  0.00000000000E+00 0. -1.
</event>
<event>
 7    1  0.1749439E-013  0.7246172E+02  0.7816164E-02  0.1226708E+00
        -11   -1    0    0    0    0  0.00000000000E+00  0.00000000000E+00  0.45593999997E+02  0.45594000000E+02  0.51100000000E-03 0. -1.
         11   -1    0    0    0    0 -0.00000000000E+00 -0.00000000000E+00 -0.45593999997E+02  0.45594000000E+02  0.51100000000E-03 0.  1.
    9900012    2    1    2    0    0 -0.77313726689E+01  0.59339556849E+01  0.15990230397E+02  0.72461723767E+02  0.70000199926E+02 0.  0.
        -12    1    1    2    0    0  0.77313726689E+01 -0.59339556849E+01 -0.15990230397E+02  0.18726276233E+02  0.00000000000E+00 0.  1.
         11    1    3    3    0    0 -0.15960425482E+02 -0.15877236516E+01  0.11172800176E+02  0.19547058909E+02  0.51100000000E-03 0. -1.
        -11    1    3    3    0    0 -0.45755332607E+01 -0.20284519171E+02  0.76828594145E+01  0.22168075056E+02  0.51100000000E-03 0.  1.
         12    1    3    3    0    0  0.12804586074E+02  0.27806198508E+02 -0.28654291938E+01  0.30746589802E+02  0.00000000000E+00 0. -1.
</event>
<event>
 7    1  0.1749439E-013  0.7246158E+02  0.7816164E-02  0.1226708E+00
        -11   -1    0    0    0    0  0.00000000000E+00  0.00000000000E+00  0.45593999997E+02  0.45594000000E+02  0.51100000000E-03 0.  1.
         11   -1    0    0    0    0 -0.00000000000E+00 -0.00000000000E+00 -0.45593999997E+02  0.45594000000E+02  0.51100000000E-03 0. -1.
    9900012    2    1    2    0    0  0.12889220939E+01  0.15475914096E+02 -0.10464867242E+02  0.72461583266E+02  0.70000016898E+02 0.  0.
        -12    1    1    2    0    0 -0.12889220939E+01 -0.15475914096E+02  0.10464867242E+02  0.18726416734E+02  0.00000000000E+00 0.  1.
         11    1    3    3    0    0  0.13632591025E+02  0.28083564400E+02  0.33379125978E+01  0.31395474008E+02  0.51100000000E-03 0. -1.
        -11    1    3    3    0    0  0.12016846935E+02 -0.59672515546E+01 -0.52514429659E+01  0.14407996213E+02  0.51100000000E-03 0.  1.
         12    1    3    3    0    0 -0.24360515866E+02 -0.66403987488E+01 -0.85513368743E+01  0.26658113045E+02  0.00000000000E+00 0. -1.
</event>
<event>
 7    1  0.1749439E-013  0.7246161E+02  0.7816164E-02  0.1226708E+00
        -11   -1    0    0    0    0  0.00000000000E+00  0.00000000000E+00  0.45593999997E+02  0.45594000000E+02  0.51100000000E-03 0.  1.
         11   -1    0    0    0    0 -0.00000000000E+00 -0.00000000000E+00 -0.45593999997E+02  0.45594000000E+02  0.51100000000E-03 0. -1.
    9900012    2    1    2    0    0  0.18439463673E+02  0.32564683625E+01 -0.24332323667E+00  0.72461611855E+02  0.70000054141E+02 0.  0.
        -12    1    1    2    0    0 -0.18439463673E+02 -0.32564683625E+01  0.24332323667E+00  0.18726388145E+02  0.00000000000E+00 0.  1.
         11    1    3    3    0    0 -0.50383363911E+01 -0.12864939862E+01  0.75894099235E+01  0.91999480224E+01  0.51100000000E-03 0. -1.
        -11    1    3    3    0    0  0.33877131195E+02  0.18542027933E+02  0.83039617310E+01  0.39502184731E+02  0.51100000000E-03 0.  1.
         12    1    3    3    0    0 -0.10399331130E+02 -0.13999065584E+02 -0.16136694891E+02  0.23759479102E+02  0.00000000000E+00 0. -1.
</event>
<event>
 7    1  0.1749439E-013  0.7246157E+02  0.7816164E-02  0.1226708E+00
        -11   -1    0    0    0    0  0.00000000000E+00  0.00000000000E+00  0.45593999997E+02  0.45594000000E+02  0.51100000000E-03 0. -1.
         11   -1    0    0    0    0 -0.00000000000E+00 -0.00000000000E+00 -0.45593999997E+02  0.45594000000E+02  0.51100000000E-03 0.  1.
    9900012    2    1    2    0    0  0.93676855493E+01 -0.10553097911E+02  0.12310878367E+02  0.72461571236E+02  0.70000001227E+02 0.  0.
        -12    1    1    2    0    0 -0.93676855493E+01  0.10553097911E+02 -0.12310878367E+02  0.18726428764E+02  0.00000000000E+00 0.  1.
         11    1    3    3    0    0  0.21177183043E+02 -0.14947417101E+02  0.56766287929E+01  0.26535306186E+02  0.51100000000E-03 0. -1.
        -11    1    3    3    0    0  0.38292181298E+01 -0.17546868954E+02  0.61309197489E+01  0.18977452379E+02  0.51100000000E-03 0.  1.
        -12    1    3    3    0    0 -0.15638715624E+02  0.21941188144E+02  0.50332982533E+00  0.26948812672E+02  0.00000000000E+00 0.  1.
</event>
<event>
 7    1  0.1749439E-013  0.7246149E+02  0.7816164E-02  0.1226708E+00
        -11   -1    0    0    0    0  0.00000000000E+00  0.00000000000E+00  0.45593999997E+02  0.45594000000E+02  0.51100000000E-03 0.  1.
         11   -1    0    0    0    0 -0.00000000000E+00 -0.00000000000E+00 -0.45593999997E+02  0.45594000000E+02  0.51100000000E-03 0. -1.
    9900012    2    1    2    0    0 -0.18270797133E+02 -0.16557157248E+01  0.37575122837E+01  0.72461486150E+02  0.69999890386E+02 0.  0.
        -12    1    1    2    0    0  0.18270797133E+02  0.16557157248E+01 -0.37575122837E+01  0.18726513850E+02  0.00000000000E+00 0.  1.
         11    1    3    3    0    0 -0.38673238994E+01 -0.13637835323E-02 -0.17851064494E+02  0.18265177246E+02  0.51100000000E-03 0. -1.
        -11    1    3    3    0    0 -0.22100837110E+02  0.17284029345E+02  0.65645762269E+01  0.28814550711E+02  0.51100000000E-03 0.  1.
         12    1    3    3    0    0  0.76973638769E+01 -0.18938381286E+02  0.15044000551E+02  0.25381758193E+02  0.00000000000E+00 0. -1.
</event>
<event>
 7    1  0.1749439E-013  0.7246156E+02  0.7816164E-02  0.1226708E+00
        -11   -1    0    0    0    0  0.00000000000E+00  0.00000000000E+00  0.45593999997E+02  0.45594000000E+02  0.51100000000E-03 0. -1.
         11   -1    0    0    0    0 -0.00000000000E+00 -0.00000000000E+00 -0.45593999997E+02  0.45594000000E+02  0.51100000000E-03 0.  1.
    9900012    2    1    2    0    0 -0.39376349792E+01  0.87707678505E+00  0.18286755049E+02  0.72461557649E+02  0.69999983527E+02 0.  0.
        -12    1    1    2    0    0  0.39376349792E+01 -0.87707678505E+00 -0.18286755049E+02  0.18726442351E+02  0.00000000000E+00 0.  1.
         11    1    3    3    0    0 -0.12567733608E+02 -0.81328912492E+01  0.81324797592E+01  0.17036110923E+02  0.51100000000E-03 0. -1.
        -11    1    3    3    0    0  0.18356705064E+02 -0.59933866820E+01 -0.15078298840E+02  0.24499885733E+02  0.51100000000E-03 0.  1.
         12    1    3    3    0    0 -0.97266064359E+01  0.15003354716E+02  0.25232574130E+02  0.30925560993E+02  0.00000000000E+00 0. -1.
</event>
<event>
 7    1  0.1749439E-013  0.7246183E+02  0.7816164E-02  0.1226707E+00
        -11   -1    0    0    0    0  0.00000000000E+00  0.00000000000E+00  0.45593999997E+02  0.45594000000E+02  0.51100000000E-03 0.  1.
         11   -1    0    0    0    0 -0.00000000000E+00 -0.00000000000E+00 -0.45593999997E+02  0.45594000000E+02  0.51100000000E-03 0. -1.
    9900012    2    1    2    0    0  0.13670763816E+02  0.12013440292E+02  0.44110018185E+01  0.72461829329E+02  0.70000337440E+02 0.  0.
        -12    1    1    2    0    0 -0.13670763816E+02 -0.12013440292E+02 -0.44110018185E+01  0.18726170671E+02  0.00000000000E+00 0.  1.
         11    1    3    3    0    0 -0.16240436805E+02 -0.38353359428E+01 -0.20830435511E+02  0.26690234792E+02  0.51100000000E-03 0. -1.
        -11    1    3    3    0    0  0.37396382503E+01  0.80774748935E+00 -0.26649930528E+01  0.46625677992E+01  0.51100000000E-03 0.  1.
        -12    1    3    3    0    0  0.26171562371E+02  0.15041028745E+02  0.27906430382E+02  0.41109026738E+02  0.00000000000E+00 0.  1.
</event>
<event>
 7    1  0.1749439E-013  0.7246158E+02  0.7816164E-02  0.1226708E+00
        -11   -1    0    0    0    0  0.00000000000E+00  0.00000000000E+00  0.45593999997E+02  0.45594000000E+02  0.51100000000E-03 0. -1.
         11   -1    0    0    0    0 -0.00000000000E+00 -0.00000000000E+00 -0.45593999997E+02  0.45594000000E+02  0.51100000000E-03 0.  1.
    9900012    2    1    2    0    0 -0.13318948276E+00 -0.30694292390E+01  0.18472671556E+02  0.72461582037E+02  0.70000015297E+02 0.  0.
        -12    1    1    2    0    0  0.13318948276E+00  0.30694292390E+01 -0.18472671556E+02  0.18726417963E+02  0.00000000000E+00 0.  1.
         11    1    3    3    0    0 -0.14341095706E+02  0.11683724479E+02  0.56173826713E+00  0.18506539220E+02  0.51100000000E-03 0. -1.
        -11    1    3    3    0    0  0.21238404212E+02  0.36471120825E+01  0.25013622204E+02  0.33015943665E+02  0.51100000000E-03 0.  1.
        -12    1    3    3    0    0 -0.70304979888E+01 -0.18400265800E+02 -0.71026889147E+01  0.20939099152E+02  0.00000000000E+00 0.  1.
</event>
<event>
 7    1  0.1749439E-013  0.7246146E+02  0.7816164E-02  0.1226708E+00
        -11   -1    0    0    0    0  0.00000000000E+00  0.00000000000E+00  0.45593999997E+02  0.45594000000E+02  0.51100000000E-03 0.  1.
         11   -1    0    0    0    0 -0.00000000000E+00 -0.00000000000E+00 -0.45593999997E+02  0.45594000000E+02  0.51100000000E-03 0. -1.
    9900012    2    1    2    0    0 -0.35460353272E+01  0.42298807696E+01 -0.17894614485E+02  0.72461455059E+02  0.69999849885E+02 0.  0.
        -12    1    1    2    0    0  0.35460353272E+01 -0.42298807696E+01  0.17894614485E+02  0.18726544941E+02  0.00000000000E+00 0.  1.
         11    1    3    3    0    0 -0.53216923526E+01  0.18801455925E+02  0.27080066771E+01  0.19726846043E+02  0.51100000000E-03 0. -1.
        -11    1    3    3    0    0  0.11065268003E+02 -0.77307730598E+01  0.12055891220E+02  0.18098329244E+02  0.51100000000E-03 0.  1.
        -12    1    3    3    0    0 -0.92896109776E+01 -0.68408020955E+01 -0.32658512382E+02  0.34636279771E+02  0.00000000000E+00 0.  1.
</event>
<event>
 7    1  0.1749439E-013  0.7246157E+02  0.7816164E-02  0.1226708E+00
        -11   -1    0    0    0    0  0.00000000000E+00  0.00000000000E+00  0.45593999997E+02  0.45594000000E+02  0.51100000000E-03 0.  1.
         11   -1    0    0    0    0 -0.00000000000E+00 -0.00000000000E+00 -0.45593999997E+02  0.45594000000E+02  0.51100000000E-03 0. -1.
    9900012    2    1    2    0    0 -0.14050008631E+02 -0.56680042811E+01  0.11006819765E+02  0.72461572247E+02  0.70000002544E+02 0.  0.
        -12    1    1    2    0    0  0.14050008631E+02  0.56680042811E+01 -0.11006819765E+02  0.18726427753E+02  0.00000000000E+00 0.  1.
         11    1    3    3    0    0  0.32789469613E+01 -0.10816056958E+01  0.29067576168E+01  0.45133805690E+01  0.51100000000E-03 0.  1.
        -11    1    3    3    0    0  0.22069632503E+01 -0.69992561487E+01 -0.26850636241E+02  0.27835533769E+02  0.51100000000E-03 0. -1.
         12    1    3    3    0    0 -0.19535918842E+02  0.24128575633E+01  0.34950698389E+02  0.40112657909E+02  0.00000000000E+00 0. -1.
</event>
<event>
 7    1  0.1749439E-013  0.7246141E+02  0.7816164E-02  0.1226708E+00
        -11   -1    0    0    0    0  0.00000000000E+00  0.00000000000E+00  0.45593999997E+02  0.45594000000E+02  0.51100000000E-03 0.  1.
         11   -1    0    0    0    0 -0.00000000000E+00 -0.00000000000E+00 -0.45593999997E+02  0.45594000000E+02  0.51100000000E-03 0. -1.
    9900012    2    1    2    0    0 -0.22573323628E+01 -0.18535343988E+02 -0.14249438184E+01  0.72461414859E+02  0.69999797517E+02 0.  0.
        -12    1    1    2    0    0  0.22573323628E+01  0.18535343988E+02  0.14249438184E+01  0.18726585141E+02  0.00000000000E+00 0.  1.
         11    1    3    3    0    0 -0.13806957178E+02 -0.93112129233E+01 -0.19604616854E+02  0.25722981065E+02  0.51100000000E-03 0. -1.
        -11    1    3    3    0    0  0.15316946417E+02 -0.14347427996E+02 -0.59262915509E+01  0.21807761679E+02  0.51100000000E-03 0.  1.
        -12    1    3    3    0    0 -0.37673216016E+01  0.51232969318E+01  0.24105964586E+02  0.24930672116E+02  0.00000000000E+00 0.  1.
</event>
<event>
 7    1  0.1749439E-013  0.7246165E+02  0.7816164E-02  0.1226708E+00
        -11   -1    0    0    0    0  0.00000000000E+00  0.00000000000E+00  0.45593999997E+02  0.45594000000E+02  0.51100000000E-03 0.  1.
         11   -1    0    0    0    0 -0.00000000000E+00 -0.00000000000E+00 -0.45593999997E+02  0.45594000000E+02  0.51100000000E-03 0. -1.
    9900012    2    1    2    0    0 -0.15424284983E+02  0.10249882639E+02  0.27762694994E+01  0.72461646012E+02  0.70000098636E+02 0.  0.
        -12    1    1    2    0    0  0.15424284983E+02 -0.10249882639E+02 -0.27762694994E+01  0.18726353988E+02  0.00000000000E+00 0.  1.
         11    1    3    3    0    0 -0.46874344866E+01 -0.10931358367E+01 -0.31105726319E+02  0.31475914571E+02  0.51100000000E-03 0. -1.
        -11    1    3    3    0    0 -0.13361117694E+02  0.67615495186E+01  0.14304798153E+02  0.20709062470E+02  0.51100000000E-03 0.  1.
        -12    1    3    3    0    0  0.26242671976E+01  0.45814689567E+01  0.19577197665E+02  0.20276668970E+02  0.00000000000E+00 0.  1.
</event>
<event>
 7    1  0.1749439E-013  0.7246153E+02  0.7816164E-02  0.1226708E+00
        -11   -1    0    0    0    0  0.00000000000E+00  0.00000000000E+00  0.45593999997E+02  0.45594000000E+02  0.51100000000E-03 0. -1.
         11   -1    0    0    0    0 -0.00000000000E+00 -0.00000000000E+00 -0.45593999997E+02  0.45594000000E+02  0.51100000000E-03 0.  1.
    9900012    2    1    2    0    0 -0.12820597468E+02  0.13495314505E+02 -0.20467780981E+01  0.72461533873E+02  0.69999952554E+02 0.  0.
        -12    1    1    2    0    0  0.12820597468E+02 -0.13495314505E+02  0.20467780981E+01  0.18726466127E+02  0.00000000000E+00 0.  1.
         11    1    3    3    0    0  0.88681534512E+01  0.68527743967E+01 -0.16983225809E+02  0.20347840714E+02  0.51100000000E-03 0. -1.
        -11    1    3    3    0    0  0.89203401841E+01 -0.63753783613E+00 -0.89183288785E+01  0.12629945120E+02  0.51100000000E-03 0.  1.
         12    1    3    3    0    0 -0.30609091103E+02  0.72800779449E+01  0.23854776590E+02  0.39483748039E+02  0.00000000000E+00 0. -1.
</event>
<event>
 7    1  0.1749439E-013  0.7246158E+02  0.7816164E-02  0.1226708E+00
        -11   -1    0    0    0    0  0.00000000000E+00  0.00000000000E+00  0.45593999997E+02  0.45594000000E+02  0.51100000000E-03 0.  1.
         11   -1    0    0    0    0 -0.00000000000E+00 -0.00000000000E+00 -0.45593999997E+02  0.45594000000E+02  0.51100000000E-03 0. -1.
    9900012    2    1    2    0    0  0.56399336304E+01  0.12056117027E+02  0.13172702963E+02  0.72461577158E+02  0.70000008941E+02 0.  0.
        -12    1    1    2    0    0 -0.56399336304E+01 -0.12056117027E+02 -0.13172702963E+02  0.18726422842E+02  0.00000000000E+00 0.  1.
         11    1    3    3    0    0  0.90832219696E+01  0.75934765870E+01  0.41146012999E+01  0.12533784430E+02  0.51100000000E-03 0. -1.
        -11    1    3    3    0    0  0.13037683024E+02  0.24560640271E+02 -0.78834511301E+01  0.28902509081E+02  0.51100000000E-03 0.  1.
        -12    1    3    3    0    0 -0.16480971363E+02 -0.20097999831E+02  0.16941552793E+02  0.31025283646E+02  0.00000000000E+00 0.  1.
</event>
<event>
 7    1  0.1749439E-013  0.7246127E+02  0.7816164E-02  0.1226709E+00
        -11   -1    0    0    0    0  0.00000000000E+00  0.00000000000E+00  0.45593999997E+02  0.45594000000E+02  0.51100000000E-03 0. -1.
         11   -1    0    0    0    0 -0.00000000000E+00 -0.00000000000E+00 -0.45593999997E+02  0.45594000000E+02  0.51100000000E-03 0.  1.
    9900012    2    1    2    0    0  0.11182110961E+02  0.91650380305E+01  0.11901803452E+02  0.72461269024E+02  0.69999607538E+02 0.  0.
        -12    1    1    2    0    0 -0.11182110961E+02 -0.91650380305E+01 -0.11901803452E+02  0.18726730976E+02  0.00000000000E+00 0.  1.
         11    1    3    3    0    0 -0.13846285550E+02  0.18053226786E+02  0.71166203376E+01  0.23838727025E+02  0.51100000000E-03 0. -1.
        -11    1    3    3    0    0  0.76967499339E+01  0.14606574293E+02 -0.59000926677E+01  0.17532913787E+02  0.51100000000E-03 0.  1.
        -12    1    3    3    0    0  0.17331646577E+02 -0.23494763048E+02  0.10685275782E+02  0.31089628211E+02  0.00000000000E+00 0.  1.
</event>
<event>
 7    1  0.1749439E-013  0.7246160E+02  0.7816164E-02  0.1226708E+00
        -11   -1    0    0    0    0  0.00000000000E+00  0.00000000000E+00  0.45593999997E+02  0.45594000000E+02  0.51100000000E-03 0.  1.
         11   -1    0    0    0    0 -0.00000000000E+00 -0.00000000000E+00 -0.45593999997E+02  0.45594000000E+02  0.51100000000E-03 0. -1.
    9900012    2    1    2    0    0  0.14965694693E+02  0.20892754334E+01  0.11060786169E+02  0.72461599381E+02  0.70000037890E+02 0.  0.
        -12    1    1    2    0    0 -0.14965694693E+02 -0.20892754334E+01 -0.11060786169E+02  0.18726400619E+02  0.00000000000E+00 0.  1.
         11    1    3    3    0    0  0.23711205456E+02  0.80857379326E+01 -0.20958306436E+02  0.32662685607E+02  0.51100000000E-03 0. -1.
        -11    1    3    3    0    0 -0.52732011953E+01 -0.48545132327E+01 -0.39595859468E+00  0.71784213475E+01  0.51100000000E-03 0.  1.
        -12    1    3    3    0    0 -0.34723095681E+01 -0.11419492664E+01  0.32415051200E+02  0.32620492426E+02  0.00000000000E+00 0.  1.
</event>
<event>
 7    1  0.1749439E-013  0.7246159E+02  0.7816164E-02  0.1226708E+00
        -11   -1    0    0    0    0  0.00000000000E+00  0.00000000000E+00  0.45593999997E+02  0.45594000000E+02  0.51100000000E-03 0. -1.
         11   -1    0    0    0    0 -0.00000000000E+00 -0.00000000000E+00 -0.45593999997E+02  0.45594000000E+02  0.51100000000E-03 0.  1.
    9900012    2    1    2    0    0 -0.14421982588E+02 -0.11791148662E+02 -0.19115016944E+01  0.72461585306E+02  0.70000019556E+02 0.  0.
        -12    1    1    2    0    0  0.14421982588E+02  0.11791148662E+02  0.19115016944E+01  0.18726414694E+02  0.00000000000E+00 0.  1.
         11    1    3    3    0    0  0.80037081236E+01 -0.31432042780E+02  0.45379411348E+00  0.32438227239E+02  0.51100000000E-03 0. -1.
        -11    1    3    3    0    0 -0.41876359206E+01  0.14198385415E+02 -0.11658609482E+02  0.18842866510E+02  0.51100000000E-03 0.  1.
         12    1    3    3    0    0 -0.18238054791E+02  0.54425087035E+01  0.92933136746E+01  0.21180491557E+02  0.00000000000E+00 0. -1.
</event>
<event>
 7    1  0.1749439E-013  0.7246157E+02  0.7816164E-02  0.1226708E+00
        -11   -1    0    0    0    0  0.00000000000E+00  0.00000000000E+00  0.45593999997E+02  0.45594000000E+02  0.51100000000E-03 0.  1.
         11   -1    0    0    0    0 -0.00000000000E+00 -0.00000000000E+00 -0.45593999997E+02  0.45594000000E+02  0.51100000000E-03 0. -1.
    9900012    2    1    2    0    0  0.14458115548E+02  0.70874016373E+01 -0.95609059736E+01  0.72461567072E+02  0.69999995802E+02 0.  0.
        -12    1    1    2    0    0 -0.14458115548E+02 -0.70874016373E+01  0.95609059736E+01  0.18726432928E+02  0.00000000000E+00 0.  1.
         11    1    3    3    0    0  0.22584863100E+01  0.20695222444E+02 -0.29095649553E+02  0.35776386285E+02  0.51100000000E-03 0. -1.
        -11    1    3    3    0    0  0.10392908127E+02  0.40551306698E+01  0.14373934895E+02  0.18195236430E+02  0.51100000000E-03 0.  1.
        -12    1    3    3    0    0  0.18067211113E+01 -0.17662951477E+02  0.51608086842E+01  0.18489944357E+02  0.00000000000E+00 0.  1.
</event>
<event>
 7    1  0.1749439E-013  0.7246166E+02  0.7816164E-02  0.1226708E+00
        -11   -1    0    0    0    0  0.00000000000E+00  0.00000000000E+00  0.45593999997E+02  0.45594000000E+02  0.51100000000E-03 0.  1.
         11   -1    0    0    0    0 -0.00000000000E+00 -0.00000000000E+00 -0.45593999997E+02  0.45594000000E+02  0.51100000000E-03 0. -1.
    9900012    2    1    2    0    0  0.17536683279E+02  0.31337905843E+01 -0.57723532072E+01  0.72461655845E+02  0.70000111446E+02 0.  0.
        -12    1    1    2    0    0 -0.17536683279E+02 -0.31337905843E+01  0.57723532072E+01  0.18726344155E+02  0.00000000000E+00 0.  1.
         11    1    3    3    0    0 -0.34447838588E+00 -0.74151904971E+01 -0.57491879841E+01  0.93891894327E+01  0.51100000000E-03 0. -1.
        -11    1    3    3    0    0  0.74627985462E+01  0.91955616305E+01  0.29471837849E+02  0.31762256568E+02  0.51100000000E-03 0.  1.
         12    1    3    3    0    0  0.10418363119E+02  0.13534194509E+01 -0.29495003072E+02  0.31310209844E+02  0.00000000000E+00 0. -1.
</event>
<event>
 7    1  0.1749439E-013  0.7246157E+02  0.7816164E-02  0.1226708E+00
        -11   -1    0    0    0    0  0.00000000000E+00  0.00000000000E+00  0.45593999997E+02  0.45594000000E+02  0.51100000000E-03 0.  1.
         11   -1    0    0    0    0 -0.00000000000E+00 -0.00000000000E+00 -0.45593999997E+02  0.45594000000E+02  0.51100000000E-03 0. -1.
    9900012    2    1    2    0    0  0.87039067651E+01  0.14232229655E+02 -0.85067475252E+01  0.72461571953E+02  0.70000002161E+02 0.  0.
        -12    1    1    2    0    0 -0.87039067651E+01 -0.14232229655E+02  0.85067475252E+01  0.18726428047E+02  0.00000000000E+00 0.  1.
         11    1    3    3    0    0 -0.87841131963E+01 -0.84806030727E+00 -0.11482429939E+02  0.14481921437E+02  0.51100000000E-03 0. -1.
        -11    1    3    3    0    0  0.20875999776E+01 -0.19346215799E+02 -0.33317485283E+01  0.19741699216E+02  0.51100000000E-03 0.  1.
         12    1    3    3    0    0  0.15400419984E+02  0.34426505761E+02  0.63074309421E+01  0.38237951301E+02  0.00000000000E+00 0. -1.
</event>
<event>
 7    1  0.1749439E-013  0.7246161E+02  0.7816164E-02  0.1226708E+00
        -11   -1    0    0    0    0  0.00000000000E+00  0.00000000000E+00  0.45593999997E+02  0.45594000000E+02  0.51100000000E-03 0. -1.
         11   -1    0    0    0    0 -0.00000000000E+00 -0.00000000000E+00 -0.45593999997E+02  0.45594000000E+02  0.51100000000E-03 0.  1.
    9900012    2    1    2    0    0 -0.94787850257E+01  0.15646810021E+02 -0.40009729312E+01  0.72461606493E+02  0.70000047155E+02 0.  0.
        -12    1    1    2    0    0  0.94787850257E+01 -0.15646810021E+02  0.40009729312E+01  0.18726393507E+02  0.00000000000E+00 0.  1.
         11    1    3    3    0    0  0.13813539321E+02  0.44026824216E+01  0.80085630850E+01  0.16563048151E+02  0.51100000000E-03 0. -1.
        -11    1    3    3    0    0 -0.33937838432E+01 -0.18480632544E+02 -0.32109586472E+01  0.19062051403E+02  0.51100000000E-03 0.  1.
        -12    1    3    3    0    0 -0.19898540504E+02  0.29724760143E+02 -0.87985773690E+01  0.36836506939E+02  0.00000000000E+00 0.  1.
</event>
<event>
 7    1  0.1749439E-013  0.7246158E+02  0.7816164E-02  0.1226708E+00
        -11   -1    0    0    0    0  0.00000000000E+00  0.00000000000E+00  0.45593999997E+02  0.45594000000E+02  0.51100000000E-03 0. -1.
         11   -1    0    0    0    0 -0.00000000000E+00 -0.00000000000E+00 -0.45593999997E+02  0.45594000000E+02  0.51100000000E-03 0.  1.
    9900012    2    1    2    0    0 -0.88400601654E+01 -0.16503855055E+02 -0.39370568138E+00  0.72461577502E+02  0.70000009390E+02 0.  0.
        -12    1    1    2    0    0  0.88400601654E+01  0.16503855055E+02  0.39370568138E+00  0.18726422498E+02  0.00000000000E+00 0.  1.
         11    1    3    3    0    0  0.22600446871E+01 -0.22371464629E+01 -0.15080217847E+02  0.15411865457E+02  0.51100000000E-03 0. -1.
        -11    1    3    3    0    0  0.17078353501E+02  0.61476402066E+01 -0.23573273211E+01  0.18303568799E+02  0.51100000000E-03 0.  1.
         12    1    3    3    0    0 -0.28178458354E+02 -0.20414348798E+02  0.17043839486E+02  0.38746143247E+02  0.00000000000E+00 0. -1.
</event>
<event>
 7    1  0.1749439E-013  0.7246152E+02  0.7816164E-02  0.1226708E+00
        -11   -1    0    0    0    0  0.00000000000E+00  0.00000000000E+00  0.45593999997E+02  0.45594000000E+02  0.51100000000E-03 0. -1.
         11   -1    0    0    0    0 -0.00000000000E+00 -0.00000000000E+00 -0.45593999997E+02  0.45594000000E+02  0.51100000000E-03 0.  1.
    9900012    2    1    2    0    0 -0.31205013998E+01  0.11761788858E+02  0.14233895026E+02  0.72461522121E+02  0.69999937245E+02 0.  0.
        -12    1    1    2    0    0  0.31205013998E+01 -0.11761788858E+02 -0.14233895026E+02  0.18726477879E+02  0.00000000000E+00 0.  1.
         11    1    3    3    0    0  0.91627516358E+01 -0.18044863420E+02  0.24832010454E+02  0.32034385539E+02  0.51100000000E-03 0. -1.
        -11    1    3    3    0    0  0.56397017011E+01  0.27583841567E+01  0.46221200050E-01  0.62783003348E+01  0.51100000000E-03 0.  1.
        -12    1    3    3    0    0 -0.17922954737E+02  0.27048268121E+02 -0.10644336628E+02  0.34148836248E+02  0.00000000000E+00 0.  1.
</event>
<event>
 7    1  0.1749439E-013  0.7246156E+02  0.7816164E-02  0.1226708E+00
        -11   -1    0    0    0    0  0.00000000000E+00  0.00000000000E+00  0.45593999997E+02  0.45594000000E+02  0.51100000000E-03 0.  1.
         11   -1    0    0    0    0 -0.00000000000E+00 -0.00000000000E+00 -0.45593999997E+02  0.45594000000E+02  0.51100000000E-03 0. -1.
    9900012    2    1    2    0    0  0.39269812371E+00  0.34161009146E+01 -0.18408031476E+02  0.72461559332E+02  0.69999985719E+02 0.  0.
        -12    1    1    2    0    0 -0.39269812371E+00 -0.34161009146E+01  0.18408031476E+02  0.18726440668E+02  0.00000000000E+00 0.  1.
         11    1    3    3    0    0  0.82033679796E+01 -0.12673861662E+02  0.11466392048E+02  0.18957852265E+02  0.51100000000E-03 0. -1.
        -11    1    3    3    0    0 -0.18478886620E+01  0.11457215275E+02  0.85052702940E+01  0.14388262487E+02  0.51100000000E-03 0.  1.
         12    1    3    3    0    0 -0.59627811939E+01  0.46327473011E+01 -0.38379693818E+02  0.39115444580E+02  0.00000000000E+00 0. -1.
</event>
<event>
 7    1  0.1749439E-013  0.7246154E+02  0.7816164E-02  0.1226708E+00
        -11   -1    0    0    0    0  0.00000000000E+00  0.00000000000E+00  0.45593999997E+02  0.45594000000E+02  0.51100000000E-03 0.  1.
         11   -1    0    0    0    0 -0.00000000000E+00 -0.00000000000E+00 -0.45593999997E+02  0.45594000000E+02  0.51100000000E-03 0. -1.
    9900012    2    1    2    0    0  0.15928938778E+02 -0.87838388036E+01 -0.44489737407E+01  0.72461540589E+02  0.69999961303E+02 0.  0.
        -12    1    1    2    0    0 -0.15928938778E+02  0.87838388036E+01  0.44489737407E+01  0.18726459411E+02  0.00000000000E+00 0.  1.
         11    1    3    3    0    0  0.13638291098E+02 -0.16876094799E+02  0.22181907815E+02  0.31029705031E+02  0.51100000000E-03 0. -1.
        -11    1    3    3    0    0 -0.89834898561E+01  0.13243629232E+02 -0.54777992867E+01  0.16914582186E+02  0.51100000000E-03 0.  1.
         12    1    3    3    0    0  0.11274137536E+02 -0.51513732369E+01 -0.21153082269E+02  0.24517253372E+02  0.00000000000E+00 0. -1.
</event>
<event>
 7    1  0.1749439E-013  0.7246160E+02  0.7816164E-02  0.1226708E+00
        -11   -1    0    0    0    0  0.00000000000E+00  0.00000000000E+00  0.45593999997E+02  0.45594000000E+02  0.51100000000E-03 0.  1.
         11   -1    0    0    0    0 -0.00000000000E+00 -0.00000000000E+00 -0.45593999997E+02  0.45594000000E+02  0.51100000000E-03 0. -1.
    9900012    2    1    2    0    0  0.13421936295E+02  0.12037595397E+02  0.50622088573E+01  0.72461600577E+02  0.70000039449E+02 0.  0.
        -12    1    1    2    0    0 -0.13421936295E+02 -0.12037595397E+02 -0.50622088573E+01  0.18726399423E+02  0.00000000000E+00 0.  1.
         11    1    3    3    0    0 -0.10787238693E+02  0.17939342834E+02  0.14839950281E+02  0.25659475141E+02  0.51100000000E-03 0. -1.
        -11    1    3    3    0    0  0.21507422541E+01  0.10493946500E+02 -0.15389544326E+02  0.18750644795E+02  0.51100000000E-03 0.  1.
        -12    1    3    3    0    0  0.22058432733E+02 -0.16395693937E+02  0.56118029028E+01  0.28051480641E+02  0.00000000000E+00 0.  1.
</event>
<event>
 7    1  0.1749439E-013  0.7246169E+02  0.7816164E-02  0.1226708E+00
        -11   -1    0    0    0    0  0.00000000000E+00  0.00000000000E+00  0.45593999997E+02  0.45594000000E+02  0.51100000000E-03 0.  1.
         11   -1    0    0    0    0 -0.00000000000E+00 -0.00000000000E+00 -0.45593999997E+02  0.45594000000E+02  0.51100000000E-03 0. -1.
    9900012    2    1    2    0    0  0.11056368254E+02  0.21310365510E+01 -0.14962960242E+02  0.72461687631E+02  0.70000152852E+02 0.  0.
        -12    1    1    2    0    0 -0.11056368254E+02 -0.21310365510E+01  0.14962960242E+02  0.18726312369E+02  0.00000000000E+00 0.  1.
         11    1    3    3    0    0 -0.11050600632E+02 -0.42878971773E+01 -0.18467745667E+02  0.21944463238E+02  0.51100000000E-03 0.  1.
        -11    1    3    3    0    0 -0.11889640208E+02  0.10592267087E+02 -0.10789661339E+01  0.15960070003E+02  0.51100000000E-03 0. -1.
        -12    1    3    3    0    0  0.33996609094E+02 -0.41733333583E+01  0.45837515584E+01  0.34557154390E+02  0.00000000000E+00 0.  1.
</event>
<event>
 7    1  0.1749439E-013  0.7246151E+02  0.7816164E-02  0.1226708E+00
        -11   -1    0    0    0    0  0.00000000000E+00  0.00000000000E+00  0.45593999997E+02  0.45594000000E+02  0.51100000000E-03 0. -1.
         11   -1    0    0    0    0 -0.00000000000E+00 -0.00000000000E+00 -0.45593999997E+02  0.45594000000E+02  0.51100000000E-03 0.  1.
    9900012    2    1    2    0    0 -0.13781890421E+02  0.80624321622E+01  0.97845833053E+01  0.72461511103E+02  0.69999922892E+02 0.  0.
        -12    1    1    2    0    0  0.13781890421E+02 -0.80624321622E+01 -0.97845833053E+01  0.18726488897E+02  0.00000000000E+00 0.  1.
         11    1    3    3    0    0 -0.33561615863E+02 -0.78752626469E+00  0.15344328538E+02  0.36911389510E+02  0.51100000000E-03 0. -1.
        -11    1    3    3    0    0 -0.53206656299E+01 -0.37182098445E+01 -0.35711933338E+01  0.74086428772E+01  0.51100000000E-03 0.  1.
         12    1    3    3    0    0  0.25100391072E+02  0.12568168271E+02 -0.19885518992E+01  0.28141478716E+02  0.00000000000E+00 0. -1.
</event>
<event>
 7    1  0.1749439E-013  0.7246162E+02  0.7816164E-02  0.1226708E+00
        -11   -1    0    0    0    0  0.00000000000E+00  0.00000000000E+00  0.45593999997E+02  0.45594000000E+02  0.51100000000E-03 0. -1.
         11   -1    0    0    0    0 -0.00000000000E+00 -0.00000000000E+00 -0.45593999997E+02  0.45594000000E+02  0.51100000000E-03 0.  1.
    9900012    2    1    2    0    0  0.18043020423E+02 -0.50028516291E+01  0.31365021018E+00  0.72461615222E+02  0.70000058526E+02 0.  0.
        -12    1    1    2    0    0 -0.18043020423E+02  0.50028516291E+01 -0.31365021018E+00  0.18726384778E+02  0.00000000000E+00 0.  1.
         11    1    3    3    0    0 -0.26585777070E+01  0.16942434959E+02  0.10051978347E+02  0.19878541363E+02  0.51100000000E-03 0.  1.
        -11    1    3    3    0    0  0.94622718031E+01 -0.23014538801E+02  0.12347501649E+02  0.27778847729E+02  0.51100000000E-03 0. -1.
        -12    1    3    3    0    0  0.11239326327E+02  0.10692522133E+01 -0.22085829786E+02  0.24804226130E+02  0.00000000000E+00 0.  1.
</event>
<event>
 7    1  0.1749439E-013  0.7246171E+02  0.7816164E-02  0.1226708E+00
        -11   -1    0    0    0    0  0.00000000000E+00  0.00000000000E+00  0.45593999997E+02  0.45594000000E+02  0.51100000000E-03 0. -1.
         11   -1    0    0    0    0 -0.00000000000E+00 -0.00000000000E+00 -0.45593999997E+02  0.45594000000E+02  0.51100000000E-03 0.  1.
    9900012    2    1    2    0    0  0.16546955703E+02 -0.83141280928E+01 -0.27834504121E+01  0.72461706582E+02  0.70000177540E+02 0.  0.
        -12    1    1    2    0    0 -0.16546955703E+02  0.83141280928E+01  0.27834504121E+01  0.18726293418E+02  0.00000000000E+00 0.  1.
         11    1    3    3    0    0 -0.16491553063E+02  0.97455474837E+01  0.39994745963E+01  0.19568924740E+02  0.51100000000E-03 0. -1.
        -11    1    3    3    0    0 -0.27673695346E+01 -0.58461389960E+01  0.96737046509E+01  0.11636848252E+02  0.51100000000E-03 0.  1.
        -12    1    3    3    0    0  0.35805878300E+02 -0.12213536580E+02 -0.16456629659E+02  0.41255933590E+02  0.00000000000E+00 0.  1.
</event>
<event>
 7    1  0.1749439E-013  0.7246170E+02  0.7816164E-02  0.1226708E+00
        -11   -1    0    0    0    0  0.00000000000E+00  0.00000000000E+00  0.45593999997E+02  0.45594000000E+02  0.51100000000E-03 0. -1.
         11   -1    0    0    0    0 -0.00000000000E+00 -0.00000000000E+00 -0.45593999997E+02  0.45594000000E+02  0.51100000000E-03 0.  1.
    9900012    2    1    2    0    0 -0.11935582872E+02  0.13303704909E+02  0.55881708546E+01  0.72461698809E+02  0.70000167414E+02 0.  0.
        -12    1    1    2    0    0  0.11935582872E+02 -0.13303704909E+02 -0.55881708546E+01  0.18726301191E+02  0.00000000000E+00 0.  1.
         11    1    3    3    0    0  0.95569912440E+01 -0.15037106839E+01  0.15992929678E+02  0.18691469375E+02  0.51100000000E-03 0. -1.
        -11    1    3    3    0    0  0.12923769703E+02  0.16699454362E+01  0.48412696174E+01  0.13901454344E+02  0.51100000000E-03 0.  1.
        -12    1    3    3    0    0 -0.34416343819E+02  0.13137470157E+02 -0.15246028440E+02  0.39868775090E+02  0.00000000000E+00 0.  1.
</event>
<event>
 7    1  0.1749439E-013  0.7246161E+02  0.7816164E-02  0.1226708E+00
        -11   -1    0    0    0    0  0.00000000000E+00  0.00000000000E+00  0.45593999997E+02  0.45594000000E+02  0.51100000000E-03 0.  1.
         11   -1    0    0    0    0 -0.00000000000E+00 -0.00000000000E+00 -0.45593999997E+02  0.45594000000E+02  0.51100000000E-03 0. -1.
    9900012    2    1    2    0    0  0.81752371300E+01  0.29876022903E+01 -0.16580637463E+02  0.72461606640E+02  0.70000047348E+02 0.  0.
        -12    1    1    2    0    0 -0.81752371300E+01 -0.29876022903E+01  0.16580637463E+02  0.18726393360E+02  0.00000000000E+00 0.  1.
         11    1    3    3    0    0  0.13827405569E+02 -0.12735487895E+02 -0.12300695451E+00  0.18799067202E+02  0.51100000000E-03 0. -1.
        -11    1    3    3    0    0  0.19548245044E+02  0.15922460265E+02 -0.12539957375E+02  0.28158642660E+02  0.51100000000E-03 0.  1.
         12    1    3    3    0    0 -0.25200413483E+02 -0.19937008026E+00 -0.39176731335E+01  0.25503896779E+02  0.00000000000E+00 0. -1.
</event>
<event>
 7    1  0.1749439E-013  0.7246160E+02  0.7816164E-02  0.1226708E+00
        -11   -1    0    0    0    0  0.00000000000E+00  0.00000000000E+00  0.45593999997E+02  0.45594000000E+02  0.51100000000E-03 0.  1.
         11   -1    0    0    0    0 -0.00000000000E+00 -0.00000000000E+00 -0.45593999997E+02  0.45594000000E+02  0.51100000000E-03 0. -1.
    9900012    2    1    2    0    0  0.14571283579E+02  0.32641070513E+01 -0.11300500054E+02  0.72461601482E+02  0.70000040628E+02 0.  0.
        -12    1    1    2    0    0 -0.14571283579E+02 -0.32641070513E+01  0.11300500054E+02  0.18726398518E+02  0.00000000000E+00 0.  1.
         11    1    3    3    0    0  0.13928123136E+02  0.44354271463E+00 -0.25804373769E+02  0.29326695178E+02  0.51100000000E-03 0. -1.
        -11    1    3    3    0    0 -0.15741213009E+02  0.10853670395E+02 -0.10622728651E+01  0.19149839998E+02  0.51100000000E-03 0.  1.
        -12    1    3    3    0    0  0.16384373452E+02 -0.80331060583E+01  0.15566146580E+02  0.23985066306E+02  0.00000000000E+00 0.  1.
</event>
<event>
 7    1  0.1749439E-013  0.7246156E+02  0.7816164E-02  0.1226708E+00
        -11   -1    0    0    0    0  0.00000000000E+00  0.00000000000E+00  0.45593999997E+02  0.45594000000E+02  0.51100000000E-03 0. -1.
         11   -1    0    0    0    0 -0.00000000000E+00 -0.00000000000E+00 -0.45593999997E+02  0.45594000000E+02  0.51100000000E-03 0.  1.
    9900012    2    1    2    0    0  0.29486828205E+01 -0.16199556101E+02  0.89195935883E+01  0.72461561523E+02  0.69999988574E+02 0.  0.
        -12    1    1    2    0    0 -0.29486828205E+01  0.16199556101E+02 -0.89195935883E+01  0.18726438477E+02  0.00000000000E+00 0.  1.
         11    1    3    3    0    0 -0.12468197863E+01 -0.78504848933E+01 -0.77358181801E+01  0.11091778749E+02  0.51100000000E-03 0. -1.
        -11    1    3    3    0    0 -0.19630401144E+02 -0.13372991637E+02 -0.95474144039E+01  0.25599661647E+02  0.51100000000E-03 0.  1.
         12    1    3    3    0    0  0.23825903751E+02  0.50239204298E+01  0.26202826172E+02  0.35770121127E+02  0.00000000000E+00 0. -1.
</event>
<event>
 7    1  0.1749439E-013  0.7246158E+02  0.7816164E-02  0.1226708E+00
        -11   -1    0    0    0    0  0.00000000000E+00  0.00000000000E+00  0.45593999997E+02  0.45594000000E+02  0.51100000000E-03 0. -1.
         11   -1    0    0    0    0 -0.00000000000E+00 -0.00000000000E+00 -0.45593999997E+02  0.45594000000E+02  0.51100000000E-03 0.  1.
    9900012    2    1    2    0    0 -0.17106927249E+02  0.58382505916E+01  0.48935303623E+01  0.72461580981E+02  0.70000013922E+02 0.  0.
        -12    1    1    2    0    0  0.17106927249E+02 -0.58382505916E+01 -0.48935303623E+01  0.18726419019E+02  0.00000000000E+00 0.  1.
         11    1    3    3    0    0 -0.90119323918E+01  0.36500241747E+01  0.12332190839E+01  0.98009403365E+01  0.51100000000E-03 0. -1.
        -11    1    3    3    0    0 -0.31136271491E+02 -0.12098138769E+02  0.99014238780E+01  0.34840645216E+02  0.51100000000E-03 0.  1.
         12    1    3    3    0    0  0.23041276634E+02  0.14286365185E+02 -0.62411125996E+01  0.27819995428E+02  0.00000000000E+00 0. -1.
</event>
<event>
 7    1  0.1749439E-013  0.7246162E+02  0.7816164E-02  0.1226708E+00
        -11   -1    0    0    0    0  0.00000000000E+00  0.00000000000E+00  0.45593999997E+02  0.45594000000E+02  0.51100000000E-03 0. -1.
         11   -1    0    0    0    0 -0.00000000000E+00 -0.00000000000E+00 -0.45593999997E+02  0.45594000000E+02  0.51100000000E-03 0.  1.
    9900012    2    1    2    0    0 -0.98897882696E+01  0.14754197900E+02  0.59315430414E+01  0.72461615657E+02  0.70000059094E+02 0.  0.
        -12    1    1    2    0    0  0.98897882696E+01 -0.14754197900E+02 -0.59315430414E+01  0.18726384343E+02  0.00000000000E+00 0.  1.
         11    1    3    3    0    0  0.80767017972E+01  0.17008847383E+02 -0.53012942559E+01  0.19561127837E+02  0.51100000000E-03 0. -1.
        -11    1    3    3    0    0  0.11057059827E+02  0.59710963165E+01 -0.99590330456E+01  0.16034179203E+02  0.51100000000E-03 0.  1.
         12    1    3    3    0    0 -0.29023549894E+02 -0.82257457994E+01  0.21191870343E+02  0.36866308617E+02  0.00000000000E+00 0. -1.
</event>
<event>
 7    1  0.1749439E-013  0.7246155E+02  0.7816164E-02  0.1226708E+00
        -11   -1    0    0    0    0  0.00000000000E+00  0.00000000000E+00  0.45593999997E+02  0.45594000000E+02  0.51100000000E-03 0.  1.
         11   -1    0    0    0    0 -0.00000000000E+00 -0.00000000000E+00 -0.45593999997E+02  0.45594000000E+02  0.51100000000E-03 0. -1.
    9900012    2    1    2    0    0 -0.63592895716E+00 -0.11607939481E+02 -0.14680977606E+02  0.72461554312E+02  0.69999979180E+02 0.  0.
        -12    1    1    2    0    0  0.63592895716E+00  0.11607939481E+02  0.14680977606E+02  0.18726445688E+02  0.00000000000E+00 0.  1.
         11    1    3    3    0    0 -0.58027335941E+01 -0.74054082738E+01  0.61314589154E+01  0.11229718499E+02  0.51100000000E-03 0. -1.
        -11    1    3    3    0    0 -0.24560260996E+02  0.60427045353E+01 -0.40986068987E+01  0.25622632126E+02  0.51100000000E-03 0.  1.
         12    1    3    3    0    0  0.29727065633E+02 -0.10245235743E+02 -0.16713829623E+02  0.35609203687E+02  0.00000000000E+00 0. -1.
</event>
<event>
 7    1  0.1749439E-013  0.7246165E+02  0.7816164E-02  0.1226708E+00
        -11   -1    0    0    0    0  0.00000000000E+00  0.00000000000E+00  0.45593999997E+02  0.45594000000E+02  0.51100000000E-03 0.  1.
         11   -1    0    0    0    0 -0.00000000000E+00 -0.00000000000E+00 -0.45593999997E+02  0.45594000000E+02  0.51100000000E-03 0. -1.
    9900012    2    1    2    0    0 -0.15593885242E+02  0.10288058192E+01 -0.10317386247E+02  0.72461650721E+02  0.70000104770E+02 0.  0.
        -12    1    1    2    0    0  0.15593885242E+02 -0.10288058192E+01  0.10317386247E+02  0.18726349279E+02  0.00000000000E+00 0.  1.
         11    1    3    3    0    0  0.54302673536E+01  0.10194109767E+02  0.15148312131E+02  0.19049384193E+02  0.51100000000E-03 0. -1.
        -11    1    3    3    0    0 -0.11747803224E+02 -0.96128270092E+01  0.90475513555E+01  0.17671318839E+02  0.51100000000E-03 0.  1.
         12    1    3    3    0    0 -0.92763493719E+01  0.44752306173E+00 -0.34513249733E+02  0.35740947689E+02  0.00000000000E+00 0. -1.
</event>
<event>
 7    1  0.1749439E-013  0.7246158E+02  0.7816164E-02  0.1226708E+00
        -11   -1    0    0    0    0  0.00000000000E+00  0.00000000000E+00  0.45593999997E+02  0.45594000000E+02  0.51100000000E-03 0.  1.
         11   -1    0    0    0    0 -0.00000000000E+00 -0.00000000000E+00 -0.45593999997E+02  0.45594000000E+02  0.51100000000E-03 0. -1.
    9900012    2    1    2    0    0  0.10509787620E+02  0.10519511826E+02 -0.11382576792E+02  0.72461579646E+02  0.70000012182E+02 0.  0.
        -12    1    1    2    0    0 -0.10509787620E+02 -0.10519511826E+02  0.11382576792E+02  0.18726420354E+02  0.00000000000E+00 0.  1.
         11    1    3    3    0    0 -0.18834668651E+02 -0.14150163018E+02 -0.41251767106E+01  0.23916290260E+02  0.51100000000E-03 0. -1.
        -11    1    3    3    0    0  0.29922424145E+01 -0.31785777997E+01  0.64843816170E+01  0.78169096651E+01  0.51100000000E-03 0.  1.
         12    1    3    3    0    0  0.26352213857E+02  0.27848252643E+02 -0.13741781698E+02  0.40728379721E+02  0.00000000000E+00 0. -1.
</event>
<event>
 7    1  0.1749439E-013  0.7246157E+02  0.7816164E-02  0.1226708E+00
        -11   -1    0    0    0    0  0.00000000000E+00  0.00000000000E+00  0.45593999997E+02  0.45594000000E+02  0.51100000000E-03 0.  1.
         11   -1    0    0    0    0 -0.00000000000E+00 -0.00000000000E+00 -0.45593999997E+02  0.45594000000E+02  0.51100000000E-03 0. -1.
    9900012    2    1    2    0    0 -0.16033528013E+02  0.60648436396E+01  0.75381009075E+01  0.72461566431E+02  0.69999994967E+02 0.  0.
        -12    1    1    2    0    0  0.16033528013E+02 -0.60648436396E+01 -0.75381009075E+01  0.18726433569E+02  0.00000000000E+00 0.  1.
         11    1    3    3    0    0 -0.31292777779E+02 -0.88498786962E+01 -0.15615498063E+02  0.36074950784E+02  0.51100000000E-03 0. -1.
        -11    1    3    3    0    0 -0.22806428916E+01  0.32427418723E+01 -0.12403205864E+01  0.41539261268E+01  0.51100000000E-03 0.  1.
        -12    1    3    3    0    0  0.17539892657E+02  0.11671980463E+02  0.24393919557E+02  0.32232689520E+02  0.00000000000E+00 0.  1.
</event>
<event>
 7    1  0.1749439E-013  0.7246149E+02  0.7816164E-02  0.1226708E+00
        -11   -1    0    0    0    0  0.00000000000E+00  0.00000000000E+00  0.45593999997E+02  0.45594000000E+02  0.51100000000E-03 0.  1.
         11   -1    0    0    0    0 -0.00000000000E+00 -0.00000000000E+00 -0.45593999997E+02  0.45594000000E+02  0.51100000000E-03 0. -1.
    9900012    2    1    2    0    0 -0.14143429592E+02  0.12252032958E+02 -0.73018794008E+00  0.72461492406E+02  0.69999898536E+02 0.  0.
        -12    1    1    2    0    0  0.14143429592E+02 -0.12252032958E+02  0.73018794008E+00  0.18726507594E+02  0.00000000000E+00 0.  1.
         11    1    3    3    0    0  0.29627106944E+01 -0.13473549561E+02 -0.24765419852E+02  0.28348548695E+02  0.51100000000E-03 0. -1.
        -11    1    3    3    0    0 -0.32322443807E+01  0.27363897909E+01  0.15301951597E+02  0.15877183496E+02  0.51100000000E-03 0.  1.
        -12    1    3    3    0    0 -0.13873895906E+02  0.22989192728E+02  0.87332803148E+01  0.28235760215E+02  0.00000000000E+00 0.  1.
</event>
<event>
 7    1  0.1749439E-013  0.7246156E+02  0.7816164E-02  0.1226708E+00
        -11   -1    0    0    0    0  0.00000000000E+00  0.00000000000E+00  0.45593999997E+02  0.45594000000E+02  0.51100000000E-03 0.  1.
         11   -1    0    0    0    0 -0.00000000000E+00 -0.00000000000E+00 -0.45593999997E+02  0.45594000000E+02  0.51100000000E-03 0. -1.
    9900012    2    1    2    0    0  0.13032388383E+02  0.98887629770E+01 -0.91131164714E+01  0.72461556878E+02  0.69999982523E+02 0.  0.
        -12    1    1    2    0    0 -0.13032388383E+02 -0.98887629770E+01  0.91131164714E+01  0.18726443122E+02  0.00000000000E+00 0.  1.
         11    1    3    3    0    0  0.15634163849E+02  0.89524610548E+01  0.43171521388E+00  0.18021099203E+02  0.51100000000E-03 0. -1.
        -11    1    3    3    0    0 -0.96183608442E+01 -0.16611447123E+01  0.20912166827E+02  0.23077932939E+02  0.51100000000E-03 0.  1.
         12    1    3    3    0    0  0.70165853782E+01  0.25974466345E+01 -0.30456998513E+02  0.31362524736E+02  0.00000000000E+00 0. -1.
</event>
<event>
 7    1  0.1749439E-013  0.7246147E+02  0.7816164E-02  0.1226708E+00
        -11   -1    0    0    0    0  0.00000000000E+00  0.00000000000E+00  0.45593999997E+02  0.45594000000E+02  0.51100000000E-03 0.  1.
         11   -1    0    0    0    0 -0.00000000000E+00 -0.00000000000E+00 -0.45593999997E+02  0.45594000000E+02  0.51100000000E-03 0. -1.
    9900012    2    1    2    0    0 -0.39823228540E+01  0.18061947409E+02  0.29308597370E+01  0.72461473938E+02  0.69999874478E+02 0.  0.
        -12    1    1    2    0    0  0.39823228540E+01 -0.18061947409E+02 -0.29308597370E+01  0.18726526062E+02  0.00000000000E+00 0.  1.
         11    1    3    3    0    0  0.47852755410E+01 -0.28698030250E+01  0.12343899501E+01  0.57147484823E+01  0.51100000000E-03 0. -1.
        -11    1    3    3    0    0 -0.47624526411E+00 -0.16280787069E+02  0.18874290049E+02  0.24930496631E+02  0.51100000000E-03 0.  1.
         12    1    3    3    0    0 -0.82913531309E+01  0.37212537504E+02 -0.17177820262E+02  0.41816228825E+02  0.00000000000E+00 0. -1.
</event>
<event>
 7    1  0.1749439E-013  0.7246158E+02  0.7816164E-02  0.1226708E+00
        -11   -1    0    0    0    0  0.00000000000E+00  0.00000000000E+00  0.45593999997E+02  0.45594000000E+02  0.51100000000E-03 0. -1.
         11   -1    0    0    0    0 -0.00000000000E+00 -0.00000000000E+00 -0.45593999997E+02  0.45594000000E+02  0.51100000000E-03 0.  1.
    9900012    2    1    2    0    0  0.15810993069E+02  0.13339883096E+01  0.99454406030E+01  0.72461579749E+02  0.70000012316E+02 0.  0.
        -12    1    1    2    0    0 -0.15810993069E+02 -0.13339883096E+01 -0.99454406030E+01  0.18726420251E+02  0.00000000000E+00 0.  1.
         11    1    3    3    0    0 -0.16916959023E+01  0.94581991956E+01  0.20693664848E+02  0.22815502014E+02  0.51100000000E-03 0. -1.
        -11    1    3    3    0    0  0.20526322295E+02 -0.16846736464E+01 -0.25791418337E+02  0.33005534269E+02  0.51100000000E-03 0.  1.
         12    1    3    3    0    0 -0.30236333238E+01 -0.64395372396E+01  0.15043194092E+02  0.16640543466E+02  0.00000000000E+00 0. -1.
</event>
<event>
 7    1  0.1749439E-013  0.7246163E+02  0.7816164E-02  0.1226708E+00
        -11   -1    0    0    0    0  0.00000000000E+00  0.00000000000E+00  0.45593999997E+02  0.45594000000E+02  0.51100000000E-03 0. -1.
         11   -1    0    0    0    0 -0.00000000000E+00 -0.00000000000E+00 -0.45593999997E+02  0.45594000000E+02  0.51100000000E-03 0.  1.
    9900012    2    1    2    0    0 -0.92697513628E+01  0.90256697898E+00  0.16246046885E+02  0.72461629372E+02  0.70000076960E+02 0.  0.
        -12    1    1    2    0    0  0.92697513628E+01 -0.90256697898E+00 -0.16246046885E+02  0.18726370628E+02  0.00000000000E+00 0.  1.
         11    1    3    3    0    0  0.72732115581E+01 -0.82597938887E+01  0.33943652457E+02  0.35683264198E+02  0.51100000000E-03 0. -1.
        -11    1    3    3    0    0 -0.12437968473E+02 -0.29295945299E+01  0.23661863428E+01  0.12995553929E+02  0.51100000000E-03 0.  1.
        -12    1    3    3    0    0 -0.41049944480E+01  0.12091955398E+02 -0.20063791914E+02  0.23782811246E+02  0.00000000000E+00 0.  1.
</event>
<event>
 7    1  0.1749439E-013  0.7246131E+02  0.7816164E-02  0.1226709E+00
        -11   -1    0    0    0    0  0.00000000000E+00  0.00000000000E+00  0.45593999997E+02  0.45594000000E+02  0.51100000000E-03 0.  1.
         11   -1    0    0    0    0 -0.00000000000E+00 -0.00000000000E+00 -0.45593999997E+02  0.45594000000E+02  0.51100000000E-03 0. -1.
    9900012    2    1    2    0    0  0.51150415620E+01 -0.71078713966E+01 -0.16553046398E+02  0.72461312332E+02  0.69999663955E+02 0.  0.
        -12    1    1    2    0    0 -0.51150415620E+01  0.71078713966E+01  0.16553046398E+02  0.18726687668E+02  0.00000000000E+00 0.  1.
         11    1    3    3    0    0  0.18923919349E+02 -0.11023588752E+02  0.60468805055E+01  0.22720013129E+02  0.51100000000E-03 0. -1.
        -11    1    3    3    0    0 -0.55473800935E+01  0.40153997841E+01  0.12191021605E+02  0.13982770446E+02  0.51100000000E-03 0.  1.
         12    1    3    3    0    0 -0.82614976933E+01 -0.99682428835E-01 -0.34790948508E+02  0.35758528756E+02  0.00000000000E+00 0. -1.
</event>
<event>
 7    1  0.1749439E-013  0.7246144E+02  0.7816164E-02  0.1226708E+00
        -11   -1    0    0    0    0  0.00000000000E+00  0.00000000000E+00  0.45593999997E+02  0.45594000000E+02  0.51100000000E-03 0.  1.
         11   -1    0    0    0    0 -0.00000000000E+00 -0.00000000000E+00 -0.45593999997E+02  0.45594000000E+02  0.51100000000E-03 0. -1.
    9900012    2    1    2    0    0  0.47259017501E+01 -0.16629517461E+02 -0.71978474440E+01  0.72461441155E+02  0.69999831772E+02 0.  0.
        -12    1    1    2    0    0 -0.47259017501E+01  0.16629517461E+02  0.71978474440E+01  0.18726558845E+02  0.00000000000E+00 0.  1.
         11    1    3    3    0    0 -0.10817615034E+02 -0.15533485401E+01  0.53942308618E+01  0.12187346453E+02  0.51100000000E-03 0. -1.
        -11    1    3    3    0    0  0.96735455601E+01 -0.31322864366E+02  0.76495774790E+01  0.33663264126E+02  0.51100000000E-03 0.  1.
         12    1    3    3    0    0  0.58699712237E+01  0.16246695445E+02 -0.20241655785E+02  0.26610830576E+02  0.00000000000E+00 0. -1.
</event>
<event>
 7    1  0.1749439E-013  0.7246163E+02  0.7816164E-02  0.1226708E+00
        -11   -1    0    0    0    0  0.00000000000E+00  0.00000000000E+00  0.45593999997E+02  0.45594000000E+02  0.51100000000E-03 0. -1.
         11   -1    0    0    0    0 -0.00000000000E+00 -0.00000000000E+00 -0.45593999997E+02  0.45594000000E+02  0.51100000000E-03 0.  1.
    9900012    2    1    2    0    0 -0.16092134644E+02  0.68578796680E+01  0.66850395442E+01  0.72461626495E+02  0.70000073212E+02 0.  0.
        -12    1    1    2    0    0  0.16092134644E+02 -0.68578796680E+01 -0.66850395442E+01  0.18726373505E+02  0.00000000000E+00 0.  1.
         11    1    3    3    0    0 -0.71508609613E+01  0.27388841812E+01  0.13063400945E+02  0.15142283300E+02  0.51100000000E-03 0. -1.
        -11    1    3    3    0    0 -0.30875451261E+02 -0.60985717985E+01 -0.96117505888E+01  0.32907017765E+02  0.51100000000E-03 0.  1.
        -12    1    3    3    0    0  0.21934177578E+02  0.10217567285E+02  0.32333891884E+01  0.24412325430E+02  0.00000000000E+00 0.  1.
</event>
<event>
 7    1  0.1749439E-013  0.7246156E+02  0.7816164E-02  0.1226708E+00
        -11   -1    0    0    0    0  0.00000000000E+00  0.00000000000E+00  0.45593999997E+02  0.45594000000E+02  0.51100000000E-03 0.  1.
         11   -1    0    0    0    0 -0.00000000000E+00 -0.00000000000E+00 -0.45593999997E+02  0.45594000000E+02  0.51100000000E-03 0. -1.
    9900012    2    1    2    0    0  0.13280744420E+02  0.12141852261E+02  0.51842931251E+01  0.72461557629E+02  0.69999983501E+02 0.  0.
        -12    1    1    2    0    0 -0.13280744420E+02 -0.12141852261E+02 -0.51842931251E+01  0.18726442371E+02  0.00000000000E+00 0.  1.
         11    1    3    3    0    0 -0.93576041368E+01 -0.21311493600E+01 -0.68168692920E+01  0.11771841826E+02  0.51100000000E-03 0. -1.
        -11    1    3    3    0    0 -0.16110625605E+02  0.97063557687E+01 -0.26866283596E+01  0.18999567676E+02  0.51100000000E-03 0.  1.
         12    1    3    3    0    0  0.38748974161E+02  0.45666458521E+01  0.14687790777E+02  0.41690148126E+02  0.00000000000E+00 0. -1.
</event>
<event>
 7    1  0.1749439E-013  0.7246165E+02  0.7816164E-02  0.1226708E+00
        -11   -1    0    0    0    0  0.00000000000E+00  0.00000000000E+00  0.45593999997E+02  0.45594000000E+02  0.51100000000E-03 0.  1.
         11   -1    0    0    0    0 -0.00000000000E+00 -0.00000000000E+00 -0.45593999997E+02  0.45594000000E+02  0.51100000000E-03 0. -1.
    9900012    2    1    2    0    0  0.17378378698E+02 -0.24046081903E+01 -0.65487543225E+01  0.72461645045E+02  0.70000097377E+02 0.  0.
        -12    1    1    2    0    0 -0.17378378698E+02  0.24046081903E+01  0.65487543225E+01  0.18726354955E+02  0.00000000000E+00 0.  1.
         11    1    3    3    0    0 -0.54414746665E+01 -0.19208474223E+02 -0.21661757479E+02  0.29458561843E+02  0.51100000000E-03 0. -1.
        -11    1    3    3    0    0 -0.11830291219E+01  0.10654823770E+02 -0.42750513896E+01  0.11541269086E+02  0.51100000000E-03 0.  1.
        -12    1    3    3    0    0  0.24002882486E+02  0.61490422632E+01  0.19388054546E+02  0.31461814116E+02  0.00000000000E+00 0.  1.
</event>
<event>
 7    1  0.1749439E-013  0.7246161E+02  0.7816164E-02  0.1226708E+00
        -11   -1    0    0    0    0  0.00000000000E+00  0.00000000000E+00  0.45593999997E+02  0.45594000000E+02  0.51100000000E-03 0.  1.
         11   -1    0    0    0    0 -0.00000000000E+00 -0.00000000000E+00 -0.45593999997E+02  0.45594000000E+02  0.51100000000E-03 0. -1.
    9900012    2    1    2    0    0  0.22751068391E+01 -0.16471178014E+02  0.86140581719E+01  0.72461606474E+02  0.70000047131E+02 0.  0.
        -12    1    1    2    0    0 -0.22751068391E+01  0.16471178014E+02 -0.86140581719E+01  0.18726393526E+02  0.00000000000E+00 0.  1.
         11    1    3    3    0    0  0.12755292013E+02 -0.89653215775E+01  0.16874526288E+00  0.15591758738E+02  0.51100000000E-03 0. -1.
        -11    1    3    3    0    0  0.18975410091E+01 -0.29929208952E+02  0.88028226857E+01  0.31254566032E+02  0.51100000000E-03 0.  1.
         12    1    3    3    0    0 -0.12377726183E+02  0.22423352516E+02 -0.35750977668E+00  0.25615281704E+02  0.00000000000E+00 0. -1.
</event>
<event>
 7    1  0.1749439E-013  0.7246156E+02  0.7816164E-02  0.1226708E+00
        -11   -1    0    0    0    0  0.00000000000E+00  0.00000000000E+00  0.45593999997E+02  0.45594000000E+02  0.51100000000E-03 0. -1.
         11   -1    0    0    0    0 -0.00000000000E+00 -0.00000000000E+00 -0.45593999997E+02  0.45594000000E+02  0.51100000000E-03 0.  1.
    9900012    2    1    2    0    0 -0.88984323828E+01 -0.61481866064E+01  0.15287161199E+02  0.72461558935E+02  0.69999985203E+02 0.  0.
        -12    1    1    2    0    0  0.88984323828E+01  0.61481866064E+01 -0.15287161199E+02  0.18726441065E+02  0.00000000000E+00 0.  1.
         11    1    3    3    0    0  0.21419922057E+02 -0.30137646180E+01  0.11831639030E+01  0.21663234181E+02  0.51100000000E-03 0.  1.
        -11    1    3    3    0    0 -0.94218090530E+01  0.16021974995E+02 -0.11199874520E+01  0.18620648236E+02  0.51100000000E-03 0. -1.
        -12    1    3    3    0    0 -0.20896545387E+02 -0.19156396983E+02  0.15223984748E+02  0.32177676518E+02  0.00000000000E+00 0.  1.
</event>
<event>
 7    1  0.1749439E-013  0.7246158E+02  0.7816164E-02  0.1226708E+00
        -11   -1    0    0    0    0  0.00000000000E+00  0.00000000000E+00  0.45593999997E+02  0.45594000000E+02  0.51100000000E-03 0. -1.
         11   -1    0    0    0    0 -0.00000000000E+00 -0.00000000000E+00 -0.45593999997E+02  0.45594000000E+02  0.51100000000E-03 0.  1.
    9900012    2    1    2    0    0  0.12854890338E+02  0.11982673565E+02  0.64688542602E+01  0.72461581581E+02  0.70000014704E+02 0.  0.
        -12    1    1    2    0    0 -0.12854890338E+02 -0.11982673565E+02 -0.64688542602E+01  0.18726418419E+02  0.00000000000E+00 0.  1.
         11    1    3    3    0    0  0.37679674672E+01  0.84698521154E+01 -0.69860606112E+01  0.11607799827E+02  0.51100000000E-03 0. -1.
        -11    1    3    3    0    0 -0.10454194853E+02  0.80466976991E+01 -0.18741678700E+02  0.22919207112E+02  0.51100000000E-03 0.  1.
         12    1    3    3    0    0  0.19541117724E+02 -0.45338762498E+01  0.32196593571E+02  0.37934574643E+02  0.00000000000E+00 0. -1.
</event>
<event>
 7    1  0.1749439E-013  0.7246158E+02  0.7816164E-02  0.1226708E+00
        -11   -1    0    0    0    0  0.00000000000E+00  0.00000000000E+00  0.45593999997E+02  0.45594000000E+02  0.51100000000E-03 0.  1.
         11   -1    0    0    0    0 -0.00000000000E+00 -0.00000000000E+00 -0.45593999997E+02  0.45594000000E+02  0.51100000000E-03 0. -1.
    9900012    2    1    2    0    0 -0.53609024261E+01  0.15065090642E+01 -0.17879320454E+02  0.72461576308E+02  0.70000007834E+02 0.  0.
        -12    1    1    2    0    0  0.53609024261E+01 -0.15065090642E+01  0.17879320454E+02  0.18726423692E+02  0.00000000000E+00 0.  1.
         11    1    3    3    0    0 -0.18671555657E+01 -0.12777141183E+02 -0.82404196812E+01  0.15318163190E+02  0.51100000000E-03 0. -1.
        -11    1    3    3    0    0 -0.27769187397E+02  0.82317962055E+01 -0.13277228478E+02  0.31861811527E+02  0.51100000000E-03 0.  1.
         12    1    3    3    0    0  0.24275440536E+02  0.60518540418E+01  0.36383277050E+01  0.25281601592E+02  0.00000000000E+00 0. -1.
</event>
<event>
 7    1  0.1749439E-013  0.7246166E+02  0.7816164E-02  0.1226708E+00
        -11   -1    0    0    0    0  0.00000000000E+00  0.00000000000E+00  0.45593999997E+02  0.45594000000E+02  0.51100000000E-03 0.  1.
         11   -1    0    0    0    0 -0.00000000000E+00 -0.00000000000E+00 -0.45593999997E+02  0.45594000000E+02  0.51100000000E-03 0. -1.
    9900012    2    1    2    0    0  0.78845471496E+01  0.10953292040E+02 -0.12982107327E+02  0.72461660237E+02  0.70000117167E+02 0.  0.
        -12    1    1    2    0    0 -0.78845471496E+01 -0.10953292040E+02  0.12982107327E+02  0.18726339763E+02  0.00000000000E+00 0.  1.
         11    1    3    3    0    0  0.14280265329E+02  0.15986466717E+02  0.69670575023E+01  0.22539587096E+02  0.51100000000E-03 0. -1.
        -11    1    3    3    0    0  0.16579364290E+02  0.84238461900E+01 -0.44805232200E+01  0.19128815789E+02  0.51100000000E-03 0.  1.
        -12    1    3    3    0    0 -0.22975082470E+02 -0.13457020867E+02 -0.15468641609E+02  0.30793257352E+02  0.00000000000E+00 0.  1.
</event>
<event>
 7    1  0.1749439E-013  0.7246152E+02  0.7816164E-02  0.1226708E+00
        -11   -1    0    0    0    0  0.00000000000E+00  0.00000000000E+00  0.45593999997E+02  0.45594000000E+02  0.51100000000E-03 0.  1.
         11   -1    0    0    0    0 -0.00000000000E+00 -0.00000000000E+00 -0.45593999997E+02  0.45594000000E+02  0.51100000000E-03 0. -1.
    9900012    2    1    2    0    0 -0.91037128131E+01 -0.11478764274E+02 -0.11663687184E+02  0.72461515681E+02  0.69999928856E+02 0.  0.
        -12    1    1    2    0    0  0.91037128131E+01  0.11478764274E+02  0.11663687184E+02  0.18726484319E+02  0.00000000000E+00 0.  1.
         11    1    3    3    0    0 -0.41207781266E+01 -0.26449741809E+02 -0.14555631299E+02  0.30470248718E+02  0.51100000000E-03 0. -1.
        -11    1    3    3    0    0  0.11427868243E+02  0.41051239858E+01  0.14678375999E+02  0.19050011489E+02  0.51100000000E-03 0.  1.
         12    1    3    3    0    0 -0.16410802930E+02  0.10865853550E+02 -0.11786431883E+02  0.22941255473E+02  0.00000000000E+00 0. -1.
</event>
<event>
 7    1  0.1749439E-013  0.7246156E+02  0.7816164E-02  0.1226708E+00
        -11   -1    0    0    0    0  0.00000000000E+00  0.00000000000E+00  0.45593999997E+02  0.45594000000E+02  0.51100000000E-03 0. -1.
         11   -1    0    0    0    0 -0.00000000000E+00 -0.00000000000E+00 -0.45593999997E+02  0.45594000000E+02  0.51100000000E-03 0.  1.
    9900012    2    1    2    0    0  0.59811347433E+00  0.18715931932E+02 -0.18944527740E+00  0.72461555134E+02  0.69999980251E+02 0.  0.
        -12    1    1    2    0    0 -0.59811347433E+00 -0.18715931932E+02  0.18944527740E+00  0.18726444866E+02  0.00000000000E+00 0.  1.
         11    1    3    3    0    0 -0.19626329850E+02  0.38905859137E+01 -0.91103621454E+01  0.21984726080E+02  0.51100000000E-03 0. -1.
        -11    1    3    3    0    0 -0.11571093060E+02 -0.45202769495E+01  0.13458631581E+01  0.12495376993E+02  0.51100000000E-03 0.  1.
         12    1    3    3    0    0  0.31795536384E+02  0.19345622967E+02  0.75750537098E+01  0.37981452061E+02  0.00000000000E+00 0. -1.
</event>
<event>
 7    1  0.1749439E-013  0.7246156E+02  0.7816164E-02  0.1226708E+00
        -11   -1    0    0    0    0  0.00000000000E+00  0.00000000000E+00  0.45593999997E+02  0.45594000000E+02  0.51100000000E-03 0. -1.
         11   -1    0    0    0    0 -0.00000000000E+00 -0.00000000000E+00 -0.45593999997E+02  0.45594000000E+02  0.51100000000E-03 0.  1.
    9900012    2    1    2    0    0 -0.16783523338E+02 -0.63055869803E+01  0.54067174912E+01  0.72461556749E+02  0.69999982355E+02 0.  0.
        -12    1    1    2    0    0  0.16783523338E+02  0.63055869803E+01 -0.54067174912E+01  0.18726443251E+02  0.00000000000E+00 0.  1.
         11    1    3    3    0    0 -0.10318639000E+02  0.23444582871E+00  0.14594926535E+02  0.17875714153E+02  0.51100000000E-03 0. -1.
        -11    1    3    3    0    0 -0.20651736685E+02  0.13612109496E+02  0.62409656146E+01  0.25509476770E+02  0.51100000000E-03 0.  1.
        -12    1    3    3    0    0  0.14186852348E+02 -0.20152142305E+02 -0.15429174659E+02  0.29076365826E+02  0.00000000000E+00 0.  1.
</event>
<event>
 7    1  0.1749439E-013  0.7246158E+02  0.7816164E-02  0.1226708E+00
        -11   -1    0    0    0    0  0.00000000000E+00  0.00000000000E+00  0.45593999997E+02  0.45594000000E+02  0.51100000000E-03 0.  1.
         11   -1    0    0    0    0 -0.00000000000E+00 -0.00000000000E+00 -0.45593999997E+02  0.45594000000E+02  0.51100000000E-03 0. -1.
    9900012    2    1    2    0    0 -0.18568158713E+00  0.11249125050E+02 -0.14970022206E+02  0.72461578642E+02  0.70000010874E+02 0.  0.
        -12    1    1    2    0    0  0.18568158713E+00 -0.11249125050E+02  0.14970022206E+02  0.18726421358E+02  0.00000000000E+00 0.  1.
         11    1    3    3    0    0  0.15552220081E+02  0.53474510221E+01  0.38204285799E+01  0.16883792722E+02  0.51100000000E-03 0. -1.
        -11    1    3    3    0    0 -0.18610430354E+01  0.24131937474E+02  0.24608170669E+01  0.24328368386E+02  0.51100000000E-03 0.  1.
         12    1    3    3    0    0 -0.13876858633E+02 -0.18230263446E+02 -0.21251267853E+02  0.31249417534E+02  0.00000000000E+00 0. -1.
</event>
<event>
 7    1  0.1749439E-013  0.7246145E+02  0.7816164E-02  0.1226708E+00
        -11   -1    0    0    0    0  0.00000000000E+00  0.00000000000E+00  0.45593999997E+02  0.45594000000E+02  0.51100000000E-03 0. -1.
         11   -1    0    0    0    0 -0.00000000000E+00 -0.00000000000E+00 -0.45593999997E+02  0.45594000000E+02  0.51100000000E-03 0.  1.
    9900012    2    1    2    0    0 -0.63353897555E+01 -0.15022081986E+02  0.92132257128E+01  0.72461450970E+02  0.69999844558E+02 0.  0.
        -12    1    1    2    0    0  0.63353897555E+01  0.15022081986E+02 -0.92132257128E+01  0.18726549030E+02  0.00000000000E+00 0.  1.
         11    1    3    3    0    0  0.20861090603E+02 -0.12688796547E+02 -0.14930906269E+02  0.28620318329E+02  0.51100000000E-03 0. -1.
        -11    1    3    3    0    0 -0.92304335876E+01 -0.12398430012E+02  0.66766402697E+01  0.16837443290E+02  0.51100000000E-03 0.  1.
        -12    1    3    3    0    0 -0.17966046771E+02  0.10065144573E+02  0.17467491712E+02  0.27003689351E+02  0.00000000000E+00 0.  1.
</event>
<event>
 7    1  0.1749439E-013  0.7246158E+02  0.7816164E-02  0.1226708E+00
        -11   -1    0    0    0    0  0.00000000000E+00  0.00000000000E+00  0.45593999997E+02  0.45594000000E+02  0.51100000000E-03 0.  1.
         11   -1    0    0    0    0 -0.00000000000E+00 -0.00000000000E+00 -0.45593999997E+02  0.45594000000E+02  0.51100000000E-03 0. -1.
    9900012    2    1    2    0    0 -0.14035571707E+02  0.62338482452E+01 -0.10715445254E+02  0.72461577382E+02  0.70000009233E+02 0.  0.
        -12    1    1    2    0    0  0.14035571707E+02 -0.62338482452E+01  0.10715445254E+02  0.18726422618E+02  0.00000000000E+00 0.  1.
         11    1    3    3    0    0 -0.65980185520E+01  0.14024498008E+02 -0.17247191386E+02  0.23188057361E+02  0.51100000000E-03 0. -1.
        -11    1    3    3    0    0 -0.13611599526E+02 -0.25084774283E+02 -0.27971725033E+01  0.28676570868E+02  0.51100000000E-03 0.  1.
         12    1    3    3    0    0  0.61740463708E+01  0.17294124520E+02  0.93289186355E+01  0.20596949153E+02  0.00000000000E+00 0. -1.
</event>
<event>
 7    1  0.1749439E-013  0.7246154E+02  0.7816164E-02  0.1226708E+00
        -11   -1    0    0    0    0  0.00000000000E+00  0.00000000000E+00  0.45593999997E+02  0.45594000000E+02  0.51100000000E-03 0.  1.
         11   -1    0    0    0    0 -0.00000000000E+00 -0.00000000000E+00 -0.45593999997E+02  0.45594000000E+02  0.51100000000E-03 0. -1.
    9900012    2    1    2    0    0  0.82401386124E+01 -0.16665115584E+02  0.22481851748E+01  0.72461540155E+02  0.69999960737E+02 0.  0.
        -12    1    1    2    0    0 -0.82401386124E+01  0.16665115584E+02 -0.22481851748E+01  0.18726459845E+02  0.00000000000E+00 0.  1.
         11    1    3    3    0    0  0.33973781215E+02 -0.12026180572E+02 -0.14655275287E+01  0.36069302744E+02  0.51100000000E-03 0. -1.
        -11    1    3    3    0    0 -0.67114959651E-01  0.20937203056E+00  0.96116929695E+01  0.96142073551E+01  0.51100000000E-03 0.  1.
        -12    1    3    3    0    0 -0.25666527643E+02 -0.48483070423E+01 -0.58979802660E+01  0.26778030056E+02  0.00000000000E+00 0.  1.
</event>
<event>
 7    1  0.1749439E-013  0.7246157E+02  0.7816164E-02  0.1226708E+00
        -11   -1    0    0    0    0  0.00000000000E+00  0.00000000000E+00  0.45593999997E+02  0.45594000000E+02  0.51100000000E-03 0.  1.
         11   -1    0    0    0    0 -0.00000000000E+00 -0.00000000000E+00 -0.45593999997E+02  0.45594000000E+02  0.51100000000E-03 0. -1.
    9900012    2    1    2    0    0 -0.46663184572E+01  0.19690945213E+01 -0.18028512273E+02  0.72461571725E+02  0.70000001864E+02 0.  0.
        -12    1    1    2    0    0  0.46663184572E+01 -0.19690945213E+01  0.18028512273E+02  0.18726428275E+02  0.00000000000E+00 0.  1.
         11    1    3    3    0    0  0.77999279390E+01  0.11176916064E+02 -0.17816531097E+02  0.22431921655E+02  0.51100000000E-03 0. -1.
        -11    1    3    3    0    0 -0.27209403770E+02  0.70173236303E+01 -0.51984038129E+00  0.28104531997E+02  0.51100000000E-03 0.  1.
         12    1    3    3    0    0  0.14743157374E+02 -0.16225145173E+02  0.30785920570E+00  0.21925118073E+02  0.00000000000E+00 0. -1.
</event>
<event>
 7    1  0.1749439E-013  0.7246163E+02  0.7816164E-02  0.1226708E+00
        -11   -1    0    0    0    0  0.00000000000E+00  0.00000000000E+00  0.45593999997E+02  0.45594000000E+02  0.51100000000E-03 0.  1.
         11   -1    0    0    0    0 -0.00000000000E+00 -0.00000000000E+00 -0.45593999997E+02  0.45594000000E+02  0.51100000000E-03 0. -1.
    9900012    2    1    2    0    0 -0.37944840800E+00 -0.12891345063E+02 -0.13577408290E+02  0.72461634242E+02  0.70000083303E+02 0.  0.
        -12    1    1    2    0    0  0.37944840800E+00  0.12891345063E+02  0.13577408290E+02  0.18726365758E+02  0.00000000000E+00 0.  1.
         11    1    3    3    0    0 -0.10191021173E+00 -0.25301270085E+02  0.10935291672E+02  0.27563476882E+02  0.51100000000E-03 0. -1.
        -11    1    3    3    0    0 -0.12386633217E+02 -0.73402910689E+01 -0.10540565413E+02  0.17844104766E+02  0.51100000000E-03 0.  1.
         12    1    3    3    0    0  0.12109095020E+02  0.19750216091E+02 -0.13972134550E+02  0.27054052593E+02  0.00000000000E+00 0. -1.
</event>
<event>
 7    1  0.1749439E-013  0.7246151E+02  0.7816164E-02  0.1226708E+00
        -11   -1    0    0    0    0  0.00000000000E+00  0.00000000000E+00  0.45593999997E+02  0.45594000000E+02  0.51100000000E-03 0.  1.
         11   -1    0    0    0    0 -0.00000000000E+00 -0.00000000000E+00 -0.45593999997E+02  0.45594000000E+02  0.51100000000E-03 0. -1.
    9900012    2    1    2    0    0 -0.22285926160E+01 -0.11935270834E+02 -0.14257077854E+02  0.72461505831E+02  0.69999916024E+02 0.  0.
        -12    1    1    2    0    0  0.22285926160E+01  0.11935270834E+02  0.14257077854E+02  0.18726494169E+02  0.00000000000E+00 0.  1.
         11    1    3    3    0    0 -0.15183432251E+02 -0.41184033521E+01  0.47350681718E+01  0.16429203631E+02  0.51100000000E-03 0. -1.
        -11    1    3    3    0    0 -0.13490291667E+02 -0.17490418542E+02 -0.38107744192E-01  0.22088552748E+02  0.51100000000E-03 0.  1.
        -12    1    3    3    0    0  0.26445131302E+02  0.96735510599E+01 -0.18954038282E+02  0.33943749452E+02  0.00000000000E+00 0.  1.
</event>
<event>
 7    1  0.1749439E-013  0.7246157E+02  0.7816164E-02  0.1226708E+00
        -11   -1    0    0    0    0  0.00000000000E+00  0.00000000000E+00  0.45593999997E+02  0.45594000000E+02  0.51100000000E-03 0.  1.
         11   -1    0    0    0    0 -0.00000000000E+00 -0.00000000000E+00 -0.45593999997E+02  0.45594000000E+02  0.51100000000E-03 0. -1.
    9900012    2    1    2    0    0 -0.64365756936E+01  0.98977005773E+01 -0.14535651513E+02  0.72461570861E+02  0.70000000738E+02 0.  0.
        -12    1    1    2    0    0  0.64365756936E+01 -0.98977005773E+01  0.14535651513E+02  0.18726429139E+02  0.00000000000E+00 0.  1.
         11    1    3    3    0    0 -0.34029140144E+01  0.55274660495E+01  0.87892908600E+01  0.10926314054E+02  0.51100000000E-03 0. -1.
        -11    1    3    3    0    0 -0.99666918428E+01 -0.14300696384E+02  0.11874771196E+02  0.21091587294E+02  0.51100000000E-03 0.  1.
         12    1    3    3    0    0  0.69330301636E+01  0.18670930912E+02 -0.35199713569E+02  0.40443669514E+02  0.00000000000E+00 0. -1.
</event>
<event>
 7    1  0.1749439E-013  0.7246160E+02  0.7816164E-02  0.1226708E+00
        -11   -1    0    0    0    0  0.00000000000E+00  0.00000000000E+00  0.45593999997E+02  0.45594000000E+02  0.51100000000E-03 0. -1.
         11   -1    0    0    0    0 -0.00000000000E+00 -0.00000000000E+00 -0.45593999997E+02  0.45594000000E+02  0.51100000000E-03 0.  1.
    9900012    2    1    2    0    0  0.10729963223E+02  0.14271355809E+02  0.56457453284E+01  0.72461597577E+02  0.70000035541E+02 0.  0.
        -12    1    1    2    0    0 -0.10729963223E+02 -0.14271355809E+02 -0.56457453284E+01  0.18726402423E+02  0.00000000000E+00 0.  1.
         11    1    3    3    0    0  0.19860372728E+02  0.31334913337E+02  0.49142256065E+01  0.37422731225E+02  0.51100000000E-03 0. -1.
        -11    1    3    3    0    0  0.33470191398E+00  0.58607873853E+01  0.73142566714E+01  0.93786568902E+01  0.51100000000E-03 0.  1.
        -12    1    3    3    0    0 -0.94651114195E+01 -0.22924344914E+02 -0.65827369495E+01  0.25660209462E+02  0.00000000000E+00 0.  1.
</event>
<event>
 7    1  0.1749439E-013  0.7246162E+02  0.7816164E-02  0.1226708E+00
        -11   -1    0    0    0    0  0.00000000000E+00  0.00000000000E+00  0.45593999997E+02  0.45594000000E+02  0.51100000000E-03 0.  1.
         11   -1    0    0    0    0 -0.00000000000E+00 -0.00000000000E+00 -0.45593999997E+02  0.45594000000E+02  0.51100000000E-03 0. -1.
    9900012    2    1    2    0    0 -0.10183197954E+02 -0.14794719123E+02  0.53005802382E+01  0.72461617932E+02  0.70000062057E+02 0.  0.
        -12    1    1    2    0    0  0.10183197954E+02  0.14794719123E+02 -0.53005802382E+01  0.18726382068E+02  0.00000000000E+00 0.  1.
         11    1    3    3    0    0  0.16712854606E+02 -0.29093323505E+01 -0.10452281542E+01  0.16996359197E+02  0.51100000000E-03 0. -1.
        -11    1    3    3    0    0 -0.13544762214E+02 -0.29805045760E+02  0.31136357220E+01  0.32886107460E+02  0.51100000000E-03 0.  1.
         12    1    3    3    0    0 -0.13351290346E+02  0.17919658987E+02  0.32321726704E+01  0.22579151275E+02  0.00000000000E+00 0. -1.
</event>
<event>
 7    1  0.1749439E-013  0.7246115E+02  0.7816164E-02  0.1226709E+00
        -11   -1    0    0    0    0  0.00000000000E+00  0.00000000000E+00  0.45593999997E+02  0.45594000000E+02  0.51100000000E-03 0.  1.
         11   -1    0    0    0    0 -0.00000000000E+00 -0.00000000000E+00 -0.45593999997E+02  0.45594000000E+02  0.51100000000E-03 0. -1.
    9900012    2    1    2    0    0  0.12874062910E+02  0.13514623013E+02  0.15192952855E+01  0.72461153251E+02  0.69999456721E+02 0.  0.
        -12    1    1    2    0    0 -0.12874062910E+02 -0.13514623013E+02 -0.15192952855E+01  0.18726846749E+02  0.00000000000E+00 0.  1.
         11    1    3    3    0    0  0.54948409859E+01 -0.17945809387E+02 -0.25674439037E+00  0.18769956578E+02  0.51100000000E-03 0. -1.
        -11    1    3    3    0    0  0.21533008857E+02  0.49086204581E+01  0.69665453075E+01  0.23158103960E+02  0.51100000000E-03 0.  1.
         12    1    3    3    0    0 -0.14153786932E+02  0.26551811942E+02 -0.51905056317E+01  0.30533092713E+02  0.00000000000E+00 0. -1.
</event>
<event>
 7    1  0.1749439E-013  0.7246158E+02  0.7816164E-02  0.1226708E+00
        -11   -1    0    0    0    0  0.00000000000E+00  0.00000000000E+00  0.45593999997E+02  0.45594000000E+02  0.51100000000E-03 0.  1.
         11   -1    0    0    0    0 -0.00000000000E+00 -0.00000000000E+00 -0.45593999997E+02  0.45594000000E+02  0.51100000000E-03 0. -1.
    9900012    2    1    2    0    0  0.11475606007E+01  0.10872454270E+02 -0.15203674357E+02  0.72461578262E+02  0.70000010379E+02 0.  0.
        -12    1    1    2    0    0 -0.11475606007E+01 -0.10872454270E+02  0.15203674357E+02  0.18726421738E+02  0.00000000000E+00 0.  1.
         11    1    3    3    0    0  0.17555071930E+02 -0.22043811048E+02 -0.10461062644E+02  0.30059008432E+02  0.51100000000E-03 0. -1.
        -11    1    3    3    0    0  0.37075773384E+01  0.44252203066E+01 -0.48284999249E+01  0.75261621207E+01  0.51100000000E-03 0.  1.
        -12    1    3    3    0    0 -0.20115088668E+02  0.28491045011E+02  0.85888212364E-01  0.34876407709E+02  0.00000000000E+00 0.  1.
</event>
<event>
 7    1  0.1749439E-013  0.7246155E+02  0.7816164E-02  0.1226708E+00
        -11   -1    0    0    0    0  0.00000000000E+00  0.00000000000E+00  0.45593999997E+02  0.45594000000E+02  0.51100000000E-03 0. -1.
         11   -1    0    0    0    0 -0.00000000000E+00 -0.00000000000E+00 -0.45593999997E+02  0.45594000000E+02  0.51100000000E-03 0.  1.
    9900012    2    1    2    0    0 -0.28313643470E+00 -0.10962869669E+02  0.15179436097E+02  0.72461549246E+02  0.69999972581E+02 0.  0.
        -12    1    1    2    0    0  0.28313643470E+00  0.10962869669E+02 -0.15179436097E+02  0.18726450754E+02  0.00000000000E+00 0.  1.
         11    1    3    3    0    0  0.20409437078E+02  0.69643780381E+01  0.30818340104E+02  0.37614063465E+02  0.51100000000E-03 0. -1.
        -11    1    3    3    0    0 -0.17166107306E+01  0.22306709263E+01  0.41482880347E+00  0.28451236140E+01  0.51100000000E-03 0.  1.
        -12    1    3    3    0    0 -0.18975962782E+02 -0.20157918633E+02 -0.16053732811E+02  0.32002362167E+02  0.00000000000E+00 0.  1.
</event>
<event>
 7    1  0.1749439E-013  0.7246149E+02  0.7816164E-02  0.1226708E+00
        -11   -1    0    0    0    0  0.00000000000E+00  0.00000000000E+00  0.45593999997E+02  0.45594000000E+02  0.51100000000E-03 0. -1.
         11   -1    0    0    0    0 -0.00000000000E+00 -0.00000000000E+00 -0.45593999997E+02  0.45594000000E+02  0.51100000000E-03 0.  1.
    9900012    2    1    2    0    0 -0.65485447599E+01  0.42588203696E+01  0.17019437738E+02  0.72461488036E+02  0.69999892843E+02 0.  0.
        -12    1    1    2    0    0  0.65485447599E+01 -0.42588203696E+01 -0.17019437738E+02  0.18726511964E+02  0.00000000000E+00 0.  1.
         11    1    3    3    0    0 -0.66977959495E+01  0.12841151833E+02  0.27849211650E+02  0.31390034100E+02  0.51100000000E-03 0. -1.
        -11    1    3    3    0    0 -0.14539931609E+02  0.70434312002E+01  0.16803517207E+01  0.16243248334E+02  0.51100000000E-03 0.  1.
        -12    1    3    3    0    0  0.14689182799E+02 -0.15625762663E+02 -0.12510125633E+02  0.24828205603E+02  0.00000000000E+00 0.  1.
</event>
<event>
 7    1  0.1749439E-013  0.7246156E+02  0.7816164E-02  0.1226708E+00
        -11   -1    0    0    0    0  0.00000000000E+00  0.00000000000E+00  0.45593999997E+02  0.45594000000E+02  0.51100000000E-03 0.  1.
         11   -1    0    0    0    0 -0.00000000000E+00 -0.00000000000E+00 -0.45593999997E+02  0.45594000000E+02  0.51100000000E-03 0. -1.
    9900012    2    1    2    0    0 -0.13842739262E+02  0.20273918727E+01 -0.12447800856E+02  0.72461561624E+02  0.69999988706E+02 0.  0.
        -12    1    1    2    0    0  0.13842739262E+02 -0.20273918727E+01  0.12447800856E+02  0.18726438376E+02  0.00000000000E+00 0.  1.
         11    1    3    3    0    0 -0.10049511653E+01  0.13437492166E+01 -0.92372816279E+01  0.93884482710E+01  0.51100000000E-03 0. -1.
        -11    1    3    3    0    0 -0.78842322616E+01  0.23479346493E+02  0.18727037984E+02  0.31050648657E+02  0.51100000000E-03 0.  1.
         12    1    3    3    0    0 -0.49535558350E+01 -0.22795703837E+02 -0.21937557212E+02  0.32022464697E+02  0.00000000000E+00 0. -1.
</event>
<event>
 7    1  0.1749439E-013  0.7246151E+02  0.7816164E-02  0.1226708E+00
        -11   -1    0    0    0    0  0.00000000000E+00  0.00000000000E+00  0.45593999997E+02  0.45594000000E+02  0.51100000000E-03 0.  1.
         11   -1    0    0    0    0 -0.00000000000E+00 -0.00000000000E+00 -0.45593999997E+02  0.45594000000E+02  0.51100000000E-03 0. -1.
    9900012    2    1    2    0    0  0.63300462907E+01 -0.16859784263E+02  0.51341667005E+01  0.72461508627E+02  0.69999919667E+02 0.  0.
        -12    1    1    2    0    0 -0.63300462907E+01  0.16859784263E+02 -0.51341667005E+01  0.18726491373E+02  0.00000000000E+00 0.  1.
         11    1    3    3    0    0  0.17282429171E+02  0.45012516904E+01  0.83721378204E+01  0.19724003568E+02  0.51100000000E-03 0. -1.
        -11    1    3    3    0    0 -0.90966367376E+01  0.56680198613E+01  0.16177770140E+02  0.19406068536E+02  0.51100000000E-03 0.  1.
        -12    1    3    3    0    0 -0.18557461425E+01 -0.27029055815E+02 -0.19415741260E+02  0.33331436522E+02  0.00000000000E+00 0.  1.
</event>
<event>
 7    1  0.1749439E-013  0.7246161E+02  0.7816164E-02  0.1226708E+00
        -11   -1    0    0    0    0  0.00000000000E+00  0.00000000000E+00  0.45593999997E+02  0.45594000000E+02  0.51100000000E-03 0. -1.
         11   -1    0    0    0    0 -0.00000000000E+00 -0.00000000000E+00 -0.45593999997E+02  0.45594000000E+02  0.51100000000E-03 0.  1.
    9900012    2    1    2    0    0  0.97604573073E+01 -0.14863142051E+02 -0.58735258515E+01  0.72461606209E+02  0.70000046786E+02 0.  0.
        -12    1    1    2    0    0 -0.97604573073E+01  0.14863142051E+02  0.58735258515E+01  0.18726393791E+02  0.00000000000E+00 0.  1.
         11    1    3    3    0    0  0.10942455394E+02  0.10700635469E+01  0.17263470555E+02  0.20467285651E+02  0.51100000000E-03 0. -1.
        -11    1    3    3    0    0  0.21124960382E+02 -0.10396359892E+02 -0.10710180231E+02  0.25866120911E+02  0.51100000000E-03 0.  1.
        -12    1    3    3    0    0 -0.22306958469E+02 -0.55368457061E+01 -0.12426816176E+02  0.26128199647E+02  0.00000000000E+00 0.  1.
</event>
<event>
 7    1  0.1749439E-013  0.7246174E+02  0.7816164E-02  0.1226708E+00
        -11   -1    0    0    0    0  0.00000000000E+00  0.00000000000E+00  0.45593999997E+02  0.45594000000E+02  0.51100000000E-03 0. -1.
         11   -1    0    0    0    0 -0.00000000000E+00 -0.00000000000E+00 -0.45593999997E+02  0.45594000000E+02  0.51100000000E-03 0.  1.
    9900012    2    1    2    0    0 -0.93998139955E+01 -0.15583188100E+02 -0.44136888111E+01  0.72461737601E+02  0.70000217948E+02 0.  0.
        -12    1    1    2    0    0  0.93998139955E+01  0.15583188100E+02  0.44136888111E+01  0.18726262399E+02  0.00000000000E+00 0.  1.
         11    1    3    3    0    0 -0.58557737448E+01 -0.25413906040E+02 -0.24055037266E+01  0.26190516505E+02  0.51100000000E-03 0. -1.
        -11    1    3    3    0    0 -0.18436225098E+02 -0.10074521128E+02 -0.37880737001E+01  0.21348064888E+02  0.51100000000E-03 0.  1.
        -12    1    3    3    0    0  0.14892184847E+02  0.19905239069E+02  0.17798886155E+01  0.24923156208E+02  0.00000000000E+00 0.  1.
</event>
<event>
 7    1  0.1749439E-013  0.7246143E+02  0.7816164E-02  0.1226708E+00
        -11   -1    0    0    0    0  0.00000000000E+00  0.00000000000E+00  0.45593999997E+02  0.45594000000E+02  0.51100000000E-03 0. -1.
         11   -1    0    0    0    0 -0.00000000000E+00 -0.00000000000E+00 -0.45593999997E+02  0.45594000000E+02  0.51100000000E-03 0.  1.
    9900012    2    1    2    0    0 -0.16390713243E+02 -0.85926735064E+01  0.28626609475E+01  0.72461432074E+02  0.69999819942E+02 0.  0.
        -12    1    1    2    0    0  0.16390713243E+02  0.85926735064E+01 -0.28626609475E+01  0.18726567926E+02  0.00000000000E+00 0.  1.
         11    1    3    3    0    0 -0.27704818912E+02  0.15930718967E+02  0.41083422507E+01  0.32221472252E+02  0.51100000000E-03 0. -1.
        -11    1    3    3    0    0 -0.67057248059E+01  0.13995564614E+01 -0.49515690703E+01  0.84524280524E+01  0.51100000000E-03 0.  1.
         12    1    3    3    0    0  0.18019830475E+02 -0.25922948935E+02  0.37058877671E+01  0.31787531769E+02  0.00000000000E+00 0. -1.
</event>
<event>
 7    1  0.1749439E-013  0.7246157E+02  0.7816164E-02  0.1226708E+00
        -11   -1    0    0    0    0  0.00000000000E+00  0.00000000000E+00  0.45593999997E+02  0.45594000000E+02  0.51100000000E-03 0.  1.
         11   -1    0    0    0    0 -0.00000000000E+00 -0.00000000000E+00 -0.45593999997E+02  0.45594000000E+02  0.51100000000E-03 0. -1.
    9900012    2    1    2    0    0 -0.93699601064E+01 -0.12307794882E+02 -0.10554671970E+02  0.72461573014E+02  0.70000003543E+02 0.  0.
        -12    1    1    2    0    0  0.93699601064E+01  0.12307794882E+02  0.10554671970E+02  0.18726426986E+02  0.00000000000E+00 0.  1.
         11    1    3    3    0    0 -0.43396876249E+01 -0.36024912118E+01 -0.25696012402E+02  0.26307715318E+02  0.51100000000E-03 0. -1.
        -11    1    3    3    0    0 -0.13234223976E+02 -0.12155707015E+02 -0.92348967395E+01  0.20203693111E+02  0.51100000000E-03 0.  1.
        -12    1    3    3    0    0  0.82039514942E+01  0.34504033449E+01  0.24376237171E+02  0.25950164585E+02  0.00000000000E+00 0.  1.
</event>
<event>
 7    1  0.1749439E-013  0.7246155E+02  0.7816164E-02  0.1226708E+00
        -11   -1    0    0    0    0  0.00000000000E+00  0.00000000000E+00  0.45593999997E+02  0.45594000000E+02  0.51100000000E-03 0.  1.
         11   -1    0    0    0    0 -0.00000000000E+00 -0.00000000000E+00 -0.45593999997E+02  0.45594000000E+02  0.51100000000E-03 0. -1.
    9900012    2    1    2    0    0 -0.10813984521E+02 -0.10650815607E+02 -0.10968032670E+02  0.72461551459E+02  0.69999975464E+02 0.  0.
        -12    1    1    2    0    0  0.10813984521E+02  0.10650815607E+02  0.10968032670E+02  0.18726448541E+02  0.00000000000E+00 0.  1.
         11    1    3    3    0    0 -0.11046926198E+01 -0.13816950834E+02 -0.99134491808E+01  0.17041271990E+02  0.51100000000E-03 0. -1.
        -11    1    3    3    0    0  0.19797056837E+02 -0.56513702429E+01  0.97556936413E+01  0.22782339733E+02  0.51100000000E-03 0.  1.
        -12    1    3    3    0    0 -0.29506348738E+02  0.88175054700E+01 -0.10810277130E+02  0.32637939736E+02  0.00000000000E+00 0.  1.
</event>
<event>
 7    1  0.1749439E-013  0.7246156E+02  0.7816164E-02  0.1226708E+00
        -11   -1    0    0    0    0  0.00000000000E+00  0.00000000000E+00  0.45593999997E+02  0.45594000000E+02  0.51100000000E-03 0. -1.
         11   -1    0    0    0    0 -0.00000000000E+00 -0.00000000000E+00 -0.45593999997E+02  0.45594000000E+02  0.51100000000E-03 0.  1.
    9900012    2    1    2    0    0 -0.18330822562E+00 -0.16104015685E+02  0.95554500011E+01  0.72461560194E+02  0.69999986843E+02 0.  0.
        -12    1    1    2    0    0  0.18330822562E+00  0.16104015685E+02 -0.95554500011E+01  0.18726439806E+02  0.00000000000E+00 0.  1.
         11    1    3    3    0    0  0.34356303441E+00  0.65225140255E+01 -0.54421835415E+01  0.85016814061E+01  0.51100000000E-03 0. -1.
        -11    1    3    3    0    0 -0.19196038763E+02  0.10625751098E+02  0.13570939425E+02  0.25798544295E+02  0.51100000000E-03 0.  1.
         12    1    3    3    0    0  0.18669167503E+02 -0.33252280808E+02  0.14266941176E+01  0.38161334493E+02  0.00000000000E+00 0. -1.
</event>
<event>
 7    1  0.1749439E-013  0.7246155E+02  0.7816164E-02  0.1226708E+00
        -11   -1    0    0    0    0  0.00000000000E+00  0.00000000000E+00  0.45593999997E+02  0.45594000000E+02  0.51100000000E-03 0. -1.
         11   -1    0    0    0    0 -0.00000000000E+00 -0.00000000000E+00 -0.45593999997E+02  0.45594000000E+02  0.51100000000E-03 0.  1.
    9900012    2    1    2    0    0 -0.16574169900E+02  0.66788968418E+01  0.56008242281E+01  0.72461548042E+02  0.69999971013E+02 0.  0.
        -12    1    1    2    0    0  0.16574169900E+02 -0.66788968418E+01 -0.56008242281E+01  0.18726451958E+02  0.00000000000E+00 0.  1.
         11    1    3    3    0    0  0.57420012358E+01 -0.19117565305E+01 -0.60424874385E+01  0.85520199912E+01  0.51100000000E-03 0. -1.
        -11    1    3    3    0    0 -0.43700183896E+01  0.39174093411E+01 -0.23473955236E+02  0.24196481797E+02  0.51100000000E-03 0.  1.
         12    1    3    3    0    0 -0.17946152746E+02  0.46732440312E+01  0.35117266902E+02  0.39713046255E+02  0.00000000000E+00 0. -1.
</event>
<event>
 7    1  0.1749439E-013  0.7246156E+02  0.7816164E-02  0.1226708E+00
        -11   -1    0    0    0    0  0.00000000000E+00  0.00000000000E+00  0.45593999997E+02  0.45594000000E+02  0.51100000000E-03 0.  1.
         11   -1    0    0    0    0 -0.00000000000E+00 -0.00000000000E+00 -0.45593999997E+02  0.45594000000E+02  0.51100000000E-03 0. -1.
    9900012    2    1    2    0    0  0.14669123010E+02 -0.51761753612E+01 -0.10426094066E+02  0.72461564174E+02  0.69999992028E+02 0.  0.
        -12    1    1    2    0    0 -0.14669123010E+02  0.51761753612E+01  0.10426094066E+02  0.18726435826E+02  0.00000000000E+00 0.  1.
         11    1    3    3    0    0  0.54188779880E+01  0.10447830275E+02  0.68974601752E+01  0.13641713720E+02  0.51100000000E-03 0. -1.
        -11    1    3    3    0    0 -0.17289392011E+02 -0.99026835649E+00  0.82337867199E+01  0.19175477870E+02  0.51100000000E-03 0.  1.
         12    1    3    3    0    0  0.26539637033E+02 -0.14633737279E+02 -0.25557340961E+02  0.39644372584E+02  0.00000000000E+00 0. -1.
</event>
<event>
 7    1  0.1749439E-013  0.7246155E+02  0.7816164E-02  0.1226708E+00
        -11   -1    0    0    0    0  0.00000000000E+00  0.00000000000E+00  0.45593999997E+02  0.45594000000E+02  0.51100000000E-03 0.  1.
         11   -1    0    0    0    0 -0.00000000000E+00 -0.00000000000E+00 -0.45593999997E+02  0.45594000000E+02  0.51100000000E-03 0. -1.
    9900012    2    1    2    0    0 -0.75647431314E+01 -0.10054503004E+02 -0.13869448381E+02  0.72461548983E+02  0.69999972238E+02 0.  0.
        -12    1    1    2    0    0  0.75647431314E+01  0.10054503004E+02  0.13869448381E+02  0.18726451017E+02  0.00000000000E+00 0.  1.
         11    1    3    3    0    0 -0.29112626201E+01 -0.38008040050E+01 -0.14894942466E+01  0.50139958615E+01  0.51100000000E-03 0. -1.
        -11    1    3    3    0    0 -0.21464157509E+02  0.23681947765E+02 -0.54709160535E+01  0.32426464967E+02  0.51100000000E-03 0.  1.
         12    1    3    3    0    0  0.16810676998E+02 -0.29935646764E+02 -0.69090380808E+01  0.35021088154E+02  0.00000000000E+00 0. -1.
</event>
<event>
 7    1  0.1749439E-013  0.7246161E+02  0.7816164E-02  0.1226708E+00
        -11   -1    0    0    0    0  0.00000000000E+00  0.00000000000E+00  0.45593999997E+02  0.45594000000E+02  0.51100000000E-03 0. -1.
         11   -1    0    0    0    0 -0.00000000000E+00 -0.00000000000E+00 -0.45593999997E+02  0.45594000000E+02  0.51100000000E-03 0.  1.
    9900012    2    1    2    0    0  0.45233312441E+01 -0.14899271362E+02  0.10403315759E+02  0.72461607089E+02  0.70000047932E+02 0.  0.
        -12    1    1    2    0    0 -0.45233312441E+01  0.14899271362E+02 -0.10403315759E+02  0.18726392911E+02  0.00000000000E+00 0.  1.
         11    1    3    3    0    0  0.16968882968E+02  0.26898684027E+01  0.31511733583E+01  0.17467348826E+02  0.51100000000E-03 0. -1.
        -11    1    3    3    0    0 -0.18631899029E+02  0.12926948597E+02  0.74097180351E+01  0.23857023768E+02  0.51100000000E-03 0.  1.
         12    1    3    3    0    0  0.61863473052E+01 -0.30516088362E+02 -0.15757563402E+00  0.31137234495E+02  0.00000000000E+00 0. -1.
</event>
<event>
 7    1  0.1749439E-013  0.7246153E+02  0.7816164E-02  0.1226708E+00
        -11   -1    0    0    0    0  0.00000000000E+00  0.00000000000E+00  0.45593999997E+02  0.45594000000E+02  0.51100000000E-03 0.  1.
         11   -1    0    0    0    0 -0.00000000000E+00 -0.00000000000E+00 -0.45593999997E+02  0.45594000000E+02  0.51100000000E-03 0. -1.
    9900012    2    1    2    0    0  0.21877940570E+01 -0.10076095631E+02 -0.15632228282E+02  0.72461529242E+02  0.69999946521E+02 0.  0.
        -12    1    1    2    0    0 -0.21877940570E+01  0.10076095631E+02  0.15632228282E+02  0.18726470758E+02  0.00000000000E+00 0.  1.
         11    1    3    3    0    0  0.75168307729E+01 -0.30479505109E+02 -0.25191698067E+02  0.40250771773E+02  0.51100000000E-03 0. -1.
        -11    1    3    3    0    0 -0.39843922758E-01 -0.97726236942E+00 -0.54632412884E+01  0.55501022435E+01  0.51100000000E-03 0.  1.
        -12    1    3    3    0    0 -0.52891927931E+01  0.21380671847E+02  0.15022711074E+02  0.26660655225E+02  0.00000000000E+00 0.  1.
</event>
<event>
 7    1  0.1749439E-013  0.7246157E+02  0.7816164E-02  0.1226708E+00
        -11   -1    0    0    0    0  0.00000000000E+00  0.00000000000E+00  0.45593999997E+02  0.45594000000E+02  0.51100000000E-03 0.  1.
         11   -1    0    0    0    0 -0.00000000000E+00 -0.00000000000E+00 -0.45593999997E+02  0.45594000000E+02  0.51100000000E-03 0. -1.
    9900012    2    1    2    0    0  0.28281916772E+01 -0.16549872021E+02 -0.82934994581E+01  0.72461573076E+02  0.70000003623E+02 0.  0.
        -12    1    1    2    0    0 -0.28281916772E+01  0.16549872021E+02  0.82934994581E+01  0.18726426924E+02  0.00000000000E+00 0.  1.
         11    1    3    3    0    0  0.11387476303E+02 -0.16566745894E+02  0.29160087370E+01  0.20313414122E+02  0.51100000000E-03 0. -1.
        -11    1    3    3    0    0 -0.19604243657E+01 -0.23294546929E+02  0.37480283995E+01  0.23675449256E+02  0.51100000000E-03 0.  1.
        -12    1    3    3    0    0 -0.65988602604E+01  0.23311420802E+02 -0.14957536595E+02  0.28472709698E+02  0.00000000000E+00 0.  1.
</event>
<event>
 7    1  0.1749439E-013  0.7246157E+02  0.7816164E-02  0.1226708E+00
        -11   -1    0    0    0    0  0.00000000000E+00  0.00000000000E+00  0.45593999997E+02  0.45594000000E+02  0.51100000000E-03 0. -1.
         11   -1    0    0    0    0 -0.00000000000E+00 -0.00000000000E+00 -0.45593999997E+02  0.45594000000E+02  0.51100000000E-03 0.  1.
    9900012    2    1    2    0    0  0.90032938627E+01 -0.36712755371E-01  0.16420062119E+02  0.72461572466E+02  0.70000002829E+02 0.  0.
        -12    1    1    2    0    0 -0.90032938627E+01  0.36712755371E-01 -0.16420062119E+02  0.18726427534E+02  0.00000000000E+00 0.  1.
         11    1    3    3    0    0  0.74217747209E+01 -0.24883836656E+02  0.59660998271E+01  0.26643618638E+02  0.51100000000E-03 0. -1.
        -11    1    3    3    0    0  0.33562613399E+00 -0.30335205907E+01 -0.10489890761E+02  0.10924866156E+02  0.51100000000E-03 0.  1.
        -12    1    3    3    0    0  0.12458930078E+01  0.27880644491E+02  0.20943853053E+02  0.34893087672E+02  0.00000000000E+00 0.  1.
</event>
<event>
 7    1  0.1749439E-013  0.7246158E+02  0.7816164E-02  0.1226708E+00
        -11   -1    0    0    0    0  0.00000000000E+00  0.00000000000E+00  0.45593999997E+02  0.45594000000E+02  0.51100000000E-03 0. -1.
         11   -1    0    0    0    0 -0.00000000000E+00 -0.00000000000E+00 -0.45593999997E+02  0.45594000000E+02  0.51100000000E-03 0.  1.
    9900012    2    1    2    0    0 -0.77549540417E+01 -0.42260052896E+01  0.16513030980E+02  0.72461584832E+02  0.70000018939E+02 0.  0.
        -12    1    1    2    0    0  0.77549540417E+01  0.42260052896E+01 -0.16513030980E+02  0.18726415168E+02  0.00000000000E+00 0.  1.
         11    1    3    3    0    0  0.42897928802E+01 -0.13736535150E+02  0.82836705793E+01  0.16604635480E+02  0.51100000000E-03 0. -1.
        -11    1    3    3    0    0 -0.24170659772E+02 -0.14337693496E+02  0.90189058270E+00  0.28117675144E+02  0.51100000000E-03 0.  1.
        -12    1    3    3    0    0  0.12125912850E+02  0.23848223357E+02  0.73274698176E+01  0.27739274209E+02  0.00000000000E+00 0.  1.
</event>
<event>
 7    1  0.1749439E-013  0.7246152E+02  0.7816164E-02  0.1226708E+00
        -11   -1    0    0    0    0  0.00000000000E+00  0.00000000000E+00  0.45593999997E+02  0.45594000000E+02  0.51100000000E-03 0. -1.
         11   -1    0    0    0    0 -0.00000000000E+00 -0.00000000000E+00 -0.45593999997E+02  0.45594000000E+02  0.51100000000E-03 0.  1.
    9900012    2    1    2    0    0  0.18230410579E+02 -0.12130333115E+01 -0.41063219813E+01  0.72461516083E+02  0.69999929379E+02 0.  0.
        -12    1    1    2    0    0 -0.18230410579E+02  0.12130333115E+01  0.41063219813E+01  0.18726483917E+02  0.00000000000E+00 0.  1.
         11    1    3    3    0    0 -0.80827966708E+00 -0.19024464500E+02  0.19876310755E-01  0.19041637557E+02  0.51100000000E-03 0. -1.
        -11    1    3    3    0    0 -0.74124453737E+01 -0.11334340396E+01 -0.16882477354E+02  0.18472873653E+02  0.51100000000E-03 0.  1.
         12    1    3    3    0    0  0.26451135620E+02  0.18944865228E+02  0.12756279062E+02  0.34947004873E+02  0.00000000000E+00 0. -1.
</event>
<event>
 7    1  0.1749439E-013  0.7246173E+02  0.7816164E-02  0.1226708E+00
        -11   -1    0    0    0    0  0.00000000000E+00  0.00000000000E+00  0.45593999997E+02  0.45594000000E+02  0.51100000000E-03 0.  1.
         11   -1    0    0    0    0 -0.00000000000E+00 -0.00000000000E+00 -0.45593999997E+02  0.45594000000E+02  0.51100000000E-03 0. -1.
    9900012    2    1    2    0    0  0.11603700247E+02  0.27344556313E+00 -0.14695320115E+02  0.72461733282E+02  0.70000212321E+02 0.  0.
        -12    1    1    2    0    0 -0.11603700247E+02 -0.27344556313E+00  0.14695320115E+02  0.18726266718E+02  0.00000000000E+00 0.  1.
         11    1    3    3    0    0 -0.10601547525E+02  0.89537855824E+01 -0.14477212897E+02  0.20053747274E+02  0.51100000000E-03 0. -1.
        -11    1    3    3    0    0  0.14093547843E+02 -0.16017990612E+02 -0.20357778761E+02  0.29489714655E+02  0.51100000000E-03 0.  1.
        -12    1    3    3    0    0  0.81116999293E+01  0.73376505925E+01  0.20139671543E+02  0.22918271354E+02  0.00000000000E+00 0.  1.
</event>
<event>
 7    1  0.1749439E-013  0.7246139E+02  0.7816164E-02  0.1226708E+00
        -11   -1    0    0    0    0  0.00000000000E+00  0.00000000000E+00  0.45593999997E+02  0.45594000000E+02  0.51100000000E-03 0.  1.
         11   -1    0    0    0    0 -0.00000000000E+00 -0.00000000000E+00 -0.45593999997E+02  0.45594000000E+02  0.51100000000E-03 0. -1.
    9900012    2    1    2    0    0 -0.22721202530E+01  0.18526225986E+02 -0.15173028851E+01  0.72461393586E+02  0.69999769805E+02 0.  0.
        -12    1    1    2    0    0  0.22721202530E+01 -0.18526225986E+02  0.15173028851E+01  0.18726606414E+02  0.00000000000E+00 0.  1.
         11    1    3    3    0    0 -0.98309729995E+00  0.46348794132E+00 -0.26483897508E+02  0.26506190387E+02  0.51100000000E-03 0. -1.
        -11    1    3    3    0    0  0.62217440177E+01  0.24309821225E+02  0.79303472486E+01  0.26316685094E+02  0.51100000000E-03 0.  1.
        -12    1    3    3    0    0 -0.75107669707E+01 -0.62470831804E+01  0.17036247374E+02  0.19638518105E+02  0.00000000000E+00 0.  1.
</event>
<event>
 7    1  0.1749439E-013  0.7246147E+02  0.7816164E-02  0.1226708E+00
        -11   -1    0    0    0    0  0.00000000000E+00  0.00000000000E+00  0.45593999997E+02  0.45594000000E+02  0.51100000000E-03 0.  1.
         11   -1    0    0    0    0 -0.00000000000E+00 -0.00000000000E+00 -0.45593999997E+02  0.45594000000E+02  0.51100000000E-03 0. -1.
    9900012    2    1    2    0    0 -0.75586147923E+01  0.15711639596E+02 -0.68333520637E+01  0.72461468639E+02  0.69999867575E+02 0.  0.
        -12    1    1    2    0    0  0.75586147923E+01 -0.15711639596E+02  0.68333520637E+01  0.18726531361E+02  0.00000000000E+00 0.  1.
         11    1    3    3    0    0 -0.12425815093E+02  0.14221623339E+01 -0.20822096120E+01  0.12679078183E+02  0.51100000000E-03 0. -1.
        -11    1    3    3    0    0 -0.94493228653E+01  0.18977662307E+02  0.21069014010E+02  0.29888872860E+02  0.51100000000E-03 0.  1.
        -12    1    3    3    0    0  0.14316523166E+02 -0.46881850446E+01 -0.25820156462E+02  0.29893517596E+02  0.00000000000E+00 0.  1.
</event>
<event>
 7    1  0.1749439E-013  0.7246165E+02  0.7816164E-02  0.1226708E+00
        -11   -1    0    0    0    0  0.00000000000E+00  0.00000000000E+00  0.45593999997E+02  0.45594000000E+02  0.51100000000E-03 0.  1.
         11   -1    0    0    0    0 -0.00000000000E+00 -0.00000000000E+00 -0.45593999997E+02  0.45594000000E+02  0.51100000000E-03 0. -1.
    9900012    2    1    2    0    0 -0.45332301243E+01 -0.62300286426E+01 -0.17067881402E+02  0.72461654714E+02  0.70000109972E+02 0.  0.
        -12    1    1    2    0    0  0.45332301243E+01  0.62300286426E+01  0.17067881402E+02  0.18726345286E+02  0.00000000000E+00 0.  1.
         11    1    3    3    0    0  0.19944805429E+01  0.15216636491E+02 -0.29836308285E+02  0.33551889232E+02  0.51100000000E-03 0. -1.
        -11    1    3    3    0    0 -0.51995865474E+01  0.63059263936E+01 -0.35746109570E+00  0.81809648968E+01  0.51100000000E-03 0.  1.
        -12    1    3    3    0    0 -0.13281241198E+01 -0.27752591527E+02  0.13125887979E+02  0.30728800585E+02  0.00000000000E+00 0.  1.
</event>
<event>
 7    1  0.1749439E-013  0.7246136E+02  0.7816164E-02  0.1226709E+00
        -11   -1    0    0    0    0  0.00000000000E+00  0.00000000000E+00  0.45593999997E+02  0.45594000000E+02  0.51100000000E-03 0. -1.
         11   -1    0    0    0    0 -0.00000000000E+00 -0.00000000000E+00 -0.45593999997E+02  0.45594000000E+02  0.51100000000E-03 0.  1.
    9900012    2    1    2    0    0 -0.76388375106E+01  0.17016887286E+02  0.16615510633E+01  0.72461360063E+02  0.69999726133E+02 0.  0.
        -12    1    1    2    0    0  0.76388375106E+01 -0.17016887286E+02 -0.16615510633E+01  0.18726639937E+02  0.00000000000E+00 0.  1.
         11    1    3    3    0    0 -0.26708533124E+01 -0.82165357652E+01 -0.57006282187E+01  0.10350945838E+02  0.51100000000E-03 0. -1.
        -11    1    3    3    0    0 -0.13386088644E+02  0.38153405481E+02 -0.70030968308E+01  0.41035510043E+02  0.51100000000E-03 0.  1.
         12    1    3    3    0    0  0.84181044461E+01 -0.12919982430E+02  0.14365276113E+02  0.21074904181E+02  0.00000000000E+00 0. -1.
</event>
<event>
 7    1  0.1749439E-013  0.7246157E+02  0.7816164E-02  0.1226708E+00
        -11   -1    0    0    0    0  0.00000000000E+00  0.00000000000E+00  0.45593999997E+02  0.45594000000E+02  0.51100000000E-03 0.  1.
         11   -1    0    0    0    0 -0.00000000000E+00 -0.00000000000E+00 -0.45593999997E+02  0.45594000000E+02  0.51100000000E-03 0. -1.
    9900012    2    1    2    0    0  0.14147795634E+02  0.11111315393E+02  0.52016942939E+01  0.72461572829E+02  0.70000003302E+02 0.  0.
        -12    1    1    2    0    0 -0.14147795634E+02 -0.11111315393E+02 -0.52016942939E+01  0.18726427171E+02  0.00000000000E+00 0.  1.
         11    1    3    3    0    0 -0.11899092033E+01  0.92717085739E+01 -0.13172455225E+02  0.16152214731E+02  0.51100000000E-03 0. -1.
        -11    1    3    3    0    0  0.13289373802E+02  0.25840698816E+02  0.84959804442E+01  0.30274260607E+02  0.51100000000E-03 0.  1.
         12    1    3    3    0    0  0.20483310354E+01 -0.24001091997E+02  0.98781690749E+01  0.26035097491E+02  0.00000000000E+00 0. -1.
</event>
<event>
 7    1  0.1749439E-013  0.7246173E+02  0.7816164E-02  0.1226708E+00
        -11   -1    0    0    0    0  0.00000000000E+00  0.00000000000E+00  0.45593999997E+02  0.45594000000E+02  0.51100000000E-03 0.  1.
         11   -1    0    0    0    0 -0.00000000000E+00 -0.00000000000E+00 -0.45593999997E+02  0.45594000000E+02  0.51100000000E-03 0. -1.
    9900012    2    1    2    0    0  0.36571633310E+01 -0.27286383930E+01 -0.18161850192E+02  0.72461731992E+02  0.70000210641E+02 0.  0.
        -12    1    1    2    0    0 -0.36571633310E+01  0.27286383930E+01  0.18161850192E+02  0.18726268008E+02  0.00000000000E+00 0.  1.
         11    1    3    3    0    0 -0.31919329713E+01 -0.24284921434E+02 -0.40778083530E+01  0.24830915536E+02  0.51100000000E-03 0. -1.
        -11    1    3    3    0    0  0.81632676037E-01 -0.42420600584E+01  0.10520570927E+02  0.11343903664E+02  0.51100000000E-03 0.  1.
        -12    1    3    3    0    0  0.67674636263E+01  0.25798343100E+02 -0.24604612766E+02  0.36286912792E+02  0.00000000000E+00 0.  1.
</event>
<event>
 7    1  0.1749439E-013  0.7246150E+02  0.7816164E-02  0.1226708E+00
        -11   -1    0    0    0    0  0.00000000000E+00  0.00000000000E+00  0.45593999997E+02  0.45594000000E+02  0.51100000000E-03 0. -1.
         11   -1    0    0    0    0 -0.00000000000E+00 -0.00000000000E+00 -0.45593999997E+02  0.45594000000E+02  0.51100000000E-03 0.  1.
    9900012    2    1    2    0    0  0.17765406033E+02  0.17100743776E+01  0.56699012564E+01  0.72461500430E+02  0.69999908988E+02 0.  0.
        -12    1    1    2    0    0 -0.17765406033E+02 -0.17100743776E+01 -0.56699012564E+01  0.18726499570E+02  0.00000000000E+00 0.  1.
         11    1    3    3    0    0  0.28143421656E+02  0.13341057284E+02 -0.55746664648E+01  0.31640368178E+02  0.51100000000E-03 0. -1.
        -11    1    3    3    0    0 -0.25659964571E+00  0.85305873318E+01 -0.75988635361E+01  0.11427138352E+02  0.51100000000E-03 0.  1.
         12    1    3    3    0    0 -0.10121415978E+02 -0.20161570238E+02  0.18843431257E+02  0.29393993900E+02  0.00000000000E+00 0. -1.
</event>
<event>
 7    1  0.1749439E-013  0.7246145E+02  0.7816164E-02  0.1226708E+00
        -11   -1    0    0    0    0  0.00000000000E+00  0.00000000000E+00  0.45593999997E+02  0.45594000000E+02  0.51100000000E-03 0.  1.
         11   -1    0    0    0    0 -0.00000000000E+00 -0.00000000000E+00 -0.45593999997E+02  0.45594000000E+02  0.51100000000E-03 0. -1.
    9900012    2    1    2    0    0  0.32814969310E+01  0.12809994423E+02 -0.13259700826E+02  0.72461445452E+02  0.69999837370E+02 0.  0.
        -12    1    1    2    0    0 -0.32814969310E+01 -0.12809994423E+02  0.13259700826E+02  0.18726554548E+02  0.00000000000E+00 0.  1.
         11    1    3    3    0    0  0.24989912781E+02 -0.11663923885E+02 -0.10195796383E+02  0.29402331971E+02  0.51100000000E-03 0. -1.
        -11    1    3    3    0    0  0.23481941131E+00  0.30775463637E+00 -0.97346406294E+01  0.97423345004E+01  0.51100000000E-03 0.  1.
        -12    1    3    3    0    0 -0.21943235261E+02  0.24166163672E+02  0.66707361871E+01  0.33316778981E+02  0.00000000000E+00 0.  1.
</event>
<event>
 7    1  0.1749439E-013  0.7246157E+02  0.7816164E-02  0.1226708E+00
        -11   -1    0    0    0    0  0.00000000000E+00  0.00000000000E+00  0.45593999997E+02  0.45594000000E+02  0.51100000000E-03 0.  1.
         11   -1    0    0    0    0 -0.00000000000E+00 -0.00000000000E+00 -0.45593999997E+02  0.45594000000E+02  0.51100000000E-03 0. -1.
    9900012    2    1    2    0    0  0.85162580296E+01  0.16521319375E+02  0.22800394178E+01  0.72461568828E+02  0.69999998089E+02 0.  0.
        -12    1    1    2    0    0 -0.85162580296E+01 -0.16521319375E+02 -0.22800394178E+01  0.18726431172E+02  0.00000000000E+00 0.  1.
         11    1    3    3    0    0  0.76444103526E+01  0.88992776140E+01 -0.21914051370E+02  0.24856785781E+02  0.51100000000E-03 0. -1.
        -11    1    3    3    0    0  0.17298626841E+02  0.45836872192E+01 -0.36886395038E+00  0.17899406135E+02  0.51100000000E-03 0.  1.
        -12    1    3    3    0    0 -0.16426779164E+02  0.30383545417E+01  0.24562954738E+02  0.29705376912E+02  0.00000000000E+00 0.  1.
</event>
<event>
 7    1  0.1749439E-013  0.7246156E+02  0.7816164E-02  0.1226708E+00
        -11   -1    0    0    0    0  0.00000000000E+00  0.00000000000E+00  0.45593999997E+02  0.45594000000E+02  0.51100000000E-03 0.  1.
         11   -1    0    0    0    0 -0.00000000000E+00 -0.00000000000E+00 -0.45593999997E+02  0.45594000000E+02  0.51100000000E-03 0. -1.
    9900012    2    1    2    0    0 -0.52422612507E+01  0.17938552620E+02  0.11859538866E+01  0.72461562545E+02  0.69999989906E+02 0.  0.
        -12    1    1    2    0    0  0.52422612507E+01 -0.17938552620E+02 -0.11859538866E+01  0.18726437455E+02  0.00000000000E+00 0.  1.
         11    1    3    3    0    0 -0.17106562242E+02  0.47266142322E+01  0.11238377654E+02  0.21006581978E+02  0.51100000000E-03 0. -1.
        -11    1    3    3    0    0 -0.18207672131E+02  0.70636166302E+01 -0.63615928555E+01  0.20539811787E+02  0.51100000000E-03 0.  1.
        -12    1    3    3    0    0  0.30071973122E+02  0.61483217576E+01 -0.36908309120E+01  0.30915168780E+02  0.00000000000E+00 0.  1.
</event>
<event>
 7    1  0.1749439E-013  0.7246159E+02  0.7816164E-02  0.1226708E+00
        -11   -1    0    0    0    0  0.00000000000E+00  0.00000000000E+00  0.45593999997E+02  0.45594000000E+02  0.51100000000E-03 0.  1.
         11   -1    0    0    0    0 -0.00000000000E+00 -0.00000000000E+00 -0.45593999997E+02  0.45594000000E+02  0.51100000000E-03 0. -1.
    9900012    2    1    2    0    0  0.24589370219E+01  0.18118375520E+02  0.40443361743E+01  0.72461586626E+02  0.70000021275E+02 0.  0.
        -12    1    1    2    0    0 -0.24589370219E+01 -0.18118375520E+02 -0.40443361743E+01  0.18726413374E+02  0.00000000000E+00 0.  1.
         11    1    3    3    0    0  0.23897280620E+02  0.14755560831E+02 -0.11952562589E+02  0.30523275531E+02  0.51100000000E-03 0. -1.
        -11    1    3    3    0    0 -0.55895394273E+01  0.16905006223E+02  0.57573519973E+01  0.18712810817E+02  0.51100000000E-03 0.  1.
         12    1    3    3    0    0 -0.15848804170E+02 -0.13542191533E+02  0.10239546766E+02  0.23225500277E+02  0.00000000000E+00 0. -1.
</event>
<event>
 7    1  0.1749439E-013  0.7246165E+02  0.7816164E-02  0.1226708E+00
        -11   -1    0    0    0    0  0.00000000000E+00  0.00000000000E+00  0.45593999997E+02  0.45594000000E+02  0.51100000000E-03 0. -1.
         11   -1    0    0    0    0 -0.00000000000E+00 -0.00000000000E+00 -0.45593999997E+02  0.45594000000E+02  0.51100000000E-03 0.  1.
    9900012    2    1    2    0    0 -0.74130819792E+01 -0.17195672235E+02  0.17732114610E+00  0.72461645020E+02  0.70000097344E+02 0.  0.
        -12    1    1    2    0    0  0.74130819792E+01  0.17195672235E+02 -0.17732114610E+00  0.18726354980E+02  0.00000000000E+00 0.  1.
         11    1    3    3    0    0 -0.26363730344E+02 -0.14068444842E+02  0.24544570487E+02  0.38670445544E+02  0.51100000000E-03 0. -1.
        -11    1    3    3    0    0  0.11617369808E+02  0.32786572589E+01 -0.72016329468E+01  0.14056186966E+02  0.51100000000E-03 0.  1.
        -12    1    3    3    0    0  0.73332785564E+01 -0.64058846523E+01 -0.17165616394E+02  0.19735012510E+02  0.00000000000E+00 0.  1.
</event>
<event>
 7    1  0.1749439E-013  0.7246162E+02  0.7816164E-02  0.1226708E+00
        -11   -1    0    0    0    0  0.00000000000E+00  0.00000000000E+00  0.45593999997E+02  0.45594000000E+02  0.51100000000E-03 0.  1.
         11   -1    0    0    0    0 -0.00000000000E+00 -0.00000000000E+00 -0.45593999997E+02  0.45594000000E+02  0.51100000000E-03 0. -1.
    9900012    2    1    2    0    0  0.77819466582E+01 -0.14707176555E+02 -0.85917093755E+01  0.72461622721E+02  0.70000068295E+02 0.  0.
        -12    1    1    2    0    0 -0.77819466582E+01  0.14707176555E+02  0.85917093755E+01  0.18726377279E+02  0.00000000000E+00 0.  1.
         11    1    3    3    0    0 -0.71215138748E+00 -0.25814306731E+02 -0.17570408364E+02  0.31234673712E+02  0.51100000000E-03 0. -1.
        -11    1    3    3    0    0 -0.12205926081E+02 -0.13801726480E+00  0.12426175375E+02  0.17418769043E+02  0.51100000000E-03 0.  1.
         12    1    3    3    0    0  0.20700024127E+02  0.11245147440E+02 -0.34474763867E+01  0.23808179965E+02  0.00000000000E+00 0. -1.
</event>
<event>
 7    1  0.1749439E-013  0.7246158E+02  0.7816164E-02  0.1226708E+00
        -11   -1    0    0    0    0  0.00000000000E+00  0.00000000000E+00  0.45593999997E+02  0.45594000000E+02  0.51100000000E-03 0.  1.
         11   -1    0    0    0    0 -0.00000000000E+00 -0.00000000000E+00 -0.45593999997E+02  0.45594000000E+02  0.51100000000E-03 0. -1.
    9900012    2    1    2    0    0 -0.66481278867E+01  0.12996617289E+02 -0.11728994321E+02  0.72461575537E+02  0.70000006830E+02 0.  0.
        -12    1    1    2    0    0  0.66481278867E+01 -0.12996617289E+02  0.11728994321E+02  0.18726424463E+02  0.00000000000E+00 0.  1.
         11    1    3    3    0    0 -0.67584744964E+01  0.12882527209E+02 -0.26380842205E+02  0.30126156750E+02  0.51100000000E-03 0. -1.
        -11    1    3    3    0    0 -0.87465098414E+01 -0.13601959733E+02 -0.48672784350E+01  0.16888017723E+02  0.51100000000E-03 0.  1.
        -12    1    3    3    0    0  0.88568564511E+01  0.13716049814E+02  0.19519126318E+02  0.25447401065E+02  0.00000000000E+00 0.  1.
</event>
<event>
 7    1  0.1749439E-013  0.7246157E+02  0.7816164E-02  0.1226708E+00
        -11   -1    0    0    0    0  0.00000000000E+00  0.00000000000E+00  0.45593999997E+02  0.45594000000E+02  0.51100000000E-03 0. -1.
         11   -1    0    0    0    0 -0.00000000000E+00 -0.00000000000E+00 -0.45593999997E+02  0.45594000000E+02  0.51100000000E-03 0.  1.
    9900012    2    1    2    0    0  0.13355395797E+02 -0.74545682275E+01 -0.10804725591E+02  0.72461567359E+02  0.69999996176E+02 0.  0.
        -12    1    1    2    0    0 -0.13355395797E+02  0.74545682275E+01  0.10804725591E+02  0.18726432641E+02  0.00000000000E+00 0.  1.
         11    1    3    3    0    0 -0.34927356109E+01  0.77530603256E+00 -0.32030542308E+01  0.48020681126E+01  0.51100000000E-03 0. -1.
        -11    1    3    3    0    0  0.15522287988E+02  0.36362628515E+01 -0.34623334488E+02  0.38117438571E+02  0.51100000000E-03 0.  1.
         12    1    3    3    0    0  0.13258434208E+01 -0.11866137112E+02  0.27021663128E+02  0.29542060675E+02  0.00000000000E+00 0. -1.
</event>
<event>
 7    1  0.1749439E-013  0.7246157E+02  0.7816164E-02  0.1226708E+00
        -11   -1    0    0    0    0  0.00000000000E+00  0.00000000000E+00  0.45593999997E+02  0.45594000000E+02  0.51100000000E-03 0. -1.
         11   -1    0    0    0    0 -0.00000000000E+00 -0.00000000000E+00 -0.45593999997E+02  0.45594000000E+02  0.51100000000E-03 0.  1.
    9900012    2    1    2    0    0  0.11876165097E+02 -0.50451448653E+01  0.13571386416E+02  0.72461566453E+02  0.69999994996E+02 0.  0.
        -12    1    1    2    0    0 -0.11876165097E+02  0.50451448653E+01 -0.13571386416E+02  0.18726433547E+02  0.00000000000E+00 0.  1.
         11    1    3    3    0    0 -0.10603701579E+02 -0.18320769212E+02  0.43422163054E+01  0.21608885080E+02  0.51100000000E-03 0. -1.
        -11    1    3    3    0    0  0.88891298514E+01 -0.11323874140E+02 -0.93468584763E+01  0.17164222053E+02  0.51100000000E-03 0.  1.
        -12    1    3    3    0    0  0.13590736826E+02  0.24599498487E+02  0.18576028587E+02  0.33688459320E+02  0.00000000000E+00 0.  1.
</event>
<event>
 7    1  0.1749439E-013  0.7246157E+02  0.7816164E-02  0.1226708E+00
        -11   -1    0    0    0    0  0.00000000000E+00  0.00000000000E+00  0.45593999997E+02  0.45594000000E+02  0.51100000000E-03 0.  1.
         11   -1    0    0    0    0 -0.00000000000E+00 -0.00000000000E+00 -0.45593999997E+02  0.45594000000E+02  0.51100000000E-03 0. -1.
    9900012    2    1    2    0    0 -0.73269725072E+00  0.11416992920E+02 -0.14825472364E+02  0.72461569390E+02  0.69999998822E+02 0.  0.
        -12    1    1    2    0    0  0.73269725072E+00 -0.11416992920E+02  0.14825472364E+02  0.18726430610E+02  0.00000000000E+00 0.  1.
         11    1    3    3    0    0  0.39723925344E+01 -0.13101263385E+02 -0.12008715248E+02  0.18210772826E+02  0.51100000000E-03 0.  1.
        -11    1    3    3    0    0  0.15979082276E+02  0.70421509186E+01  0.13994717123E+02  0.22378004101E+02  0.51100000000E-03 0. -1.
         12    1    3    3    0    0 -0.20684172061E+02  0.17476105386E+02 -0.16811474238E+02  0.31872792463E+02  0.00000000000E+00 0. -1.
</event>
<event>
 7    1  0.1749439E-013  0.7246155E+02  0.7816164E-02  0.1226708E+00
        -11   -1    0    0    0    0  0.00000000000E+00  0.00000000000E+00  0.45593999997E+02  0.45594000000E+02  0.51100000000E-03 0. -1.
         11   -1    0    0    0    0 -0.00000000000E+00 -0.00000000000E+00 -0.45593999997E+02  0.45594000000E+02  0.51100000000E-03 0.  1.
    9900012    2    1    2    0    0  0.15076122274E+02 -0.10977907174E+02 -0.16958552979E+01  0.72461552555E+02  0.69999976891E+02 0.  0.
        -12    1    1    2    0    0 -0.15076122274E+02  0.10977907174E+02  0.16958552979E+01  0.18726447445E+02  0.00000000000E+00 0.  1.
         11    1    3    3    0    0  0.37151479815E+01 -0.22373927231E+02  0.10770210031E+01  0.22705834465E+02  0.51100000000E-03 0. -1.
        -11    1    3    3    0    0  0.20551138742E+02  0.53538602405E+01 -0.20094697422E+02  0.29237133714E+02  0.51100000000E-03 0.  1.
         12    1    3    3    0    0 -0.91901644496E+01  0.60421598164E+01  0.17321821121E+02  0.20518584376E+02  0.00000000000E+00 0. -1.
</event>
<event>
 7    1  0.1749439E-013  0.7246156E+02  0.7816164E-02  0.1226708E+00
        -11   -1    0    0    0    0  0.00000000000E+00  0.00000000000E+00  0.45593999997E+02  0.45594000000E+02  0.51100000000E-03 0.  1.
         11   -1    0    0    0    0 -0.00000000000E+00 -0.00000000000E+00 -0.45593999997E+02  0.45594000000E+02  0.51100000000E-03 0. -1.
    9900012    2    1    2    0    0 -0.68013596595E+00 -0.12662485143E+02 -0.13779634274E+02  0.72461563188E+02  0.69999990743E+02 0.  0.
        -12    1    1    2    0    0  0.68013596595E+00  0.12662485143E+02  0.13779634274E+02  0.18726436812E+02  0.00000000000E+00 0.  1.
         11    1    3    3    0    0  0.27638308702E+01 -0.23260521606E+01  0.66148927386E+01  0.75369812218E+01  0.51100000000E-03 0. -1.
        -11    1    3    3    0    0  0.53928406397E+01  0.14038612136E+02  0.14873622135E+02  0.21151595603E+02  0.51100000000E-03 0.  1.
         12    1    3    3    0    0 -0.88368074759E+01 -0.24375045118E+02 -0.35268149148E+02  0.43772986364E+02  0.00000000000E+00 0. -1.
</event>
<event>
 7    1  0.1749439E-013  0.7246156E+02  0.7816164E-02  0.1226708E+00
        -11   -1    0    0    0    0  0.00000000000E+00  0.00000000000E+00  0.45593999997E+02  0.45594000000E+02  0.51100000000E-03 0.  1.
         11   -1    0    0    0    0 -0.00000000000E+00 -0.00000000000E+00 -0.45593999997E+02  0.45594000000E+02  0.51100000000E-03 0. -1.
    9900012    2    1    2    0    0  0.40885037421E+00  0.56381173034E+01 -0.17852843247E+02  0.72461560473E+02  0.69999987206E+02 0.  0.
        -12    1    1    2    0    0 -0.40885037421E+00 -0.56381173034E+01  0.17852843247E+02  0.18726439527E+02  0.00000000000E+00 0.  1.
         11    1    3    3    0    0 -0.98384289008E+00 -0.18225019390E+01 -0.11536535712E+02  0.11720969100E+02  0.51100000000E-03 0. -1.
        -11    1    3    3    0    0 -0.25961293262E+02 -0.45422763380E+01 -0.14074088341E+02  0.29878102099E+02  0.51100000000E-03 0.  1.
         12    1    3    3    0    0  0.27353986526E+02  0.12002895580E+02  0.77577808055E+01  0.30862489274E+02  0.00000000000E+00 0. -1.
</event>
<event>
 7    1  0.1749439E-013  0.7246165E+02  0.7816164E-02  0.1226708E+00
        -11   -1    0    0    0    0  0.00000000000E+00  0.00000000000E+00  0.45593999997E+02  0.45594000000E+02  0.51100000000E-03 0.  1.
         11   -1    0    0    0    0 -0.00000000000E+00 -0.00000000000E+00 -0.45593999997E+02  0.45594000000E+02  0.51100000000E-03 0. -1.
    9900012    2    1    2    0    0 -0.10361333772E+01 -0.46412431481E+01 -0.18112464264E+02  0.72461652998E+02  0.70000107736E+02 0.  0.
        -12    1    1    2    0    0  0.10361333772E+01  0.46412431481E+01  0.18112464264E+02  0.18726347002E+02  0.00000000000E+00 0.  1.
         11    1    3    3    0    0  0.68293059139E+00 -0.13474598272E+02 -0.35436166125E+01  0.13949495036E+02  0.51100000000E-03 0. -1.
        -11    1    3    3    0    0  0.21747275928E+02  0.14176464055E+02  0.62369995873E+01  0.26698619955E+02  0.51100000000E-03 0.  1.
         12    1    3    3    0    0 -0.23466339897E+02 -0.53431089306E+01 -0.20805847239E+02  0.31813538007E+02  0.00000000000E+00 0. -1.
</event>
<event>
 7    1  0.1749439E-013  0.7246157E+02  0.7816164E-02  0.1226708E+00
        -11   -1    0    0    0    0  0.00000000000E+00  0.00000000000E+00  0.45593999997E+02  0.45594000000E+02  0.51100000000E-03 0.  1.
         11   -1    0    0    0    0 -0.00000000000E+00 -0.00000000000E+00 -0.45593999997E+02  0.45594000000E+02  0.51100000000E-03 0. -1.
    9900012    2    1    2    0    0  0.37099018849E+01 -0.18111662210E+02 -0.29805371758E+01  0.72461567295E+02  0.69999996092E+02 0.  0.
        -12    1    1    2    0    0 -0.37099018849E+01  0.18111662210E+02  0.29805371758E+01  0.18726432705E+02  0.00000000000E+00 0.  1.
         11    1    3    3    0    0 -0.36805515734E+01  0.10604111532E+02 -0.12605226861E+02  0.16878548093E+02  0.51100000000E-03 0. -1.
        -11    1    3    3    0    0 -0.11330720069E+02 -0.15874886907E+02 -0.13073757126E+02  0.23480212462E+02  0.51100000000E-03 0.  1.
        -12    1    3    3    0    0  0.18721173527E+02 -0.12840886835E+02  0.22698446811E+02  0.32102806740E+02  0.00000000000E+00 0.  1.
</event>
<event>
 7    1  0.1749439E-013  0.7246158E+02  0.7816164E-02  0.1226708E+00
        -11   -1    0    0    0    0  0.00000000000E+00  0.00000000000E+00  0.45593999997E+02  0.45594000000E+02  0.51100000000E-03 0. -1.
         11   -1    0    0    0    0 -0.00000000000E+00 -0.00000000000E+00 -0.45593999997E+02  0.45594000000E+02  0.51100000000E-03 0.  1.
    9900012    2    1    2    0    0  0.56396267421E+00 -0.18644080364E+02 -0.16610325983E+01  0.72461579739E+02  0.70000012303E+02 0.  0.
        -12    1    1    2    0    0 -0.56396267421E+00  0.18644080364E+02  0.16610325983E+01  0.18726420261E+02  0.00000000000E+00 0.  1.
         11    1    3    3    0    0  0.32335087076E+01  0.94288593768E+01  0.15889975996E+01  0.10093754571E+02  0.51100000000E-03 0. -1.
        -11    1    3    3    0    0 -0.13469136778E+02  0.11584239178E+02 -0.10493402847E+02  0.20633074091E+02  0.51100000000E-03 0.  1.
         12    1    3    3    0    0  0.10799590745E+02 -0.39657178919E+02  0.72433726486E+01  0.41734751076E+02  0.00000000000E+00 0. -1.
</event>
<event>
 7    1  0.1749439E-013  0.7246154E+02  0.7816164E-02  0.1226708E+00
        -11   -1    0    0    0    0  0.00000000000E+00  0.00000000000E+00  0.45593999997E+02  0.45594000000E+02  0.51100000000E-03 0. -1.
         11   -1    0    0    0    0 -0.00000000000E+00 -0.00000000000E+00 -0.45593999997E+02  0.45594000000E+02  0.51100000000E-03 0.  1.
    9900012    2    1    2    0    0  0.12677961010E+02 -0.10163736819E+02 -0.93084990793E+01  0.72461537531E+02  0.69999957320E+02 0.  0.
        -12    1    1    2    0    0 -0.12677961010E+02  0.10163736819E+02  0.93084990793E+01  0.18726462469E+02  0.00000000000E+00 0.  1.
         11    1    3    3    0    0  0.16484164935E+02 -0.32896869022E+01 -0.28944350597E+02  0.33471258794E+02  0.51100000000E-03 0. -1.
        -11    1    3    3    0    0  0.10821900702E+02  0.28869675002E+01 -0.17134991397E+01  0.11330674989E+02  0.51100000000E-03 0.  1.
         12    1    3    3    0    0 -0.14628104627E+02 -0.97610174167E+01  0.21349350657E+02  0.27659603748E+02  0.00000000000E+00 0. -1.
</event>
<event>
 7    1  0.1749439E-013  0.7246149E+02  0.7816164E-02  0.1226708E+00
        -11   -1    0    0    0    0  0.00000000000E+00  0.00000000000E+00  0.45593999997E+02  0.45594000000E+02  0.51100000000E-03 0.  1.
         11   -1    0    0    0    0 -0.00000000000E+00 -0.00000000000E+00 -0.45593999997E+02  0.45594000000E+02  0.51100000000E-03 0. -1.
    9900012    2    1    2    0    0  0.16426025799E+02 -0.30507472840E+01  0.84593723468E+01  0.72461485027E+02  0.69999888924E+02 0.  0.
        -12    1    1    2    0    0 -0.16426025799E+02  0.30507472840E+01 -0.84593723468E+01  0.18726514973E+02  0.00000000000E+00 0.  1.
         11    1    3    3    0    0 -0.15910162723E+01 -0.95657928657E+00  0.27136603617E+02  0.27200030016E+02  0.51100000000E-03 0. -1.
        -11    1    3    3    0    0 -0.47741214913E+01  0.12696890162E+02 -0.29989117343E+01  0.13892326214E+02  0.51100000000E-03 0.  1.
         12    1    3    3    0    0  0.22791163562E+02 -0.14791058159E+02 -0.15678319536E+02  0.31369128797E+02  0.00000000000E+00 0. -1.
</event>
<event>
 7    1  0.1749439E-013  0.7246158E+02  0.7816164E-02  0.1226708E+00
        -11   -1    0    0    0    0  0.00000000000E+00  0.00000000000E+00  0.45593999997E+02  0.45594000000E+02  0.51100000000E-03 0. -1.
         11   -1    0    0    0    0 -0.00000000000E+00 -0.00000000000E+00 -0.45593999997E+02  0.45594000000E+02  0.51100000000E-03 0.  1.
    9900012    2    1    2    0    0  0.13370786870E+02 -0.32804604262E+01  0.12694065126E+02  0.72461584125E+02  0.70000018017E+02 0.  0.
        -12    1    1    2    0    0 -0.13370786870E+02  0.32804604262E+01 -0.12694065126E+02  0.18726415875E+02  0.00000000000E+00 0.  1.
         11    1    3    3    0    0  0.98109936057E+01 -0.30606200270E+02  0.90477031246E+01  0.33389459753E+02  0.51100000000E-03 0. -1.
        -11    1    3    3    0    0 -0.11831107102E+02  0.10263610640E+02 -0.73564823962E+00  0.15679858967E+02  0.51100000000E-03 0.  1.
        -12    1    3    3    0    0  0.15390900366E+02  0.17062129204E+02  0.43820102407E+01  0.23392265405E+02  0.00000000000E+00 0.  1.
</event>
<event>
 7    1  0.1749439E-013  0.7246158E+02  0.7816164E-02  0.1226708E+00
        -11   -1    0    0    0    0  0.00000000000E+00  0.00000000000E+00  0.45593999997E+02  0.45594000000E+02  0.51100000000E-03 0.  1.
         11   -1    0    0    0    0 -0.00000000000E+00 -0.00000000000E+00 -0.45593999997E+02  0.45594000000E+02  0.51100000000E-03 0. -1.
    9900012    2    1    2    0    0 -0.84826134009E+01  0.38293043454E+01 -0.16249937511E+02  0.72461580935E+02  0.70000013862E+02 0.  0.
        -12    1    1    2    0    0  0.84826134009E+01 -0.38293043454E+01  0.16249937511E+02  0.18726419065E+02  0.00000000000E+00 0.  1.
         11    1    3    3    0    0  0.91955225762E+01 -0.13677428486E+02  0.15208822937E+02  0.22426278800E+02  0.51100000000E-03 0. -1.
        -11    1    3    3    0    0 -0.62374019442E+00  0.22422600196E+01  0.58328633318E+01  0.62800538799E+01  0.51100000000E-03 0.  1.
        -12    1    3    3    0    0 -0.17054395783E+02  0.15264472812E+02 -0.37291623780E+02  0.43755248255E+02  0.00000000000E+00 0.  1.
</event>
<event>
 7    1  0.1749439E-013  0.7246159E+02  0.7816164E-02  0.1226708E+00
        -11   -1    0    0    0    0  0.00000000000E+00  0.00000000000E+00  0.45593999997E+02  0.45594000000E+02  0.51100000000E-03 0. -1.
         11   -1    0    0    0    0 -0.00000000000E+00 -0.00000000000E+00 -0.45593999997E+02  0.45594000000E+02  0.51100000000E-03 0.  1.
    9900012    2    1    2    0    0  0.17148665735E+02 -0.74167489983E+01  0.12624157367E+01  0.72461585616E+02  0.70000019959E+02 0.  0.
        -12    1    1    2    0    0 -0.17148665735E+02  0.74167489983E+01 -0.12624157367E+01  0.18726414384E+02  0.00000000000E+00 0.  1.
         11    1    3    3    0    0  0.98597098175E+01 -0.15472793068E+02  0.15927249166E+02  0.24296058719E+02  0.51100000000E-03 0. -1.
        -11    1    3    3    0    0  0.15217601254E+01 -0.16945207002E+02 -0.14735577119E+02  0.22507621543E+02  0.51100000000E-03 0.  1.
         12    1    3    3    0    0  0.57671957924E+01  0.25001251072E+02  0.70743689720E-01  0.25657905353E+02  0.00000000000E+00 0. -1.
</event>
<event>
 7    1  0.1749439E-013  0.7246094E+02  0.7816164E-02  0.1226710E+00
        -11   -1    0    0    0    0  0.00000000000E+00  0.00000000000E+00  0.45593999997E+02  0.45594000000E+02  0.51100000000E-03 0. -1.
         11   -1    0    0    0    0 -0.00000000000E+00 -0.00000000000E+00 -0.45593999997E+02  0.45594000000E+02  0.51100000000E-03 0.  1.
    9900012    2    1    2    0    0  0.58647256282E+01 -0.35809234721E+01  0.17420813753E+02  0.72460940128E+02  0.69999179087E+02 0.  0.
        -12    1    1    2    0    0 -0.58647256282E+01  0.35809234721E+01 -0.17420813753E+02  0.18727059872E+02  0.00000000000E+00 0.  1.
         11    1    3    3    0    0 -0.42632493336E+00  0.13318537424E+01 -0.61622086617E+01  0.63188925605E+01  0.51100000000E-03 0. -1.
        -11    1    3    3    0    0  0.18442722246E+01 -0.22489552685E+02 -0.12473976483E+02  0.25783355282E+02  0.51100000000E-03 0.  1.
         12    1    3    3    0    0  0.44467783369E+01  0.17576775471E+02  0.36056998898E+02  0.40358692286E+02  0.00000000000E+00 0. -1.
</event>
<event>
 7    1  0.1749439E-013  0.7246154E+02  0.7816164E-02  0.1226708E+00
        -11   -1    0    0    0    0  0.00000000000E+00  0.00000000000E+00  0.45593999997E+02  0.45594000000E+02  0.51100000000E-03 0. -1.
         11   -1    0    0    0    0 -0.00000000000E+00 -0.00000000000E+00 -0.45593999997E+02  0.45594000000E+02  0.51100000000E-03 0.  1.
    9900012    2    1    2    0    0  0.11618353810E+01 -0.10541022378E+01  0.18660632863E+02  0.72461542465E+02  0.69999963747E+02 0.  0.
        -12    1    1    2    0    0 -0.11618353810E+01  0.10541022378E+01 -0.18660632863E+02  0.18726457535E+02  0.00000000000E+00 0.  1.
         11    1    3    3    0    0 -0.47107206870E+00 -0.78579725276E+00 -0.96667719638E+01  0.97100909717E+01  0.51100000000E-03 0. -1.
        -11    1    3    3    0    0  0.24847513894E+01  0.12111858582E+02 -0.13979148162E+02  0.18662467451E+02  0.51100000000E-03 0.  1.
         12    1    3    3    0    0 -0.85184393975E+00 -0.12380163567E+02  0.42306552989E+02  0.44088984042E+02  0.00000000000E+00 0. -1.
</event>
<event>
 7    1  0.1749439E-013  0.7246155E+02  0.7816164E-02  0.1226708E+00
        -11   -1    0    0    0    0  0.00000000000E+00  0.00000000000E+00  0.45593999997E+02  0.45594000000E+02  0.51100000000E-03 0.  1.
         11   -1    0    0    0    0 -0.00000000000E+00 -0.00000000000E+00 -0.45593999997E+02  0.45594000000E+02  0.51100000000E-03 0. -1.
    9900012    2    1    2    0    0  0.64443198278E+01 -0.13267947947E+02 -0.11537435278E+02  0.72461545088E+02  0.69999967165E+02 0.  0.
        -12    1    1    2    0    0 -0.64443198278E+01  0.13267947947E+02  0.11537435278E+02  0.18726454912E+02  0.00000000000E+00 0.  1.
         11    1    3    3    0    0 -0.14574762098E+01 -0.20435586613E+01  0.72119973158E+00  0.26116083585E+01  0.51100000000E-03 0. -1.
        -11    1    3    3    0    0  0.19013850093E+02 -0.22415720420E+02  0.18887231924E+02  0.34938782854E+02  0.51100000000E-03 0.  1.
         12    1    3    3    0    0 -0.11112054056E+02  0.11191331135E+02 -0.31145866934E+02  0.34911153876E+02  0.00000000000E+00 0. -1.
</event>
<event>
 7    1  0.1749439E-013  0.7246159E+02  0.7816164E-02  0.1226708E+00
        -11   -1    0    0    0    0  0.00000000000E+00  0.00000000000E+00  0.45593999997E+02  0.45594000000E+02  0.51100000000E-03 0.  1.
         11   -1    0    0    0    0 -0.00000000000E+00 -0.00000000000E+00 -0.45593999997E+02  0.45594000000E+02  0.51100000000E-03 0. -1.
    9900012    2    1    2    0    0  0.10498384893E+02  0.15118353392E+02 -0.34493139666E+01  0.72461589199E+02  0.70000024627E+02 0.  0.
        -12    1    1    2    0    0 -0.10498384893E+02 -0.15118353392E+02  0.34493139666E+01  0.18726410801E+02  0.00000000000E+00 0.  1.
         11    1    3    3    0    0  0.30157595553E+02  0.73418229950E+01 -0.11866411327E+02  0.33229424498E+02  0.51100000000E-03 0. -1.
        -11    1    3    3    0    0  0.42981532417E+01  0.10316205823E+02 -0.43188941509E+01  0.11981280016E+02  0.51100000000E-03 0.  1.
        -12    1    3    3    0    0 -0.23957363902E+02 -0.25396754256E+01  0.12735991511E+02  0.27250884686E+02  0.00000000000E+00 0.  1.
</event>
<event>
 7    1  0.1749439E-013  0.7246157E+02  0.7816164E-02  0.1226708E+00
        -11   -1    0    0    0    0  0.00000000000E+00  0.00000000000E+00  0.45593999997E+02  0.45594000000E+02  0.51100000000E-03 0. -1.
         11   -1    0    0    0    0 -0.00000000000E+00 -0.00000000000E+00 -0.45593999997E+02  0.45594000000E+02  0.51100000000E-03 0.  1.
    9900012    2    1    2    0    0 -0.10370344655E+02 -0.13607822216E+02  0.76132992792E+01  0.72461569490E+02  0.69999998952E+02 0.  0.
        -12    1    1    2    0    0  0.10370344655E+02  0.13607822216E+02 -0.76132992792E+01  0.18726430510E+02  0.00000000000E+00 0.  1.
         11    1    3    3    0    0 -0.23128925622E+02 -0.80759392828E-01  0.23221072434E+02  0.32774562206E+02  0.51100000000E-03 0.  1.
        -11    1    3    3    0    0 -0.46726408302E+01 -0.17593772639E+02 -0.10747283529E+02  0.21139501213E+02  0.51100000000E-03 0. -1.
        -12    1    3    3    0    0  0.17431221797E+02  0.40667098160E+01 -0.48604896265E+01  0.18547506071E+02  0.00000000000E+00 0.  1.
</event>
<event>
 7    1  0.1749439E-013  0.7246089E+02  0.7816164E-02  0.1226710E+00
        -11   -1    0    0    0    0  0.00000000000E+00  0.00000000000E+00  0.45593999997E+02  0.45594000000E+02  0.51100000000E-03 0.  1.
         11   -1    0    0    0    0 -0.00000000000E+00 -0.00000000000E+00 -0.45593999997E+02  0.45594000000E+02  0.51100000000E-03 0. -1.
    9900012    2    1    2    0    0 -0.17022028034E+02 -0.65806318122E+01 -0.42012466671E+01  0.72460890586E+02  0.69999114548E+02 0.  0.
        -12    1    1    2    0    0  0.17022028034E+02  0.65806318122E+01  0.42012466671E+01  0.18727109414E+02  0.00000000000E+00 0.  1.
         11    1    3    3    0    0 -0.18696548825E+02 -0.16720887175E+01  0.95170330631E+01  0.21045919729E+02  0.51100000000E-03 0. -1.
        -11    1    3    3    0    0  0.37150801019E+01  0.10738189145E+02  0.14897991158E+02  0.18736613010E+02  0.51100000000E-03 0.  1.
         12    1    3    3    0    0 -0.20405593109E+01 -0.15646732240E+02 -0.28616270888E+02  0.32678357848E+02  0.00000000000E+00 0. -1.
</event>
<event>
 7    1  0.1749439E-013  0.7246148E+02  0.7816164E-02  0.1226708E+00
        -11   -1    0    0    0    0  0.00000000000E+00  0.00000000000E+00  0.45593999997E+02  0.45594000000E+02  0.51100000000E-03 0. -1.
         11   -1    0    0    0    0 -0.00000000000E+00 -0.00000000000E+00 -0.45593999997E+02  0.45594000000E+02  0.51100000000E-03 0.  1.
    9900012    2    1    2    0    0  0.16878494621E+02  0.80740300135E+01  0.78039848003E+00  0.72461479685E+02  0.69999881965E+02 0.  0.
        -12    1    1    2    0    0 -0.16878494621E+02 -0.80740300135E+01 -0.78039848003E+00  0.18726520315E+02  0.00000000000E+00 0.  1.
         11    1    3    3    0    0  0.33719682817E+02 -0.56165346377E+01  0.63822252399E+01  0.34774923003E+02  0.51100000000E-03 0. -1.
        -11    1    3    3    0    0  0.75182123011E+01  0.88656391091E+01  0.18260607036E+01  0.11766799521E+02  0.51100000000E-03 0.  1.
        -12    1    3    3    0    0 -0.24359400498E+02  0.48249255421E+01 -0.74278874635E+01  0.25919757161E+02  0.00000000000E+00 0.  1.
</event>
<event>
 7    1  0.1749439E-013  0.7246166E+02  0.7816164E-02  0.1226708E+00
        -11   -1    0    0    0    0  0.00000000000E+00  0.00000000000E+00  0.45593999997E+02  0.45594000000E+02  0.51100000000E-03 0. -1.
         11   -1    0    0    0    0 -0.00000000000E+00 -0.00000000000E+00 -0.45593999997E+02  0.45594000000E+02  0.51100000000E-03 0.  1.
    9900012    2    1    2    0    0 -0.34824409962E+01 -0.27346620831E+01  0.18195326908E+02  0.72461663110E+02  0.70000120910E+02 0.  0.
        -12    1    1    2    0    0  0.34824409962E+01  0.27346620831E+01 -0.18195326908E+02  0.18726336890E+02  0.00000000000E+00 0.  1.
         11    1    3    3    0    0  0.13335050823E+02 -0.12641362234E+02  0.74673755744E+01  0.19834044414E+02  0.51100000000E-03 0. -1.
        -11    1    3    3    0    0  0.13610911957E+01 -0.16111271717E+02 -0.53726670413E+01  0.17037934059E+02  0.51100000000E-03 0.  1.
         12    1    3    3    0    0 -0.18178583015E+02  0.26017971868E+02  0.16100618375E+02  0.35589684638E+02  0.00000000000E+00 0. -1.
</event>
<event>
 7    1  0.1749439E-013  0.7246187E+02  0.7816164E-02  0.1226707E+00
        -11   -1    0    0    0    0  0.00000000000E+00  0.00000000000E+00  0.45593999997E+02  0.45594000000E+02  0.51100000000E-03 0. -1.
         11   -1    0    0    0    0 -0.00000000000E+00 -0.00000000000E+00 -0.45593999997E+02  0.45594000000E+02  0.51100000000E-03 0.  1.
    9900012    2    1    2    0    0 -0.73897462631E+01 -0.34620890096E+01  0.16854476565E+02  0.72461874121E+02  0.70000395790E+02 0.  0.
        -12    1    1    2    0    0  0.73897462631E+01  0.34620890096E+01 -0.16854476565E+02  0.18726125879E+02  0.00000000000E+00 0.  1.
         11    1    3    3    0    0 -0.26627951632E+02 -0.57430306235E+01  0.76479960886E+00  0.27250965626E+02  0.51100000000E-03 0.  1.
        -11    1    3    3    0    0  0.14559340999E+02  0.19540300671E+02  0.91478962149E+01  0.26028479903E+02  0.51100000000E-03 0. -1.
         12    1    3    3    0    0  0.46788643693E+01 -0.17259359057E+02  0.69417807416E+01  0.19182428592E+02  0.00000000000E+00 0. -1.
</event>
<event>
 7    1  0.1749439E-013  0.7246159E+02  0.7816164E-02  0.1226708E+00
        -11   -1    0    0    0    0  0.00000000000E+00  0.00000000000E+00  0.45593999997E+02  0.45594000000E+02  0.51100000000E-03 0. -1.
         11   -1    0    0    0    0 -0.00000000000E+00 -0.00000000000E+00 -0.45593999997E+02  0.45594000000E+02  0.51100000000E-03 0.  1.
    9900012    2    1    2    0    0 -0.57300572966E+01 -0.31959626098E+01  0.17539406691E+02  0.72461587618E+02  0.70000022568E+02 0.  0.
        -12    1    1    2    0    0  0.57300572966E+01  0.31959626098E+01 -0.17539406691E+02  0.18726412382E+02  0.00000000000E+00 0.  1.
         11    1    3    3    0    0  0.10059334422E+02  0.70305198930E+00  0.99609981189E+01  0.14174130481E+02  0.51100000000E-03 0. -1.
        -11    1    3    3    0    0  0.20710200103E+02  0.19220982855E+01  0.17900993369E+01  0.20876094128E+02  0.51100000000E-03 0.  1.
         12    1    3    3    0    0 -0.36499591822E+02 -0.58211128846E+01  0.57883092349E+01  0.37411363009E+02  0.00000000000E+00 0. -1.
</event>
<event>
 7    1  0.1749439E-013  0.7246156E+02  0.7816164E-02  0.1226708E+00
        -11   -1    0    0    0    0  0.00000000000E+00  0.00000000000E+00  0.45593999997E+02  0.45594000000E+02  0.51100000000E-03 0. -1.
         11   -1    0    0    0    0 -0.00000000000E+00 -0.00000000000E+00 -0.45593999997E+02  0.45594000000E+02  0.51100000000E-03 0.  1.
    9900012    2    1    2    0    0  0.10191822108E+02  0.18655243805E+01  0.15598911112E+02  0.72461562886E+02  0.69999990349E+02 0.  0.
        -12    1    1    2    0    0 -0.10191822108E+02 -0.18655243805E+01 -0.15598911112E+02  0.18726437114E+02  0.00000000000E+00 0.  1.
         11    1    3    3    0    0  0.22476200154E+02 -0.76907493827E+00  0.33880630926E+02  0.40665319399E+02  0.51100000000E-03 0. -1.
        -11    1    3    3    0    0  0.46353380658E+01  0.58137937123E+01 -0.11774289916E+01  0.75281402487E+01  0.51100000000E-03 0.  1.
        -12    1    3    3    0    0 -0.16919716112E+02 -0.31791943935E+01 -0.17104290822E+02  0.24268103239E+02  0.00000000000E+00 0.  1.
</event>
<event>
 7    1  0.1749439E-013  0.7246165E+02  0.7816164E-02  0.1226708E+00
        -11   -1    0    0    0    0  0.00000000000E+00  0.00000000000E+00  0.45593999997E+02  0.45594000000E+02  0.51100000000E-03 0.  1.
         11   -1    0    0    0    0 -0.00000000000E+00 -0.00000000000E+00 -0.45593999997E+02  0.45594000000E+02  0.51100000000E-03 0. -1.
    9900012    2    1    2    0    0 -0.14696975394E+02 -0.10412770420E+02 -0.51234019241E+01  0.72461651695E+02  0.70000106040E+02 0.  0.
        -12    1    1    2    0    0  0.14696975394E+02  0.10412770420E+02  0.51234019241E+01  0.18726348305E+02  0.00000000000E+00 0.  1.
         11    1    3    3    0    0 -0.67837889745E+01 -0.32342049331E+00  0.88592900402E+01  0.11162948264E+02  0.51100000000E-03 0. -1.
        -11    1    3    3    0    0  0.22305541789E+02 -0.11456476559E+02  0.50232451869E+01  0.25573835108E+02  0.51100000000E-03 0.  1.
         12    1    3    3    0    0 -0.30218728208E+02  0.13671266328E+01 -0.19005937151E+02  0.35724868324E+02  0.00000000000E+00 0. -1.
</event>
<event>
 7    1  0.1749439E-013  0.7246151E+02  0.7816164E-02  0.1226708E+00
        -11   -1    0    0    0    0  0.00000000000E+00  0.00000000000E+00  0.45593999997E+02  0.45594000000E+02  0.51100000000E-03 0. -1.
         11   -1    0    0    0    0 -0.00000000000E+00 -0.00000000000E+00 -0.45593999997E+02  0.45594000000E+02  0.51100000000E-03 0.  1.
    9900012    2    1    2    0    0  0.12107021521E+02 -0.14166325633E+02 -0.18484264488E+01  0.72461509876E+02  0.69999921294E+02 0.  0.
        -12    1    1    2    0    0 -0.12107021521E+02  0.14166325633E+02  0.18484264488E+01  0.18726490124E+02  0.00000000000E+00 0.  1.
         11    1    3    3    0    0  0.88124475771E+00  0.10446159474E+02  0.76315006957E+01  0.12966828572E+02  0.51100000000E-03 0. -1.
        -11    1    3    3    0    0  0.28775356433E+01  0.16513343067E+02 -0.22689107434E+01  0.16915042621E+02  0.51100000000E-03 0.  1.
        -12    1    3    3    0    0  0.83482411195E+01 -0.41125828175E+02 -0.72110164011E+01  0.42579638683E+02  0.00000000000E+00 0.  1.
</event>
<event>
 7    1  0.1749439E-013  0.7246156E+02  0.7816164E-02  0.1226708E+00
        -11   -1    0    0    0    0  0.00000000000E+00  0.00000000000E+00  0.45593999997E+02  0.45594000000E+02  0.51100000000E-03 0.  1.
         11   -1    0    0    0    0 -0.00000000000E+00 -0.00000000000E+00 -0.45593999997E+02  0.45594000000E+02  0.51100000000E-03 0. -1.
    9900012    2    1    2    0    0  0.13627912766E+02  0.84397507390E+01 -0.96814369543E+01  0.72461558256E+02  0.69999984318E+02 0.  0.
        -12    1    1    2    0    0 -0.13627912766E+02 -0.84397507390E+01  0.96814369543E+01  0.18726441744E+02  0.00000000000E+00 0.  1.
         11    1    3    3    0    0  0.17300626069E+02  0.27698781914E+01 -0.19908412507E+02  0.26520346461E+02  0.51100000000E-03 0. -1.
        -11    1    3    3    0    0  0.17224714533E+02  0.13399394024E+02  0.10615002563E+01  0.21848600276E+02  0.51100000000E-03 0.  1.
        -12    1    3    3    0    0 -0.20897427836E+02 -0.77295214760E+01  0.91654752968E+01  0.24092611520E+02  0.00000000000E+00 0.  1.
</event>
<event>
 7    1  0.1749439E-013  0.7246157E+02  0.7816164E-02  0.1226708E+00
        -11   -1    0    0    0    0  0.00000000000E+00  0.00000000000E+00  0.45593999997E+02  0.45594000000E+02  0.51100000000E-03 0.  1.
         11   -1    0    0    0    0 -0.00000000000E+00 -0.00000000000E+00 -0.45593999997E+02  0.45594000000E+02  0.51100000000E-03 0. -1.
    9900012    2    1    2    0    0 -0.15410630566E+02  0.47915214195E+01 -0.94991114326E+01  0.72461566010E+02  0.69999994419E+02 0.  0.
        -12    1    1    2    0    0  0.15410630566E+02 -0.47915214195E+01  0.94991114326E+01  0.18726433990E+02  0.00000000000E+00 0.  1.
         11    1    3    3    0    0 -0.48414028089E+01  0.71444964633E+01  0.34895939995E+01  0.93091501983E+01  0.51100000000E-03 0. -1.
        -11    1    3    3    0    0  0.14778065225E+02 -0.35058965475E+01  0.17706187148E+02  0.23327914308E+02  0.51100000000E-03 0.  1.
         12    1    3    3    0    0 -0.25347292982E+02  0.11529215037E+01 -0.30694892580E+02  0.39824501504E+02  0.00000000000E+00 0. -1.
</event>
<event>
 7    1  0.1749439E-013  0.7246159E+02  0.7816164E-02  0.1226708E+00
        -11   -1    0    0    0    0  0.00000000000E+00  0.00000000000E+00  0.45593999997E+02  0.45594000000E+02  0.51100000000E-03 0. -1.
         11   -1    0    0    0    0 -0.00000000000E+00 -0.00000000000E+00 -0.45593999997E+02  0.45594000000E+02  0.51100000000E-03 0.  1.
    9900012    2    1    2    0    0 -0.76598975973E+01  0.94674798376E+01  0.14225730390E+02  0.72461585213E+02  0.70000019434E+02 0.  0.
        -12    1    1    2    0    0  0.76598975973E+01 -0.94674798376E+01 -0.14225730390E+02  0.18726414787E+02  0.00000000000E+00 0.  1.
         11    1    3    3    0    0  0.21439260959E+02  0.13155133121E+02  0.17255466748E+02  0.30503287869E+02  0.51100000000E-03 0. -1.
        -11    1    3    3    0    0  0.30205355821E+01 -0.65018508505E+01 -0.63080720948E+01  0.95493179599E+01  0.51100000000E-03 0.  1.
        -12    1    3    3    0    0 -0.32119694138E+02  0.28141975673E+01  0.32783357366E+01  0.32408979383E+02  0.00000000000E+00 0.  1.
</event>
<event>
 7    1  0.1749439E-013  0.7246147E+02  0.7816164E-02  0.1226708E+00
        -11   -1    0    0    0    0  0.00000000000E+00  0.00000000000E+00  0.45593999997E+02  0.45594000000E+02  0.51100000000E-03 0. -1.
         11   -1    0    0    0    0 -0.00000000000E+00 -0.00000000000E+00 -0.45593999997E+02  0.45594000000E+02  0.51100000000E-03 0.  1.
    9900012    2    1    2    0    0 -0.14105006699E+02 -0.84339266970E+01 -0.89777809835E+01  0.72461471093E+02  0.69999870772E+02 0.  0.
        -12    1    1    2    0    0  0.14105006699E+02  0.84339266970E+01  0.89777809835E+01  0.18726528907E+02  0.00000000000E+00 0.  1.
         11    1    3    3    0    0 -0.46723347157E+01 -0.19516823365E+02 -0.20651146373E+01  0.20174285730E+02  0.51100000000E-03 0. -1.
        -11    1    3    3    0    0 -0.17541331488E+02 -0.13872034612E+02 -0.12267175382E+02  0.25507160696E+02  0.51100000000E-03 0.  1.
        -12    1    3    3    0    0  0.81086595053E+01  0.24954931281E+02  0.53545090358E+01  0.26780024668E+02  0.00000000000E+00 0.  1.
</event>
<event>
 7    1  0.1749439E-013  0.7246182E+02  0.7816164E-02  0.1226707E+00
        -11   -1    0    0    0    0  0.00000000000E+00  0.00000000000E+00  0.45593999997E+02  0.45594000000E+02  0.51100000000E-03 0.  1.
         11   -1    0    0    0    0 -0.00000000000E+00 -0.00000000000E+00 -0.45593999997E+02  0.45594000000E+02  0.51100000000E-03 0. -1.
    9900012    2    1    2    0    0 -0.12591628684E+02 -0.77455882400E+00 -0.13839104381E+02  0.72461818746E+02  0.70000323653E+02 0.  0.
        -12    1    1    2    0    0  0.12591628684E+02  0.77455882400E+00  0.13839104381E+02  0.18726181254E+02  0.00000000000E+00 0.  1.
         11    1    3    3    0    0 -0.86704616591E+01 -0.20273951976E+01  0.28750724597E+01  0.93569908934E+01  0.51100000000E-03 0. -1.
        -11    1    3    3    0    0 -0.21261406329E+01  0.19870685156E+02  0.15879973101E+02  0.25525245318E+02  0.51100000000E-03 0.  1.
         12    1    3    3    0    0 -0.17950263923E+01 -0.18617848783E+02 -0.32594149942E+02  0.37579582535E+02  0.00000000000E+00 0. -1.
</event>
<event>
 7    1  0.1749439E-013  0.7246157E+02  0.7816164E-02  0.1226708E+00
        -11   -1    0    0    0    0  0.00000000000E+00  0.00000000000E+00  0.45593999997E+02  0.45594000000E+02  0.51100000000E-03 0.  1.
         11   -1    0    0    0    0 -0.00000000000E+00 -0.00000000000E+00 -0.45593999997E+02  0.45594000000E+02  0.51100000000E-03 0. -1.
    9900012    2    1    2    0    0  0.14767842359E+02 -0.84629767741E+01 -0.78082073366E+01  0.72461568262E+02  0.69999997352E+02 0.  0.
        -12    1    1    2    0    0 -0.14767842359E+02  0.84629767741E+01  0.78082073366E+01  0.18726431738E+02  0.00000000000E+00 0.  1.
         11    1    3    3    0    0 -0.23646759753E+01 -0.30399310366E+01 -0.33112816273E+01  0.50791199486E+01  0.51100000000E-03 0. -1.
        -11    1    3    3    0    0 -0.20420829145E+02  0.74509991045E+01  0.11487587098E+02  0.24586425283E+02  0.51100000000E-03 0.  1.
         12    1    3    3    0    0  0.37553347479E+02 -0.12874044842E+02 -0.15984512808E+02  0.42796023030E+02  0.00000000000E+00 0. -1.
</event>
<event>
 7    1  0.1749439E-013  0.7246156E+02  0.7816164E-02  0.1226708E+00
        -11   -1    0    0    0    0  0.00000000000E+00  0.00000000000E+00  0.45593999997E+02  0.45594000000E+02  0.51100000000E-03 0.  1.
         11   -1    0    0    0    0 -0.00000000000E+00 -0.00000000000E+00 -0.45593999997E+02  0.45594000000E+02  0.51100000000E-03 0. -1.
    9900012    2    1    2    0    0  0.56095184169E+00  0.14439253865E+02 -0.11911042722E+02  0.72461557255E+02  0.69999983014E+02 0.  0.
        -12    1    1    2    0    0 -0.56095184169E+00 -0.14439253865E+02  0.11911042722E+02  0.18726442745E+02  0.00000000000E+00 0.  1.
         11    1    3    3    0    0 -0.38891564510E+01  0.76187703301E+01 -0.19537018228E+01  0.87742891631E+01  0.51100000000E-03 0. -1.
        -11    1    3    3    0    0  0.22053434735E+02  0.26022864956E+02  0.36356811616E+01  0.34303959857E+02  0.51100000000E-03 0.  1.
         12    1    3    3    0    0 -0.17603326443E+02 -0.19202381420E+02 -0.13593022061E+02  0.29383308235E+02  0.00000000000E+00 0. -1.
</event>
<event>
 7    1  0.1749439E-013  0.7246157E+02  0.7816164E-02  0.1226708E+00
        -11   -1    0    0    0    0  0.00000000000E+00  0.00000000000E+00  0.45593999997E+02  0.45594000000E+02  0.51100000000E-03 0. -1.
         11   -1    0    0    0    0 -0.00000000000E+00 -0.00000000000E+00 -0.45593999997E+02  0.45594000000E+02  0.51100000000E-03 0.  1.
    9900012    2    1    2    0    0 -0.12279195003E+01 -0.45599483363E+01  0.18121211466E+02  0.72461568943E+02  0.69999998240E+02 0.  0.
        -12    1    1    2    0    0  0.12279195003E+01  0.45599483363E+01 -0.18121211466E+02  0.18726431057E+02  0.00000000000E+00 0.  1.
         11    1    3    3    0    0 -0.44885082368E+01 -0.16146753202E+02 -0.56910884693E+01  0.17698950064E+02  0.51100000000E-03 0.  1.
        -11    1    3    3    0    0 -0.73151918668E+01 -0.89291928279E+01  0.28906228050E+02  0.31125753597E+02  0.51100000000E-03 0. -1.
        -12    1    3    3    0    0  0.10575780603E+02  0.20515997693E+02 -0.50939281150E+01  0.23636865282E+02  0.00000000000E+00 0.  1.
</event>
<event>
 7    1  0.1749439E-013  0.7246156E+02  0.7816164E-02  0.1226708E+00
        -11   -1    0    0    0    0  0.00000000000E+00  0.00000000000E+00  0.45593999997E+02  0.45594000000E+02  0.51100000000E-03 0. -1.
         11   -1    0    0    0    0 -0.00000000000E+00 -0.00000000000E+00 -0.45593999997E+02  0.45594000000E+02  0.51100000000E-03 0.  1.
    9900012    2    1    2    0    0  0.33684835770E+01  0.38950939413E+00  0.18416869541E+02  0.72461561928E+02  0.69999989101E+02 0.  0.
        -12    1    1    2    0    0 -0.33684835770E+01 -0.38950939413E+00 -0.18416869541E+02  0.18726438072E+02  0.00000000000E+00 0.  1.
         11    1    3    3    0    0  0.18386862793E+01 -0.99444230659E+00 -0.25929331866E+01  0.33306133828E+01  0.51100000000E-03 0.  1.
        -11    1    3    3    0    0 -0.14308665744E+02  0.22121502800E+02 -0.10375351585E+02  0.28315132390E+02  0.51100000000E-03 0. -1.
         12    1    3    3    0    0  0.15838463041E+02 -0.20737551099E+02  0.31385154313E+02  0.40815816155E+02  0.00000000000E+00 0. -1.
</event>
<event>
 7    1  0.1749439E-013  0.7246158E+02  0.7816164E-02  0.1226708E+00
        -11   -1    0    0    0    0  0.00000000000E+00  0.00000000000E+00  0.45593999997E+02  0.45594000000E+02  0.51100000000E-03 0. -1.
         11   -1    0    0    0    0 -0.00000000000E+00 -0.00000000000E+00 -0.45593999997E+02  0.45594000000E+02  0.51100000000E-03 0.  1.
    9900012    2    1    2    0    0  0.18670171572E+02 -0.11981996232E+01  0.81722454490E+00  0.72461578964E+02  0.70000011293E+02 0.  0.
        -12    1    1    2    0    0 -0.18670171572E+02  0.11981996232E+01 -0.81722454490E+00  0.18726421036E+02  0.00000000000E+00 0.  1.
         11    1    3    3    0    0 -0.10388979171E+02 -0.87618594767E+01 -0.16831778930E+02  0.21633535354E+02  0.51100000000E-03 0. -1.
        -11    1    3    3    0    0 -0.62664972234E+01  0.37392180986E+01 -0.48589107232E+01  0.87669694374E+01  0.51100000000E-03 0.  1.
        -12    1    3    3    0    0  0.35325647967E+02  0.38244417550E+01  0.22507914198E+02  0.42061074172E+02  0.00000000000E+00 0.  1.
</event>
<event>
 7    1  0.1749439E-013  0.7246177E+02  0.7816164E-02  0.1226707E+00
        -11   -1    0    0    0    0  0.00000000000E+00  0.00000000000E+00  0.45593999997E+02  0.45594000000E+02  0.51100000000E-03 0.  1.
         11   -1    0    0    0    0 -0.00000000000E+00 -0.00000000000E+00 -0.45593999997E+02  0.45594000000E+02  0.51100000000E-03 0. -1.
    9900012    2    1    2    0    0 -0.30872117257E+01 -0.10837523469E+02 -0.14956234061E+02  0.72461768974E+02  0.70000258816E+02 0.  0.
        -12    1    1    2    0    0  0.30872117257E+01  0.10837523469E+02  0.14956234061E+02  0.18726231026E+02  0.00000000000E+00 0.  1.
         11    1    3    3    0    0 -0.41069415114E+01 -0.22651698488E+02  0.17712344882E+01  0.23089038197E+02  0.51100000000E-03 0. -1.
        -11    1    3    3    0    0 -0.13623194713E+02 -0.11055829675E+02 -0.12837658167E+00  0.17545349378E+02  0.51100000000E-03 0.  1.
         12    1    3    3    0    0  0.14642924499E+02  0.22870004694E+02 -0.16599091967E+02  0.31827381399E+02  0.00000000000E+00 0. -1.
</event>
<event>
 7    1  0.1749439E-013  0.7246152E+02  0.7816164E-02  0.1226708E+00
        -11   -1    0    0    0    0  0.00000000000E+00  0.00000000000E+00  0.45593999997E+02  0.45594000000E+02  0.51100000000E-03 0.  1.
         11   -1    0    0    0    0 -0.00000000000E+00 -0.00000000000E+00 -0.45593999997E+02  0.45594000000E+02  0.51100000000E-03 0. -1.
    9900012    2    1    2    0    0 -0.13263119645E+02 -0.12991894597E+02 -0.24457171293E+01  0.72461516074E+02  0.69999929368E+02 0.  0.
        -12    1    1    2    0    0  0.13263119645E+02  0.12991894597E+02  0.24457171293E+01  0.18726483926E+02  0.00000000000E+00 0.  1.
         11    1    3    3    0    0 -0.10357470430E+02 -0.22505070760E+02 -0.19081120711E+02  0.31270506415E+02  0.51100000000E-03 0. -1.
        -11    1    3    3    0    0 -0.54635014461E+01 -0.76116783672E+01 -0.71392509682E+01  0.11779490662E+02  0.51100000000E-03 0.  1.
        -12    1    3    3    0    0  0.25578522302E+01  0.17124854530E+02  0.23774654550E+02  0.29411518997E+02  0.00000000000E+00 0.  1.
</event>
<event>
 7    1  0.1749439E-013  0.7246156E+02  0.7816164E-02  0.1226708E+00
        -11   -1    0    0    0    0  0.00000000000E+00  0.00000000000E+00  0.45593999997E+02  0.45594000000E+02  0.51100000000E-03 0.  1.
         11   -1    0    0    0    0 -0.00000000000E+00 -0.00000000000E+00 -0.45593999997E+02  0.45594000000E+02  0.51100000000E-03 0. -1.
    9900012    2    1    2    0    0 -0.10424536991E+02 -0.25795971270E+01 -0.15341264707E+02  0.72461556247E+02  0.69999981701E+02 0.  0.
        -12    1    1    2    0    0  0.10424536991E+02  0.25795971270E+01  0.15341264707E+02  0.18726443753E+02  0.00000000000E+00 0.  1.
         11    1    3    3    0    0 -0.13494023950E+02 -0.28258455219E+02  0.36066792995E+01  0.31522009923E+02  0.51100000000E-03 0. -1.
        -11    1    3    3    0    0  0.23054714628E+00 -0.31015890869E+01 -0.10292226641E+02  0.10751880595E+02  0.51100000000E-03 0.  1.
        -12    1    3    3    0    0  0.28389398126E+01  0.28780447179E+02 -0.86557173655E+01  0.30187665729E+02  0.00000000000E+00 0.  1.
</event>
<event>
 7    1  0.1749439E-013  0.7246154E+02  0.7816164E-02  0.1226708E+00
        -11   -1    0    0    0    0  0.00000000000E+00  0.00000000000E+00  0.45593999997E+02  0.45594000000E+02  0.51100000000E-03 0. -1.
         11   -1    0    0    0    0 -0.00000000000E+00 -0.00000000000E+00 -0.45593999997E+02  0.45594000000E+02  0.51100000000E-03 0.  1.
    9900012    2    1    2    0    0 -0.14904187961E+02  0.29320316547E+01  0.10952108394E+02  0.72461539931E+02  0.69999960447E+02 0.  0.
        -12    1    1    2    0    0  0.14904187961E+02 -0.29320316547E+01 -0.10952108394E+02  0.18726460069E+02  0.00000000000E+00 0.  1.
         11    1    3    3    0    0 -0.29242484828E+02 -0.16280681231E+02 -0.12007323345E+01  0.33490674205E+02  0.51100000000E-03 0. -1.
        -11    1    3    3    0    0  0.26860421391E+01 -0.33700678680E+01  0.12846056705E+02  0.13549662466E+02  0.51100000000E-03 0.  1.
        -12    1    3    3    0    0  0.11652254728E+02  0.22582780754E+02 -0.69321597656E+00  0.25421203261E+02  0.00000000000E+00 0.  1.
</event>
<event>
 7    1  0.1749439E-013  0.7246159E+02  0.7816164E-02  0.1226708E+00
        -11   -1    0    0    0    0  0.00000000000E+00  0.00000000000E+00  0.45593999997E+02  0.45594000000E+02  0.51100000000E-03 0. -1.
         11   -1    0    0    0    0 -0.00000000000E+00 -0.00000000000E+00 -0.45593999997E+02  0.45594000000E+02  0.51100000000E-03 0.  1.
    9900012    2    1    2    0    0 -0.33812434436E+01 -0.48202981700E+00  0.18412314390E+02  0.72461588673E+02  0.70000023942E+02 0.  0.
        -12    1    1    2    0    0  0.33812434436E+01  0.48202981700E+00 -0.18412314390E+02  0.18726411327E+02  0.00000000000E+00 0.  1.
         11    1    3    3    0    0  0.13663388221E+01 -0.13763831437E+02  0.11029524209E+02  0.17690685180E+02  0.51100000000E-03 0. -1.
        -11    1    3    3    0    0 -0.18277101482E+02 -0.14181599626E+02  0.69409723443E+01  0.24152583793E+02  0.51100000000E-03 0.  1.
         12    1    3    3    0    0  0.13529519217E+02  0.27463401246E+02  0.44181783743E+00  0.30618319700E+02  0.00000000000E+00 0. -1.
</event>
<event>
 7    1  0.1749439E-013  0.7246153E+02  0.7816164E-02  0.1226708E+00
        -11   -1    0    0    0    0  0.00000000000E+00  0.00000000000E+00  0.45593999997E+02  0.45594000000E+02  0.51100000000E-03 0.  1.
         11   -1    0    0    0    0 -0.00000000000E+00 -0.00000000000E+00 -0.45593999997E+02  0.45594000000E+02  0.51100000000E-03 0. -1.
    9900012    2    1    2    0    0  0.17149590389E+02  0.53978944309E+01 -0.52378403536E+01  0.72461529794E+02  0.69999947241E+02 0.  0.
        -12    1    1    2    0    0 -0.17149590389E+02 -0.53978944309E+01  0.52378403536E+01  0.18726470206E+02  0.00000000000E+00 0.  1.
         11    1    3    3    0    0  0.14666639259E+02  0.14929272002E+02  0.70741156527E+01  0.22091550018E+02  0.51100000000E-03 0. -1.
        -11    1    3    3    0    0  0.32710626787E+00 -0.61964880852E+01  0.18391872910E+02  0.19410421235E+02  0.51100000000E-03 0.  1.
         12    1    3    3    0    0  0.21558448615E+01 -0.33348894859E+01 -0.30703828917E+02  0.30959558542E+02  0.00000000000E+00 0. -1.
</event>
<event>
 7    1  0.1749439E-013  0.7246156E+02  0.7816164E-02  0.1226708E+00
        -11   -1    0    0    0    0  0.00000000000E+00  0.00000000000E+00  0.45593999997E+02  0.45594000000E+02  0.51100000000E-03 0. -1.
         11   -1    0    0    0    0 -0.00000000000E+00 -0.00000000000E+00 -0.45593999997E+02  0.45594000000E+02  0.51100000000E-03 0.  1.
    9900012    2    1    2    0    0 -0.18722685771E+02 -0.21962806027E+00 -0.30407264831E+00  0.72461557221E+02  0.69999982970E+02 0.  0.
        -12    1    1    2    0    0  0.18722685771E+02  0.21962806027E+00  0.30407264831E+00  0.18726442779E+02  0.00000000000E+00 0.  1.
         11    1    3    3    0    0 -0.49682098649E+01  0.74826118967E+01  0.58102806756E+01  0.10697287126E+02  0.51100000000E-03 0. -1.
        -11    1    3    3    0    0 -0.35861049665E+01 -0.10207038475E+01  0.26600277683E+02  0.26860319399E+02  0.51100000000E-03 0.  1.
        -12    1    3    3    0    0 -0.10168370940E+02 -0.66815361094E+01 -0.32714631006E+02  0.34903950697E+02  0.00000000000E+00 0.  1.
</event>
<event>
 7    1  0.1749439E-013  0.7246160E+02  0.7816164E-02  0.1226708E+00
        -11   -1    0    0    0    0  0.00000000000E+00  0.00000000000E+00  0.45593999997E+02  0.45594000000E+02  0.51100000000E-03 0.  1.
         11   -1    0    0    0    0 -0.00000000000E+00 -0.00000000000E+00 -0.45593999997E+02  0.45594000000E+02  0.51100000000E-03 0. -1.
    9900012    2    1    2    0    0 -0.17663074986E+02 -0.20530352296E+01 -0.58718778404E+01  0.72461598291E+02  0.70000036470E+02 0.  0.
        -12    1    1    2    0    0  0.17663074986E+02  0.20530352296E+01  0.58718778404E+01  0.18726401709E+02  0.00000000000E+00 0.  1.
         11    1    3    3    0    0 -0.65674190738E+01 -0.12060198628E+02 -0.12945908891E+01  0.13793308162E+02  0.51100000000E-03 0. -1.
        -11    1    3    3    0    0 -0.10261959128E+02 -0.12780750110E+02 -0.23763095688E+02  0.28867630583E+02  0.51100000000E-03 0.  1.
        -12    1    3    3    0    0 -0.83369678426E+00  0.22787913509E+02  0.19185808737E+02  0.29800659545E+02  0.00000000000E+00 0.  1.
</event>
<event>
 7    1  0.1749439E-013  0.7246155E+02  0.7816164E-02  0.1226708E+00
        -11   -1    0    0    0    0  0.00000000000E+00  0.00000000000E+00  0.45593999997E+02  0.45594000000E+02  0.51100000000E-03 0. -1.
         11   -1    0    0    0    0 -0.00000000000E+00 -0.00000000000E+00 -0.45593999997E+02  0.45594000000E+02  0.51100000000E-03 0.  1.
    9900012    2    1    2    0    0 -0.17605244026E+02  0.49226474086E+01 -0.40623678382E+01  0.72461550599E+02  0.69999974343E+02 0.  0.
        -12    1    1    2    0    0  0.17605244026E+02 -0.49226474086E+01  0.40623678382E+01  0.18726449401E+02  0.00000000000E+00 0.  1.
         11    1    3    3    0    0  0.76250910359E+01 -0.98101515664E+01 -0.64021243660E+01  0.13977420496E+02  0.51100000000E-03 0.  1.
        -11    1    3    3    0    0 -0.23973238272E+02 -0.47738682991E+01 -0.17937503125E+02  0.30319300625E+02  0.51100000000E-03 0. -1.
         12    1    3    3    0    0 -0.12570967893E+01  0.19506667274E+02  0.20277259653E+02  0.28164829478E+02  0.00000000000E+00 0. -1.
</event>
<event>
 7    1  0.1749439E-013  0.7246157E+02  0.7816164E-02  0.1226708E+00
        -11   -1    0    0    0    0  0.00000000000E+00  0.00000000000E+00  0.45593999997E+02  0.45594000000E+02  0.51100000000E-03 0. -1.
         11   -1    0    0    0    0 -0.00000000000E+00 -0.00000000000E+00 -0.45593999997E+02  0.45594000000E+02  0.51100000000E-03 0.  1.
    9900012    2    1    2    0    0  0.10590171831E+02 -0.12361175824E+02  0.92589826169E+01  0.72461570382E+02  0.70000000114E+02 0.  0.
        -12    1    1    2    0    0 -0.10590171831E+02  0.12361175824E+02 -0.92589826169E+01  0.18726429618E+02  0.00000000000E+00 0.  1.
         11    1    3    3    0    0  0.32511990285E+01  0.88022869412E+01  0.27928773056E+01  0.97903378094E+01  0.51100000000E-03 0. -1.
        -11    1    3    3    0    0 -0.23058025546E+02 -0.88005738665E+01 -0.91604190760E+01  0.26325575405E+02  0.51100000000E-03 0.  1.
        -12    1    3    3    0    0  0.30396998348E+02 -0.12362888899E+02  0.15626524387E+02  0.36345657167E+02  0.00000000000E+00 0.  1.
</event>
<event>
 7    1  0.1749439E-013  0.7246154E+02  0.7816164E-02  0.1226708E+00
        -11   -1    0    0    0    0  0.00000000000E+00  0.00000000000E+00  0.45593999997E+02  0.45594000000E+02  0.51100000000E-03 0.  1.
         11   -1    0    0    0    0 -0.00000000000E+00 -0.00000000000E+00 -0.45593999997E+02  0.45594000000E+02  0.51100000000E-03 0. -1.
    9900012    2    1    2    0    0  0.18162625647E+01  0.18522305823E+02  0.20750481111E+01  0.72461536176E+02  0.69999955554E+02 0.  0.
        -12    1    1    2    0    0 -0.18162625647E+01 -0.18522305823E+02 -0.20750481111E+01  0.18726463824E+02  0.00000000000E+00 0.  1.
         11    1    3    3    0    0  0.63470815830E+01 -0.70979335596E+01 -0.24175141878E+01  0.98239747835E+01  0.51100000000E-03 0. -1.
        -11    1    3    3    0    0 -0.13986128845E+02 -0.15008463617E+02 -0.11289031651E+01  0.20546050784E+02  0.51100000000E-03 0.  1.
         12    1    3    3    0    0  0.94553098272E+01  0.40628702999E+02  0.56214654640E+01  0.42091510608E+02  0.00000000000E+00 0. -1.
</event>
<event>
 7    1  0.1749439E-013  0.7246156E+02  0.7816164E-02  0.1226708E+00
        -11   -1    0    0    0    0  0.00000000000E+00  0.00000000000E+00  0.45593999997E+02  0.45594000000E+02  0.51100000000E-03 0. -1.
         11   -1    0    0    0    0 -0.00000000000E+00 -0.00000000000E+00 -0.45593999997E+02  0.45594000000E+02  0.51100000000E-03 0.  1.
    9900012    2    1    2    0    0  0.89520286127E+01  0.64821267548E+00  0.16435344132E+02  0.72461560597E+02  0.69999987368E+02 0.  0.
        -12    1    1    2    0    0 -0.89520286127E+01 -0.64821267548E+00 -0.16435344132E+02  0.18726439403E+02  0.00000000000E+00 0.  1.
         11    1    3    3    0    0  0.81878130800E+01  0.24801645407E+02  0.21743259994E+02  0.33984279504E+02  0.51100000000E-03 0. -1.
        -11    1    3    3    0    0  0.10756636962E+02 -0.35460237112E+01  0.61290806674E+01  0.12878088095E+02  0.51100000000E-03 0.  1.
        -12    1    3    3    0    0 -0.99924214294E+01 -0.20607409021E+02 -0.11436996530E+02  0.25599192999E+02  0.00000000000E+00 0.  1.
</event>
<event>
 7    1  0.1749439E-013  0.7246155E+02  0.7816164E-02  0.1226708E+00
        -11   -1    0    0    0    0  0.00000000000E+00  0.00000000000E+00  0.45593999997E+02  0.45594000000E+02  0.51100000000E-03 0.  1.
         11   -1    0    0    0    0 -0.00000000000E+00 -0.00000000000E+00 -0.45593999997E+02  0.45594000000E+02  0.51100000000E-03 0. -1.
    9900012    2    1    2    0    0 -0.25687237149E-01  0.65341037043E+01 -0.17549494650E+02  0.72461549896E+02  0.69999973427E+02 0.  0.
        -12    1    1    2    0    0  0.25687237149E-01 -0.65341037043E+01  0.17549494650E+02  0.18726450104E+02  0.00000000000E+00 0.  1.
         11    1    3    3    0    0  0.90162383858E+01  0.11784717094E+01 -0.32227584610E+01  0.96471510074E+01  0.51100000000E-03 0. -1.
        -11    1    3    3    0    0  0.57119572875E+01 -0.15515305098E+02  0.16099817333E+02  0.23077158983E+02  0.51100000000E-03 0.  1.
         12    1    3    3    0    0 -0.14753882910E+02  0.20870937093E+02 -0.30426553522E+02  0.39737239905E+02  0.00000000000E+00 0. -1.
</event>
<event>
 7    1  0.1749439E-013  0.7246158E+02  0.7816164E-02  0.1226708E+00
        -11   -1    0    0    0    0  0.00000000000E+00  0.00000000000E+00  0.45593999997E+02  0.45594000000E+02  0.51100000000E-03 0.  1.
         11   -1    0    0    0    0 -0.00000000000E+00 -0.00000000000E+00 -0.45593999997E+02  0.45594000000E+02  0.51100000000E-03 0. -1.
    9900012    2    1    2    0    0  0.13111543363E+02  0.70698458544E+01 -0.11348283011E+02  0.72461579705E+02  0.70000012259E+02 0.  0.
        -12    1    1    2    0    0 -0.13111543363E+02 -0.70698458544E+01  0.11348283011E+02  0.18726420295E+02  0.00000000000E+00 0.  1.
         11    1    3    3    0    0  0.11100025513E+01 -0.48489232606E+01  0.66054772115E+01  0.82690079154E+01  0.51100000000E-03 0. -1.
        -11    1    3    3    0    0  0.20288261344E-01 -0.17511055949E+02  0.11431868886E+02  0.20912319779E+02  0.51100000000E-03 0.  1.
         12    1    3    3    0    0  0.11981252550E+02  0.29429825064E+02 -0.29385629109E+02  0.43280252010E+02  0.00000000000E+00 0. -1.
</event>
<event>
 7    1  0.1749439E-013  0.7246158E+02  0.7816164E-02  0.1226708E+00
        -11   -1    0    0    0    0  0.00000000000E+00  0.00000000000E+00  0.45593999997E+02  0.45594000000E+02  0.51100000000E-03 0.  1.
         11   -1    0    0    0    0 -0.00000000000E+00 -0.00000000000E+00 -0.45593999997E+02  0.45594000000E+02  0.51100000000E-03 0. -1.
    9900012    2    1    2    0    0  0.18623222304E+02 -0.17315498930E+01  0.92523752095E+00  0.72461581803E+02  0.70000014992E+02 0.  0.
        -12    1    1    2    0    0 -0.18623222304E+02  0.17315498930E+01 -0.92523752095E+00  0.18726418197E+02  0.00000000000E+00 0.  1.
         11    1    3    3    0    0  0.25392671455E+02  0.82195784144E+01 -0.19494352263E+02  0.33051157368E+02  0.51100000000E-03 0. -1.
        -11    1    3    3    0    0 -0.28306257744E+01  0.11305233172E+02  0.42147052490E+01  0.12392920557E+02  0.51100000000E-03 0.  1.
         12    1    3    3    0    0 -0.39388233766E+01 -0.21256361479E+02  0.16204884535E+02  0.27017503877E+02  0.00000000000E+00 0. -1.
</event>
<event>
 7    1  0.1749439E-013  0.7246160E+02  0.7816164E-02  0.1226708E+00
        -11   -1    0    0    0    0  0.00000000000E+00  0.00000000000E+00  0.45593999997E+02  0.45594000000E+02  0.51100000000E-03 0. -1.
         11   -1    0    0    0    0 -0.00000000000E+00 -0.00000000000E+00 -0.45593999997E+02  0.45594000000E+02  0.51100000000E-03 0.  1.
    9900012    2    1    2    0    0  0.34159084982E+01  0.14021516508E+02 -0.11933431480E+02  0.72461597705E+02  0.70000035707E+02 0.  0.
        -12    1    1    2    0    0 -0.34159084982E+01 -0.14021516508E+02  0.11933431480E+02  0.18726402295E+02  0.00000000000E+00 0.  1.
         11    1    3    3    0    0 -0.47163369554E+01  0.17017984889E+02  0.40085098285E+01  0.18108666303E+02  0.51100000000E-03 0. -1.
        -11    1    3    3    0    0 -0.55551396295E+01 -0.19537559177E+02  0.83249566779E+01  0.21951781222E+02  0.51100000000E-03 0.  1.
         12    1    3    3    0    0  0.13687385083E+02  0.16541090795E+02 -0.24266897986E+02  0.32401150180E+02  0.00000000000E+00 0. -1.
</event>
<event>
 7    1  0.1749439E-013  0.7246156E+02  0.7816164E-02  0.1226708E+00
        -11   -1    0    0    0    0  0.00000000000E+00  0.00000000000E+00  0.45593999997E+02  0.45594000000E+02  0.51100000000E-03 0.  1.
         11   -1    0    0    0    0 -0.00000000000E+00 -0.00000000000E+00 -0.45593999997E+02  0.45594000000E+02  0.51100000000E-03 0. -1.
    9900012    2    1    2    0    0  0.37293181901E+01  0.11457045185E+02 -0.14335547013E+02  0.72461558622E+02  0.69999984794E+02 0.  0.
        -12    1    1    2    0    0 -0.37293181901E+01 -0.11457045185E+02  0.14335547013E+02  0.18726441378E+02  0.00000000000E+00 0.  1.
         11    1    3    3    0    0  0.58551606924E+01  0.53194449455E+01  0.13895948580E+02  0.15989896449E+02  0.51100000000E-03 0. -1.
        -11    1    3    3    0    0 -0.16083012039E+02  0.56546991189E+01  0.71096614919E+01  0.18471225871E+02  0.51100000000E-03 0.  1.
         12    1    3    3    0    0  0.13957169537E+02  0.48290112069E+00 -0.35341157085E+02  0.38000436301E+02  0.00000000000E+00 0. -1.
</event>
<event>
 7    1  0.1749439E-013  0.7246157E+02  0.7816164E-02  0.1226708E+00
        -11   -1    0    0    0    0  0.00000000000E+00  0.00000000000E+00  0.45593999997E+02  0.45594000000E+02  0.51100000000E-03 0. -1.
         11   -1    0    0    0    0 -0.00000000000E+00 -0.00000000000E+00 -0.45593999997E+02  0.45594000000E+02  0.51100000000E-03 0.  1.
    9900012    2    1    2    0    0 -0.12756079412E+02  0.12375825046E+01  0.13653930976E+02  0.72461574726E+02  0.70000005773E+02 0.  0.
        -12    1    1    2    0    0  0.12756079412E+02 -0.12375825046E+01 -0.13653930976E+02  0.18726425274E+02  0.00000000000E+00 0.  1.
         11    1    3    3    0    0  0.14879740883E+02  0.16888321358E+02  0.15898714277E+01  0.22564347507E+02  0.51100000000E-03 0. -1.
        -11    1    3    3    0    0 -0.10742221720E+02 -0.73723075418E+01 -0.13101562833E+02  0.18476936837E+02  0.51100000000E-03 0.  1.
         12    1    3    3    0    0 -0.16893598575E+02 -0.82784313112E+01  0.25165622381E+02  0.31420290381E+02  0.00000000000E+00 0. -1.
</event>
<event>
 7    1  0.1749439E-013  0.7246156E+02  0.7816164E-02  0.1226708E+00
        -11   -1    0    0    0    0  0.00000000000E+00  0.00000000000E+00  0.45593999997E+02  0.45594000000E+02  0.51100000000E-03 0.  1.
         11   -1    0    0    0    0 -0.00000000000E+00 -0.00000000000E+00 -0.45593999997E+02  0.45594000000E+02  0.51100000000E-03 0. -1.
    9900012    2    1    2    0    0  0.10796589492E+02  0.14077746337E+01 -0.15235858004E+02  0.72461560317E+02  0.69999987003E+02 0.  0.
        -12    1    1    2    0    0 -0.10796589492E+02 -0.14077746337E+01  0.15235858004E+02  0.18726439683E+02  0.00000000000E+00 0.  1.
         11    1    3    3    0    0  0.15709548219E+02  0.11341206531E+01 -0.44228404458E+01  0.16359634860E+02  0.51100000000E-03 0. -1.
        -11    1    3    3    0    0  0.17878609808E+02 -0.12117431371E+02  0.90613452115E+01  0.23421887392E+02  0.51100000000E-03 0.  1.
         12    1    3    3    0    0 -0.22791568534E+02  0.12391085352E+02 -0.19874362769E+02  0.32680038065E+02  0.00000000000E+00 0. -1.
</event>
<event>
 7    1  0.1749439E-013  0.7246159E+02  0.7816164E-02  0.1226708E+00
        -11   -1    0    0    0    0  0.00000000000E+00  0.00000000000E+00  0.45593999997E+02  0.45594000000E+02  0.51100000000E-03 0.  1.
         11   -1    0    0    0    0 -0.00000000000E+00 -0.00000000000E+00 -0.45593999997E+02  0.45594000000E+02  0.51100000000E-03 0. -1.
    9900012    2    1    2    0    0  0.14892327088E+02  0.10401315985E+02  0.45507716911E+01  0.72461593423E+02  0.70000030129E+02 0.  0.
        -12    1    1    2    0    0 -0.14892327088E+02 -0.10401315985E+02 -0.45507716911E+01  0.18726406577E+02  0.00000000000E+00 0.  1.
         11    1    3    3    0    0 -0.31449604973E+01  0.20806981821E+02  0.42427204939E+01  0.21466763764E+02  0.51100000000E-03 0. -1.
        -11    1    3    3    0    0 -0.23036200183E+00  0.91690467604E+01  0.17089952505E+02  0.19395642862E+02  0.51100000000E-03 0.  1.
         12    1    3    3    0    0  0.18267649587E+02 -0.19574712597E+02 -0.16781901308E+02  0.31599186796E+02  0.00000000000E+00 0. -1.
</event>
<event>
 7    1  0.1749439E-013  0.7246157E+02  0.7816164E-02  0.1226708E+00
        -11   -1    0    0    0    0  0.00000000000E+00  0.00000000000E+00  0.45593999997E+02  0.45594000000E+02  0.51100000000E-03 0.  1.
         11   -1    0    0    0    0 -0.00000000000E+00 -0.00000000000E+00 -0.45593999997E+02  0.45594000000E+02  0.51100000000E-03 0. -1.
    9900012    2    1    2    0    0  0.77419069171E+00  0.17826453368E+02 -0.56830810111E+01  0.72461568928E+02  0.69999998220E+02 0.  0.
        -12    1    1    2    0    0 -0.77419069171E+00 -0.17826453368E+02  0.56830810111E+01  0.18726431072E+02  0.00000000000E+00 0.  1.
         11    1    3    3    0    0 -0.13474887971E+02  0.15087903087E+02 -0.12895968588E+02  0.23990069435E+02  0.51100000000E-03 0. -1.
        -11    1    3    3    0    0 -0.14556083005E+02  0.64487955144E+01  0.10755358418E+02  0.19213127049E+02  0.51100000000E-03 0.  1.
         12    1    3    3    0    0  0.28805161668E+02 -0.37102452328E+01 -0.35424708412E+01  0.29258372444E+02  0.00000000000E+00 0. -1.
</event>
<event>
 7    1  0.1749439E-013  0.7246164E+02  0.7816164E-02  0.1226708E+00
        -11   -1    0    0    0    0  0.00000000000E+00  0.00000000000E+00  0.45593999997E+02  0.45594000000E+02  0.51100000000E-03 0. -1.
         11   -1    0    0    0    0 -0.00000000000E+00 -0.00000000000E+00 -0.45593999997E+02  0.45594000000E+02  0.51100000000E-03 0.  1.
    9900012    2    1    2    0    0 -0.11050844391E+02 -0.11563999057E+02  0.97380430129E+01  0.72461635760E+02  0.70000085281E+02 0.  0.
        -12    1    1    2    0    0  0.11050844391E+02  0.11563999057E+02 -0.97380430129E+01  0.18726364240E+02  0.00000000000E+00 0.  1.
         11    1    3    3    0    0 -0.24305694723E+02 -0.18387510353E+02  0.60806570932E+01  0.31077994206E+02  0.51100000000E-03 0. -1.
        -11    1    3    3    0    0  0.15667771920E+02 -0.12955294010E+02  0.62993476635E+01  0.21283808425E+02  0.51100000000E-03 0.  1.
        -12    1    3    3    0    0 -0.24129215879E+01  0.19778805306E+02 -0.26419617438E+01  0.20099833128E+02  0.00000000000E+00 0.  1.
</event>
<event>
 7    1  0.1749439E-013  0.7246165E+02  0.7816164E-02  0.1226708E+00
        -11   -1    0    0    0    0  0.00000000000E+00  0.00000000000E+00  0.45593999997E+02  0.45594000000E+02  0.51100000000E-03 0.  1.
         11   -1    0    0    0    0 -0.00000000000E+00 -0.00000000000E+00 -0.45593999997E+02  0.45594000000E+02  0.51100000000E-03 0. -1.
    9900012    2    1    2    0    0  0.16677528801E+02 -0.38625220889E+01  0.75905847523E+01  0.72461654369E+02  0.70000109523E+02 0.  0.
        -12    1    1    2    0    0 -0.16677528801E+02  0.38625220889E+01 -0.75905847523E+01  0.18726345631E+02  0.00000000000E+00 0.  1.
         11    1    3    3    0    0  0.20348762854E+01  0.18347257512E+02  0.27012321092E+01  0.18656345700E+02  0.51100000000E-03 0. -1.
        -11    1    3    3    0    0  0.18369026183E+02  0.96658804014E+01  0.62689219461E+01  0.21682936827E+02  0.51100000000E-03 0.  1.
        -12    1    3    3    0    0 -0.37263736667E+01 -0.31875660002E+02 -0.13795693029E+01  0.32122371842E+02  0.00000000000E+00 0.  1.
</event>
<event>
 7    1  0.1749439E-013  0.7246156E+02  0.7816164E-02  0.1226708E+00
        -11   -1    0    0    0    0  0.00000000000E+00  0.00000000000E+00  0.45593999997E+02  0.45594000000E+02  0.51100000000E-03 0. -1.
         11   -1    0    0    0    0 -0.00000000000E+00 -0.00000000000E+00 -0.45593999997E+02  0.45594000000E+02  0.51100000000E-03 0.  1.
    9900012    2    1    2    0    0  0.17767909428E+02 -0.53099347641E+01 -0.26049237343E+01  0.72461557725E+02  0.69999983626E+02 0.  0.
        -12    1    1    2    0    0 -0.17767909428E+02  0.53099347641E+01  0.26049237343E+01  0.18726442275E+02  0.00000000000E+00 0.  1.
         11    1    3    3    0    0  0.32495756188E+01  0.13888188906E+02  0.13443455637E+02  0.19600204910E+02  0.51100000000E-03 0. -1.
        -11    1    3    3    0    0 -0.86544729120E+00  0.93382772683E+01 -0.18091821623E+02  0.20378087036E+02  0.51100000000E-03 0.  1.
         12    1    3    3    0    0  0.15383781100E+02 -0.28536400938E+02  0.20434422522E+01  0.32483265779E+02  0.00000000000E+00 0. -1.
</event>
<event>
 7    1  0.1749439E-013  0.7246141E+02  0.7816164E-02  0.1226708E+00
        -11   -1    0    0    0    0  0.00000000000E+00  0.00000000000E+00  0.45593999997E+02  0.45594000000E+02  0.51100000000E-03 0. -1.
         11   -1    0    0    0    0 -0.00000000000E+00 -0.00000000000E+00 -0.45593999997E+02  0.45594000000E+02  0.51100000000E-03 0.  1.
    9900012    2    1    2    0    0 -0.32401428014E+01 -0.78065329368E+01  0.16710612174E+02  0.72461413522E+02  0.69999795775E+02 0.  0.
        -12    1    1    2    0    0  0.32401428014E+01  0.78065329368E+01 -0.16710612174E+02  0.18726586478E+02  0.00000000000E+00 0.  1.
         11    1    3    3    0    0 -0.22092516153E+02  0.20460838757E+00  0.32618881229E+02  0.39396859614E+02  0.51100000000E-03 0. -1.
        -11    1    3    3    0    0 -0.10519398317E+01  0.48247863052E+01 -0.88327898085E+00  0.50165049904E+01  0.51100000000E-03 0.  1.
         12    1    3    3    0    0  0.19904313183E+02 -0.12835927630E+02 -0.15024990073E+02  0.28048048918E+02  0.00000000000E+00 0. -1.
</event>
<event>
 7    1  0.1749439E-013  0.7246160E+02  0.7816164E-02  0.1226708E+00
        -11   -1    0    0    0    0  0.00000000000E+00  0.00000000000E+00  0.45593999997E+02  0.45594000000E+02  0.51100000000E-03 0. -1.
         11   -1    0    0    0    0 -0.00000000000E+00 -0.00000000000E+00 -0.45593999997E+02  0.45594000000E+02  0.51100000000E-03 0.  1.
    9900012    2    1    2    0    0 -0.17679297773E+02 -0.55793169440E+01  0.26441676062E+01  0.72461602332E+02  0.70000041734E+02 0.  0.
        -12    1    1    2    0    0  0.17679297773E+02  0.55793169440E+01 -0.26441676062E+01  0.18726397668E+02  0.00000000000E+00 0.  1.
         11    1    3    3    0    0 -0.68738261146E+01  0.15156042638E+02  0.14252365566E+02  0.21910842941E+02  0.51100000000E-03 0. -1.
        -11    1    3    3    0    0 -0.10410965042E+02  0.11368628895E+02  0.22545569643E+01  0.15579375579E+02  0.51100000000E-03 0.  1.
         12    1    3    3    0    0 -0.39450661667E+00 -0.32103988477E+02 -0.13862754924E+02  0.34971383812E+02  0.00000000000E+00 0. -1.
</event>
<event>
 7    1  0.1749439E-013  0.7246159E+02  0.7816164E-02  0.1226708E+00
        -11   -1    0    0    0    0  0.00000000000E+00  0.00000000000E+00  0.45593999997E+02  0.45594000000E+02  0.51100000000E-03 0.  1.
         11   -1    0    0    0    0 -0.00000000000E+00 -0.00000000000E+00 -0.45593999997E+02  0.45594000000E+02  0.51100000000E-03 0. -1.
    9900012    2    1    2    0    0  0.16910120364E+02 -0.45696359044E+01 -0.66215315176E+01  0.72461590236E+02  0.70000025978E+02 0.  0.
        -12    1    1    2    0    0 -0.16910120364E+02  0.45696359044E+01  0.66215315176E+01  0.18726409764E+02  0.00000000000E+00 0.  1.
         11    1    3    3    0    0  0.58375788122E+00  0.84206695454E+01 -0.23277939408E+01  0.87559736037E+01  0.51100000000E-03 0. -1.
        -11    1    3    3    0    0 -0.13482070955E+02  0.60291423433E+01  0.16929418195E+02  0.22466018680E+02  0.51100000000E-03 0.  1.
         12    1    3    3    0    0  0.29808433437E+02 -0.19019447793E+02 -0.21223155772E+02  0.41239597952E+02  0.00000000000E+00 0. -1.
</event>
<event>
 7    1  0.1749439E-013  0.7246156E+02  0.7816164E-02  0.1226708E+00
        -11   -1    0    0    0    0  0.00000000000E+00  0.00000000000E+00  0.45593999997E+02  0.45594000000E+02  0.51100000000E-03 0. -1.
         11   -1    0    0    0    0 -0.00000000000E+00 -0.00000000000E+00 -0.45593999997E+02  0.45594000000E+02  0.51100000000E-03 0.  1.
    9900012    2    1    2    0    0  0.10442981224E+02  0.13815281298E+02  0.71247199403E+01  0.72461561780E+02  0.69999988908E+02 0.  0.
        -12    1    1    2    0    0 -0.10442981224E+02 -0.13815281298E+02 -0.71247199403E+01  0.18726438220E+02  0.00000000000E+00 0.  1.
         11    1    3    3    0    0  0.53165373481E+01 -0.11423071668E+02  0.13045117715E+02  0.18136351126E+02  0.51100000000E-03 0. -1.
        -11    1    3    3    0    0 -0.19101123166E+02  0.89008951467E+01 -0.12321425243E+02  0.24410988528E+02  0.51100000000E-03 0.  1.
         12    1    3    3    0    0  0.24227567042E+02  0.16337457819E+02  0.64010274690E+01  0.29914222126E+02  0.00000000000E+00 0. -1.
</event>
<event>
 7    1  0.1749439E-013  0.7246151E+02  0.7816164E-02  0.1226708E+00
        -11   -1    0    0    0    0  0.00000000000E+00  0.00000000000E+00  0.45593999997E+02  0.45594000000E+02  0.51100000000E-03 0. -1.
         11   -1    0    0    0    0 -0.00000000000E+00 -0.00000000000E+00 -0.45593999997E+02  0.45594000000E+02  0.51100000000E-03 0.  1.
    9900012    2    1    2    0    0  0.11022500532E+02 -0.36209294877E+01 -0.14699485917E+02  0.72461507148E+02  0.69999917740E+02 0.  0.
        -12    1    1    2    0    0 -0.11022500532E+02  0.36209294877E+01  0.14699485917E+02  0.18726492852E+02  0.00000000000E+00 0.  1.
         11    1    3    3    0    0  0.20295286453E+02  0.15334051146E+02  0.81363833326E+01  0.26706413289E+02  0.51100000000E-03 0. -1.
        -11    1    3    3    0    0 -0.60477030134E+01  0.24850171835E+01  0.65378879265E+01  0.92462966068E+01  0.51100000000E-03 0.  1.
        -12    1    3    3    0    0 -0.32250829083E+01 -0.21439997817E+02 -0.29373757176E+02  0.36508797252E+02  0.00000000000E+00 0.  1.
</event>
<event>
 7    1  0.1749439E-013  0.7246160E+02  0.7816164E-02  0.1226708E+00
        -11   -1    0    0    0    0  0.00000000000E+00  0.00000000000E+00  0.45593999997E+02  0.45594000000E+02  0.51100000000E-03 0.  1.
         11   -1    0    0    0    0 -0.00000000000E+00 -0.00000000000E+00 -0.45593999997E+02  0.45594000000E+02  0.51100000000E-03 0. -1.
    9900012    2    1    2    0    0 -0.15734321891E+02  0.56003971743E+01  0.84702315640E+01  0.72461597339E+02  0.70000035231E+02 0.  0.
        -12    1    1    2    0    0  0.15734321891E+02 -0.56003971743E+01 -0.84702315640E+01  0.18726402661E+02  0.00000000000E+00 0.  1.
         11    1    3    3    0    0 -0.36018826492E+02 -0.14284417797E+01 -0.46105388373E+01  0.36340794933E+02  0.51100000000E-03 0. -1.
        -11    1    3    3    0    0 -0.46488411845E+01  0.73849569356E+01  0.30737168482E+01  0.92518673155E+01  0.51100000000E-03 0.  1.
        -12    1    3    3    0    0  0.24933345785E+02 -0.35611798164E+00  0.10007053553E+02  0.26868935090E+02  0.00000000000E+00 0.  1.
</event>
<event>
 7    1  0.1749439E-013  0.7246157E+02  0.7816164E-02  0.1226708E+00
        -11   -1    0    0    0    0  0.00000000000E+00  0.00000000000E+00  0.45593999997E+02  0.45594000000E+02  0.51100000000E-03 0.  1.
         11   -1    0    0    0    0 -0.00000000000E+00 -0.00000000000E+00 -0.45593999997E+02  0.45594000000E+02  0.51100000000E-03 0. -1.
    9900012    2    1    2    0    0  0.45217234503E+01 -0.14408362202E+02 -0.11073944735E+02  0.72461571182E+02  0.70000001156E+02 0.  0.
        -12    1    1    2    0    0 -0.45217234503E+01  0.14408362202E+02  0.11073944735E+02  0.18726428818E+02  0.00000000000E+00 0.  1.
         11    1    3    3    0    0  0.94286929021E+01  0.20519547415E+02  0.65172875457E+01  0.23503768063E+02  0.51100000000E-03 0. -1.
        -11    1    3    3    0    0  0.68785180375E+01 -0.24262887526E+02  0.40706416266E-01  0.25219107414E+02  0.51100000000E-03 0.  1.
        -12    1    3    3    0    0 -0.11785487489E+02 -0.10665022091E+02 -0.17631938697E+02  0.23738695705E+02  0.00000000000E+00 0.  1.
</event>
<event>
 7    1  0.1749439E-013  0.7246155E+02  0.7816164E-02  0.1226708E+00
        -11   -1    0    0    0    0  0.00000000000E+00  0.00000000000E+00  0.45593999997E+02  0.45594000000E+02  0.51100000000E-03 0. -1.
         11   -1    0    0    0    0 -0.00000000000E+00 -0.00000000000E+00 -0.45593999997E+02  0.45594000000E+02  0.51100000000E-03 0.  1.
    9900012    2    1    2    0    0 -0.14397718618E+01 -0.26009050247E+01  0.18488973561E+02  0.72461553639E+02  0.69999978303E+02 0.  0.
        -12    1    1    2    0    0  0.14397718618E+01  0.26009050247E+01 -0.18488973561E+02  0.18726446361E+02  0.00000000000E+00 0.  1.
         11    1    3    3    0    0  0.11210810292E+02 -0.65986634234E+01 -0.22005397673E+01  0.13193445415E+02  0.51100000000E-03 0. -1.
        -11    1    3    3    0    0  0.13044539082E+02 -0.15567812891E+02 -0.10484137044E+01  0.20337550728E+02  0.51100000000E-03 0.  1.
         12    1    3    3    0    0 -0.25695121236E+02  0.19565571290E+02  0.21737927033E+02  0.38930557496E+02  0.00000000000E+00 0. -1.
</event>
<event>
 7    1  0.1749439E-013  0.7246153E+02  0.7816164E-02  0.1226708E+00
        -11   -1    0    0    0    0  0.00000000000E+00  0.00000000000E+00  0.45593999997E+02  0.45594000000E+02  0.51100000000E-03 0. -1.
         11   -1    0    0    0    0 -0.00000000000E+00 -0.00000000000E+00 -0.45593999997E+02  0.45594000000E+02  0.51100000000E-03 0.  1.
    9900012    2    1    2    0    0 -0.11871798067E+02 -0.82695668547E+01  0.11889289402E+02  0.72461534028E+02  0.69999952757E+02 0.  0.
        -12    1    1    2    0    0  0.11871798067E+02  0.82695668547E+01 -0.11889289402E+02  0.18726465972E+02  0.00000000000E+00 0.  1.
         11    1    3    3    0    0 -0.16507644628E+02 -0.44132526019E+01  0.33868546031E+02  0.37934911891E+02  0.51100000000E-03 0. -1.
        -11    1    3    3    0    0  0.13085390849E+01  0.62581676265E+01  0.32284370084E+01  0.71623838460E+01  0.51100000000E-03 0.  1.
        -12    1    3    3    0    0  0.33273074765E+01 -0.10114481879E+02 -0.25207693637E+02  0.27364238291E+02  0.00000000000E+00 0.  1.
</event>
<event>
 7    1  0.1749439E-013  0.7246098E+02  0.7816164E-02  0.1226710E+00
        -11   -1    0    0    0    0  0.00000000000E+00  0.00000000000E+00  0.45593999997E+02  0.45594000000E+02  0.51100000000E-03 0.  1.
         11   -1    0    0    0    0 -0.00000000000E+00 -0.00000000000E+00 -0.45593999997E+02  0.45594000000E+02  0.51100000000E-03 0. -1.
    9900012    2    1    2    0    0  0.84355113114E-01  0.10495956007E-01 -0.18726825211E+02  0.72460981860E+02  0.69999233451E+02 0.  0.
        -12    1    1    2    0    0 -0.84355113114E-01 -0.10495956007E-01  0.18726825211E+02  0.18727018140E+02  0.00000000000E+00 0.  1.
         11    1    3    3    0    0 -0.15615702659E+02  0.22758846482E+02 -0.13557383628E+02  0.30750901024E+02  0.51100000000E-03 0. -1.
        -11    1    3    3    0    0  0.86371563134E+01  0.46096073589E+01 -0.88737461968E+01  0.13213338753E+02  0.51100000000E-03 0.  1.
        -12    1    3    3    0    0  0.70629014588E+01 -0.27357957884E+02  0.37043046143E+01  0.28496742082E+02  0.00000000000E+00 0.  1.
</event>
<event>
 7    1  0.1749439E-013  0.7246163E+02  0.7816164E-02  0.1226708E+00
        -11   -1    0    0    0    0  0.00000000000E+00  0.00000000000E+00  0.45593999997E+02  0.45594000000E+02  0.51100000000E-03 0.  1.
         11   -1    0    0    0    0 -0.00000000000E+00 -0.00000000000E+00 -0.45593999997E+02  0.45594000000E+02  0.51100000000E-03 0. -1.
    9900012    2    1    2    0    0  0.10555299938E+02  0.40438109618E+01 -0.14930181120E+02  0.72461626294E+02  0.70000072950E+02 0.  0.
        -12    1    1    2    0    0 -0.10555299938E+02 -0.40438109618E+01  0.14930181120E+02  0.18726373706E+02  0.00000000000E+00 0.  1.
         11    1    3    3    0    0  0.17176883931E+02 -0.38309725487E+01  0.14733567291E+00  0.17599528411E+02  0.51100000000E-03 0. -1.
        -11    1    3    3    0    0  0.13396699218E+02  0.21704799830E+02 -0.16683619505E+02  0.30478074835E+02  0.51100000000E-03 0.  1.
        -12    1    3    3    0    0 -0.20018283210E+02 -0.13830016320E+02  0.16061027119E+01  0.24384023048E+02  0.00000000000E+00 0.  1.
</event>
<event>
 7    1  0.1749439E-013  0.7246160E+02  0.7816164E-02  0.1226708E+00
        -11   -1    0    0    0    0  0.00000000000E+00  0.00000000000E+00  0.45593999997E+02  0.45594000000E+02  0.51100000000E-03 0.  1.
         11   -1    0    0    0    0 -0.00000000000E+00 -0.00000000000E+00 -0.45593999997E+02  0.45594000000E+02  0.51100000000E-03 0. -1.
    9900012    2    1    2    0    0  0.16924989554E+02  0.44074254618E+01 -0.66930894684E+01  0.72461598390E+02  0.70000036600E+02 0.  0.
        -12    1    1    2    0    0 -0.16924989554E+02 -0.44074254618E+01  0.66930894684E+01  0.18726401610E+02  0.00000000000E+00 0.  1.
         11    1    3    3    0    0  0.18142185856E+02 -0.24725354397E+02 -0.23363272462E+01  0.30756145450E+02  0.51100000000E-03 0. -1.
        -11    1    3    3    0    0  0.36784860885E+01  0.65536418818E+01  0.11461257981E+02  0.13705543280E+02  0.51100000000E-03 0.  1.
        -12    1    3    3    0    0 -0.48956823907E+01  0.22579137977E+02 -0.15818020204E+02  0.27999909660E+02  0.00000000000E+00 0.  1.
</event>
<event>
 7    1  0.1749439E-013  0.7246159E+02  0.7816164E-02  0.1226708E+00
        -11   -1    0    0    0    0  0.00000000000E+00  0.00000000000E+00  0.45593999997E+02  0.45594000000E+02  0.51100000000E-03 0. -1.
         11   -1    0    0    0    0 -0.00000000000E+00 -0.00000000000E+00 -0.45593999997E+02  0.45594000000E+02  0.51100000000E-03 0.  1.
    9900012    2    1    2    0    0  0.13631013214E+02 -0.12040165133E+02 -0.44618581996E+01  0.72461594144E+02  0.70000031069E+02 0.  0.
        -12    1    1    2    0    0 -0.13631013214E+02  0.12040165133E+02  0.44618581996E+01  0.18726405856E+02  0.00000000000E+00 0.  1.
         11    1    3    3    0    0  0.22538485987E+02  0.72965114314E+01 -0.65533553953E+01  0.24579847373E+02  0.51100000000E-03 0. -1.
        -11    1    3    3    0    0  0.54744306618E+01  0.36236418540E+01 -0.14636116164E+02  0.16041074402E+02  0.51100000000E-03 0.  1.
         12    1    3    3    0    0 -0.14381903434E+02 -0.22960318418E+02  0.16727613359E+02  0.31840672370E+02  0.00000000000E+00 0. -1.
</event>
<event>
 7    1  0.1749439E-013  0.7246139E+02  0.7816164E-02  0.1226708E+00
        -11   -1    0    0    0    0  0.00000000000E+00  0.00000000000E+00  0.45593999997E+02  0.45594000000E+02  0.51100000000E-03 0. -1.
         11   -1    0    0    0    0 -0.00000000000E+00 -0.00000000000E+00 -0.45593999997E+02  0.45594000000E+02  0.51100000000E-03 0.  1.
    9900012    2    1    2    0    0 -0.69959226854E+01 -0.40397656976E+01  0.16894470827E+02  0.72461393644E+02  0.69999769879E+02 0.  0.
        -12    1    1    2    0    0  0.69959226854E+01  0.40397656976E+01 -0.16894470827E+02  0.18726606356E+02  0.00000000000E+00 0.  1.
         11    1    3    3    0    0 -0.17306463732E+02 -0.39395013532E+01  0.98896290655E+01  0.20318418273E+02  0.51100000000E-03 0. -1.
        -11    1    3    3    0    0 -0.11964368562E+02 -0.69823833825E+01  0.20846683368E+02  0.25029662413E+02  0.51100000000E-03 0.  1.
        -12    1    3    3    0    0  0.22274909608E+02  0.68821190380E+01 -0.13841841607E+02  0.27113312958E+02  0.00000000000E+00 0.  1.
</event>
<event>
 7    1  0.1749439E-013  0.7246159E+02  0.7816164E-02  0.1226708E+00
        -11   -1    0    0    0    0  0.00000000000E+00  0.00000000000E+00  0.45593999997E+02  0.45594000000E+02  0.51100000000E-03 0. -1.
         11   -1    0    0    0    0 -0.00000000000E+00 -0.00000000000E+00 -0.45593999997E+02  0.45594000000E+02  0.51100000000E-03 0.  1.
    9900012    2    1    2    0    0 -0.11157805498E+02  0.14508270022E+02 -0.39613165304E+01  0.72461586803E+02  0.70000021506E+02 0.  0.
        -12    1    1    2    0    0  0.11157805498E+02 -0.14508270022E+02  0.39613165304E+01  0.18726413197E+02  0.00000000000E+00 0.  1.
         11    1    3    3    0    0 -0.12115279013E+02 -0.27940625592E+01  0.14018290435E+02  0.18737642278E+02  0.51100000000E-03 0. -1.
        -11    1    3    3    0    0 -0.10985548713E+02 -0.27100653022E+01 -0.26575546518E+02  0.28884016470E+02  0.51100000000E-03 0.  1.
         12    1    3    3    0    0  0.11943022228E+02  0.20012397884E+02  0.85959395524E+01  0.24839928055E+02  0.00000000000E+00 0. -1.
</event>
<event>
 7    1  0.1749439E-013  0.7246137E+02  0.7816164E-02  0.1226709E+00
        -11   -1    0    0    0    0  0.00000000000E+00  0.00000000000E+00  0.45593999997E+02  0.45594000000E+02  0.51100000000E-03 0. -1.
         11   -1    0    0    0    0 -0.00000000000E+00 -0.00000000000E+00 -0.45593999997E+02  0.45594000000E+02  0.51100000000E-03 0.  1.
    9900012    2    1    2    0    0 -0.56426875421E+01 -0.23656705609E+01  0.17698880965E+02  0.72461369035E+02  0.69999737821E+02 0.  0.
        -12    1    1    2    0    0  0.56426875421E+01  0.23656705609E+01 -0.17698880965E+02  0.18726630965E+02  0.00000000000E+00 0.  1.
         11    1    3    3    0    0  0.37735275536E+00 -0.10983519584E+02 -0.14530992989E+02  0.18218942205E+02  0.51100000000E-03 0.  1.
        -11    1    3    3    0    0 -0.40513755428E+01 -0.16154233504E+02  0.50245005830E+01  0.17395933728E+02  0.51100000000E-03 0. -1.
        -12    1    3    3    0    0 -0.19686647546E+01  0.24772082527E+02  0.27205373371E+02  0.36846493102E+02  0.00000000000E+00 0.  1.
</event>
<event>
 7    1  0.1749439E-013  0.7246157E+02  0.7816164E-02  0.1226708E+00
        -11   -1    0    0    0    0  0.00000000000E+00  0.00000000000E+00  0.45593999997E+02  0.45594000000E+02  0.51100000000E-03 0. -1.
         11   -1    0    0    0    0 -0.00000000000E+00 -0.00000000000E+00 -0.45593999997E+02  0.45594000000E+02  0.51100000000E-03 0.  1.
    9900012    2    1    2    0    0 -0.17241804615E+02 -0.51167738644E+01  0.52170685059E+01  0.72461574688E+02  0.70000005723E+02 0.  0.
        -12    1    1    2    0    0  0.17241804615E+02  0.51167738644E+01 -0.52170685059E+01  0.18726425312E+02  0.00000000000E+00 0.  1.
         11    1    3    3    0    0 -0.37157712163E+01  0.55930154027E+01 -0.19693316133E+02  0.20806621004E+02  0.51100000000E-03 0.  1.
        -11    1    3    3    0    0  0.82409563483E+01  0.11225493105E+02  0.11093937740E+02  0.17804508188E+02  0.51100000000E-03 0. -1.
         12    1    3    3    0    0 -0.21766989747E+02 -0.21935282372E+02  0.13816446899E+02  0.33850445496E+02  0.00000000000E+00 0. -1.
</event>
<event>
 7    1  0.1749439E-013  0.7246155E+02  0.7816164E-02  0.1226708E+00
        -11   -1    0    0    0    0  0.00000000000E+00  0.00000000000E+00  0.45593999997E+02  0.45594000000E+02  0.51100000000E-03 0.  1.
         11   -1    0    0    0    0 -0.00000000000E+00 -0.00000000000E+00 -0.45593999997E+02  0.45594000000E+02  0.51100000000E-03 0. -1.
    9900012    2    1    2    0    0 -0.14325262457E+02  0.11865933180E+02 -0.21601916807E+01  0.72461549648E+02  0.69999973105E+02 0.  0.
        -12    1    1    2    0    0  0.14325262457E+02 -0.11865933180E+02  0.21601916807E+01  0.18726450352E+02  0.00000000000E+00 0.  1.
         11    1    3    3    0    0 -0.16113184944E+02 -0.39863274196E+01  0.17119236251E+02  0.23845204663E+02  0.51100000000E-03 0.  1.
        -11    1    3    3    0    0 -0.14682165085E+02  0.22451516413E+02 -0.10353597862E+02  0.28754713523E+02  0.51100000000E-03 0. -1.
        -12    1    3    3    0    0  0.16470087572E+02 -0.65992558141E+01 -0.89258300692E+01  0.19861631462E+02  0.00000000000E+00 0.  1.
</event>
<event>
 7    1  0.1749439E-013  0.7246158E+02  0.7816164E-02  0.1226708E+00
        -11   -1    0    0    0    0  0.00000000000E+00  0.00000000000E+00  0.45593999997E+02  0.45594000000E+02  0.51100000000E-03 0. -1.
         11   -1    0    0    0    0 -0.00000000000E+00 -0.00000000000E+00 -0.45593999997E+02  0.45594000000E+02  0.51100000000E-03 0.  1.
    9900012    2    1    2    0    0  0.15575887271E+02 -0.77019164387E+01  0.69822063083E+01  0.72461575193E+02  0.70000006382E+02 0.  0.
        -12    1    1    2    0    0 -0.15575887271E+02  0.77019164387E+01 -0.69822063083E+01  0.18726424807E+02  0.00000000000E+00 0.  1.
         11    1    3    3    0    0  0.19852019274E+02  0.13225572533E+02  0.73476240366E+00  0.23865420888E+02  0.51100000000E-03 0. -1.
        -11    1    3    3    0    0  0.10008163282E+02 -0.12000142059E+01  0.18698331253E+02  0.21242197586E+02  0.51100000000E-03 0.  1.
        -12    1    3    3    0    0 -0.14284295285E+02 -0.19727474766E+02 -0.12450887349E+02  0.27353956719E+02  0.00000000000E+00 0.  1.
</event>
<event>
 7    1  0.1749439E-013  0.7246161E+02  0.7816164E-02  0.1226708E+00
        -11   -1    0    0    0    0  0.00000000000E+00  0.00000000000E+00  0.45593999997E+02  0.45594000000E+02  0.51100000000E-03 0.  1.
         11   -1    0    0    0    0 -0.00000000000E+00 -0.00000000000E+00 -0.45593999997E+02  0.45594000000E+02  0.51100000000E-03 0. -1.
    9900012    2    1    2    0    0  0.18618111093E+02 -0.19285884472E+01  0.56928277722E+00  0.72461612282E+02  0.70000054697E+02 0.  0.
        -12    1    1    2    0    0 -0.18618111093E+02  0.19285884472E+01 -0.56928277722E+00  0.18726387718E+02  0.00000000000E+00 0.  1.
         11    1    3    3    0    0  0.18129444131E+02 -0.36847355685E+01 -0.82341160572E+01  0.20249807116E+02  0.51100000000E-03 0. -1.
        -11    1    3    3    0    0 -0.12967318368E+02  0.13490880565E+02 -0.13913658255E+02  0.23318342359E+02  0.51100000000E-03 0.  1.
        -12    1    3    3    0    0  0.13455985330E+02 -0.11734733444E+02  0.22717057089E+02  0.28893462807E+02  0.00000000000E+00 0.  1.
</event>
<event>
 7    1  0.1749439E-013  0.7246160E+02  0.7816164E-02  0.1226708E+00
        -11   -1    0    0    0    0  0.00000000000E+00  0.00000000000E+00  0.45593999997E+02  0.45594000000E+02  0.51100000000E-03 0.  1.
         11   -1    0    0    0    0 -0.00000000000E+00 -0.00000000000E+00 -0.45593999997E+02  0.45594000000E+02  0.51100000000E-03 0. -1.
    9900012    2    1    2    0    0 -0.12274922392E+01 -0.12249371527E+02  0.14111137725E+02  0.72461600242E+02  0.70000039013E+02 0.  0.
        -12    1    1    2    0    0  0.12274922392E+01  0.12249371527E+02 -0.14111137725E+02  0.18726399758E+02  0.00000000000E+00 0.  1.
         11    1    3    3    0    0  0.26357647083E+01  0.11286564771E+02  0.37362514156E+01  0.12177576722E+02  0.51100000000E-03 0. -1.
        -11    1    3    3    0    0  0.18818381036E+02 -0.20207432860E+01 -0.11483249514E+02  0.22137748032E+02  0.51100000000E-03 0.  1.
        -12    1    3    3    0    0 -0.22681637984E+02 -0.21515193011E+02  0.21858135824E+02  0.38146275488E+02  0.00000000000E+00 0.  1.
</event>
<event>
 7    1  0.1749439E-013  0.7246181E+02  0.7816164E-02  0.1226707E+00
        -11   -1    0    0    0    0  0.00000000000E+00  0.00000000000E+00  0.45593999997E+02  0.45594000000E+02  0.51100000000E-03 0.  1.
         11   -1    0    0    0    0 -0.00000000000E+00 -0.00000000000E+00 -0.45593999997E+02  0.45594000000E+02  0.51100000000E-03 0. -1.
    9900012    2    1    2    0    0  0.13396878719E+01 -0.11848372843E+02 -0.14439238662E+02  0.72461806693E+02  0.70000307952E+02 0.  0.
        -12    1    1    2    0    0 -0.13396878719E+01  0.11848372843E+02  0.14439238662E+02  0.18726193307E+02  0.00000000000E+00 0.  1.
         11    1    3    3    0    0 -0.81211934711E+01 -0.20710174272E+02 -0.16607278202E+02  0.27760885997E+02  0.51100000000E-03 0. -1.
        -11    1    3    3    0    0 -0.11438086790E+02  0.96121893271E+01 -0.12232780007E+02  0.19309710512E+02  0.51100000000E-03 0.  1.
        -12    1    3    3    0    0  0.20898968133E+02 -0.75038789802E+00  0.14400819547E+02  0.25391210185E+02  0.00000000000E+00 0.  1.
</event>
<event>
 7    1  0.1749439E-013  0.7246153E+02  0.7816164E-02  0.1226708E+00
        -11   -1    0    0    0    0  0.00000000000E+00  0.00000000000E+00  0.45593999997E+02  0.45594000000E+02  0.51100000000E-03 0. -1.
         11   -1    0    0    0    0 -0.00000000000E+00 -0.00000000000E+00 -0.45593999997E+02  0.45594000000E+02  0.51100000000E-03 0.  1.
    9900012    2    1    2    0    0  0.18073451967E+02 -0.62886588180E+00 -0.48616320966E+01  0.72461531968E+02  0.69999950073E+02 0.  0.
        -12    1    1    2    0    0 -0.18073451967E+02  0.62886588180E+00  0.48616320966E+01  0.18726468032E+02  0.00000000000E+00 0.  1.
         11    1    3    3    0    0  0.15193590934E+02  0.51268007104E+01 -0.16327294678E+02  0.22884707618E+02  0.51100000000E-03 0. -1.
        -11    1    3    3    0    0 -0.22244009365E+02 -0.56755252909E+00  0.24542700054E+01  0.22386190163E+02  0.51100000000E-03 0.  1.
         12    1    3    3    0    0  0.25123870398E+02 -0.51881140631E+01  0.90113925762E+01  0.27190634186E+02  0.00000000000E+00 0. -1.
</event>
<event>
 7    1  0.1749439E-013  0.7246086E+02  0.7816164E-02  0.1226710E+00
        -11   -1    0    0    0    0  0.00000000000E+00  0.00000000000E+00  0.45593999997E+02  0.45594000000E+02  0.51100000000E-03 0.  1.
         11   -1    0    0    0    0 -0.00000000000E+00 -0.00000000000E+00 -0.45593999997E+02  0.45594000000E+02  0.51100000000E-03 0. -1.
    9900012    2    1    2    0    0 -0.12393874218E+02  0.11214854028E+02 -0.84453975170E+01  0.72460859048E+02  0.69999073464E+02 0.  0.
        -12    1    1    2    0    0  0.12393874218E+02 -0.11214854028E+02  0.84453975170E+01  0.18727140952E+02  0.00000000000E+00 0.  1.
         11    1    3    3    0    0 -0.12187682502E+02  0.26839352346E+02 -0.75922808235E+01  0.30439007334E+02  0.51100000000E-03 0.  1.
        -11    1    3    3    0    0  0.11492028630E+02 -0.28691555840E+01 -0.15389364353E+02  0.19419868981E+02  0.51100000000E-03 0. -1.
        -12    1    3    3    0    0 -0.11698220345E+02 -0.12755342733E+02  0.14536247659E+02  0.22601982734E+02  0.00000000000E+00 0.  1.
</event>
<event>
 7    1  0.1749439E-013  0.7246161E+02  0.7816164E-02  0.1226708E+00
        -11   -1    0    0    0    0  0.00000000000E+00  0.00000000000E+00  0.45593999997E+02  0.45594000000E+02  0.51100000000E-03 0.  1.
         11   -1    0    0    0    0 -0.00000000000E+00 -0.00000000000E+00 -0.45593999997E+02  0.45594000000E+02  0.51100000000E-03 0. -1.
    9900012    2    1    2    0    0 -0.18323361901E+02 -0.34134799146E+01 -0.18111931222E+01  0.72461605338E+02  0.70000045651E+02 0.  0.
        -12    1    1    2    0    0  0.18323361901E+02  0.34134799146E+01  0.18111931222E+01  0.18726394662E+02  0.00000000000E+00 0.  1.
         11    1    3    3    0    0 -0.18767852460E+02  0.22230139770E+02 -0.32047156813E+01  0.29269123715E+02  0.51100000000E-03 0. -1.
        -11    1    3    3    0    0  0.10833883503E+02 -0.57567237594E+00 -0.90383305142E+01  0.14120759511E+02  0.51100000000E-03 0.  1.
         12    1    3    3    0    0 -0.10389392944E+02 -0.25067947309E+02  0.10431853073E+02  0.29071722112E+02  0.00000000000E+00 0. -1.
</event>
<event>
 7    1  0.1749439E-013  0.7246168E+02  0.7816164E-02  0.1226708E+00
        -11   -1    0    0    0    0  0.00000000000E+00  0.00000000000E+00  0.45593999997E+02  0.45594000000E+02  0.51100000000E-03 0. -1.
         11   -1    0    0    0    0 -0.00000000000E+00 -0.00000000000E+00 -0.45593999997E+02  0.45594000000E+02  0.51100000000E-03 0.  1.
    9900012    2    1    2    0    0  0.70357463615E+01  0.15748212700E+02 -0.72915728285E+01  0.72461682571E+02  0.70000146262E+02 0.  0.
        -12    1    1    2    0    0 -0.70357463615E+01 -0.15748212700E+02  0.72915728285E+01  0.18726317429E+02  0.00000000000E+00 0.  1.
         11    1    3    3    0    0  0.83493045981E+01  0.72529100298E+01  0.26049434571E+02  0.28299975846E+02  0.51100000000E-03 0. -1.
        -11    1    3    3    0    0  0.57908971879E+01  0.16320457758E+01  0.28424246390E+01  0.66541296759E+01  0.51100000000E-03 0.  1.
        -12    1    3    3    0    0 -0.71044554245E+01  0.68632568949E+01 -0.36183432038E+02  0.37507577050E+02  0.00000000000E+00 0.  1.
</event>
<event>
 7    1  0.1749439E-013  0.7246155E+02  0.7816164E-02  0.1226708E+00
        -11   -1    0    0    0    0  0.00000000000E+00  0.00000000000E+00  0.45593999997E+02  0.45594000000E+02  0.51100000000E-03 0. -1.
         11   -1    0    0    0    0 -0.00000000000E+00 -0.00000000000E+00 -0.45593999997E+02  0.45594000000E+02  0.51100000000E-03 0.  1.
    9900012    2    1    2    0    0 -0.12297121670E+02 -0.12831681312E+02  0.58999029516E+01  0.72461545410E+02  0.69999967584E+02 0.  0.
        -12    1    1    2    0    0  0.12297121670E+02  0.12831681312E+02 -0.58999029516E+01  0.18726454590E+02  0.00000000000E+00 0.  1.
         11    1    3    3    0    0 -0.14012867703E+02 -0.31383447996E+02  0.23767085003E+02  0.41787026685E+02  0.51100000000E-03 0. -1.
        -11    1    3    3    0    0  0.33573488141E+01  0.17602491922E+01 -0.12357852201E+02  0.12926205149E+02  0.51100000000E-03 0.  1.
        -12    1    3    3    0    0 -0.16416027811E+01  0.16791517493E+02 -0.55093298506E+01  0.17748313576E+02  0.00000000000E+00 0.  1.
</event>
<event>
 7    1  0.1749439E-013  0.7246156E+02  0.7816164E-02  0.1226708E+00
        -11   -1    0    0    0    0  0.00000000000E+00  0.00000000000E+00  0.45593999997E+02  0.45594000000E+02  0.51100000000E-03 0. -1.
         11   -1    0    0    0    0 -0.00000000000E+00 -0.00000000000E+00 -0.45593999997E+02  0.45594000000E+02  0.51100000000E-03 0.  1.
    9900012    2    1    2    0    0  0.16407920395E+02  0.88607732789E+01  0.17165002904E+01  0.72461560722E+02  0.69999987531E+02 0.  0.
        -12    1    1    2    0    0 -0.16407920395E+02 -0.88607732789E+01 -0.17165002904E+01  0.18726439278E+02  0.00000000000E+00 0.  1.
         11    1    3    3    0    0  0.32313975330E+01  0.20344027789E+02  0.77597831286E+01  0.22012170069E+02  0.51100000000E-03 0. -1.
        -11    1    3    3    0    0 -0.73717233261E+01  0.14859055507E+02 -0.58361039626E+00  0.16597422593E+02  0.51100000000E-03 0.  1.
        -12    1    3    3    0    0  0.20548246188E+02 -0.26342310017E+02 -0.54596724419E+01  0.33851968061E+02  0.00000000000E+00 0.  1.
</event>
<event>
 7    1  0.1749439E-013  0.7246169E+02  0.7816164E-02  0.1226708E+00
        -11   -1    0    0    0    0  0.00000000000E+00  0.00000000000E+00  0.45593999997E+02  0.45594000000E+02  0.51100000000E-03 0.  1.
         11   -1    0    0    0    0 -0.00000000000E+00 -0.00000000000E+00 -0.45593999997E+02  0.45594000000E+02  0.51100000000E-03 0. -1.
    9900012    2    1    2    0    0  0.22381059951E+00 -0.17717779465E+02 -0.60584514333E+01  0.72461691391E+02  0.70000157751E+02 0.  0.
        -12    1    1    2    0    0 -0.22381059951E+00  0.17717779465E+02  0.60584514333E+01  0.18726308609E+02  0.00000000000E+00 0.  1.
         11    1    3    3    0    0  0.17329545987E+02 -0.12317143875E+02 -0.25653011060E+01  0.21415087377E+02  0.51100000000E-03 0. -1.
        -11    1    3    3    0    0 -0.78348819219E+01  0.13503547395E+02  0.15999093675E+02  0.22354019004E+02  0.51100000000E-03 0.  1.
         12    1    3    3    0    0 -0.92708534658E+01 -0.18904182985E+02 -0.19492244002E+02  0.28692585010E+02  0.00000000000E+00 0. -1.
</event>
<event>
 7    1  0.1749439E-013  0.7246132E+02  0.7816164E-02  0.1226709E+00
        -11   -1    0    0    0    0  0.00000000000E+00  0.00000000000E+00  0.45593999997E+02  0.45594000000E+02  0.51100000000E-03 0. -1.
         11   -1    0    0    0    0 -0.00000000000E+00 -0.00000000000E+00 -0.45593999997E+02  0.45594000000E+02  0.51100000000E-03 0.  1.
    9900012    2    1    2    0    0  0.82886901939E+01  0.11645118167E+02  0.12098658510E+02  0.72461315830E+02  0.69999668512E+02 0.  0.
        -12    1    1    2    0    0 -0.82886901939E+01 -0.11645118167E+02 -0.12098658510E+02  0.18726684170E+02  0.00000000000E+00 0.  1.
         11    1    3    3    0    0 -0.35644913874E+01 -0.86439436823E+01  0.10577893608E+02  0.14117903339E+02  0.51100000000E-03 0. -1.
        -11    1    3    3    0    0 -0.20611527350E+02  0.12171844081E+02  0.57360652757E+01  0.24614859194E+02  0.51100000000E-03 0.  1.
        -12    1    3    3    0    0  0.32464708931E+02  0.81172177682E+01 -0.42153003745E+01  0.33728553297E+02  0.00000000000E+00 0.  1.
</event>
<event>
 7    1  0.1749439E-013  0.7246161E+02  0.7816164E-02  0.1226708E+00
        -11   -1    0    0    0    0  0.00000000000E+00  0.00000000000E+00  0.45593999997E+02  0.45594000000E+02  0.51100000000E-03 0.  1.
         11   -1    0    0    0    0 -0.00000000000E+00 -0.00000000000E+00 -0.45593999997E+02  0.45594000000E+02  0.51100000000E-03 0. -1.
    9900012    2    1    2    0    0  0.23491111455E+00 -0.24018733301E+01 -0.18570228880E+02  0.72461612751E+02  0.70000055308E+02 0.  0.
        -12    1    1    2    0    0 -0.23491111455E+00  0.24018733301E+01  0.18570228880E+02  0.18726387249E+02  0.00000000000E+00 0.  1.
         11    1    3    3    0    0  0.14504486855E+02 -0.12691300976E+02 -0.13831618127E+01  0.19322587721E+02  0.51100000000E-03 0. -1.
        -11    1    3    3    0    0 -0.17679007198E+02 -0.87745057691E+01  0.80604991042E+01  0.21319261082E+02  0.51100000000E-03 0.  1.
         12    1    3    3    0    0  0.34094314582E+01  0.19063933415E+02 -0.25247566172E+02  0.31819763948E+02  0.00000000000E+00 0. -1.
</event>
<event>
 7    1  0.1749439E-013  0.7246160E+02  0.7816164E-02  0.1226708E+00
        -11   -1    0    0    0    0  0.00000000000E+00  0.00000000000E+00  0.45593999997E+02  0.45594000000E+02  0.51100000000E-03 0. -1.
         11   -1    0    0    0    0 -0.00000000000E+00 -0.00000000000E+00 -0.45593999997E+02  0.45594000000E+02  0.51100000000E-03 0.  1.
    9900012    2    1    2    0    0 -0.93788067227E+01 -0.15031146619E+02 -0.60646996479E+01  0.72461602427E+02  0.70000041859E+02 0.  0.
        -12    1    1    2    0    0  0.93788067227E+01  0.15031146619E+02  0.60646996479E+01  0.18726397573E+02  0.00000000000E+00 0.  1.
         11    1    3    3    0    0 -0.21353967536E+02 -0.19011469172E+02 -0.10504423770E+02  0.30459330403E+02  0.51100000000E-03 0. -1.
        -11    1    3    3    0    0 -0.13354398990E+02 -0.20644346024E+01 -0.48455603714E+01  0.14355532668E+02  0.51100000000E-03 0.  1.
        -12    1    3    3    0    0  0.25329559804E+02  0.60447571553E+01  0.92852844930E+01  0.27646739356E+02  0.00000000000E+00 0.  1.
</event>
<event>
 7    1  0.1749439E-013  0.7246155E+02  0.7816164E-02  0.1226708E+00
        -11   -1    0    0    0    0  0.00000000000E+00  0.00000000000E+00  0.45593999997E+02  0.45594000000E+02  0.51100000000E-03 0.  1.
         11   -1    0    0    0    0 -0.00000000000E+00 -0.00000000000E+00 -0.45593999997E+02  0.45594000000E+02  0.51100000000E-03 0. -1.
    9900012    2    1    2    0    0 -0.12454509171E+02 -0.10869340799E+02 -0.87990062126E+01  0.72461551366E+02  0.69999975343E+02 0.  0.
        -12    1    1    2    0    0  0.12454509171E+02  0.10869340799E+02  0.87990062126E+01  0.18726448634E+02  0.00000000000E+00 0.  1.
         11    1    3    3    0    0 -0.57346606817E+01 -0.57873338697E+01 -0.28644967471E+02  0.29781096825E+02  0.51100000000E-03 0. -1.
        -11    1    3    3    0    0 -0.10384025919E+02 -0.14789719316E+02 -0.23070959821E+01  0.18217751888E+02  0.51100000000E-03 0.  1.
        -12    1    3    3    0    0  0.36641774298E+01  0.97077123862E+01  0.22153057240E+02  0.24462702653E+02  0.00000000000E+00 0.  1.
</event>
<event>
 7    1  0.1749439E-013  0.7246155E+02  0.7816164E-02  0.1226708E+00
        -11   -1    0    0    0    0  0.00000000000E+00  0.00000000000E+00  0.45593999997E+02  0.45594000000E+02  0.51100000000E-03 0. -1.
         11   -1    0    0    0    0 -0.00000000000E+00 -0.00000000000E+00 -0.45593999997E+02  0.45594000000E+02  0.51100000000E-03 0.  1.
    9900012    2    1    2    0    0  0.12103305075E+02 -0.11927328461E+02  0.78694939656E+01  0.72461545631E+02  0.69999967871E+02 0.  0.
        -12    1    1    2    0    0 -0.12103305075E+02  0.11927328461E+02 -0.78694939656E+01  0.18726454369E+02  0.00000000000E+00 0.  1.
         11    1    3    3    0    0  0.16812889131E+02 -0.11165193546E+02 -0.16612142248E+00  0.20183220369E+02  0.51100000000E-03 0. -1.
        -11    1    3    3    0    0  0.18849186192E+02  0.14316070513E+02  0.30191381539E+01  0.23861200525E+02  0.51100000000E-03 0.  1.
         12    1    3    3    0    0 -0.23558770248E+02 -0.15078205427E+02  0.50164772342E+01  0.28417124737E+02  0.00000000000E+00 0. -1.
</event>
<event>
 7    1  0.1749439E-013  0.7246164E+02  0.7816164E-02  0.1226708E+00
        -11   -1    0    0    0    0  0.00000000000E+00  0.00000000000E+00  0.45593999997E+02  0.45594000000E+02  0.51100000000E-03 0. -1.
         11   -1    0    0    0    0 -0.00000000000E+00 -0.00000000000E+00 -0.45593999997E+02  0.45594000000E+02  0.51100000000E-03 0.  1.
    9900012    2    1    2    0    0 -0.84687027837E+01  0.15357737140E+02  0.65648606186E+01  0.72461643926E+02  0.70000095918E+02 0.  0.
        -12    1    1    2    0    0  0.84687027837E+01 -0.15357737140E+02 -0.65648606186E+01  0.18726356074E+02  0.00000000000E+00 0.  1.
         11    1    3    3    0    0 -0.34670682745E+00  0.11308689604E+01 -0.10312978974E+02  0.10380587931E+02  0.51100000000E-03 0.  1.
        -11    1    3    3    0    0  0.70558831895E+00  0.79349413838E+01  0.37739429374E+02  0.38571047165E+02  0.51100000000E-03 0. -1.
         12    1    3    3    0    0 -0.88275842752E+01  0.62919267953E+01 -0.20861589782E+02  0.23510008829E+02  0.00000000000E+00 0. -1.
</event>
<event>
 7    1  0.1749439E-013  0.7246167E+02  0.7816164E-02  0.1226708E+00
        -11   -1    0    0    0    0  0.00000000000E+00  0.00000000000E+00  0.45593999997E+02  0.45594000000E+02  0.51100000000E-03 0.  1.
         11   -1    0    0    0    0 -0.00000000000E+00 -0.00000000000E+00 -0.45593999997E+02  0.45594000000E+02  0.51100000000E-03 0. -1.
    9900012    2    1    2    0    0  0.12101166023E+02 -0.35530940618E+01 -0.13842418571E+02  0.72461674989E+02  0.70000136384E+02 0.  0.
        -12    1    1    2    0    0 -0.12101166023E+02  0.35530940618E+01  0.13842418571E+02  0.18726325011E+02  0.00000000000E+00 0.  1.
         11    1    3    3    0    0 -0.89774087384E+01  0.14889557896E+02 -0.12754338765E+02  0.21563069345E+02  0.51100000000E-03 0. -1.
        -11    1    3    3    0    0  0.22256938258E+01  0.13247023727E+02 -0.36988020839E+01  0.13932641090E+02  0.51100000000E-03 0.  1.
        -12    1    3    3    0    0  0.18852880936E+02 -0.31689675685E+02  0.26107222778E+01  0.36965964554E+02  0.00000000000E+00 0.  1.
</event>
<event>
 7    1  0.1749439E-013  0.7246151E+02  0.7816164E-02  0.1226708E+00
        -11   -1    0    0    0    0  0.00000000000E+00  0.00000000000E+00  0.45593999997E+02  0.45594000000E+02  0.51100000000E-03 0.  1.
         11   -1    0    0    0    0 -0.00000000000E+00 -0.00000000000E+00 -0.45593999997E+02  0.45594000000E+02  0.51100000000E-03 0. -1.
    9900012    2    1    2    0    0 -0.16272850135E+02 -0.42147289779E+01 -0.82529825541E+01  0.72461513065E+02  0.69999925448E+02 0.  0.
        -12    1    1    2    0    0  0.16272850135E+02  0.42147289779E+01  0.82529825541E+01  0.18726486935E+02  0.00000000000E+00 0.  1.
         11    1    3    3    0    0 -0.22932524762E+01  0.12772277554E+02 -0.35716277628E+01  0.13459071513E+02  0.51100000000E-03 0. -1.
        -11    1    3    3    0    0 -0.28452727712E+02  0.83050056464E+01 -0.33941042471E+01  0.29833718791E+02  0.51100000000E-03 0.  1.
         12    1    3    3    0    0  0.14473130053E+02 -0.25292012179E+02 -0.12872505442E+01  0.29168722761E+02  0.00000000000E+00 0. -1.
</event>
<event>
 7    1  0.1749439E-013  0.7246156E+02  0.7816164E-02  0.1226708E+00
        -11   -1    0    0    0    0  0.00000000000E+00  0.00000000000E+00  0.45593999997E+02  0.45594000000E+02  0.51100000000E-03 0.  1.
         11   -1    0    0    0    0 -0.00000000000E+00 -0.00000000000E+00 -0.45593999997E+02  0.45594000000E+02  0.51100000000E-03 0. -1.
    9900012    2    1    2    0    0  0.68844353504E+00 -0.15757410937E+02 -0.10095024020E+02  0.72461562434E+02  0.69999989760E+02 0.  0.
        -12    1    1    2    0    0 -0.68844353504E+00  0.15757410937E+02  0.10095024020E+02  0.18726437566E+02  0.00000000000E+00 0.  1.
         11    1    3    3    0    0  0.29695691484E+02  0.65586299348E+01 -0.12327584422E+02  0.32814921260E+02  0.51100000000E-03 0. -1.
        -11    1    3    3    0    0 -0.81280521730E+01 -0.59947195589E+00 -0.36864715127E+01  0.89450920190E+01  0.51100000000E-03 0.  1.
        -12    1    3    3    0    0 -0.20879195776E+02 -0.21716568916E+02  0.59190319141E+01  0.30701549155E+02  0.00000000000E+00 0.  1.
</event>
<event>
 7    1  0.1749439E-013  0.7246146E+02  0.7816164E-02  0.1226708E+00
        -11   -1    0    0    0    0  0.00000000000E+00  0.00000000000E+00  0.45593999997E+02  0.45594000000E+02  0.51100000000E-03 0.  1.
         11   -1    0    0    0    0 -0.00000000000E+00 -0.00000000000E+00 -0.45593999997E+02  0.45594000000E+02  0.51100000000E-03 0. -1.
    9900012    2    1    2    0    0  0.14872266304E+01 -0.87647439225E+01 -0.16481826044E+02  0.72461463512E+02  0.69999860896E+02 0.  0.
        -12    1    1    2    0    0 -0.14872266304E+01  0.87647439225E+01  0.16481826044E+02  0.18726536488E+02  0.00000000000E+00 0.  1.
         11    1    3    3    0    0  0.14419052610E+02 -0.43957053508E+01 -0.86099821908E+01  0.17359812709E+02  0.51100000000E-03 0. -1.
        -11    1    3    3    0    0  0.12917710919E+02  0.45542754743E+01  0.14370080027E+02  0.19852150532E+02  0.51100000000E-03 0.  1.
         12    1    3    3    0    0 -0.25849536899E+02 -0.89233140459E+01 -0.22241923880E+02  0.35249500271E+02  0.00000000000E+00 0. -1.
</event>
<event>
 7    1  0.1749439E-013  0.7246130E+02  0.7816164E-02  0.1226709E+00
        -11   -1    0    0    0    0  0.00000000000E+00  0.00000000000E+00  0.45593999997E+02  0.45594000000E+02  0.51100000000E-03 0. -1.
         11   -1    0    0    0    0 -0.00000000000E+00 -0.00000000000E+00 -0.45593999997E+02  0.45594000000E+02  0.51100000000E-03 0.  1.
    9900012    2    1    2    0    0  0.15250714430E+02  0.16820636675E+00  0.10866319149E+02  0.72461295115E+02  0.69999641527E+02 0.  0.
        -12    1    1    2    0    0 -0.15250714430E+02 -0.16820636675E+00 -0.10866319149E+02  0.18726704885E+02  0.00000000000E+00 0.  1.
         11    1    3    3    0    0  0.19138725433E+02 -0.78175410110E+01  0.36655730704E+01  0.20996218346E+02  0.51100000000E-03 0. -1.
        -11    1    3    3    0    0  0.11306313605E+02 -0.14744575925E+02 -0.79465280309E+01  0.20208477294E+02  0.51100000000E-03 0.  1.
        -12    1    3    3    0    0 -0.15194324608E+02  0.22730323303E+02  0.15147274110E+02  0.31256599474E+02  0.00000000000E+00 0.  1.
</event>
<event>
 7    1  0.1749439E-013  0.7246157E+02  0.7816164E-02  0.1226708E+00
        -11   -1    0    0    0    0  0.00000000000E+00  0.00000000000E+00  0.45593999997E+02  0.45594000000E+02  0.51100000000E-03 0.  1.
         11   -1    0    0    0    0 -0.00000000000E+00 -0.00000000000E+00 -0.45593999997E+02  0.45594000000E+02  0.51100000000E-03 0. -1.
    9900012    2    1    2    0    0  0.15334762674E+02  0.72523594212E+00  0.10723724528E+02  0.72461569983E+02  0.69999999594E+02 0.  0.
        -12    1    1    2    0    0 -0.15334762674E+02 -0.72523594212E+00 -0.10723724528E+02  0.18726430017E+02  0.00000000000E+00 0.  1.
         11    1    3    3    0    0  0.43089763742E+01 -0.75520967666E+01  0.23595870480E+01  0.90093892281E+01  0.51100000000E-03 0. -1.
        -11    1    3    3    0    0  0.26784623693E+02 -0.14190304828E+02 -0.81954646255E+01  0.31399784365E+02  0.51100000000E-03 0.  1.
         12    1    3    3    0    0 -0.15758837393E+02  0.22467637536E+02  0.16559602106E+02  0.32052396390E+02  0.00000000000E+00 0. -1.
</event>
<event>
 7    1  0.1749439E-013  0.7246161E+02  0.7816164E-02  0.1226708E+00
        -11   -1    0    0    0    0  0.00000000000E+00  0.00000000000E+00  0.45593999997E+02  0.45594000000E+02  0.51100000000E-03 0. -1.
         11   -1    0    0    0    0 -0.00000000000E+00 -0.00000000000E+00 -0.45593999997E+02  0.45594000000E+02  0.51100000000E-03 0.  1.
    9900012    2    1    2    0    0  0.70758713998E+01  0.17251144368E+02 -0.17342479644E+01  0.72461613427E+02  0.70000056189E+02 0.  0.
        -12    1    1    2    0    0 -0.70758713998E+01 -0.17251144368E+02  0.17342479644E+01  0.18726386573E+02  0.00000000000E+00 0.  1.
         11    1    3    3    0    0  0.31793287396E+02 -0.36022656274E+00 -0.38531862039E+01  0.32027955458E+02  0.51100000000E-03 0. -1.
        -11    1    3    3    0    0  0.10638318202E+01 -0.55855304659E+01  0.63026376883E+00  0.57207623099E+01  0.51100000000E-03 0.  1.
        -12    1    3    3    0    0 -0.25781247817E+02  0.23196901397E+02  0.14886744706E+01  0.34712895659E+02  0.00000000000E+00 0.  1.
</event>
<event>
 7    1  0.1749439E-013  0.7246154E+02  0.7816164E-02  0.1226708E+00
        -11   -1    0    0    0    0  0.00000000000E+00  0.00000000000E+00  0.45593999997E+02  0.45594000000E+02  0.51100000000E-03 0.  1.
         11   -1    0    0    0    0 -0.00000000000E+00 -0.00000000000E+00 -0.45593999997E+02  0.45594000000E+02  0.51100000000E-03 0. -1.
    9900012    2    1    2    0    0 -0.13596599152E+02 -0.81998537607E+01 -0.99284977717E+01  0.72461543363E+02  0.69999964916E+02 0.  0.
        -12    1    1    2    0    0  0.13596599152E+02  0.81998537607E+01  0.99284977717E+01  0.18726456637E+02  0.00000000000E+00 0.  1.
         11    1    3    3    0    0 -0.15983986092E+02 -0.11533928241E+02  0.18463863469E+02  0.27008027816E+02  0.51100000000E-03 0. -1.
        -11    1    3    3    0    0 -0.13464122954E+02  0.46509195768E+01 -0.25611194430E+02  0.29306090497E+02  0.51100000000E-03 0.  1.
        -12    1    3    3    0    0  0.15851509894E+02 -0.13168450960E+01 -0.27811668102E+01  0.16147425050E+02  0.00000000000E+00 0.  1.
</event>
<event>
 7    1  0.1749439E-013  0.7246120E+02  0.7816164E-02  0.1226709E+00
        -11   -1    0    0    0    0  0.00000000000E+00  0.00000000000E+00  0.45593999997E+02  0.45594000000E+02  0.51100000000E-03 0.  1.
         11   -1    0    0    0    0 -0.00000000000E+00 -0.00000000000E+00 -0.45593999997E+02  0.45594000000E+02  0.51100000000E-03 0. -1.
    9900012    2    1    2    0    0  0.83939941085E+01 -0.11365229199E+02 -0.12290867782E+02  0.72461200950E+02  0.69999518859E+02 0.  0.
        -12    1    1    2    0    0 -0.83939941085E+01  0.11365229199E+02  0.12290867782E+02  0.18726799050E+02  0.00000000000E+00 0.  1.
         11    1    3    3    0    0 -0.28445259536E+01  0.17784403137E+02 -0.12950296516E+01  0.18056949490E+02  0.51100000000E-03 0. -1.
        -11    1    3    3    0    0  0.38587099883E+01  0.72427267179E+01  0.90410641785E+01  0.12210142293E+02  0.51100000000E-03 0.  1.
         12    1    3    3    0    0  0.73798100737E+01 -0.36392359054E+02 -0.20036902309E+02  0.42194109166E+02  0.00000000000E+00 0. -1.
</event>
<event>
 7    1  0.1749439E-013  0.7246155E+02  0.7816164E-02  0.1226708E+00
        -11   -1    0    0    0    0  0.00000000000E+00  0.00000000000E+00  0.45593999997E+02  0.45594000000E+02  0.51100000000E-03 0.  1.
         11   -1    0    0    0    0 -0.00000000000E+00 -0.00000000000E+00 -0.45593999997E+02  0.45594000000E+02  0.51100000000E-03 0. -1.
    9900012    2    1    2    0    0 -0.12217287563E+02  0.11704666009E+02 -0.80261306294E+01  0.72461545593E+02  0.69999967822E+02 0.  0.
        -12    1    1    2    0    0  0.12217287563E+02 -0.11704666009E+02  0.80261306294E+01  0.18726454407E+02  0.00000000000E+00 0.  1.
         11    1    3    3    0    0 -0.22296959897E+02  0.27186313677E+02  0.91699901197E+00  0.35172303869E+02  0.51100000000E-03 0. -1.
        -11    1    3    3    0    0 -0.60325729282E+01  0.39197567470E+01 -0.96781143590E+01  0.12059117998E+02  0.51100000000E-03 0.  1.
        -12    1    3    3    0    0  0.16112245262E+02 -0.19401404416E+02  0.73498471764E+00  0.25230123726E+02  0.00000000000E+00 0.  1.
</event>
<event>
 7    1  0.1749439E-013  0.7246170E+02  0.7816164E-02  0.1226708E+00
        -11   -1    0    0    0    0  0.00000000000E+00  0.00000000000E+00  0.45593999997E+02  0.45594000000E+02  0.51100000000E-03 0.  1.
         11   -1    0    0    0    0 -0.00000000000E+00 -0.00000000000E+00 -0.45593999997E+02  0.45594000000E+02  0.51100000000E-03 0. -1.
    9900012    2    1    2    0    0  0.13455142357E+02 -0.12370337212E+02  0.40753107743E+01  0.72461701474E+02  0.70000170885E+02 0.  0.
        -12    1    1    2    0    0 -0.13455142357E+02  0.12370337212E+02 -0.40753107743E+01  0.18726298526E+02  0.00000000000E+00 0.  1.
         11    1    3    3    0    0 -0.53175303160E+01  0.53623607448E+01  0.36168506030E+01  0.83733296821E+01  0.51100000000E-03 0. -1.
        -11    1    3    3    0    0  0.18576808392E+02 -0.25053020557E+02  0.24051104547E+02  0.39385368848E+02  0.51100000000E-03 0.  1.
         12    1    3    3    0    0  0.19586428116E+00  0.73203226007E+01 -0.23592644376E+02  0.24703002944E+02  0.00000000000E+00 0. -1.
</event>
<event>
 7    1  0.1749439E-013  0.7246158E+02  0.7816164E-02  0.1226708E+00
        -11   -1    0    0    0    0  0.00000000000E+00  0.00000000000E+00  0.45593999997E+02  0.45594000000E+02  0.51100000000E-03 0.  1.
         11   -1    0    0    0    0 -0.00000000000E+00 -0.00000000000E+00 -0.45593999997E+02  0.45594000000E+02  0.51100000000E-03 0. -1.
    9900012    2    1    2    0    0  0.63121944890E+01  0.17067523766E+02 -0.44198210679E+01  0.72461575220E+02  0.70000006416E+02 0.  0.
        -12    1    1    2    0    0 -0.63121944890E+01 -0.17067523766E+02  0.44198210679E+01  0.18726424780E+02  0.00000000000E+00 0.  1.
         11    1    3    3    0    0 -0.34940815330E+01  0.41019712941E+01 -0.30205647527E+02  0.30682501805E+02  0.51100000000E-03 0. -1.
        -11    1    3    3    0    0 -0.27914914269E+01 -0.77959153263E+01  0.91623795756E+01  0.12349814570E+02  0.51100000000E-03 0.  1.
         12    1    3    3    0    0  0.12597767449E+02  0.20761467798E+02  0.16623446883E+02  0.29429258844E+02  0.00000000000E+00 0. -1.
</event>
<event>
 7    1  0.1749439E-013  0.7246099E+02  0.7816164E-02  0.1226710E+00
        -11   -1    0    0    0    0  0.00000000000E+00  0.00000000000E+00  0.45593999997E+02  0.45594000000E+02  0.51100000000E-03 0.  1.
         11   -1    0    0    0    0 -0.00000000000E+00 -0.00000000000E+00 -0.45593999997E+02  0.45594000000E+02  0.51100000000E-03 0. -1.
    9900012    2    1    2    0    0 -0.88769500495E+01 -0.10810892479E+02  0.12450917731E+02  0.72460987672E+02  0.69999241023E+02 0.  0.
        -12    1    1    2    0    0  0.88769500495E+01  0.10810892479E+02 -0.12450917731E+02  0.18727012328E+02  0.00000000000E+00 0.  1.
         11    1    3    3    0    0  0.25212261739E+02 -0.22268738424E+02  0.95783809890E+01  0.34975709223E+02  0.51100000000E-03 0. -1.
        -11    1    3    3    0    0 -0.76010978817E+01  0.73439217689E+01  0.84791012586E+00  0.10603246097E+02  0.51100000000E-03 0.  1.
        -12    1    3    3    0    0 -0.26488113907E+02  0.41139241754E+01  0.20246266158E+01  0.26882032353E+02  0.00000000000E+00 0.  1.
</event>
<event>
 7    1  0.1749439E-013  0.7246155E+02  0.7816164E-02  0.1226708E+00
        -11   -1    0    0    0    0  0.00000000000E+00  0.00000000000E+00  0.45593999997E+02  0.45594000000E+02  0.51100000000E-03 0. -1.
         11   -1    0    0    0    0 -0.00000000000E+00 -0.00000000000E+00 -0.45593999997E+02  0.45594000000E+02  0.51100000000E-03 0.  1.
    9900012    2    1    2    0    0  0.85634340675E+01  0.14585305392E+02 -0.80384360816E+01  0.72461548360E+02  0.69999971426E+02 0.  0.
        -12    1    1    2    0    0 -0.85634340675E+01 -0.14585305392E+02  0.80384360816E+01  0.18726451640E+02  0.00000000000E+00 0.  1.
         11    1    3    3    0    0  0.19614298744E+01  0.98892187774E+01  0.10496411125E+02  0.14553985775E+02  0.51100000000E-03 0. -1.
        -11    1    3    3    0    0  0.30389432379E+02  0.59485142057E+01 -0.11969636624E+02  0.33199015388E+02  0.51100000000E-03 0.  1.
         12    1    3    3    0    0 -0.23787428186E+02 -0.12524275914E+01 -0.65652105825E+01  0.24708547196E+02  0.00000000000E+00 0. -1.
</event>
<event>
 7    1  0.1749439E-013  0.7246159E+02  0.7816164E-02  0.1226708E+00
        -11   -1    0    0    0    0  0.00000000000E+00  0.00000000000E+00  0.45593999997E+02  0.45594000000E+02  0.51100000000E-03 0.  1.
         11   -1    0    0    0    0 -0.00000000000E+00 -0.00000000000E+00 -0.45593999997E+02  0.45594000000E+02  0.51100000000E-03 0. -1.
    9900012    2    1    2    0    0  0.20309707705E+01  0.83487925004E+01 -0.16638847852E+02  0.72461589871E+02  0.70000025502E+02 0.  0.
        -12    1    1    2    0    0 -0.20309707705E+01 -0.83487925004E+01  0.16638847852E+02  0.18726410129E+02  0.00000000000E+00 0.  1.
         11    1    3    3    0    0  0.25308646336E+02 -0.75292791404E+01 -0.80562440702E+01  0.27606533511E+02  0.51100000000E-03 0. -1.
        -11    1    3    3    0    0  0.66361055321E+01 -0.58046270062E+00  0.47712331346E+01  0.81938696271E+01  0.51100000000E-03 0.  1.
        -12    1    3    3    0    0 -0.29913781098E+02  0.16458534341E+02 -0.13353836917E+02  0.36661186732E+02  0.00000000000E+00 0.  1.
</event>
<event>
 7    1  0.1749439E-013  0.7246174E+02  0.7816164E-02  0.1226708E+00
        -11   -1    0    0    0    0  0.00000000000E+00  0.00000000000E+00  0.45593999997E+02  0.45594000000E+02  0.51100000000E-03 0.  1.
         11   -1    0    0    0    0 -0.00000000000E+00 -0.00000000000E+00 -0.45593999997E+02  0.45594000000E+02  0.51100000000E-03 0. -1.
    9900012    2    1    2    0    0  0.67771739065E+01 -0.12916778816E+02 -0.11743066386E+02  0.72461738513E+02  0.70000219136E+02 0.  0.
        -12    1    1    2    0    0 -0.67771739065E+01  0.12916778816E+02  0.11743066386E+02  0.18726261487E+02  0.00000000000E+00 0.  1.
         11    1    3    3    0    0 -0.44305052928E+01  0.11151902015E+02  0.53052192955E+01  0.13120199989E+02  0.51100000000E-03 0. -1.
        -11    1    3    3    0    0 -0.45188097332E+01  0.38483817771E+01  0.13701390684E+02  0.14931771182E+02  0.51100000000E-03 0.  1.
         12    1    3    3    0    0  0.15726488932E+02 -0.27917062608E+02 -0.30749676366E+02  0.44409767342E+02  0.00000000000E+00 0. -1.
</event>
<event>
 7    1  0.1749439E-013  0.7246158E+02  0.7816164E-02  0.1226708E+00
        -11   -1    0    0    0    0  0.00000000000E+00  0.00000000000E+00  0.45593999997E+02  0.45594000000E+02  0.51100000000E-03 0. -1.
         11   -1    0    0    0    0 -0.00000000000E+00 -0.00000000000E+00 -0.45593999997E+02  0.45594000000E+02  0.51100000000E-03 0.  1.
    9900012    2    1    2    0    0 -0.10965286010E+02 -0.26083259169E+01  0.14954526604E+02  0.72461582101E+02  0.70000015381E+02 0.  0.
        -12    1    1    2    0    0  0.10965286010E+02  0.26083259169E+01 -0.14954526604E+02  0.18726417899E+02  0.00000000000E+00 0.  1.
         11    1    3    3    0    0 -0.86979829979E+00  0.69168674563E+01  0.30942916837E+01  0.76272043223E+01  0.51100000000E-03 0. -1.
        -11    1    3    3    0    0  0.26229283318E+02 -0.45988006149E+01  0.88164424377E+01  0.28050916705E+02  0.51100000000E-03 0.  1.
         12    1    3    3    0    0 -0.36324771029E+02 -0.49263927583E+01  0.30437924824E+01  0.36783461074E+02  0.00000000000E+00 0. -1.
</event>
<event>
 7    1  0.1749439E-013  0.7246156E+02  0.7816164E-02  0.1226708E+00
        -11   -1    0    0    0    0  0.00000000000E+00  0.00000000000E+00  0.45593999997E+02  0.45594000000E+02  0.51100000000E-03 0.  1.
         11   -1    0    0    0    0 -0.00000000000E+00 -0.00000000000E+00 -0.45593999997E+02  0.45594000000E+02  0.51100000000E-03 0. -1.
    9900012    2    1    2    0    0 -0.75587557118E+01  0.68342982514E+01 -0.15711050651E+02  0.72461560588E+02  0.69999987356E+02 0.  0.
        -12    1    1    2    0    0  0.75587557118E+01 -0.68342982514E+01  0.15711050651E+02  0.18726439412E+02  0.00000000000E+00 0.  1.
         11    1    3    3    0    0  0.66353726025E+01  0.83806277340E+01 -0.12139640281E+02  0.16175103005E+02  0.51100000000E-03 0. -1.
        -11    1    3    3    0    0  0.20836633815E+02 -0.19012385212E+01 -0.37326107808E+01  0.21253526770E+02  0.51100000000E-03 0.  1.
         12    1    3    3    0    0 -0.35030762130E+02  0.35490903860E+00  0.16120041140E+00  0.35032930813E+02  0.00000000000E+00 0. -1.
</event>
<event>
 7    1  0.1749439E-013  0.7246157E+02  0.7816164E-02  0.1226708E+00
        -11   -1    0    0    0    0  0.00000000000E+00  0.00000000000E+00  0.45593999997E+02  0.45594000000E+02  0.51100000000E-03 0.  1.
         11   -1    0    0    0    0 -0.00000000000E+00 -0.00000000000E+00 -0.45593999997E+02  0.45594000000E+02  0.51100000000E-03 0. -1.
    9900012    2    1    2    0    0 -0.28639302328E+01 -0.82120519652E+01 -0.16584307977E+02  0.72461570417E+02  0.70000000159E+02 0.  0.
        -12    1    1    2    0    0  0.28639302328E+01  0.82120519652E+01  0.16584307977E+02  0.18726429583E+02  0.00000000000E+00 0.  1.
         11    1    3    3    0    0  0.12508314866E+02 -0.28699437342E+02 -0.25826202965E+02  0.40584583334E+02  0.51100000000E-03 0. -1.
        -11    1    3    3    0    0 -0.97801636821E+00  0.46611009487E+01 -0.44167809602E+01  0.64954085616E+01  0.51100000000E-03 0.  1.
        -12    1    3    3    0    0 -0.14394228730E+02  0.15826284428E+02  0.13658675948E+02  0.25381578521E+02  0.00000000000E+00 0.  1.
</event>
<event>
 7    1  0.1749439E-013  0.7246156E+02  0.7816164E-02  0.1226708E+00
        -11   -1    0    0    0    0  0.00000000000E+00  0.00000000000E+00  0.45593999997E+02  0.45594000000E+02  0.51100000000E-03 0.  1.
         11   -1    0    0    0    0 -0.00000000000E+00 -0.00000000000E+00 -0.45593999997E+02  0.45594000000E+02  0.51100000000E-03 0. -1.
    9900012    2    1    2    0    0 -0.10691219384E+02  0.48380112879E+01 -0.14593527293E+02  0.72461559762E+02  0.69999986280E+02 0.  0.
        -12    1    1    2    0    0  0.10691219384E+02 -0.48380112879E+01  0.14593527293E+02  0.18726440238E+02  0.00000000000E+00 0.  1.
         11    1    3    3    0    0  0.14070724704E+01  0.29404804308E+02 -0.12443126444E+02  0.31960190320E+02  0.51100000000E-03 0. -1.
        -11    1    3    3    0    0 -0.95858448424E+01  0.49807119941E-01 -0.10658456168E+02  0.14335047619E+02  0.51100000000E-03 0.  1.
        -12    1    3    3    0    0 -0.25124470123E+01 -0.24616600140E+02  0.85080553194E+01  0.26166321823E+02  0.00000000000E+00 0.  1.
</event>
<event>
 7    1  0.1749439E-013  0.7246157E+02  0.7816164E-02  0.1226708E+00
        -11   -1    0    0    0    0  0.00000000000E+00  0.00000000000E+00  0.45593999997E+02  0.45594000000E+02  0.51100000000E-03 0. -1.
         11   -1    0    0    0    0 -0.00000000000E+00 -0.00000000000E+00 -0.45593999997E+02  0.45594000000E+02  0.51100000000E-03 0.  1.
    9900012    2    1    2    0    0  0.11327143395E+02 -0.61011708208E+01  0.13607013351E+02  0.72461567472E+02  0.69999996324E+02 0.  0.
        -12    1    1    2    0    0 -0.11327143395E+02  0.61011708208E+01 -0.13607013351E+02  0.18726432528E+02  0.00000000000E+00 0.  1.
         11    1    3    3    0    0  0.15680939575E+02 -0.52515479588E+00 -0.14730305636E+02  0.21520909784E+02  0.51100000000E-03 0.  1.
        -11    1    3    3    0    0 -0.53615593398E+01  0.17766005812E+02  0.16089961216E+02  0.24561435896E+02  0.51100000000E-03 0. -1.
        -12    1    3    3    0    0  0.10077631599E+01 -0.23342021837E+02  0.12247357771E+02  0.26379221793E+02  0.00000000000E+00 0.  1.
</event>
<event>
 7    1  0.1749439E-013  0.7246165E+02  0.7816164E-02  0.1226708E+00
        -11   -1    0    0    0    0  0.00000000000E+00  0.00000000000E+00  0.45593999997E+02  0.45594000000E+02  0.51100000000E-03 0.  1.
         11   -1    0    0    0    0 -0.00000000000E+00 -0.00000000000E+00 -0.45593999997E+02  0.45594000000E+02  0.51100000000E-03 0. -1.
    9900012    2    1    2    0    0 -0.89846470884E+00 -0.16610478364E+02 -0.86000447228E+01  0.72461654933E+02  0.70000110258E+02 0.  0.
        -12    1    1    2    0    0  0.89846470884E+00  0.16610478364E+02  0.86000447228E+01  0.18726345067E+02  0.00000000000E+00 0.  1.
         11    1    3    3    0    0  0.19813010692E+02  0.36726004323E+01  0.81058428307E+01  0.21719762312E+02  0.51100000000E-03 0. -1.
        -11    1    3    3    0    0  0.77299678544E+01  0.54897248513E+01 -0.42467178149E+01  0.10388652195E+02  0.51100000000E-03 0.  1.
         12    1    3    3    0    0 -0.28441443255E+02 -0.25772803648E+02 -0.12459169739E+02  0.40353240426E+02  0.00000000000E+00 0. -1.
</event>
<event>
 7    1  0.1749439E-013  0.7246157E+02  0.7816164E-02  0.1226708E+00
        -11   -1    0    0    0    0  0.00000000000E+00  0.00000000000E+00  0.45593999997E+02  0.45594000000E+02  0.51100000000E-03 0. -1.
         11   -1    0    0    0    0 -0.00000000000E+00 -0.00000000000E+00 -0.45593999997E+02  0.45594000000E+02  0.51100000000E-03 0.  1.
    9900012    2    1    2    0    0  0.43721738544E+01  0.86682040691E+01  0.16013289342E+02  0.72461572109E+02  0.70000002364E+02 0.  0.
        -12    1    1    2    0    0 -0.43721738544E+01 -0.86682040691E+01 -0.16013289342E+02  0.18726427891E+02  0.00000000000E+00 0.  1.
         11    1    3    3    0    0  0.53135066092E+01 -0.38745690622E+01  0.75155377879E+01  0.99864381241E+01  0.51100000000E-03 0. -1.
        -11    1    3    3    0    0  0.84832656609E+01  0.33230813176E+02 -0.69447637902E+01  0.34992606147E+02  0.51100000000E-03 0.  1.
         12    1    3    3    0    0 -0.94245984157E+01 -0.20688040045E+02  0.15442515345E+02  0.27482527838E+02  0.00000000000E+00 0. -1.
</event>
<event>
 7    1  0.1749439E-013  0.7246163E+02  0.7816164E-02  0.1226708E+00
        -11   -1    0    0    0    0  0.00000000000E+00  0.00000000000E+00  0.45593999997E+02  0.45594000000E+02  0.51100000000E-03 0.  1.
         11   -1    0    0    0    0 -0.00000000000E+00 -0.00000000000E+00 -0.45593999997E+02  0.45594000000E+02  0.51100000000E-03 0. -1.
    9900012    2    1    2    0    0 -0.50164768145E+00  0.46130203641E+01 -0.18142365939E+02  0.72461626909E+02  0.70000073752E+02 0.  0.
        -12    1    1    2    0    0  0.50164768145E+00 -0.46130203641E+01  0.18142365939E+02  0.18726373091E+02  0.00000000000E+00 0.  1.
         11    1    3    3    0    0 -0.11175749807E+01  0.35420154629E+01 -0.26804684312E+02  0.27060782485E+02  0.51100000000E-03 0. -1.
        -11    1    3    3    0    0 -0.10815845612E+02  0.14033255254E+01  0.23945496958E+02  0.26312329119E+02  0.51100000000E-03 0.  1.
         12    1    3    3    0    0  0.11431772911E+02 -0.33232062428E+00 -0.15283178585E+02  0.19088515305E+02  0.00000000000E+00 0. -1.
</event>
<event>
 7    1  0.1749439E-013  0.7246154E+02  0.7816164E-02  0.1226708E+00
        -11   -1    0    0    0    0  0.00000000000E+00  0.00000000000E+00  0.45593999997E+02  0.45594000000E+02  0.51100000000E-03 0.  1.
         11   -1    0    0    0    0 -0.00000000000E+00 -0.00000000000E+00 -0.45593999997E+02  0.45594000000E+02  0.51100000000E-03 0. -1.
    9900012    2    1    2    0    0 -0.68511529730E+01 -0.16822492597E+02 -0.45547453705E+01  0.72461541188E+02  0.69999962084E+02 0.  0.
        -12    1    1    2    0    0  0.68511529730E+01  0.16822492597E+02  0.45547453705E+01  0.18726458812E+02  0.00000000000E+00 0.  1.
         11    1    3    3    0    0 -0.84019516496E+00  0.12608385127E+02 -0.21436941106E+01  0.12816892296E+02  0.51100000000E-03 0.  1.
        -11    1    3    3    0    0 -0.17273399006E+02 -0.26223333058E+02  0.17940269575E+02  0.36164717371E+02  0.51100000000E-03 0. -1.
         12    1    3    3    0    0  0.11262441198E+02 -0.32075446659E+01 -0.20351320835E+02  0.23479931521E+02  0.00000000000E+00 0. -1.
</event>
<event>
 7    1  0.1749439E-013  0.7246162E+02  0.7816164E-02  0.1226708E+00
        -11   -1    0    0    0    0  0.00000000000E+00  0.00000000000E+00  0.45593999997E+02  0.45594000000E+02  0.51100000000E-03 0.  1.
         11   -1    0    0    0    0 -0.00000000000E+00 -0.00000000000E+00 -0.45593999997E+02  0.45594000000E+02  0.51100000000E-03 0. -1.
    9900012    2    1    2    0    0  0.68913807242E+01  0.36845280502E+01 -0.17017945639E+02  0.72461618902E+02  0.70000063321E+02 0.  0.
        -12    1    1    2    0    0 -0.68913807242E+01 -0.36845280502E+01  0.17017945639E+02  0.18726381098E+02  0.00000000000E+00 0.  1.
         11    1    3    3    0    0 -0.34386089100E+01 -0.16564576759E+01 -0.71249404053E+01  0.80828620741E+01  0.51100000000E-03 0. -1.
        -11    1    3    3    0    0 -0.24899629911E+02 -0.52699826226E+01 -0.10621508921E+02  0.27578628293E+02  0.51100000000E-03 0.  1.
         12    1    3    3    0    0  0.35229619545E+02  0.10610968349E+02  0.72850368707E+00  0.36800128535E+02  0.00000000000E+00 0. -1.
</event>
<event>
 7    1  0.1749439E-013  0.7246156E+02  0.7816164E-02  0.1226708E+00
        -11   -1    0    0    0    0  0.00000000000E+00  0.00000000000E+00  0.45593999997E+02  0.45594000000E+02  0.51100000000E-03 0. -1.
         11   -1    0    0    0    0 -0.00000000000E+00 -0.00000000000E+00 -0.45593999997E+02  0.45594000000E+02  0.51100000000E-03 0.  1.
    9900012    2    1    2    0    0 -0.11109188588E+02  0.71834218299E+01  0.13253825489E+02  0.72461561194E+02  0.69999988145E+02 0.  0.
        -12    1    1    2    0    0  0.11109188588E+02 -0.71834218299E+01 -0.13253825489E+02  0.18726438806E+02  0.00000000000E+00 0.  1.
         11    1    3    3    0    0 -0.20404309217E+02  0.22026922241E+02  0.12046703143E+02  0.32351880855E+02  0.51100000000E-03 0. -1.
        -11    1    3    3    0    0 -0.70790642871E+01  0.88157004821E+01  0.79270370446E+00  0.11333936015E+02  0.51100000000E-03 0.  1.
        -12    1    3    3    0    0  0.16374184916E+02 -0.23659200893E+02  0.41441864155E+00  0.28775744323E+02  0.00000000000E+00 0.  1.
</event>
<event>
 7    1  0.1749439E-013  0.7246156E+02  0.7816164E-02  0.1226708E+00
        -11   -1    0    0    0    0  0.00000000000E+00  0.00000000000E+00  0.45593999997E+02  0.45594000000E+02  0.51100000000E-03 0. -1.
         11   -1    0    0    0    0 -0.00000000000E+00 -0.00000000000E+00 -0.45593999997E+02  0.45594000000E+02  0.51100000000E-03 0.  1.
    9900012    2    1    2    0    0 -0.32665521553E+01  0.13524446870E+02  0.12533902649E+02  0.72461555016E+02  0.69999980097E+02 0.  0.
        -12    1    1    2    0    0  0.32665521553E+01 -0.13524446870E+02 -0.12533902649E+02  0.18726444984E+02  0.00000000000E+00 0.  1.
         11    1    3    3    0    0 -0.21422481989E+02 -0.78239129445E+00  0.18050147377E+02  0.28023966374E+02  0.51100000000E-03 0. -1.
        -11    1    3    3    0    0  0.71901237328E+01 -0.98859644421E+01  0.80251086911E+01  0.14623014122E+02  0.51100000000E-03 0.  1.
        -12    1    3    3    0    0  0.10965806101E+02  0.24192802607E+02 -0.13541353419E+02  0.29814574520E+02  0.00000000000E+00 0.  1.
</event>
<event>
 7    1  0.1749439E-013  0.7246157E+02  0.7816164E-02  0.1226708E+00
        -11   -1    0    0    0    0  0.00000000000E+00  0.00000000000E+00  0.45593999997E+02  0.45594000000E+02  0.51100000000E-03 0.  1.
         11   -1    0    0    0    0 -0.00000000000E+00 -0.00000000000E+00 -0.45593999997E+02  0.45594000000E+02  0.51100000000E-03 0. -1.
    9900012    2    1    2    0    0 -0.17108840103E+02 -0.43105226349E+01 -0.62758517572E+01  0.72461566001E+02  0.69999994407E+02 0.  0.
        -12    1    1    2    0    0  0.17108840103E+02  0.43105226349E+01  0.62758517572E+01  0.18726433999E+02  0.00000000000E+00 0.  1.
         11    1    3    3    0    0  0.87811214767E+00 -0.92346830022E+01  0.98178358964E+01  0.13507048273E+02  0.51100000000E-03 0. -1.
        -11    1    3    3    0    0 -0.27781583053E+02  0.52075450215E+01  0.10856176942E+02  0.30278564367E+02  0.51100000000E-03 0.  1.
         12    1    3    3    0    0  0.97946308031E+01 -0.28338465420E+00 -0.26949864595E+02  0.28675953361E+02  0.00000000000E+00 0. -1.
</event>
<event>
 7    1  0.1749439E-013  0.7246158E+02  0.7816164E-02  0.1226708E+00
        -11   -1    0    0    0    0  0.00000000000E+00  0.00000000000E+00  0.45593999997E+02  0.45594000000E+02  0.51100000000E-03 0.  1.
         11   -1    0    0    0    0 -0.00000000000E+00 -0.00000000000E+00 -0.45593999997E+02  0.45594000000E+02  0.51100000000E-03 0. -1.
    9900012    2    1    2    0    0 -0.12013512662E+02  0.18226771319E+01 -0.14248940382E+02  0.72461576412E+02  0.70000007969E+02 0.  0.
        -12    1    1    2    0    0  0.12013512662E+02 -0.18226771319E+01  0.14248940382E+02  0.18726423588E+02  0.00000000000E+00 0.  1.
         11    1    3    3    0    0  0.12590828485E+02  0.98050712655E+01 -0.48968320629E+00  0.15965843992E+02  0.51100000000E-03 0. -1.
        -11    1    3    3    0    0 -0.37510465868E+01  0.79442587377E+01  0.15113208977E+02  0.17481152229E+02  0.51100000000E-03 0.  1.
        -12    1    3    3    0    0 -0.20853294561E+02 -0.15926652871E+02 -0.28872466153E+02  0.39014580191E+02  0.00000000000E+00 0.  1.
</event>
<event>
 7    1  0.1749439E-013  0.7246170E+02  0.7816164E-02  0.1226708E+00
        -11   -1    0    0    0    0  0.00000000000E+00  0.00000000000E+00  0.45593999997E+02  0.45594000000E+02  0.51100000000E-03 0.  1.
         11   -1    0    0    0    0 -0.00000000000E+00 -0.00000000000E+00 -0.45593999997E+02  0.45594000000E+02  0.51100000000E-03 0. -1.
    9900012    2    1    2    0    0  0.10487311999E+02 -0.13985056861E+02 -0.67163062433E+01  0.72461700367E+02  0.70000169444E+02 0.  0.
        -12    1    1    2    0    0 -0.10487311999E+02  0.13985056861E+02  0.67163062433E+01  0.18726299633E+02  0.00000000000E+00 0.  1.
         11    1    3    3    0    0 -0.29943480919E+01 -0.14171027968E+02  0.83208987353E+01  0.16703936966E+02  0.51100000000E-03 0. -1.
        -11    1    3    3    0    0 -0.16747082817E+02  0.97033878721E+00 -0.18902587516E+02  0.25272794766E+02  0.51100000000E-03 0.  1.
         12    1    3    3    0    0  0.30228742909E+02 -0.78436768100E+00  0.38653825371E+01  0.30484968635E+02  0.00000000000E+00 0. -1.
</event>
<event>
 7    1  0.1749439E-013  0.7246158E+02  0.7816164E-02  0.1226708E+00
        -11   -1    0    0    0    0  0.00000000000E+00  0.00000000000E+00  0.45593999997E+02  0.45594000000E+02  0.51100000000E-03 0.  1.
         11   -1    0    0    0    0 -0.00000000000E+00 -0.00000000000E+00 -0.45593999997E+02  0.45594000000E+02  0.51100000000E-03 0. -1.
    9900012    2    1    2    0    0  0.60274035811E+00  0.36374177778E+01 -0.18359862233E+02  0.72461584292E+02  0.70000018235E+02 0.  0.
        -12    1    1    2    0    0 -0.60274035811E+00 -0.36374177778E+01  0.18359862233E+02  0.18726415708E+02  0.00000000000E+00 0.  1.
         11    1    3    3    0    0 -0.10625145339E+02 -0.83804451456E+01 -0.21260775294E+02  0.25202105878E+02  0.51100000000E-03 0. -1.
        -11    1    3    3    0    0 -0.11960633535E+02  0.13488746884E+01 -0.12576705755E+02  0.17408324026E+02  0.51100000000E-03 0.  1.
        -12    1    3    3    0    0  0.23188519232E+02  0.10668988235E+02  0.15477618816E+02  0.29851154389E+02  0.00000000000E+00 0.  1.
</event>
<event>
 7    1  0.1749439E-013  0.7246094E+02  0.7816164E-02  0.1226710E+00
        -11   -1    0    0    0    0  0.00000000000E+00  0.00000000000E+00  0.45593999997E+02  0.45594000000E+02  0.51100000000E-03 0. -1.
         11   -1    0    0    0    0 -0.00000000000E+00 -0.00000000000E+00 -0.45593999997E+02  0.45594000000E+02  0.51100000000E-03 0.  1.
    9900012    2    1    2    0    0  0.17046353801E+02 -0.64930971254E+01  0.42384274175E+01  0.72460940563E+02  0.69999179653E+02 0.  0.
        -12    1    1    2    0    0 -0.17046353801E+02  0.64930971254E+01 -0.42384274175E+01  0.18727059437E+02  0.00000000000E+00 0.  1.
         11    1    3    3    0    0  0.13789975990E+02  0.61401428060E+01  0.31303482989E+01  0.15416350808E+02  0.51100000000E-03 0. -1.
        -11    1    3    3    0    0 -0.97638161603E+01  0.19725143688E+02 -0.15492654606E+01  0.22063853318E+02  0.51100000000E-03 0.  1.
         12    1    3    3    0    0  0.13020193971E+02 -0.32358383619E+02  0.26573445792E+01  0.34980736437E+02  0.00000000000E+00 0. -1.
</event>
<event>
 7    1  0.1749439E-013  0.7246160E+02  0.7816164E-02  0.1226708E+00
        -11   -1    0    0    0    0  0.00000000000E+00  0.00000000000E+00  0.45593999997E+02  0.45594000000E+02  0.51100000000E-03 0.  1.
         11   -1    0    0    0    0 -0.00000000000E+00 -0.00000000000E+00 -0.45593999997E+02  0.45594000000E+02  0.51100000000E-03 0. -1.
    9900012    2    1    2    0    0 -0.97915161331E+01  0.15959875228E+02  0.29440524529E+00  0.72461599387E+02  0.70000037898E+02 0.  0.
        -12    1    1    2    0    0  0.97915161331E+01 -0.15959875228E+02 -0.29440524529E+00  0.18726400613E+02  0.00000000000E+00 0.  1.
         11    1    3    3    0    0  0.28097441343E+01  0.11659744089E+02  0.13029747988E+01  0.12064080484E+02  0.51100000000E-03 0. -1.
        -11    1    3    3    0    0  0.22478222200E+02  0.71289858054E+01 -0.72158812437E+01  0.24660937822E+02  0.51100000000E-03 0.  1.
        -12    1    3    3    0    0 -0.35079482467E+02 -0.28288546666E+01  0.62073116902E+01  0.35736581081E+02  0.00000000000E+00 0.  1.
</event>
<event>
 7    1  0.1749439E-013  0.7246160E+02  0.7816164E-02  0.1226708E+00
        -11   -1    0    0    0    0  0.00000000000E+00  0.00000000000E+00  0.45593999997E+02  0.45594000000E+02  0.51100000000E-03 0.  1.
         11   -1    0    0    0    0 -0.00000000000E+00 -0.00000000000E+00 -0.45593999997E+02  0.45594000000E+02  0.51100000000E-03 0. -1.
    9900012    2    1    2    0    0  0.61256650612E+01  0.17595587306E+02  0.18840801127E+01  0.72461595568E+02  0.70000032923E+02 0.  0.
        -12    1    1    2    0    0 -0.61256650612E+01 -0.17595587306E+02 -0.18840801127E+01  0.18726404432E+02  0.00000000000E+00 0.  1.
         11    1    3    3    0    0 -0.27643201126E+01  0.34086740062E+01 -0.16693644260E+00  0.43918552119E+01  0.51100000000E-03 0. -1.
        -11    1    3    3    0    0 -0.87525991205E+01  0.29414876497E+01  0.31003365677E+02  0.32349173475E+02  0.51100000000E-03 0.  1.
         12    1    3    3    0    0  0.17642584294E+02  0.11245425650E+02 -0.28952349122E+02  0.35720566881E+02  0.00000000000E+00 0. -1.
</event>
<event>
 7    1  0.1749439E-013  0.7246152E+02  0.7816164E-02  0.1226708E+00
        -11   -1    0    0    0    0  0.00000000000E+00  0.00000000000E+00  0.45593999997E+02  0.45594000000E+02  0.51100000000E-03 0.  1.
         11   -1    0    0    0    0 -0.00000000000E+00 -0.00000000000E+00 -0.45593999997E+02  0.45594000000E+02  0.51100000000E-03 0. -1.
    9900012    2    1    2    0    0 -0.14723948646E+02 -0.79046396880E+01 -0.84500421098E+01  0.72461515974E+02  0.69999929238E+02 0.  0.
        -12    1    1    2    0    0  0.14723948646E+02  0.79046396880E+01  0.84500421098E+01  0.18726484026E+02  0.00000000000E+00 0.  1.
         11    1    3    3    0    0  0.88807197246E+01 -0.14679908938E+02 -0.17177051910E+02  0.24277932816E+02  0.51100000000E-03 0. -1.
        -11    1    3    3    0    0  0.13258304648E+01  0.17919970469E+02  0.10510712509E+02  0.20817258363E+02  0.51100000000E-03 0.  1.
         12    1    3    3    0    0 -0.24930498835E+02 -0.11144701219E+02 -0.17837027091E+01  0.27366324795E+02  0.00000000000E+00 0. -1.
</event>
<event>
 7    1  0.1749439E-013  0.7246155E+02  0.7816164E-02  0.1226708E+00
        -11   -1    0    0    0    0  0.00000000000E+00  0.00000000000E+00  0.45593999997E+02  0.45594000000E+02  0.51100000000E-03 0.  1.
         11   -1    0    0    0    0 -0.00000000000E+00 -0.00000000000E+00 -0.45593999997E+02  0.45594000000E+02  0.51100000000E-03 0. -1.
    9900012    2    1    2    0    0 -0.54179250524E+01 -0.49959230326E+01 -0.17215310595E+02  0.72461546046E+02  0.69999968412E+02 0.  0.
        -12    1    1    2    0    0  0.54179250524E+01  0.49959230326E+01  0.17215310595E+02  0.18726453954E+02  0.00000000000E+00 0.  1.
         11    1    3    3    0    0  0.58275013208E+01  0.10118251032E+02 -0.38681739790E+00  0.11682825153E+02  0.51100000000E-03 0.  1.
        -11    1    3    3    0    0 -0.70048418502E+01  0.15882138543E+02 -0.23076172863E+02  0.28875939610E+02  0.51100000000E-03 0. -1.
        -12    1    3    3    0    0 -0.42405845230E+01 -0.30996312608E+02  0.62476796663E+01  0.31902781283E+02  0.00000000000E+00 0.  1.
</event>
<event>
 7    1  0.1749439E-013  0.7246165E+02  0.7816164E-02  0.1226708E+00
        -11   -1    0    0    0    0  0.00000000000E+00  0.00000000000E+00  0.45593999997E+02  0.45594000000E+02  0.51100000000E-03 0.  1.
         11   -1    0    0    0    0 -0.00000000000E+00 -0.00000000000E+00 -0.45593999997E+02  0.45594000000E+02  0.51100000000E-03 0. -1.
    9900012    2    1    2    0    0 -0.99854406450E+01 -0.77498429556E+01 -0.13816911129E+02  0.72461651614E+02  0.70000105934E+02 0.  0.
        -12    1    1    2    0    0  0.99854406450E+01  0.77498429556E+01  0.13816911129E+02  0.18726348386E+02  0.00000000000E+00 0.  1.
         11    1    3    3    0    0 -0.22678211124E+02 -0.12431435053E+02  0.48242627274E+01  0.26308085229E+02  0.51100000000E-03 0. -1.
        -11    1    3    3    0    0 -0.52918587311E+01 -0.12735260337E+02 -0.15776374343E+02  0.20954345906E+02  0.51100000000E-03 0.  1.
        -12    1    3    3    0    0  0.17984629210E+02  0.17416852434E+02 -0.28647995139E+01  0.25199220480E+02  0.00000000000E+00 0.  1.
</event>
<event>
 7    1  0.1749439E-013  0.7246159E+02  0.7816164E-02  0.1226708E+00
        -11   -1    0    0    0    0  0.00000000000E+00  0.00000000000E+00  0.45593999997E+02  0.45594000000E+02  0.51100000000E-03 0. -1.
         11   -1    0    0    0    0 -0.00000000000E+00 -0.00000000000E+00 -0.45593999997E+02  0.45594000000E+02  0.51100000000E-03 0.  1.
    9900012    2    1    2    0    0 -0.59568530886E+01 -0.67112292127E+01  0.16436355619E+02  0.72461588643E+02  0.70000023903E+02 0.  0.
        -12    1    1    2    0    0  0.59568530886E+01  0.67112292127E+01 -0.16436355619E+02  0.18726411357E+02  0.00000000000E+00 0.  1.
         11    1    3    3    0    0  0.32845239609E+01 -0.50544413431E+00  0.16704544406E+02  0.17031892893E+02  0.51100000000E-03 0. -1.
        -11    1    3    3    0    0  0.13556523304E+02  0.16951104521E+02 -0.57986675762E+01  0.22466504278E+02  0.51100000000E-03 0.  1.
        -12    1    3    3    0    0 -0.22797900353E+02 -0.23156889599E+02  0.55304787892E+01  0.32963191472E+02  0.00000000000E+00 0.  1.
</event>
<event>
 7    1  0.1749439E-013  0.7246160E+02  0.7816164E-02  0.1226708E+00
        -11   -1    0    0    0    0  0.00000000000E+00  0.00000000000E+00  0.45593999997E+02  0.45594000000E+02  0.51100000000E-03 0.  1.
         11   -1    0    0    0    0 -0.00000000000E+00 -0.00000000000E+00 -0.45593999997E+02  0.45594000000E+02  0.51100000000E-03 0. -1.
    9900012    2    1    2    0    0 -0.18506039252E+02 -0.27760880884E+01  0.70570804577E+00  0.72461596776E+02  0.70000034497E+02 0.  0.
        -12    1    1    2    0    0  0.18506039252E+02  0.27760880884E+01 -0.70570804577E+00  0.18726403224E+02  0.00000000000E+00 0.  1.
         11    1    3    3    0    0 -0.31127753112E+02 -0.13864192844E+02 -0.36659577071E+01  0.34272322699E+02  0.51100000000E-03 0. -1.
        -11    1    3    3    0    0 -0.46751712935E+01 -0.31046482679E+01 -0.10091609805E+02  0.11547149268E+02  0.51100000000E-03 0.  1.
        -12    1    3    3    0    0  0.17296885154E+02  0.14192753024E+02  0.14463275558E+02  0.26642124808E+02  0.00000000000E+00 0.  1.
</event>
<event>
 7    1  0.1749439E-013  0.7246166E+02  0.7816164E-02  0.1226708E+00
        -11   -1    0    0    0    0  0.00000000000E+00  0.00000000000E+00  0.45593999997E+02  0.45594000000E+02  0.51100000000E-03 0.  1.
         11   -1    0    0    0    0 -0.00000000000E+00 -0.00000000000E+00 -0.45593999997E+02  0.45594000000E+02  0.51100000000E-03 0. -1.
    9900012    2    1    2    0    0  0.16438315145E+02 -0.67450494655E+01 -0.59128646702E+01  0.72461658507E+02  0.70000114913E+02 0.  0.
        -12    1    1    2    0    0 -0.16438315145E+02  0.67450494655E+01  0.59128646702E+01  0.18726341493E+02  0.00000000000E+00 0.  1.
         11    1    3    3    0    0  0.18652907214E+02  0.20220995094E+02  0.87210109613E+01  0.28859584587E+02  0.51100000000E-03 0. -1.
        -11    1    3    3    0    0 -0.86471866671E+01  0.21103258997E+01 -0.10128397109E+02  0.13483758412E+02  0.51100000000E-03 0.  1.
         12    1    3    3    0    0  0.64325945987E+01 -0.29076370459E+02 -0.45054785228E+01  0.30118315508E+02  0.00000000000E+00 0. -1.
</event>
<event>
 7    1  0.1749439E-013  0.7246155E+02  0.7816164E-02  0.1226708E+00
        -11   -1    0    0    0    0  0.00000000000E+00  0.00000000000E+00  0.45593999997E+02  0.45594000000E+02  0.51100000000E-03 0. -1.
         11   -1    0    0    0    0 -0.00000000000E+00 -0.00000000000E+00 -0.45593999997E+02  0.45594000000E+02  0.51100000000E-03 0.  1.
    9900012    2    1    2    0    0 -0.18573302186E+02  0.23640903826E+01  0.35133596418E+00  0.72461550406E+02  0.69999974092E+02 0.  0.
        -12    1    1    2    0    0  0.18573302186E+02 -0.23640903826E+01 -0.35133596418E+00  0.18726449594E+02  0.00000000000E+00 0.  1.
         11    1    3    3    0    0 -0.38370009499E+01  0.12472449220E+02  0.10416465401E+01  0.13090820968E+02  0.51100000000E-03 0. -1.
        -11    1    3    3    0    0 -0.33356183689E+02  0.64043191684E+01 -0.42501286218E+01  0.34230306570E+02  0.51100000000E-03 0.  1.
        -12    1    3    3    0    0  0.18619882453E+02 -0.16512678006E+02  0.35598180458E+01  0.25140422868E+02  0.00000000000E+00 0.  1.
</event>
<event>
 7    1  0.1749439E-013  0.7246161E+02  0.7816164E-02  0.1226708E+00
        -11   -1    0    0    0    0  0.00000000000E+00  0.00000000000E+00  0.45593999997E+02  0.45594000000E+02  0.51100000000E-03 0.  1.
         11   -1    0    0    0    0 -0.00000000000E+00 -0.00000000000E+00 -0.45593999997E+02  0.45594000000E+02  0.51100000000E-03 0. -1.
    9900012    2    1    2    0    0 -0.84945704617E+01  0.16659603944E+02  0.98865254781E+00  0.72461613142E+02  0.70000055817E+02 0.  0.
        -12    1    1    2    0    0  0.84945704617E+01 -0.16659603944E+02 -0.98865254781E+00  0.18726386858E+02  0.00000000000E+00 0.  1.
         11    1    3    3    0    0  0.19377620467E+00 -0.12120058473E+02  0.31048066529E+01  0.12512920971E+02  0.51100000000E-03 0. -1.
        -11    1    3    3    0    0 -0.24233692678E+00 -0.40915677873E+01  0.19357640231E+02  0.19786811005E+02  0.51100000000E-03 0.  1.
         12    1    3    3    0    0 -0.84460097396E+01  0.32871230204E+02 -0.21473794336E+02  0.40161881167E+02  0.00000000000E+00 0. -1.
</event>
<event>
 7    1  0.1749439E-013  0.7246130E+02  0.7816164E-02  0.1226709E+00
        -11   -1    0    0    0    0  0.00000000000E+00  0.00000000000E+00  0.45593999997E+02  0.45594000000E+02  0.51100000000E-03 0.  1.
         11   -1    0    0    0    0 -0.00000000000E+00 -0.00000000000E+00 -0.45593999997E+02  0.45594000000E+02  0.51100000000E-03 0. -1.
    9900012    2    1    2    0    0 -0.16048348195E+02  0.53317929850E+01  0.80443714097E+01  0.72461296937E+02  0.69999643901E+02 0.  0.
        -12    1    1    2    0    0  0.16048348195E+02 -0.53317929850E+01 -0.80443714097E+01  0.18726703063E+02  0.00000000000E+00 0.  1.
         11    1    3    3    0    0 -0.38829046338E+01 -0.22385280736E+01 -0.91217137513E+01  0.10163346809E+02  0.51100000000E-03 0. -1.
        -11    1    3    3    0    0  0.18492462186E+02  0.10491746178E+02 -0.78058022353E+01  0.22649027449E+02  0.51100000000E-03 0.  1.
         12    1    3    3    0    0 -0.30657905747E+02 -0.29214251196E+01  0.24971887396E+02  0.39648922680E+02  0.00000000000E+00 0. -1.
</event>
<event>
 7    1  0.1749439E-013  0.7246159E+02  0.7816164E-02  0.1226708E+00
        -11   -1    0    0    0    0  0.00000000000E+00  0.00000000000E+00  0.45593999997E+02  0.45594000000E+02  0.51100000000E-03 0.  1.
         11   -1    0    0    0    0 -0.00000000000E+00 -0.00000000000E+00 -0.45593999997E+02  0.45594000000E+02  0.51100000000E-03 0. -1.
    9900012    2    1    2    0    0  0.11617175893E+02  0.95286070353E+01 -0.11177003149E+02  0.72461587446E+02  0.70000022343E+02 0.  0.
        -12    1    1    2    0    0 -0.11617175893E+02 -0.95286070353E+01  0.11177003149E+02  0.18726412554E+02  0.00000000000E+00 0.  1.
         11    1    3    3    0    0 -0.33638302905E+01  0.54378029675E+01  0.10395015925E+02  0.12204155509E+02  0.51100000000E-03 0. -1.
        -11    1    3    3    0    0 -0.94053555128E+01  0.35162019185E+01  0.13936791977E+02  0.17177268675E+02  0.51100000000E-03 0.  1.
         12    1    3    3    0    0  0.24386361696E+02  0.57460214923E+00 -0.35508811052E+02  0.43080163262E+02  0.00000000000E+00 0. -1.
</event>
<event>
 7    1  0.1749439E-013  0.7246158E+02  0.7816164E-02  0.1226708E+00
        -11   -1    0    0    0    0  0.00000000000E+00  0.00000000000E+00  0.45593999997E+02  0.45594000000E+02  0.51100000000E-03 0.  1.
         11   -1    0    0    0    0 -0.00000000000E+00 -0.00000000000E+00 -0.45593999997E+02  0.45594000000E+02  0.51100000000E-03 0. -1.
    9900012    2    1    2    0    0 -0.71304754126E+01 -0.12185089139E+02 -0.12302788162E+02  0.72461583538E+02  0.70000017253E+02 0.  0.
        -12    1    1    2    0    0  0.71304754126E+01  0.12185089139E+02  0.12302788162E+02  0.18726416462E+02  0.00000000000E+00 0.  1.
         11    1    3    3    0    0  0.16807050316E+02 -0.76159481888E+01 -0.14548115152E+02  0.23497388405E+02  0.51100000000E-03 0. -1.
        -11    1    3    3    0    0  0.11565592551E+02 -0.48478881947E+00 -0.48131497398E+01  0.12536521125E+02  0.51100000000E-03 0.  1.
        -12    1    3    3    0    0 -0.35503118279E+02 -0.40843521312E+01  0.70584767297E+01  0.36427674008E+02  0.00000000000E+00 0.  1.
</event>
<event>
 7    1  0.1749439E-013  0.7246154E+02  0.7816164E-02  0.1226708E+00
        -11   -1    0    0    0    0  0.00000000000E+00  0.00000000000E+00  0.45593999997E+02  0.45594000000E+02  0.51100000000E-03 0. -1.
         11   -1    0    0    0    0 -0.00000000000E+00 -0.00000000000E+00 -0.45593999997E+02  0.45594000000E+02  0.51100000000E-03 0.  1.
    9900012    2    1    2    0    0  0.84489983109E+01 -0.21326237867E+01  0.16575481374E+02  0.72461541727E+02  0.69999962786E+02 0.  0.
        -12    1    1    2    0    0 -0.84489983109E+01  0.21326237867E+01 -0.16575481374E+02  0.18726458273E+02  0.00000000000E+00 0.  1.
         11    1    3    3    0    0  0.93533512255E+01  0.19418274191E+01  0.66845297417E+01  0.11659280038E+02  0.51100000000E-03 0. -1.
        -11    1    3    3    0    0  0.26857949642E+01  0.27769840614E+02  0.34046888296E+01  0.28106395155E+02  0.51100000000E-03 0.  1.
        -12    1    3    3    0    0 -0.35901478789E+01 -0.31844291820E+02  0.64862628027E+01  0.32695866534E+02  0.00000000000E+00 0.  1.
</event>
<event>
 7    1  0.1749439E-013  0.7246161E+02  0.7816164E-02  0.1226708E+00
        -11   -1    0    0    0    0  0.00000000000E+00  0.00000000000E+00  0.45593999997E+02  0.45594000000E+02  0.51100000000E-03 0.  1.
         11   -1    0    0    0    0 -0.00000000000E+00 -0.00000000000E+00 -0.45593999997E+02  0.45594000000E+02  0.51100000000E-03 0. -1.
    9900012    2    1    2    0    0  0.15502267556E+02  0.95680028220E+01  0.43371506803E+01  0.72461605435E+02  0.70000045777E+02 0.  0.
        -12    1    1    2    0    0 -0.15502267556E+02 -0.95680028220E+01 -0.43371506803E+01  0.18726394565E+02  0.00000000000E+00 0.  1.
         11    1    3    3    0    0  0.43867851836E+01 -0.17784272657E+02 -0.13889842967E+02  0.22988083350E+02  0.51100000000E-03 0. -1.
        -11    1    3    3    0    0 -0.45546085867E+01 -0.12486151622E+01 -0.68599738149E+01  0.83284296361E+01  0.51100000000E-03 0.  1.
        -12    1    3    3    0    0  0.15670090959E+02  0.28600890641E+02  0.25086967462E+02  0.41145092449E+02  0.00000000000E+00 0.  1.
</event>
<event>
 7    1  0.1749439E-013  0.7246156E+02  0.7816164E-02  0.1226708E+00
        -11   -1    0    0    0    0  0.00000000000E+00  0.00000000000E+00  0.45593999997E+02  0.45594000000E+02  0.51100000000E-03 0.  1.
         11   -1    0    0    0    0 -0.00000000000E+00 -0.00000000000E+00 -0.45593999997E+02  0.45594000000E+02  0.51100000000E-03 0. -1.
    9900012    2    1    2    0    0 -0.12020319797E+02 -0.11883706935E+02 -0.80603307781E+01  0.72461561182E+02  0.69999988130E+02 0.  0.
        -12    1    1    2    0    0  0.12020319797E+02  0.11883706935E+02  0.80603307781E+01  0.18726438818E+02  0.00000000000E+00 0.  1.
         11    1    3    3    0    0 -0.74874444171E+01  0.53094361570E+01  0.21451390093E+02  0.23332682516E+02  0.51100000000E-03 0. -1.
        -11    1    3    3    0    0  0.10872328401E+02  0.50931812491E+01 -0.69531058933E+01  0.13874209956E+02  0.51100000000E-03 0.  1.
         12    1    3    3    0    0 -0.15405203780E+02 -0.22286324341E+02 -0.22558614978E+02  0.35254668710E+02  0.00000000000E+00 0. -1.
</event>
<event>
 7    1  0.1749439E-013  0.7246162E+02  0.7816164E-02  0.1226708E+00
        -11   -1    0    0    0    0  0.00000000000E+00  0.00000000000E+00  0.45593999997E+02  0.45594000000E+02  0.51100000000E-03 0. -1.
         11   -1    0    0    0    0 -0.00000000000E+00 -0.00000000000E+00 -0.45593999997E+02  0.45594000000E+02  0.51100000000E-03 0.  1.
    9900012    2    1    2    0    0  0.14660980883E+02 -0.53806208369E+01  0.10333525100E+02  0.72461623361E+02  0.70000069129E+02 0.  0.
        -12    1    1    2    0    0 -0.14660980883E+02  0.53806208369E+01 -0.10333525100E+02  0.18726376639E+02  0.00000000000E+00 0.  1.
         11    1    3    3    0    0  0.12376069208E+02 -0.16365192598E+00  0.32369440598E+02  0.34655079799E+02  0.51100000000E-03 0. -1.
        -11    1    3    3    0    0  0.21793667240E+01 -0.14445952295E+02 -0.77644502443E+00  0.14630039104E+02  0.51100000000E-03 0.  1.
        -12    1    3    3    0    0  0.10554495140E+00  0.92289833845E+01 -0.21259470474E+02  0.23176504458E+02  0.00000000000E+00 0.  1.
</event>
<event>
 7    1  0.1749439E-013  0.7246159E+02  0.7816164E-02  0.1226708E+00
        -11   -1    0    0    0    0  0.00000000000E+00  0.00000000000E+00  0.45593999997E+02  0.45594000000E+02  0.51100000000E-03 0. -1.
         11   -1    0    0    0    0 -0.00000000000E+00 -0.00000000000E+00 -0.45593999997E+02  0.45594000000E+02  0.51100000000E-03 0.  1.
    9900012    2    1    2    0    0  0.48079230514E+01  0.11548094997E+01  0.18061799401E+02  0.72461593333E+02  0.70000030012E+02 0.  0.
        -12    1    1    2    0    0 -0.48079230514E+01 -0.11548094997E+01 -0.18061799401E+02  0.18726406667E+02  0.00000000000E+00 0.  1.
         11    1    3    3    0    0 -0.15931654256E+02  0.76066680338E+01  0.20959161877E+02  0.27403749246E+02  0.51100000000E-03 0. -1.
        -11    1    3    3    0    0 -0.88440091641E+01 -0.37042319257E+01 -0.10671802143E+02  0.14346609129E+02  0.51100000000E-03 0.  1.
         12    1    3    3    0    0  0.29583586471E+02 -0.27476266083E+01  0.77744396676E+01  0.30711234958E+02  0.00000000000E+00 0. -1.
</event>
<event>
 7    1  0.1749439E-013  0.7246165E+02  0.7816164E-02  0.1226708E+00
        -11   -1    0    0    0    0  0.00000000000E+00  0.00000000000E+00  0.45593999997E+02  0.45594000000E+02  0.51100000000E-03 0. -1.
         11   -1    0    0    0    0 -0.00000000000E+00 -0.00000000000E+00 -0.45593999997E+02  0.45594000000E+02  0.51100000000E-03 0.  1.
    9900012    2    1    2    0    0  0.15841118467E+02 -0.97027434367E+01  0.23646914933E+01  0.72461654111E+02  0.70000109187E+02 0.  0.
        -12    1    1    2    0    0 -0.15841118467E+02  0.97027434367E+01 -0.23646914933E+01  0.18726345889E+02  0.00000000000E+00 0.  1.
         11    1    3    3    0    0  0.23486748296E+02 -0.13745228902E+02  0.14384663624E+02  0.30781117766E+02  0.51100000000E-03 0. -1.
        -11    1    3    3    0    0 -0.18334345277E+00  0.20242910257E+02 -0.12582071351E+02  0.23835216597E+02  0.51100000000E-03 0.  1.
        -12    1    3    3    0    0 -0.74622863757E+01 -0.16200424792E+02  0.56209922016E+00  0.17845319748E+02  0.00000000000E+00 0.  1.
</event>
<event>
 7    1  0.1749439E-013  0.7246165E+02  0.7816164E-02  0.1226708E+00
        -11   -1    0    0    0    0  0.00000000000E+00  0.00000000000E+00  0.45593999997E+02  0.45594000000E+02  0.51100000000E-03 0.  1.
         11   -1    0    0    0    0 -0.00000000000E+00 -0.00000000000E+00 -0.45593999997E+02  0.45594000000E+02  0.51100000000E-03 0. -1.
    9900012    2    1    2    0    0  0.12884152184E+02  0.12871004512E+02  0.43602833959E+01  0.72461649423E+02  0.70000103080E+02 0.  0.
        -12    1    1    2    0    0 -0.12884152184E+02 -0.12871004512E+02 -0.43602833959E+01  0.18726350577E+02  0.00000000000E+00 0.  1.
         11    1    3    3    0    0 -0.90230467529E+01  0.27246865457E+02 -0.20085835135E+01  0.28772234149E+02  0.51100000000E-03 0. -1.
        -11    1    3    3    0    0  0.25378115622E+01 -0.10880442885E+02  0.17735167913E+02  0.20960932852E+02  0.51100000000E-03 0.  1.
        -12    1    3    3    0    0  0.19369387375E+02 -0.34954180608E+01 -0.11366301003E+02  0.22728482422E+02  0.00000000000E+00 0.  1.
</event>
<event>
 7    1  0.1749439E-013  0.7246162E+02  0.7816164E-02  0.1226708E+00
        -11   -1    0    0    0    0  0.00000000000E+00  0.00000000000E+00  0.45593999997E+02  0.45594000000E+02  0.51100000000E-03 0. -1.
         11   -1    0    0    0    0 -0.00000000000E+00 -0.00000000000E+00 -0.45593999997E+02  0.45594000000E+02  0.51100000000E-03 0.  1.
    9900012    2    1    2    0    0  0.11699859699E+02 -0.14502170406E+02 -0.18648741768E+01  0.72461617030E+02  0.70000060881E+02 0.  0.
        -12    1    1    2    0    0 -0.11699859699E+02  0.14502170406E+02  0.18648741768E+01  0.18726382970E+02  0.00000000000E+00 0.  1.
         11    1    3    3    0    0  0.22865406852E+01  0.41008854364E+01  0.29917908974E+01  0.55674359181E+01  0.51100000000E-03 0. -1.
        -11    1    3    3    0    0  0.27147355188E+02 -0.25440063953E+01  0.18901552151E+02  0.33177093547E+02  0.51100000000E-03 0.  1.
         12    1    3    3    0    0 -0.17734036174E+02 -0.16059049447E+02 -0.23758217225E+02  0.33717087565E+02  0.00000000000E+00 0. -1.
</event>
<event>
 7    1  0.1749439E-013  0.7246164E+02  0.7816164E-02  0.1226708E+00
        -11   -1    0    0    0    0  0.00000000000E+00  0.00000000000E+00  0.45593999997E+02  0.45594000000E+02  0.51100000000E-03 0.  1.
         11   -1    0    0    0    0 -0.00000000000E+00 -0.00000000000E+00 -0.45593999997E+02  0.45594000000E+02  0.51100000000E-03 0. -1.
    9900012    2    1    2    0    0  0.16794547339E+02  0.78905548635E+01 -0.25216508887E+01  0.72461644252E+02  0.70000096344E+02 0.  0.
        -12    1    1    2    0    0 -0.16794547339E+02 -0.78905548635E+01  0.25216508887E+01  0.18726355748E+02  0.00000000000E+00 0.  1.
         11    1    3    3    0    0 -0.23656666437E+01  0.22699766956E+01 -0.76459808413E+01  0.83192665635E+01  0.51100000000E-03 0. -1.
        -11    1    3    3    0    0  0.29401374812E+01 -0.25619266059E+02  0.11727173159E+02  0.28328744984E+02  0.51100000000E-03 0.  1.
         12    1    3    3    0    0  0.16220076502E+02  0.31239844227E+02 -0.66028432061E+01  0.35813632704E+02  0.00000000000E+00 0. -1.
</event>
<event>
 7    1  0.1749439E-013  0.7246153E+02  0.7816164E-02  0.1226708E+00
        -11   -1    0    0    0    0  0.00000000000E+00  0.00000000000E+00  0.45593999997E+02  0.45594000000E+02  0.51100000000E-03 0. -1.
         11   -1    0    0    0    0 -0.00000000000E+00 -0.00000000000E+00 -0.45593999997E+02  0.45594000000E+02  0.51100000000E-03 0.  1.
    9900012    2    1    2    0    0 -0.15642469077E+02  0.10275352005E+02 -0.64116367196E+00  0.72461527067E+02  0.69999943688E+02 0.  0.
        -12    1    1    2    0    0  0.15642469077E+02 -0.10275352005E+02  0.64116367196E+00  0.18726472933E+02  0.00000000000E+00 0.  1.
         11    1    3    3    0    0 -0.11747522914E+02  0.16230466834E+02  0.59039957848E+01  0.20887544488E+02  0.51100000000E-03 0. -1.
        -11    1    3    3    0    0  0.66251442947E-01  0.19649064284E+02 -0.14557843102E+02  0.24454466106E+02  0.51100000000E-03 0.  1.
         12    1    3    3    0    0 -0.39611976057E+01 -0.25604179113E+02  0.80126836453E+01  0.27119516472E+02  0.00000000000E+00 0. -1.
</event>
<event>
 7    1  0.1749439E-013  0.7246158E+02  0.7816164E-02  0.1226708E+00
        -11   -1    0    0    0    0  0.00000000000E+00  0.00000000000E+00  0.45593999997E+02  0.45594000000E+02  0.51100000000E-03 0.  1.
         11   -1    0    0    0    0 -0.00000000000E+00 -0.00000000000E+00 -0.45593999997E+02  0.45594000000E+02  0.51100000000E-03 0. -1.
    9900012    2    1    2    0    0 -0.15114034242E+02  0.11011950175E+02  0.99090397372E+00  0.72461575664E+02  0.70000006995E+02 0.  0.
        -12    1    1    2    0    0  0.15114034242E+02 -0.11011950175E+02 -0.99090397372E+00  0.18726424336E+02  0.00000000000E+00 0.  1.
         11    1    3    3    0    0 -0.19914768254E+02  0.11022161825E+02  0.12835912844E+02  0.26131335685E+02  0.51100000000E-03 0. -1.
        -11    1    3    3    0    0  0.30470219935E+01  0.15871853651E+02  0.10194191561E+02  0.19108155934E+02  0.51100000000E-03 0.  1.
         12    1    3    3    0    0  0.17537120183E+01 -0.15882065302E+02 -0.22039200431E+02  0.27222084044E+02  0.00000000000E+00 0. -1.
</event>
<event>
 7    1  0.1749439E-013  0.7246155E+02  0.7816164E-02  0.1226708E+00
        -11   -1    0    0    0    0  0.00000000000E+00  0.00000000000E+00  0.45593999997E+02  0.45594000000E+02  0.51100000000E-03 0. -1.
         11   -1    0    0    0    0 -0.00000000000E+00 -0.00000000000E+00 -0.45593999997E+02  0.45594000000E+02  0.51100000000E-03 0.  1.
    9900012    2    1    2    0    0 -0.15205329279E+02  0.20809227847E+01  0.10730695950E+02  0.72461545085E+02  0.69999967160E+02 0.  0.
        -12    1    1    2    0    0  0.15205329279E+02 -0.20809227847E+01 -0.10730695950E+02  0.18726454915E+02  0.00000000000E+00 0.  1.
         11    1    3    3    0    0 -0.11954668367E+02 -0.43080984957E+01  0.17782381486E+02  0.21856049505E+02  0.51100000000E-03 0. -1.
        -11    1    3    3    0    0 -0.80743588863E+01 -0.53150065645E+01  0.19180386803E+02  0.21478635999E+02  0.51100000000E-03 0.  1.
        -12    1    3    3    0    0  0.48236979744E+01  0.11704027845E+02 -0.26232072338E+02  0.29126859581E+02  0.00000000000E+00 0.  1.
</event>
<event>
 7    1  0.1749439E-013  0.7246150E+02  0.7816164E-02  0.1226708E+00
        -11   -1    0    0    0    0  0.00000000000E+00  0.00000000000E+00  0.45593999997E+02  0.45594000000E+02  0.51100000000E-03 0. -1.
         11   -1    0    0    0    0 -0.00000000000E+00 -0.00000000000E+00 -0.45593999997E+02  0.45594000000E+02  0.51100000000E-03 0.  1.
    9900012    2    1    2    0    0  0.45214954791E+00 -0.17679872489E+02  0.61562500656E+01  0.72461501520E+02  0.69999910409E+02 0.  0.
        -12    1    1    2    0    0 -0.45214954791E+00  0.17679872489E+02 -0.61562500656E+01  0.18726498480E+02  0.00000000000E+00 0.  1.
         11    1    3    3    0    0  0.15568140982E+02  0.19733088083E+01  0.64054825398E+01  0.16949665723E+02  0.51100000000E-03 0. -1.
        -11    1    3    3    0    0  0.73018544879E+01 -0.96904341880E+01 -0.20419547350E+02  0.23752463198E+02  0.51100000000E-03 0.  1.
        -12    1    3    3    0    0 -0.22417845922E+02 -0.99627471095E+01  0.20170314876E+02  0.31759372600E+02  0.00000000000E+00 0.  1.
</event>
<event>
 7    1  0.1749439E-013  0.7246165E+02  0.7816164E-02  0.1226708E+00
        -11   -1    0    0    0    0  0.00000000000E+00  0.00000000000E+00  0.45593999997E+02  0.45594000000E+02  0.51100000000E-03 0.  1.
         11   -1    0    0    0    0 -0.00000000000E+00 -0.00000000000E+00 -0.45593999997E+02  0.45594000000E+02  0.51100000000E-03 0. -1.
    9900012    2    1    2    0    0 -0.60923669227E+01 -0.46098652882E+01 -0.17097024416E+02  0.72461653945E+02  0.70000108970E+02 0.  0.
        -12    1    1    2    0    0  0.60923669227E+01  0.46098652882E+01  0.17097024416E+02  0.18726346055E+02  0.00000000000E+00 0.  1.
         11    1    3    3    0    0  0.66141884881E+01  0.86077564115E+01  0.28087481559E+01  0.11212940126E+02  0.51100000000E-03 0. -1.
        -11    1    3    3    0    0  0.24358475645E+01 -0.30823252358E+02 -0.40032493022E+00  0.30921942041E+02  0.51100000000E-03 0.  1.
         12    1    3    3    0    0 -0.15142402975E+02  0.17605630659E+02 -0.19505447642E+02  0.30326771778E+02  0.00000000000E+00 0. -1.
</event>
<event>
 7    1  0.1749439E-013  0.7246154E+02  0.7816164E-02  0.1226708E+00
        -11   -1    0    0    0    0  0.00000000000E+00  0.00000000000E+00  0.45593999997E+02  0.45594000000E+02  0.51100000000E-03 0.  1.
         11   -1    0    0    0    0 -0.00000000000E+00 -0.00000000000E+00 -0.45593999997E+02  0.45594000000E+02  0.51100000000E-03 0. -1.
    9900012    2    1    2    0    0  0.18493654522E+02  0.29433660238E+01  0.39602546808E-01  0.72461541992E+02  0.69999963132E+02 0.  0.
        -12    1    1    2    0    0 -0.18493654522E+02 -0.29433660238E+01 -0.39602546808E-01  0.18726458008E+02  0.00000000000E+00 0.  1.
         11    1    3    3    0    0 -0.10766110232E+02 -0.23908963244E+01 -0.12384668912E+02  0.16583290960E+02  0.51100000000E-03 0. -1.
        -11    1    3    3    0    0  0.30461930393E+02 -0.50666961474E+01  0.24844282786E+02  0.39633811330E+02  0.51100000000E-03 0.  1.
         12    1    3    3    0    0 -0.12021656393E+01  0.10400958496E+02 -0.12420011328E+02  0.16244439702E+02  0.00000000000E+00 0. -1.
</event>
<event>
 7    1  0.1749439E-013  0.7246150E+02  0.7816164E-02  0.1226708E+00
        -11   -1    0    0    0    0  0.00000000000E+00  0.00000000000E+00  0.45593999997E+02  0.45594000000E+02  0.51100000000E-03 0. -1.
         11   -1    0    0    0    0 -0.00000000000E+00 -0.00000000000E+00 -0.45593999997E+02  0.45594000000E+02  0.51100000000E-03 0.  1.
    9900012    2    1    2    0    0  0.23926394623E+01 -0.17770041526E+00  0.18572168129E+02  0.72461501928E+02  0.69999910940E+02 0.  0.
        -12    1    1    2    0    0 -0.23926394623E+01  0.17770041526E+00 -0.18572168129E+02  0.18726498072E+02  0.00000000000E+00 0.  1.
         11    1    3    3    0    0 -0.24690980960E+01  0.14379809238E+02  0.36159903113E+02  0.38992485847E+02  0.51100000000E-03 0. -1.
        -11    1    3    3    0    0  0.58582189873E+00  0.65607527321E+01 -0.64286339855E+01  0.92040208002E+01  0.51100000000E-03 0.  1.
        -12    1    3    3    0    0  0.42759156596E+01 -0.21118262385E+02 -0.11159100998E+02  0.24264995281E+02  0.00000000000E+00 0.  1.
</event>
<event>
 7    1  0.1749439E-013  0.7246158E+02  0.7816164E-02  0.1226708E+00
        -11   -1    0    0    0    0  0.00000000000E+00  0.00000000000E+00  0.45593999997E+02  0.45594000000E+02  0.51100000000E-03 0.  1.
         11   -1    0    0    0    0 -0.00000000000E+00 -0.00000000000E+00 -0.45593999997E+02  0.45594000000E+02  0.51100000000E-03 0. -1.
    9900012    2    1    2    0    0  0.78076865849E+01 -0.40160164798E+01 -0.16540571389E+02  0.72461578557E+02  0.70000010764E+02 0.  0.
        -12    1    1    2    0    0 -0.78076865849E+01  0.40160164798E+01  0.16540571389E+02  0.18726421443E+02  0.00000000000E+00 0.  1.
         11    1    3    3    0    0 -0.32826144943E+01  0.47593469614E+01  0.14969277081E+02  0.16046999658E+02  0.51100000000E-03 0. -1.
        -11    1    3    3    0    0 -0.14433435695E+02  0.28655734897E+01 -0.67859824131E+00  0.14730786579E+02  0.51100000000E-03 0.  1.
         12    1    3    3    0    0  0.25523736774E+02 -0.11640936931E+02 -0.30831250229E+02  0.41683792321E+02  0.00000000000E+00 0. -1.
</event>
<event>
 7    1  0.1749439E-013  0.7246163E+02  0.7816164E-02  0.1226708E+00
        -11   -1    0    0    0    0  0.00000000000E+00  0.00000000000E+00  0.45593999997E+02  0.45594000000E+02  0.51100000000E-03 0. -1.
         11   -1    0    0    0    0 -0.00000000000E+00 -0.00000000000E+00 -0.45593999997E+02  0.45594000000E+02  0.51100000000E-03 0.  1.
    9900012    2    1    2    0    0  0.14391508161E+02 -0.11974368137E+02  0.41935653395E+00  0.72461631977E+02  0.70000080353E+02 0.  0.
        -12    1    1    2    0    0 -0.14391508161E+02  0.11974368137E+02 -0.41935653395E+00  0.18726368023E+02  0.00000000000E+00 0.  1.
         11    1    3    3    0    0 -0.70518728685E+01  0.55949598107E+01 -0.48304884405E+00  0.90147558305E+01  0.51100000000E-03 0.  1.
        -11    1    3    3    0    0  0.18125421271E+02 -0.11891782586E+02 -0.27087956499E+02  0.34694419967E+02  0.51100000000E-03 0. -1.
         12    1    3    3    0    0  0.33179597593E+01 -0.56775453621E+01  0.27990361877E+02  0.28752456179E+02  0.00000000000E+00 0. -1.
</event>
<event>
 7    1  0.1749439E-013  0.7246163E+02  0.7816164E-02  0.1226708E+00
        -11   -1    0    0    0    0  0.00000000000E+00  0.00000000000E+00  0.45593999997E+02  0.45594000000E+02  0.51100000000E-03 0.  1.
         11   -1    0    0    0    0 -0.00000000000E+00 -0.00000000000E+00 -0.45593999997E+02  0.45594000000E+02  0.51100000000E-03 0. -1.
    9900012    2    1    2    0    0 -0.13131056018E+02 -0.39610953803E+00 -0.13345234320E+02  0.72461633188E+02  0.70000081930E+02 0.  0.
        -12    1    1    2    0    0  0.13131056018E+02  0.39610953803E+00  0.13345234320E+02  0.18726366812E+02  0.00000000000E+00 0.  1.
         11    1    3    3    0    0 -0.34117829164E+01 -0.16662796629E+02  0.61513490882E+00  0.17019619426E+02  0.51100000000E-03 0. -1.
        -11    1    3    3    0    0  0.66627990825E+01  0.22756812050E+02  0.99709963248E+01  0.25723260957E+02  0.51100000000E-03 0.  1.
         12    1    3    3    0    0 -0.16382072185E+02 -0.64901249583E+01 -0.23931365554E+02  0.29718752805E+02  0.00000000000E+00 0. -1.
</event>
<event>
 7    1  0.1749439E-013  0.7246166E+02  0.7816164E-02  0.1226708E+00
        -11   -1    0    0    0    0  0.00000000000E+00  0.00000000000E+00  0.45593999997E+02  0.45594000000E+02  0.51100000000E-03 0.  1.
         11   -1    0    0    0    0 -0.00000000000E+00 -0.00000000000E+00 -0.45593999997E+02  0.45594000000E+02  0.51100000000E-03 0. -1.
    9900012    2    1    2    0    0  0.18484086271E+02 -0.10580558928E+01  0.28097849793E+01  0.72461659749E+02  0.70000116531E+02 0.  0.
        -12    1    1    2    0    0 -0.18484086271E+02  0.10580558928E+01 -0.28097849793E+01  0.18726340251E+02  0.00000000000E+00 0.  1.
         11    1    3    3    0    0  0.40226475842E+01 -0.82205111311E+01 -0.25478180885E+01  0.94999933746E+01  0.51100000000E-03 0.  1.
        -11    1    3    3    0    0 -0.70100067919E+01 -0.23003623043E+02 -0.48951449364E+01  0.24541175859E+02  0.51100000000E-03 0. -1.
         12    1    3    3    0    0  0.21471445479E+02  0.30166078281E+02  0.10252748004E+02  0.38420490516E+02  0.00000000000E+00 0. -1.
</event>
<event>
 7    1  0.1749439E-013  0.7246222E+02  0.7816164E-02  0.1226706E+00
        -11   -1    0    0    0    0  0.00000000000E+00  0.00000000000E+00  0.45593999997E+02  0.45594000000E+02  0.51100000000E-03 0. -1.
         11   -1    0    0    0    0 -0.00000000000E+00 -0.00000000000E+00 -0.45593999997E+02  0.45594000000E+02  0.51100000000E-03 0.  1.
    9900012    2    1    2    0    0  0.76811212645E+01  0.17104167919E+01  0.16992043511E+02  0.72462223857E+02  0.70000851382E+02 0.  0.
        -12    1    1    2    0    0 -0.76811212645E+01 -0.17104167919E+01 -0.16992043511E+02  0.18725776143E+02  0.00000000000E+00 0.  1.
         11    1    3    3    0    0 -0.38816693104E+01 -0.21538859946E+02  0.55453403606E+01  0.22577436621E+02  0.51100000000E-03 0. -1.
        -11    1    3    3    0    0  0.40484414636E+01  0.39481617050E+01 -0.15152046886E+02  0.16172890411E+02  0.51100000000E-03 0.  1.
         12    1    3    3    0    0  0.75143491113E+01  0.19301115033E+02  0.26598750036E+02  0.33711896825E+02  0.00000000000E+00 0. -1.
</event>
<event>
 7    1  0.1749439E-013  0.7246159E+02  0.7816164E-02  0.1226708E+00
        -11   -1    0    0    0    0  0.00000000000E+00  0.00000000000E+00  0.45593999997E+02  0.45594000000E+02  0.51100000000E-03 0. -1.
         11   -1    0    0    0    0 -0.00000000000E+00 -0.00000000000E+00 -0.45593999997E+02  0.45594000000E+02  0.51100000000E-03 0.  1.
    9900012    2    1    2    0    0  0.63814059494E+01  0.17150264941E+02 -0.39779790656E+01  0.72461594929E+02  0.70000032092E+02 0.  0.
        -12    1    1    2    0    0 -0.63814059494E+01 -0.17150264941E+02  0.39779790656E+01  0.18726405071E+02  0.00000000000E+00 0.  1.
         11    1    3    3    0    0 -0.50762049092E-01  0.60126949290E+01 -0.58469355503E+00  0.60412700576E+01  0.51100000000E-03 0. -1.
        -11    1    3    3    0    0  0.27051633644E+02  0.27036960712E+02 -0.10051089689E+02  0.39545069624E+02  0.51100000000E-03 0.  1.
         12    1    3    3    0    0 -0.20619465646E+02 -0.15899390700E+02  0.66578041781E+01  0.26875255248E+02  0.00000000000E+00 0. -1.
</event>
<event>
 7    1  0.1749439E-013  0.7246160E+02  0.7816164E-02  0.1226708E+00
        -11   -1    0    0    0    0  0.00000000000E+00  0.00000000000E+00  0.45593999997E+02  0.45594000000E+02  0.51100000000E-03 0. -1.
         11   -1    0    0    0    0 -0.00000000000E+00 -0.00000000000E+00 -0.45593999997E+02  0.45594000000E+02  0.51100000000E-03 0.  1.
    9900012    2    1    2    0    0 -0.13782286815E+02 -0.60596858153E+01 -0.11135842757E+02  0.72461595755E+02  0.70000033167E+02 0.  0.
        -12    1    1    2    0    0  0.13782286815E+02  0.60596858153E+01  0.11135842757E+02  0.18726404245E+02  0.00000000000E+00 0.  1.
         11    1    3    3    0    0 -0.26975482450E+02 -0.60998237054E+01  0.79609759892E-01  0.27656659968E+02  0.51100000000E-03 0. -1.
        -11    1    3    3    0    0 -0.47074793641E+00  0.16172155570E+02 -0.16400053803E+02  0.23037404029E+02  0.51100000000E-03 0.  1.
         12    1    3    3    0    0  0.13663943571E+02 -0.16132017680E+02  0.51846012858E+01  0.21767531758E+02  0.00000000000E+00 0. -1.
</event>
<event>
 7    1  0.1749439E-013  0.7246157E+02  0.7816164E-02  0.1226708E+00
        -11   -1    0    0    0    0  0.00000000000E+00  0.00000000000E+00  0.45593999997E+02  0.45594000000E+02  0.51100000000E-03 0.  1.
         11   -1    0    0    0    0 -0.00000000000E+00 -0.00000000000E+00 -0.45593999997E+02  0.45594000000E+02  0.51100000000E-03 0. -1.
    9900012    2    1    2    0    0 -0.85690237843E+01  0.16650811811E+02  0.36559375047E-01  0.72461573775E+02  0.70000004534E+02 0.  0.
        -12    1    1    2    0    0  0.85690237843E+01 -0.16650811811E+02 -0.36559375047E-01  0.18726426225E+02  0.00000000000E+00 0.  1.
         11    1    3    3    0    0 -0.26247845761E+02  0.28876664585E+02 -0.68468920464E+01  0.39619327299E+02  0.51100000000E-03 0. -1.
        -11    1    3    3    0    0 -0.20443400731E+01  0.49778256131E+01  0.35784708536E+01  0.64624707412E+01  0.51100000000E-03 0.  1.
        -12    1    3    3    0    0  0.19723162049E+02 -0.17203678388E+02  0.33049805678E+01  0.26379775735E+02  0.00000000000E+00 0.  1.
</event>
<event>
 7    1  0.1749439E-013  0.7246155E+02  0.7816164E-02  0.1226708E+00
        -11   -1    0    0    0    0  0.00000000000E+00  0.00000000000E+00  0.45593999997E+02  0.45594000000E+02  0.51100000000E-03 0. -1.
         11   -1    0    0    0    0 -0.00000000000E+00 -0.00000000000E+00 -0.45593999997E+02  0.45594000000E+02  0.51100000000E-03 0.  1.
    9900012    2    1    2    0    0  0.16399838805E+02 -0.26306203270E+01  0.86489940378E+01  0.72461548814E+02  0.69999972018E+02 0.  0.
        -12    1    1    2    0    0 -0.16399838805E+02  0.26306203270E+01 -0.86489940378E+01  0.18726451186E+02  0.00000000000E+00 0.  1.
         11    1    3    3    0    0 -0.37839817980E+01 -0.17593945952E+02 -0.10510438239E+02  0.20840699716E+02  0.51100000000E-03 0. -1.
        -11    1    3    3    0    0 -0.44222051939E+01  0.15878896282E+01 -0.10086890885E+02  0.11127563086E+02  0.51100000000E-03 0.  1.
        -12    1    3    3    0    0  0.24606025797E+02  0.13375435997E+02  0.29246323161E+02  0.40493286013E+02  0.00000000000E+00 0.  1.
</event>
<event>
 7    1  0.1749439E-013  0.7246162E+02  0.7816164E-02  0.1226708E+00
        -11   -1    0    0    0    0  0.00000000000E+00  0.00000000000E+00  0.45593999997E+02  0.45594000000E+02  0.51100000000E-03 0.  1.
         11   -1    0    0    0    0 -0.00000000000E+00 -0.00000000000E+00 -0.45593999997E+02  0.45594000000E+02  0.51100000000E-03 0. -1.
    9900012    2    1    2    0    0  0.16140149246E+02  0.42863759684E+01 -0.84734862769E+01  0.72461617372E+02  0.70000061328E+02 0.  0.
        -12    1    1    2    0    0 -0.16140149246E+02 -0.42863759684E+01  0.84734862769E+01  0.18726382628E+02  0.00000000000E+00 0.  1.
         11    1    3    3    0    0 -0.66014759521E+01 -0.73647948252E+01  0.19441043064E+01  0.10079644308E+02  0.51100000000E-03 0. -1.
        -11    1    3    3    0    0 -0.37534625608E+01  0.13988712507E+02 -0.27281960749E+02  0.30888152119E+02  0.51100000000E-03 0.  1.
        -12    1    3    3    0    0  0.26495087759E+02 -0.23375417134E+01  0.16864370165E+02  0.31493820945E+02  0.00000000000E+00 0.  1.
</event>
<event>
 7    1  0.1749439E-013  0.7246156E+02  0.7816164E-02  0.1226708E+00
        -11   -1    0    0    0    0  0.00000000000E+00  0.00000000000E+00  0.45593999997E+02  0.45594000000E+02  0.51100000000E-03 0.  1.
         11   -1    0    0    0    0 -0.00000000000E+00 -0.00000000000E+00 -0.45593999997E+02  0.45594000000E+02  0.51100000000E-03 0. -1.
    9900012    2    1    2    0    0 -0.11808468809E+02  0.10250671776E+02 -0.10303563762E+02  0.72461557902E+02  0.69999983856E+02 0.  0.
        -12    1    1    2    0    0  0.11808468809E+02 -0.10250671776E+02  0.10303563762E+02  0.18726442098E+02  0.00000000000E+00 0.  1.
         11    1    3    3    0    0 -0.12129503164E+02  0.43164738135E+01 -0.61915964576E+01  0.14286100242E+02  0.51100000000E-03 0. -1.
        -11    1    3    3    0    0 -0.81579856531E+01 -0.11388240496E+02  0.21776190345E+02  0.25892995534E+02  0.51100000000E-03 0.  1.
         12    1    3    3    0    0  0.84790200077E+01  0.17322438458E+02 -0.25888157649E+02  0.32282462126E+02  0.00000000000E+00 0. -1.
</event>
<event>
 7    1  0.1749439E-013  0.7246158E+02  0.7816164E-02  0.1226708E+00
        -11   -1    0    0    0    0  0.00000000000E+00  0.00000000000E+00  0.45593999997E+02  0.45594000000E+02  0.51100000000E-03 0. -1.
         11   -1    0    0    0    0 -0.00000000000E+00 -0.00000000000E+00 -0.45593999997E+02  0.45594000000E+02  0.51100000000E-03 0.  1.
    9900012    2    1    2    0    0  0.12797019252E+01  0.12268604840E+02  0.14089796216E+02  0.72461583921E+02  0.70000017751E+02 0.  0.
        -12    1    1    2    0    0 -0.12797019252E+01 -0.12268604840E+02 -0.14089796216E+02  0.18726416079E+02  0.00000000000E+00 0.  1.
         11    1    3    3    0    0 -0.21374035747E+01  0.21514848202E+01  0.25167690594E+02  0.25349754063E+02  0.51100000000E-03 0. -1.
        -11    1    3    3    0    0 -0.11255715709E+02  0.45821152039E+01  0.13369245876E+02  0.18067198218E+02  0.51100000000E-03 0.  1.
        -12    1    3    3    0    0  0.14672821209E+02  0.55350048163E+01 -0.24447140254E+02  0.29044631641E+02  0.00000000000E+00 0.  1.
</event>
<event>
 7    1  0.1749439E-013  0.7246157E+02  0.7816164E-02  0.1226708E+00
        -11   -1    0    0    0    0  0.00000000000E+00  0.00000000000E+00  0.45593999997E+02  0.45594000000E+02  0.51100000000E-03 0. -1.
         11   -1    0    0    0    0 -0.00000000000E+00 -0.00000000000E+00 -0.45593999997E+02  0.45594000000E+02  0.51100000000E-03 0.  1.
    9900012    2    1    2    0    0 -0.12103459417E+02  0.14222256926E+02  0.13830575711E+01  0.72461570277E+02  0.69999999978E+02 0.  0.
        -12    1    1    2    0    0  0.12103459417E+02 -0.14222256926E+02 -0.13830575711E+01  0.18726429723E+02  0.00000000000E+00 0.  1.
         11    1    3    3    0    0 -0.27859762073E+02  0.15451088738E+02  0.19100449326E+02  0.37144712284E+02  0.51100000000E-03 0. -1.
        -11    1    3    3    0    0 -0.45736630578E+01 -0.62404293666E+01  0.22805216162E+00  0.77403721160E+01  0.51100000000E-03 0.  1.
        -12    1    3    3    0    0  0.20329965714E+02  0.50115975544E+01 -0.17945443917E+02  0.27576485877E+02  0.00000000000E+00 0.  1.
</event>
<event>
 7    1  0.1749439E-013  0.7246158E+02  0.7816164E-02  0.1226708E+00
        -11   -1    0    0    0    0  0.00000000000E+00  0.00000000000E+00  0.45593999997E+02  0.45594000000E+02  0.51100000000E-03 0.  1.
         11   -1    0    0    0    0 -0.00000000000E+00 -0.00000000000E+00 -0.45593999997E+02  0.45594000000E+02  0.51100000000E-03 0. -1.
    9900012    2    1    2    0    0 -0.18403020966E+02 -0.24745121990E+01 -0.24257652659E+01  0.72461582072E+02  0.70000015342E+02 0.  0.
        -12    1    1    2    0    0  0.18403020966E+02  0.24745121990E+01  0.24257652659E+01  0.18726417928E+02  0.00000000000E+00 0.  1.
         11    1    3    3    0    0 -0.14254410381E+02 -0.28680111353E+02 -0.17512386284E+02  0.36502337955E+02  0.51100000000E-03 0. -1.
        -11    1    3    3    0    0  0.22256987185E+01 -0.14713829124E+01  0.52738092203E+01  0.59103101792E+01  0.51100000000E-03 0.  1.
        -12    1    3    3    0    0 -0.63743093036E+01  0.27676982066E+02  0.98128117983E+01  0.30048933938E+02  0.00000000000E+00 0.  1.
</event>
<event>
 7    1  0.1749439E-013  0.7246165E+02  0.7816164E-02  0.1226708E+00
        -11   -1    0    0    0    0  0.00000000000E+00  0.00000000000E+00  0.45593999997E+02  0.45594000000E+02  0.51100000000E-03 0.  1.
         11   -1    0    0    0    0 -0.00000000000E+00 -0.00000000000E+00 -0.45593999997E+02  0.45594000000E+02  0.51100000000E-03 0. -1.
    9900012    2    1    2    0    0  0.57909070398E+01  0.13802035109E+01 -0.17754904302E+02  0.72461649773E+02  0.70000103535E+02 0.  0.
        -12    1    1    2    0    0 -0.57909070398E+01 -0.13802035109E+01  0.17754904302E+02  0.18726350227E+02  0.00000000000E+00 0.  1.
         11    1    3    3    0    0 -0.74450402166E-01  0.11048551746E+01 -0.26370513115E+01  0.28601202248E+01  0.51100000000E-03 0. -1.
        -11    1    3    3    0    0  0.44202702472E+01  0.10979865047E+02  0.25210978061E+02  0.27851205370E+02  0.51100000000E-03 0.  1.
         12    1    3    3    0    0  0.14450871948E+01 -0.10704516711E+02 -0.40328831051E+02  0.41750324178E+02  0.00000000000E+00 0. -1.
</event>
<event>
 7    1  0.1749439E-013  0.7246155E+02  0.7816164E-02  0.1226708E+00
        -11   -1    0    0    0    0  0.00000000000E+00  0.00000000000E+00  0.45593999997E+02  0.45594000000E+02  0.51100000000E-03 0. -1.
         11   -1    0    0    0    0 -0.00000000000E+00 -0.00000000000E+00 -0.45593999997E+02  0.45594000000E+02  0.51100000000E-03 0.  1.
    9900012    2    1    2    0    0  0.11746370883E+01  0.16847291090E+02  0.80912909821E+01  0.72461548678E+02  0.69999971841E+02 0.  0.
        -12    1    1    2    0    0 -0.11746370883E+01 -0.16847291090E+02 -0.80912909821E+01  0.18726451322E+02  0.00000000000E+00 0.  1.
         11    1    3    3    0    0  0.15232354544E+02  0.14823090428E+01  0.80298024018E+01  0.17282927759E+02  0.51100000000E-03 0. -1.
        -11    1    3    3    0    0  0.11657515445E+02  0.73686110702E+01  0.18107621121E+02  0.22761371628E+02  0.51100000000E-03 0.  1.
         12    1    3    3    0    0 -0.25715232901E+02  0.79963709767E+01 -0.18046132541E+02  0.32417249291E+02  0.00000000000E+00 0. -1.
</event>
<event>
 7    1  0.1749439E-013  0.7246170E+02  0.7816164E-02  0.1226708E+00
        -11   -1    0    0    0    0  0.00000000000E+00  0.00000000000E+00  0.45593999997E+02  0.45594000000E+02  0.51100000000E-03 0. -1.
         11   -1    0    0    0    0 -0.00000000000E+00 -0.00000000000E+00 -0.45593999997E+02  0.45594000000E+02  0.51100000000E-03 0.  1.
    9900012    2    1    2    0    0 -0.11288432142E+02 -0.25624239708E+01  0.14720042857E+02  0.72461698216E+02  0.70000166641E+02 0.  0.
        -12    1    1    2    0    0  0.11288432142E+02  0.25624239708E+01 -0.14720042857E+02  0.18726301784E+02  0.00000000000E+00 0.  1.
         11    1    3    3    0    0 -0.64794571631E+01  0.25482803649E+02 -0.58028967298E+01  0.26926385901E+02  0.51100000000E-03 0. -1.
        -11    1    3    3    0    0 -0.81089519382E+01 -0.56623572209E+01 -0.52854269679E+01  0.11213970275E+02  0.51100000000E-03 0.  1.
         12    1    3    3    0    0  0.32999769596E+01 -0.22382870399E+02  0.25808366554E+02  0.34321342040E+02  0.00000000000E+00 0. -1.
</event>
<event>
 7    1  0.1749439E-013  0.7246154E+02  0.7816164E-02  0.1226708E+00
        -11   -1    0    0    0    0  0.00000000000E+00  0.00000000000E+00  0.45593999997E+02  0.45594000000E+02  0.51100000000E-03 0. -1.
         11   -1    0    0    0    0 -0.00000000000E+00 -0.00000000000E+00 -0.45593999997E+02  0.45594000000E+02  0.51100000000E-03 0.  1.
    9900012    2    1    2    0    0 -0.74713053332E-01  0.15479255171E+02  0.10538844485E+02  0.72461543694E+02  0.69999965348E+02 0.  0.
        -12    1    1    2    0    0  0.74713053332E-01 -0.15479255171E+02 -0.10538844485E+02  0.18726456306E+02  0.00000000000E+00 0.  1.
         11    1    3    3    0    0 -0.16751765896E+01 -0.31160947595E+01  0.62959819920E+01  0.72218870568E+01  0.51100000000E-03 0. -1.
        -11    1    3    3    0    0  0.93424174471E+01 -0.20356386293E+02  0.11003311643E+02  0.24954680804E+02  0.51100000000E-03 0.  1.
         12    1    3    3    0    0 -0.77419539108E+01  0.38951736224E+02 -0.67604491494E+01  0.40284975833E+02  0.00000000000E+00 0. -1.
</event>
<event>
 7    1  0.1749439E-013  0.7246150E+02  0.7816164E-02  0.1226708E+00
        -11   -1    0    0    0    0  0.00000000000E+00  0.00000000000E+00  0.45593999997E+02  0.45594000000E+02  0.51100000000E-03 0. -1.
         11   -1    0    0    0    0 -0.00000000000E+00 -0.00000000000E+00 -0.45593999997E+02  0.45594000000E+02  0.51100000000E-03 0.  1.
    9900012    2    1    2    0    0  0.11146884952E+02  0.48124341041E+01  0.14257252787E+02  0.72461499442E+02  0.69999907701E+02 0.  0.
        -12    1    1    2    0    0 -0.11146884952E+02 -0.48124341041E+01 -0.14257252787E+02  0.18726500558E+02  0.00000000000E+00 0.  1.
         11    1    3    3    0    0 -0.54065552712E+01  0.27980833777E+01  0.56245930839E+00  0.61136299547E+01  0.51100000000E-03 0. -1.
        -11    1    3    3    0    0  0.77911333524E+01  0.20681175290E+02 -0.18022089482E+02  0.28516810478E+02  0.51100000000E-03 0.  1.
         12    1    3    3    0    0  0.87623068703E+01 -0.18666824564E+02  0.31716882961E+02  0.37831059009E+02  0.00000000000E+00 0. -1.
</event>
<event>
 7    1  0.1749439E-013  0.7246146E+02  0.7816164E-02  0.1226708E+00
        -11   -1    0    0    0    0  0.00000000000E+00  0.00000000000E+00  0.45593999997E+02  0.45594000000E+02  0.51100000000E-03 0. -1.
         11   -1    0    0    0    0 -0.00000000000E+00 -0.00000000000E+00 -0.45593999997E+02  0.45594000000E+02  0.51100000000E-03 0.  1.
    9900012    2    1    2    0    0 -0.90673621869E+01  0.16557530852E+01  0.16301070772E+02  0.72461455107E+02  0.69999849947E+02 0.  0.
        -12    1    1    2    0    0  0.90673621869E+01 -0.16557530852E+01 -0.16301070772E+02  0.18726544893E+02  0.00000000000E+00 0.  1.
         11    1    3    3    0    0  0.46091586891E+01 -0.20800112669E+00 -0.32606637430E+01  0.56497377458E+01  0.51100000000E-03 0. -1.
        -11    1    3    3    0    0 -0.13642671039E+02 -0.29220769918E+02  0.55817002640E+01  0.32728141496E+02  0.51100000000E-03 0.  1.
         12    1    3    3    0    0 -0.33849837240E-01  0.31084524130E+02  0.13980034251E+02  0.34083575866E+02  0.00000000000E+00 0. -1.
</event>
<event>
 7    1  0.1749439E-013  0.7246157E+02  0.7816164E-02  0.1226708E+00
        -11   -1    0    0    0    0  0.00000000000E+00  0.00000000000E+00  0.45593999997E+02  0.45594000000E+02  0.51100000000E-03 0. -1.
         11   -1    0    0    0    0 -0.00000000000E+00 -0.00000000000E+00 -0.45593999997E+02  0.45594000000E+02  0.51100000000E-03 0.  1.
    9900012    2    1    2    0    0 -0.18722652947E+02 -0.35143991845E-01 -0.37464778645E+00  0.72461566024E+02  0.69999994438E+02 0.  0.
        -12    1    1    2    0    0  0.18722652947E+02  0.35143991845E-01  0.37464778645E+00  0.18726433976E+02  0.00000000000E+00 0.  1.
         11    1    3    3    0    0  0.11627922309E+02  0.12929143936E+02  0.62268436799E+00  0.17399973455E+02  0.51100000000E-03 0.  1.
        -11    1    3    3    0    0 -0.14470500031E+02  0.92729668255E+01  0.15498867934E+02  0.23142994456E+02  0.51100000000E-03 0. -1.
        -12    1    3    3    0    0 -0.15880075225E+02 -0.22237254754E+02 -0.16496200089E+02  0.31918598113E+02  0.00000000000E+00 0.  1.
</event>
<event>
 7    1  0.1749439E-013  0.7246177E+02  0.7816164E-02  0.1226707E+00
        -11   -1    0    0    0    0  0.00000000000E+00  0.00000000000E+00  0.45593999997E+02  0.45594000000E+02  0.51100000000E-03 0. -1.
         11   -1    0    0    0    0 -0.00000000000E+00 -0.00000000000E+00 -0.45593999997E+02  0.45594000000E+02  0.51100000000E-03 0.  1.
    9900012    2    1    2    0    0  0.16652476764E+02  0.82586867663E+01  0.22717097718E+01  0.72461773611E+02  0.70000264858E+02 0.  0.
        -12    1    1    2    0    0 -0.16652476764E+02 -0.82586867663E+01 -0.22717097718E+01  0.18726226389E+02  0.00000000000E+00 0.  1.
         11    1    3    3    0    0  0.30596015652E+02 -0.77457321227E+01  0.61629301891E+01  0.32157335845E+02  0.51100000000E-03 0. -1.
        -11    1    3    3    0    0  0.84130512352E+01 -0.13690251665E+01 -0.80054073833E+01  0.11693596907E+02  0.51100000000E-03 0.  1.
        -12    1    3    3    0    0 -0.22356590123E+02  0.17373444055E+02  0.41141869660E+01  0.28610840859E+02  0.00000000000E+00 0.  1.
</event>
<event>
 7    1  0.1749439E-013  0.7246141E+02  0.7816164E-02  0.1226708E+00
        -11   -1    0    0    0    0  0.00000000000E+00  0.00000000000E+00  0.45593999997E+02  0.45594000000E+02  0.51100000000E-03 0.  1.
         11   -1    0    0    0    0 -0.00000000000E+00 -0.00000000000E+00 -0.45593999997E+02  0.45594000000E+02  0.51100000000E-03 0. -1.
    9900012    2    1    2    0    0  0.15317281484E+02  0.49061316033E+00  0.10762220309E+02  0.72461409298E+02  0.69999790272E+02 0.  0.
        -12    1    1    2    0    0 -0.15317281484E+02 -0.49061316033E+00 -0.10762220309E+02  0.18726590702E+02  0.00000000000E+00 0.  1.
         11    1    3    3    0    0  0.13980398756E+02 -0.17360589519E+02  0.13347750770E+02  0.25980840415E+02  0.51100000000E-03 0. -1.
        -11    1    3    3    0    0  0.40613078854E+00 -0.60753839497E+00  0.18458331644E+02  0.18472792222E+02  0.51100000000E-03 0.  1.
         12    1    3    3    0    0  0.93075193926E+00  0.18458741074E+02 -0.21043862105E+02  0.28007776661E+02  0.00000000000E+00 0. -1.
</event>
<event>
 7    1  0.1749439E-013  0.7246157E+02  0.7816164E-02  0.1226708E+00
        -11   -1    0    0    0    0  0.00000000000E+00  0.00000000000E+00  0.45593999997E+02  0.45594000000E+02  0.51100000000E-03 0.  1.
         11   -1    0    0    0    0 -0.00000000000E+00 -0.00000000000E+00 -0.45593999997E+02  0.45594000000E+02  0.51100000000E-03 0. -1.
    9900012    2    1    2    0    0  0.17360332814E+02  0.68998837097E+01 -0.12997943675E+01  0.72461574393E+02  0.70000005339E+02 0.  0.
        -12    1    1    2    0    0 -0.17360332814E+02 -0.68998837097E+01  0.12997943675E+01  0.18726425607E+02  0.00000000000E+00 0.  1.
         11    1    3    3    0    0  0.10663952941E+02 -0.12894736318E+02 -0.30046483528E+01  0.17000647900E+02  0.51100000000E-03 0. -1.
        -11    1    3    3    0    0 -0.18999434909E+01 -0.15325948059E+02 -0.88438184684E+01  0.17796280357E+02  0.51100000000E-03 0.  1.
         12    1    3    3    0    0  0.85963233643E+01  0.35120568086E+02  0.10548672454E+02  0.37664646137E+02  0.00000000000E+00 0. -1.
</event>
<event>
 7    1  0.1749439E-013  0.7246157E+02  0.7816164E-02  0.1226708E+00
        -11   -1    0    0    0    0  0.00000000000E+00  0.00000000000E+00  0.45593999997E+02  0.45594000000E+02  0.51100000000E-03 0.  1.
         11   -1    0    0    0    0 -0.00000000000E+00 -0.00000000000E+00 -0.45593999997E+02  0.45594000000E+02  0.51100000000E-03 0. -1.
    9900012    2    1    2    0    0 -0.27612638184E+01  0.15699702246E+02 -0.98272108206E+01  0.72461566783E+02  0.69999995426E+02 0.  0.
        -12    1    1    2    0    0  0.27612638184E+01 -0.15699702246E+02  0.98272108206E+01  0.18726433217E+02  0.00000000000E+00 0.  1.
         11    1    3    3    0    0  0.14929078089E+02 -0.54180795197E+01 -0.24185331635E+02  0.28933773083E+02  0.51100000000E-03 0. -1.
        -11    1    3    3    0    0 -0.15341406279E+02 -0.38828082076E+01  0.74067354262E+01  0.17472683713E+02  0.51100000000E-03 0.  1.
        -12    1    3    3    0    0 -0.23489356284E+01  0.25000589974E+02  0.69513853886E+01  0.26055109987E+02  0.00000000000E+00 0.  1.
</event>
<event>
 7    1  0.1749439E-013  0.7246164E+02  0.7816164E-02  0.1226708E+00
        -11   -1    0    0    0    0  0.00000000000E+00  0.00000000000E+00  0.45593999997E+02  0.45594000000E+02  0.51100000000E-03 0.  1.
         11   -1    0    0    0    0 -0.00000000000E+00 -0.00000000000E+00 -0.45593999997E+02  0.45594000000E+02  0.51100000000E-03 0. -1.
    9900012    2    1    2    0    0  0.94157244748E+01 -0.12178508124E+02 -0.10663231149E+02  0.72461643546E+02  0.70000095423E+02 0.  0.
        -12    1    1    2    0    0 -0.94157244748E+01  0.12178508124E+02  0.10663231149E+02  0.18726356454E+02  0.00000000000E+00 0.  1.
         11    1    3    3    0    0  0.30672771139E+02  0.18840512965E+01  0.17267425693E+01  0.30779054222E+02  0.51100000000E-03 0. -1.
        -11    1    3    3    0    0  0.26934019344E+01 -0.32056505511E+01  0.75823308701E+01  0.86615443843E+01  0.51100000000E-03 0.  1.
        -12    1    3    3    0    0 -0.23950448599E+02 -0.10856908870E+02 -0.19972304588E+02  0.33021044939E+02  0.00000000000E+00 0.  1.
</event>
<event>
 7    1  0.1749439E-013  0.7246159E+02  0.7816164E-02  0.1226708E+00
        -11   -1    0    0    0    0  0.00000000000E+00  0.00000000000E+00  0.45593999997E+02  0.45594000000E+02  0.51100000000E-03 0.  1.
         11   -1    0    0    0    0 -0.00000000000E+00 -0.00000000000E+00 -0.45593999997E+02  0.45594000000E+02  0.51100000000E-03 0. -1.
    9900012    2    1    2    0    0 -0.17914252480E+02 -0.54357566012E+01 -0.45865868974E+00  0.72461594591E+02  0.70000031651E+02 0.  0.
        -12    1    1    2    0    0  0.17914252480E+02  0.54357566012E+01  0.45865868974E+00  0.18726405409E+02  0.00000000000E+00 0.  1.
         11    1    3    3    0    0  0.31001303322E+01  0.53652656259E+01 -0.36805418586E+01  0.72071680948E+01  0.51100000000E-03 0. -1.
        -11    1    3    3    0    0  0.17797395112E+02 -0.65877410328E+01  0.15313001418E+02  0.24385110567E+02  0.51100000000E-03 0.  1.
         12    1    3    3    0    0 -0.38811777924E+02 -0.42132811943E+01 -0.12091118249E+02  0.40869315929E+02  0.00000000000E+00 0. -1.
</event>
<event>
 7    1  0.1749439E-013  0.7246149E+02  0.7816164E-02  0.1226708E+00
        -11   -1    0    0    0    0  0.00000000000E+00  0.00000000000E+00  0.45593999997E+02  0.45594000000E+02  0.51100000000E-03 0.  1.
         11   -1    0    0    0    0 -0.00000000000E+00 -0.00000000000E+00 -0.45593999997E+02  0.45594000000E+02  0.51100000000E-03 0. -1.
    9900012    2    1    2    0    0 -0.43049839112E+01  0.49161993007E+01 -0.17549366744E+02  0.72461490044E+02  0.69999895458E+02 0.  0.
        -12    1    1    2    0    0  0.43049839112E+01 -0.49161993007E+01  0.17549366744E+02  0.18726509956E+02  0.00000000000E+00 0.  1.
         11    1    3    3    0    0 -0.14738920186E+02  0.25815053768E+02  0.16236383802E+01  0.29770605824E+02  0.51100000000E-03 0. -1.
        -11    1    3    3    0    0 -0.46051053262E+01 -0.20438743401E+00  0.54816588112E+01  0.71622170361E+01  0.51100000000E-03 0.  1.
        -12    1    3    3    0    0  0.15039041601E+02 -0.20694467033E+02 -0.24654663935E+02  0.35528667183E+02  0.00000000000E+00 0.  1.
</event>
<event>
 7    1  0.1749439E-013  0.7246156E+02  0.7816164E-02  0.1226708E+00
        -11   -1    0    0    0    0  0.00000000000E+00  0.00000000000E+00  0.45593999997E+02  0.45594000000E+02  0.51100000000E-03 0.  1.
         11   -1    0    0    0    0 -0.00000000000E+00 -0.00000000000E+00 -0.45593999997E+02  0.45594000000E+02  0.51100000000E-03 0. -1.
    9900012    2    1    2    0    0  0.13111387368E+02 -0.10243786298E+02 -0.85927742732E+01  0.72461563976E+02  0.69999991769E+02 0.  0.
        -12    1    1    2    0    0 -0.13111387368E+02  0.10243786298E+02  0.85927742732E+01  0.18726436024E+02  0.00000000000E+00 0.  1.
         11    1    3    3    0    0 -0.41048115301E+01 -0.27761756848E+02 -0.12166503713E+00  0.28063845489E+02  0.51100000000E-03 0. -1.
        -11    1    3    3    0    0  0.26284346652E+02  0.30191375267E+01 -0.44277431810E+01  0.26825118458E+02  0.51100000000E-03 0.  1.
        -12    1    3    3    0    0 -0.90681477538E+01  0.14498833023E+02 -0.40433660552E+01  0.17572600029E+02  0.00000000000E+00 0.  1.
</event>
<event>
 7    1  0.1749439E-013  0.7246169E+02  0.7816164E-02  0.1226708E+00
        -11   -1    0    0    0    0  0.00000000000E+00  0.00000000000E+00  0.45593999997E+02  0.45594000000E+02  0.51100000000E-03 0.  1.
         11   -1    0    0    0    0 -0.00000000000E+00 -0.00000000000E+00 -0.45593999997E+02  0.45594000000E+02  0.51100000000E-03 0. -1.
    9900012    2    1    2    0    0  0.79521366418E+01 -0.14570586035E+02 -0.86681223408E+01  0.72461686975E+02  0.70000151999E+02 0.  0.
        -12    1    1    2    0    0 -0.79521366418E+01  0.14570586035E+02  0.86681223408E+01  0.18726313025E+02  0.00000000000E+00 0.  1.
         11    1    3    3    0    0  0.67251518105E+01  0.59776401104E+00 -0.79650353578E+01  0.10441588825E+02  0.51100000000E-03 0. -1.
        -11    1    3    3    0    0  0.18850752990E+02  0.16664855397E+02 -0.40325941947E+01  0.25481956556E+02  0.51100000000E-03 0.  1.
         12    1    3    3    0    0 -0.17623768159E+02 -0.31833205443E+02  0.33295072116E+01  0.36538141594E+02  0.00000000000E+00 0. -1.
</event>
<event>
 7    1  0.1749439E-013  0.7246158E+02  0.7816164E-02  0.1226708E+00
        -11   -1    0    0    0    0  0.00000000000E+00  0.00000000000E+00  0.45593999997E+02  0.45594000000E+02  0.51100000000E-03 0.  1.
         11   -1    0    0    0    0 -0.00000000000E+00 -0.00000000000E+00 -0.45593999997E+02  0.45594000000E+02  0.51100000000E-03 0. -1.
    9900012    2    1    2    0    0 -0.16649740337E+02 -0.51175933818E+00  0.85558849425E+01  0.72461577008E+02  0.70000008746E+02 0.  0.
        -12    1    1    2    0    0  0.16649740337E+02  0.51175933818E+00 -0.85558849425E+01  0.18726422992E+02  0.00000000000E+00 0.  1.
         11    1    3    3    0    0 -0.20657966844E+02 -0.13141665460E+02 -0.15225259767E+02  0.28831640613E+02  0.51100000000E-03 0.  1.
        -11    1    3    3    0    0  0.63194100051E+01  0.31337195432E+01 -0.78321959292E+01  0.10540324204E+02  0.51100000000E-03 0. -1.
        -12    1    3    3    0    0 -0.23111834980E+01  0.94961865787E+01  0.31613340638E+02  0.33089612192E+02  0.00000000000E+00 0.  1.
</event>
<event>
 7    1  0.1749439E-013  0.7246153E+02  0.7816164E-02  0.1226708E+00
        -11   -1    0    0    0    0  0.00000000000E+00  0.00000000000E+00  0.45593999997E+02  0.45594000000E+02  0.51100000000E-03 0.  1.
         11   -1    0    0    0    0 -0.00000000000E+00 -0.00000000000E+00 -0.45593999997E+02  0.45594000000E+02  0.51100000000E-03 0. -1.
    9900012    2    1    2    0    0 -0.15417518825E+02 -0.20895112021E+01 -0.10421839382E+02  0.72461529967E+02  0.69999947466E+02 0.  0.
        -12    1    1    2    0    0  0.15417518825E+02  0.20895112021E+01  0.10421839382E+02  0.18726470033E+02  0.00000000000E+00 0.  1.
         11    1    3    3    0    0  0.27838530291E+01  0.60984933494E+01  0.46140627118E+01  0.81382451296E+01  0.51100000000E-03 0. -1.
        -11    1    3    3    0    0  0.21499048800E+02 -0.57527561135E+01 -0.14913312121E+01  0.22305321590E+02  0.51100000000E-03 0.  1.
         12    1    3    3    0    0 -0.39700420654E+02 -0.24352484380E+01 -0.13544570882E+02  0.42017963247E+02  0.00000000000E+00 0. -1.
</event>
<event>
 7    1  0.1749439E-013  0.7246162E+02  0.7816164E-02  0.1226708E+00
        -11   -1    0    0    0    0  0.00000000000E+00  0.00000000000E+00  0.45593999997E+02  0.45594000000E+02  0.51100000000E-03 0.  1.
         11   -1    0    0    0    0 -0.00000000000E+00 -0.00000000000E+00 -0.45593999997E+02  0.45594000000E+02  0.51100000000E-03 0. -1.
    9900012    2    1    2    0    0  0.22848057470E+01 -0.47169399755E+01 -0.17977972592E+02  0.72461618648E+02  0.70000062990E+02 0.  0.
        -12    1    1    2    0    0 -0.22848057470E+01  0.47169399755E+01  0.17977972592E+02  0.18726381352E+02  0.00000000000E+00 0.  1.
         11    1    3    3    0    0 -0.30284549760E+02 -0.65799598847E+01 -0.46664200105E+01  0.31340473867E+02  0.51100000000E-03 0. -1.
        -11    1    3    3    0    0 -0.22497927151E+01 -0.28925483772E+01 -0.41857734920E+00  0.36883072857E+01  0.51100000000E-03 0.  1.
        -12    1    3    3    0    0  0.34819148222E+02  0.47555682864E+01 -0.12892975232E+02  0.37432837495E+02  0.00000000000E+00 0.  1.
</event>
<event>
 7    1  0.1749439E-013  0.7246161E+02  0.7816164E-02  0.1226708E+00
        -11   -1    0    0    0    0  0.00000000000E+00  0.00000000000E+00  0.45593999997E+02  0.45594000000E+02  0.51100000000E-03 0.  1.
         11   -1    0    0    0    0 -0.00000000000E+00 -0.00000000000E+00 -0.45593999997E+02  0.45594000000E+02  0.51100000000E-03 0. -1.
    9900012    2    1    2    0    0 -0.17702909811E+02  0.49404180905E+01 -0.35884429823E+01  0.72461610340E+02  0.70000052167E+02 0.  0.
        -12    1    1    2    0    0  0.17702909811E+02 -0.49404180905E+01  0.35884429823E+01  0.18726389660E+02  0.00000000000E+00 0.  1.
         11    1    3    3    0    0 -0.14974534312E+02  0.11706765044E+02 -0.17641867788E+02  0.25933000693E+02  0.51100000000E-03 0. -1.
        -11    1    3    3    0    0  0.12193726343E+02  0.14116580740E+02  0.68326902680E+01  0.19865811599E+02  0.51100000000E-03 0.  1.
         12    1    3    3    0    0 -0.14922101842E+02 -0.20882927694E+02  0.72207345376E+01  0.26662798047E+02  0.00000000000E+00 0. -1.
</event>
<event>
 7    1  0.1749439E-013  0.7246156E+02  0.7816164E-02  0.1226708E+00
        -11   -1    0    0    0    0  0.00000000000E+00  0.00000000000E+00  0.45593999997E+02  0.45594000000E+02  0.51100000000E-03 0. -1.
         11   -1    0    0    0    0 -0.00000000000E+00 -0.00000000000E+00 -0.45593999997E+02  0.45594000000E+02  0.51100000000E-03 0.  1.
    9900012    2    1    2    0    0 -0.18609479456E+02  0.11464631724E+01 -0.17470928786E+01  0.72461563153E+02  0.69999990698E+02 0.  0.
        -12    1    1    2    0    0  0.18609479456E+02 -0.11464631724E+01  0.17470928786E+01  0.18726436847E+02  0.00000000000E+00 0.  1.
         11    1    3    3    0    0  0.13170795802E+02  0.68361651971E+01 -0.43710198648E+01  0.15469609937E+02  0.51100000000E-03 0. -1.
        -11    1    3    3    0    0  0.52960848013E+01 -0.64914965169E+01 -0.14028503743E+02  0.16339735579E+02  0.51100000000E-03 0.  1.
         12    1    3    3    0    0 -0.37076360060E+02  0.80179449223E+00  0.16652430729E+02  0.40652217638E+02  0.00000000000E+00 0. -1.
</event>
<event>
 7    1  0.1749439E-013  0.7246157E+02  0.7816164E-02  0.1226708E+00
        -11   -1    0    0    0    0  0.00000000000E+00  0.00000000000E+00  0.45593999997E+02  0.45594000000E+02  0.51100000000E-03 0.  1.
         11   -1    0    0    0    0 -0.00000000000E+00 -0.00000000000E+00 -0.45593999997E+02  0.45594000000E+02  0.51100000000E-03 0. -1.
    9900012    2    1    2    0    0 -0.60583365195E+01 -0.11827157936E+02 -0.13194469016E+02  0.72461571647E+02  0.70000001763E+02 0.  0.
        -12    1    1    2    0    0  0.60583365195E+01  0.11827157936E+02  0.13194469016E+02  0.18726428353E+02  0.00000000000E+00 0.  1.
         11    1    3    3    0    0 -0.63746053486E+01 -0.51920752216E+01  0.70929527832E+01  0.10858324820E+02  0.51100000000E-03 0. -1.
        -11    1    3    3    0    0 -0.15539908968E+02 -0.21259179363E+02 -0.28240808989E+02  0.38613271948E+02  0.51100000000E-03 0.  1.
         12    1    3    3    0    0  0.15856177797E+02  0.14624096649E+02  0.79533871896E+01  0.22989974879E+02  0.00000000000E+00 0. -1.
</event>
<event>
 7    1  0.1749439E-013  0.7246156E+02  0.7816164E-02  0.1226708E+00
        -11   -1    0    0    0    0  0.00000000000E+00  0.00000000000E+00  0.45593999997E+02  0.45594000000E+02  0.51100000000E-03 0.  1.
         11   -1    0    0    0    0 -0.00000000000E+00 -0.00000000000E+00 -0.45593999997E+02  0.45594000000E+02  0.51100000000E-03 0. -1.
    9900012    2    1    2    0    0 -0.21012709981E+01 -0.17409215456E+02 -0.65714050387E+01  0.72461561823E+02  0.69999988965E+02 0.  0.
        -12    1    1    2    0    0  0.21012709981E+01  0.17409215456E+02  0.65714050387E+01  0.18726438177E+02  0.00000000000E+00 0.  1.
         11    1    3    3    0    0  0.25151541425E+01 -0.16472315536E+01 -0.70142191534E+01  0.76314246864E+01  0.51100000000E-03 0. -1.
        -11    1    3    3    0    0  0.17304214521E+02 -0.17439594878E+02 -0.22313761982E+02  0.33188541453E+02  0.51100000000E-03 0.  1.
         12    1    3    3    0    0 -0.21920639662E+02  0.16776109751E+01  0.22756576097E+02  0.31641595684E+02  0.00000000000E+00 0. -1.
</event>
<event>
 7    1  0.1749439E-013  0.7246162E+02  0.7816164E-02  0.1226708E+00
        -11   -1    0    0    0    0  0.00000000000E+00  0.00000000000E+00  0.45593999997E+02  0.45594000000E+02  0.51100000000E-03 0. -1.
         11   -1    0    0    0    0 -0.00000000000E+00 -0.00000000000E+00 -0.45593999997E+02  0.45594000000E+02  0.51100000000E-03 0.  1.
    9900012    2    1    2    0    0  0.11344718363E+02  0.64930176136E+01  0.13409522183E+02  0.72461622944E+02  0.70000068586E+02 0.  0.
        -12    1    1    2    0    0 -0.11344718363E+02 -0.64930176136E+01 -0.13409522183E+02  0.18726377056E+02  0.00000000000E+00 0.  1.
         11    1    3    3    0    0  0.30857148899E+02 -0.12062073431E+02 -0.21807356428E+01  0.33202603239E+02  0.51100000000E-03 0. -1.
        -11    1    3    3    0    0 -0.52501265709E+01  0.13166321043E+02 -0.37208685712E+01  0.14654716033E+02  0.51100000000E-03 0.  1.
        -12    1    3    3    0    0 -0.14262303965E+02  0.53887700019E+01  0.19311126397E+02  0.24604303673E+02  0.00000000000E+00 0.  1.
</event>
<event>
 7    1  0.1749439E-013  0.7246145E+02  0.7816164E-02  0.1226708E+00
        -11   -1    0    0    0    0  0.00000000000E+00  0.00000000000E+00  0.45593999997E+02  0.45594000000E+02  0.51100000000E-03 0.  1.
         11   -1    0    0    0    0 -0.00000000000E+00 -0.00000000000E+00 -0.45593999997E+02  0.45594000000E+02  0.51100000000E-03 0. -1.
    9900012    2    1    2    0    0  0.51399893607E+01  0.46697814686E+01 -0.17391296194E+02  0.72461453792E+02  0.69999848234E+02 0.  0.
        -12    1    1    2    0    0 -0.51399893607E+01 -0.46697814686E+01  0.17391296194E+02  0.18726546208E+02  0.00000000000E+00 0.  1.
         11    1    3    3    0    0 -0.14075678865E+02 -0.22853724093E+02 -0.39888362121E+01  0.27135369078E+02  0.51100000000E-03 0. -1.
        -11    1    3    3    0    0 -0.64888037453E+01  0.83429232394E+01 -0.75694503479E-02  0.10569247834E+02  0.51100000000E-03 0.  1.
         12    1    3    3    0    0  0.25704471971E+02  0.19180582322E+02 -0.13394890531E+02  0.34756836880E+02  0.00000000000E+00 0. -1.
</event>
<event>
 7    1  0.1749439E-013  0.7246157E+02  0.7816164E-02  0.1226708E+00
        -11   -1    0    0    0    0  0.00000000000E+00  0.00000000000E+00  0.45593999997E+02  0.45594000000E+02  0.51100000000E-03 0.  1.
         11   -1    0    0    0    0 -0.00000000000E+00 -0.00000000000E+00 -0.45593999997E+02  0.45594000000E+02  0.51100000000E-03 0. -1.
    9900012    2    1    2    0    0  0.59881335598E+01 -0.80930934952E+00 -0.17724740343E+02  0.72461570939E+02  0.70000000840E+02 0.  0.
        -12    1    1    2    0    0 -0.59881335598E+01  0.80930934952E+00  0.17724740343E+02  0.18726429061E+02  0.00000000000E+00 0.  1.
         11    1    3    3    0    0 -0.20713500685E+02  0.68650135035E+01  0.72317375177E+01  0.22988596060E+02  0.51100000000E-03 0. -1.
        -11    1    3    3    0    0 -0.50349553242E+01  0.37240909884E+01  0.16987169868E+01  0.64888572545E+01  0.51100000000E-03 0.  1.
         12    1    3    3    0    0  0.31736589569E+02 -0.11398413841E+02 -0.26655194847E+02  0.42984117624E+02  0.00000000000E+00 0. -1.
</event>
<event>
 7    1  0.1749439E-013  0.7246157E+02  0.7816164E-02  0.1226708E+00
        -11   -1    0    0    0    0  0.00000000000E+00  0.00000000000E+00  0.45593999997E+02  0.45594000000E+02  0.51100000000E-03 0.  1.
         11   -1    0    0    0    0 -0.00000000000E+00 -0.00000000000E+00 -0.45593999997E+02  0.45594000000E+02  0.51100000000E-03 0. -1.
    9900012    2    1    2    0    0 -0.12081369482E+02  0.10484597496E+02 -0.97361586970E+01  0.72461573235E+02  0.70000003831E+02 0.  0.
        -12    1    1    2    0    0  0.12081369482E+02 -0.10484597496E+02  0.97361586970E+01  0.18726426765E+02  0.00000000000E+00 0.  1.
         11    1    3    3    0    0  0.73748193575E+00  0.42564785097E+01 -0.26910325401E+02  0.27254854657E+02  0.51100000000E-03 0.  1.
        -11    1    3    3    0    0  0.12263473646E+02  0.71628872059E+01  0.13938495205E+02  0.19899281089E+02  0.51100000000E-03 0. -1.
         12    1    3    3    0    0 -0.25082325064E+02 -0.93476821939E+00  0.32356714990E+01  0.25307437489E+02  0.00000000000E+00 0. -1.
</event>
<event>
 7    1  0.1749439E-013  0.7246159E+02  0.7816164E-02  0.1226708E+00
        -11   -1    0    0    0    0  0.00000000000E+00  0.00000000000E+00  0.45593999997E+02  0.45594000000E+02  0.51100000000E-03 0.  1.
         11   -1    0    0    0    0 -0.00000000000E+00 -0.00000000000E+00 -0.45593999997E+02  0.45594000000E+02  0.51100000000E-03 0. -1.
    9900012    2    1    2    0    0 -0.11169966402E+01  0.10944834891E+02 -0.15153923341E+02  0.72461588574E+02  0.70000023812E+02 0.  0.
        -12    1    1    2    0    0  0.11169966402E+01 -0.10944834891E+02  0.15153923341E+02  0.18726411426E+02  0.00000000000E+00 0.  1.
         11    1    3    3    0    0  0.58994248689E+00  0.69640109722E+01  0.39710276381E+01  0.80383170951E+01  0.51100000000E-03 0. -1.
        -11    1    3    3    0    0  0.18294346417E+02 -0.21922452144E+02 -0.11748626577E+02  0.30875674010E+02  0.51100000000E-03 0.  1.
         12    1    3    3    0    0 -0.20001285545E+02  0.25903276063E+02 -0.73763244024E+01  0.33547597469E+02  0.00000000000E+00 0. -1.
</event>
<event>
 7    1  0.1749439E-013  0.7246159E+02  0.7816164E-02  0.1226708E+00
        -11   -1    0    0    0    0  0.00000000000E+00  0.00000000000E+00  0.45593999997E+02  0.45594000000E+02  0.51100000000E-03 0.  1.
         11   -1    0    0    0    0 -0.00000000000E+00 -0.00000000000E+00 -0.45593999997E+02  0.45594000000E+02  0.51100000000E-03 0. -1.
    9900012    2    1    2    0    0 -0.17513021352E+02  0.81855456558E+00  0.65804666224E+01  0.72461588453E+02  0.70000023656E+02 0.  0.
        -12    1    1    2    0    0  0.17513021352E+02 -0.81855456558E+00 -0.65804666224E+01  0.18726411547E+02  0.00000000000E+00 0.  1.
         11    1    3    3    0    0 -0.30704043415E+02  0.24357160279E+02  0.23569546105E+01  0.39262765748E+02  0.51100000000E-03 0. -1.
        -11    1    3    3    0    0  0.91251954292E+00 -0.56050030124E+01 -0.67749804929E+01  0.88401986191E+01  0.51100000000E-03 0.  1.
        -12    1    3    3    0    0  0.12278502521E+02 -0.17933602701E+02  0.10998492505E+02  0.24358624086E+02  0.00000000000E+00 0.  1.
</event>
<event>
 7    1  0.1749439E-013  0.7246157E+02  0.7816164E-02  0.1226708E+00
        -11   -1    0    0    0    0  0.00000000000E+00  0.00000000000E+00  0.45593999997E+02  0.45594000000E+02  0.51100000000E-03 0.  1.
         11   -1    0    0    0    0 -0.00000000000E+00 -0.00000000000E+00 -0.45593999997E+02  0.45594000000E+02  0.51100000000E-03 0. -1.
    9900012    2    1    2    0    0 -0.13100135609E+01 -0.16891738683E+02 -0.79769807527E+01  0.72461569662E+02  0.69999999177E+02 0.  0.
        -12    1    1    2    0    0  0.13100135609E+01  0.16891738683E+02  0.79769807527E+01  0.18726430338E+02  0.00000000000E+00 0.  1.
         11    1    3    3    0    0  0.33325352518E+01 -0.69466528085E+01 -0.14326590607E+02  0.16266928878E+02  0.51100000000E-03 0. -1.
        -11    1    3    3    0    0  0.69537905617E+01 -0.30777063730E+02  0.12393158207E+00  0.31553101501E+02  0.51100000000E-03 0.  1.
         12    1    3    3    0    0 -0.11596339374E+02  0.20831977856E+02  0.62256782724E+01  0.24641539283E+02  0.00000000000E+00 0. -1.
</event>
<event>
 7    1  0.1749439E-013  0.7246164E+02  0.7816164E-02  0.1226708E+00
        -11   -1    0    0    0    0  0.00000000000E+00  0.00000000000E+00  0.45593999997E+02  0.45594000000E+02  0.51100000000E-03 0.  1.
         11   -1    0    0    0    0 -0.00000000000E+00 -0.00000000000E+00 -0.45593999997E+02  0.45594000000E+02  0.51100000000E-03 0. -1.
    9900012    2    1    2    0    0 -0.91138513670E+01 -0.62734478072E+01 -0.15108209602E+02  0.72461643400E+02  0.70000095234E+02 0.  0.
        -12    1    1    2    0    0  0.91138513670E+01  0.62734478072E+01  0.15108209602E+02  0.18726356600E+02  0.00000000000E+00 0.  1.
         11    1    3    3    0    0  0.41108901546E+01 -0.18708466117E+01 -0.96337542993E+01  0.10639958039E+02  0.51100000000E-03 0. -1.
        -11    1    3    3    0    0 -0.60297007272E+01  0.25544148327E+02 -0.14158931292E+02  0.29821739389E+02  0.51100000000E-03 0.  1.
         12    1    3    3    0    0 -0.71950407943E+01 -0.29946749522E+02  0.86844759901E+01  0.31999945972E+02  0.00000000000E+00 0. -1.
</event>
<event>
 7    1  0.1749439E-013  0.7246159E+02  0.7816164E-02  0.1226708E+00
        -11   -1    0    0    0    0  0.00000000000E+00  0.00000000000E+00  0.45593999997E+02  0.45594000000E+02  0.51100000000E-03 0.  1.
         11   -1    0    0    0    0 -0.00000000000E+00 -0.00000000000E+00 -0.45593999997E+02  0.45594000000E+02  0.51100000000E-03 0. -1.
    9900012    2    1    2    0    0  0.13243899576E+01  0.12291649863E+02 -0.14065557260E+02  0.72461586405E+02  0.70000020987E+02 0.  0.
        -12    1    1    2    0    0 -0.13243899576E+01 -0.12291649863E+02  0.14065557260E+02  0.18726413595E+02  0.00000000000E+00 0.  1.
         11    1    3    3    0    0 -0.28516790807E+02  0.13194463941E+02 -0.11719192619E+02  0.33535663293E+02  0.51100000000E-03 0. -1.
        -11    1    3    3    0    0 -0.21955768225E+01  0.25952458399E+01  0.48329682590E+01  0.59087596843E+01  0.51100000000E-03 0.  1.
        -12    1    3    3    0    0  0.32036757587E+02 -0.34980599180E+01 -0.71793328995E+01  0.33017163427E+02  0.00000000000E+00 0.  1.
</event>
<event>
 7    1  0.1749439E-013  0.7246159E+02  0.7816164E-02  0.1226708E+00
        -11   -1    0    0    0    0  0.00000000000E+00  0.00000000000E+00  0.45593999997E+02  0.45594000000E+02  0.51100000000E-03 0.  1.
         11   -1    0    0    0    0 -0.00000000000E+00 -0.00000000000E+00 -0.45593999997E+02  0.45594000000E+02  0.51100000000E-03 0. -1.
    9900012    2    1    2    0    0  0.13513267543E+02  0.19131450639E+01 -0.12822246327E+02  0.72461587514E+02  0.70000022432E+02 0.  0.
        -12    1    1    2    0    0 -0.13513267543E+02 -0.19131450639E+01  0.12822246327E+02  0.18726412486E+02  0.00000000000E+00 0.  1.
         11    1    3    3    0    0  0.20945004724E+02  0.12056789206E+01 -0.22140121701E+02  0.30501342163E+02  0.51100000000E-03 0.  1.
        -11    1    3    3    0    0 -0.12096540374E+02 -0.12148286320E+02 -0.87919621927E+01  0.19266700522E+02  0.51100000000E-03 0. -1.
        -12    1    3    3    0    0  0.46648031927E+01  0.12855752463E+02  0.18109837566E+02  0.22693544829E+02  0.00000000000E+00 0.  1.
</event>
<event>
 7    1  0.1749439E-013  0.7246160E+02  0.7816164E-02  0.1226708E+00
        -11   -1    0    0    0    0  0.00000000000E+00  0.00000000000E+00  0.45593999997E+02  0.45594000000E+02  0.51100000000E-03 0. -1.
         11   -1    0    0    0    0 -0.00000000000E+00 -0.00000000000E+00 -0.45593999997E+02  0.45594000000E+02  0.51100000000E-03 0.  1.
    9900012    2    1    2    0    0  0.58782499553E+01 -0.17074424578E+02  0.49586697542E+01  0.72461596102E+02  0.70000033619E+02 0.  0.
        -12    1    1    2    0    0 -0.58782499553E+01  0.17074424578E+02 -0.49586697542E+01  0.18726403898E+02  0.00000000000E+00 0.  1.
         11    1    3    3    0    0 -0.24529521377E+02 -0.79825483733E+01  0.12153261025E+01  0.25824320229E+02  0.51100000000E-03 0. -1.
        -11    1    3    3    0    0  0.43518901543E+00  0.41875667027E+01 -0.10183197279E+02  0.11019192867E+02  0.51100000000E-03 0.  1.
        -12    1    3    3    0    0  0.29972582317E+02 -0.13279442908E+02  0.13926540931E+02  0.35618083005E+02  0.00000000000E+00 0.  1.
</event>
<event>
 7    1  0.1749439E-013  0.7246168E+02  0.7816164E-02  0.1226708E+00
        -11   -1    0    0    0    0  0.00000000000E+00  0.00000000000E+00  0.45593999997E+02  0.45594000000E+02  0.51100000000E-03 0.  1.
         11   -1    0    0    0    0 -0.00000000000E+00 -0.00000000000E+00 -0.45593999997E+02  0.45594000000E+02  0.51100000000E-03 0. -1.
    9900012    2    1    2    0    0  0.12911696573E+02  0.13173479917E+02  0.32284249290E+01  0.72461676041E+02  0.70000137754E+02 0.  0.
        -12    1    1    2    0    0 -0.12911696573E+02 -0.13173479917E+02 -0.32284249290E+01  0.18726323959E+02  0.00000000000E+00 0.  1.
         11    1    3    3    0    0  0.21537190568E+02  0.24078075035E+02 -0.18195604853E+02  0.37076735443E+02  0.51100000000E-03 0. -1.
        -11    1    3    3    0    0 -0.57870141456E+01 -0.69334441530E+01 -0.37230530476E+01  0.97684852869E+01  0.51100000000E-03 0.  1.
        -12    1    3    3    0    0 -0.28384798492E+01 -0.39711509649E+01  0.25147082829E+02  0.25616455310E+02  0.00000000000E+00 0.  1.
</event>
<event>
 7    1  0.1749439E-013  0.7246156E+02  0.7816164E-02  0.1226708E+00
        -11   -1    0    0    0    0  0.00000000000E+00  0.00000000000E+00  0.45593999997E+02  0.45594000000E+02  0.51100000000E-03 0. -1.
         11   -1    0    0    0    0 -0.00000000000E+00 -0.00000000000E+00 -0.45593999997E+02  0.45594000000E+02  0.51100000000E-03 0.  1.
    9900012    2    1    2    0    0  0.17702718738E+02 -0.98990303805E+00  0.60260460845E+01  0.72461564403E+02  0.69999992326E+02 0.  0.
        -12    1    1    2    0    0 -0.17702718738E+02  0.98990303805E+00 -0.60260460845E+01  0.18726435597E+02  0.00000000000E+00 0.  1.
         11    1    3    3    0    0  0.12384335414E+02  0.34290634748E+01  0.24835347271E+02  0.27962916770E+02  0.51100000000E-03 0. -1.
        -11    1    3    3    0    0  0.51698853291E+01  0.16789282350E+02 -0.25002528438E+01  0.17744266136E+02  0.51100000000E-03 0.  1.
        -12    1    3    3    0    0  0.14849799463E+00 -0.21208248863E+02 -0.16309048342E+02  0.26754381498E+02  0.00000000000E+00 0.  1.
</event>
<event>
 7    1  0.1749439E-013  0.7246151E+02  0.7816164E-02  0.1226708E+00
        -11   -1    0    0    0    0  0.00000000000E+00  0.00000000000E+00  0.45593999997E+02  0.45594000000E+02  0.51100000000E-03 0. -1.
         11   -1    0    0    0    0 -0.00000000000E+00 -0.00000000000E+00 -0.45593999997E+02  0.45594000000E+02  0.51100000000E-03 0.  1.
    9900012    2    1    2    0    0  0.12591282157E+02  0.61129041598E+01 -0.12440797556E+02  0.72461510007E+02  0.69999921465E+02 0.  0.
        -12    1    1    2    0    0 -0.12591282157E+02 -0.61129041598E+01  0.12440797556E+02  0.18726489993E+02  0.00000000000E+00 0.  1.
         11    1    3    3    0    0  0.22111692280E+01 -0.56678113224E+01  0.17942222266E+01  0.63429163798E+01  0.51100000000E-03 0. -1.
        -11    1    3    3    0    0 -0.43557959840E+01 -0.16321943798E+02 -0.27054172631E+02  0.31895251449E+02  0.51100000000E-03 0.  1.
         12    1    3    3    0    0  0.14735908913E+02  0.28102659280E+02  0.12819152849E+02  0.34223342178E+02  0.00000000000E+00 0. -1.
</event>
<event>
 7    1  0.1749439E-013  0.7246158E+02  0.7816164E-02  0.1226708E+00
        -11   -1    0    0    0    0  0.00000000000E+00  0.00000000000E+00  0.45593999997E+02  0.45594000000E+02  0.51100000000E-03 0.  1.
         11   -1    0    0    0    0 -0.00000000000E+00 -0.00000000000E+00 -0.45593999997E+02  0.45594000000E+02  0.51100000000E-03 0. -1.
    9900012    2    1    2    0    0 -0.68089927260E+01 -0.17264607151E+02 -0.24999339838E+01  0.72461582512E+02  0.70000015915E+02 0.  0.
        -12    1    1    2    0    0  0.68089927260E+01  0.17264607151E+02  0.24999339838E+01  0.18726417488E+02  0.00000000000E+00 0.  1.
         11    1    3    3    0    0  0.11905752263E+02 -0.13736561626E+02  0.60503485219E+01  0.19158464963E+02  0.51100000000E-03 0. -1.
        -11    1    3    3    0    0  0.84419301370E+01  0.28616335007E+01  0.14562825027E+02  0.17074279011E+02  0.51100000000E-03 0.  1.
        -12    1    3    3    0    0 -0.27156675126E+02 -0.63896790256E+01 -0.23113107532E+02  0.36228838537E+02  0.00000000000E+00 0.  1.
</event>
<event>
 7    1  0.1749439E-013  0.7246160E+02  0.7816164E-02  0.1226708E+00
        -11   -1    0    0    0    0  0.00000000000E+00  0.00000000000E+00  0.45593999997E+02  0.45594000000E+02  0.51100000000E-03 0.  1.
         11   -1    0    0    0    0 -0.00000000000E+00 -0.00000000000E+00 -0.45593999997E+02  0.45594000000E+02  0.51100000000E-03 0. -1.
    9900012    2    1    2    0    0  0.13857729952E+02  0.11894218471E+02  0.41435625425E+01  0.72461595566E+02  0.70000032922E+02 0.  0.
        -12    1    1    2    0    0 -0.13857729952E+02 -0.11894218471E+02 -0.41435625425E+01  0.18726404434E+02  0.00000000000E+00 0.  1.
         11    1    3    3    0    0  0.96239626935E+01  0.97799336145E+01 -0.26198381681E+02  0.29574025130E+02  0.51100000000E-03 0. -1.
        -11    1    3    3    0    0 -0.88956728770E+01 -0.84532523395E+01  0.70984644228E+01  0.14176694554E+02  0.51100000000E-03 0.  1.
        -12    1    3    3    0    0  0.13129440135E+02  0.10567537196E+02  0.23243479801E+02  0.28710875882E+02  0.00000000000E+00 0.  1.
</event>
<event>
 7    1  0.1749439E-013  0.7246157E+02  0.7816164E-02  0.1226708E+00
        -11   -1    0    0    0    0  0.00000000000E+00  0.00000000000E+00  0.45593999997E+02  0.45594000000E+02  0.51100000000E-03 0.  1.
         11   -1    0    0    0    0 -0.00000000000E+00 -0.00000000000E+00 -0.45593999997E+02  0.45594000000E+02  0.51100000000E-03 0. -1.
    9900012    2    1    2    0    0  0.15968150680E+02 -0.97729597046E+01 -0.43196191639E+00  0.72461570318E+02  0.70000000031E+02 0.  0.
        -12    1    1    2    0    0 -0.15968150680E+02  0.97729597046E+01  0.43196191639E+00  0.18726429682E+02  0.00000000000E+00 0.  1.
         11    1    3    3    0    0  0.12440134825E+02  0.90846664053E+01 -0.12275676503E+02  0.19697216860E+02  0.51100000000E-03 0. -1.
        -11    1    3    3    0    0  0.25508211473E+02 -0.93651984361E+01  0.34397394793E+01  0.27389917894E+02  0.51100000000E-03 0.  1.
         12    1    3    3    0    0 -0.21980195618E+02 -0.94924276738E+01  0.84039751078E+01  0.25374435564E+02  0.00000000000E+00 0. -1.
</event>
<event>
 7    1  0.1749439E-013  0.7246157E+02  0.7816164E-02  0.1226708E+00
        -11   -1    0    0    0    0  0.00000000000E+00  0.00000000000E+00  0.45593999997E+02  0.45594000000E+02  0.51100000000E-03 0.  1.
         11   -1    0    0    0    0 -0.00000000000E+00 -0.00000000000E+00 -0.45593999997E+02  0.45594000000E+02  0.51100000000E-03 0. -1.
    9900012    2    1    2    0    0  0.44189288847E+01 -0.16697813482E+02  0.72343124599E+01  0.72461569899E+02  0.69999999485E+02 0.  0.
        -12    1    1    2    0    0 -0.44189288847E+01  0.16697813482E+02 -0.72343124599E+01  0.18726430101E+02  0.00000000000E+00 0.  1.
         11    1    3    3    0    0  0.56468769218E+01 -0.11460066850E+02  0.46064068999E+01  0.13580844450E+02  0.51100000000E-03 0. -1.
        -11    1    3    3    0    0  0.85077537245E+01 -0.29352701642E+02 -0.66377375050E+01  0.31273351700E+02  0.51100000000E-03 0.  1.
         12    1    3    3    0    0 -0.97357017616E+01  0.24114955010E+02  0.92656430649E+01  0.27607373749E+02  0.00000000000E+00 0. -1.
</event>
<event>
 7    1  0.1749439E-013  0.7246155E+02  0.7816164E-02  0.1226708E+00
        -11   -1    0    0    0    0  0.00000000000E+00  0.00000000000E+00  0.45593999997E+02  0.45594000000E+02  0.51100000000E-03 0.  1.
         11   -1    0    0    0    0 -0.00000000000E+00 -0.00000000000E+00 -0.45593999997E+02  0.45594000000E+02  0.51100000000E-03 0. -1.
    9900012    2    1    2    0    0 -0.21543201842E+01 -0.16319488859E+02 -0.89282101328E+01  0.72461554842E+02  0.69999979870E+02 0.  0.
        -12    1    1    2    0    0  0.21543201842E+01  0.16319488859E+02  0.89282101328E+01  0.18726445158E+02  0.00000000000E+00 0.  1.
         11    1    3    3    0    0 -0.11865067380E+02 -0.96103108398E+01 -0.83496048028E+00  0.15291666281E+02  0.51100000000E-03 0. -1.
        -11    1    3    3    0    0  0.42027794341E+01  0.11201206455E+01  0.23633524283E+02  0.24030428534E+02  0.51100000000E-03 0.  1.
        -12    1    3    3    0    0  0.55079677621E+01 -0.78292986652E+01 -0.31726773936E+02  0.33139460026E+02  0.00000000000E+00 0.  1.
</event>
<event>
 7    1  0.1749439E-013  0.7246156E+02  0.7816164E-02  0.1226708E+00
        -11   -1    0    0    0    0  0.00000000000E+00  0.00000000000E+00  0.45593999997E+02  0.45594000000E+02  0.51100000000E-03 0. -1.
         11   -1    0    0    0    0 -0.00000000000E+00 -0.00000000000E+00 -0.45593999997E+02  0.45594000000E+02  0.51100000000E-03 0.  1.
    9900012    2    1    2    0    0  0.57195247576E+00  0.18717249081E+02  0.13029676330E+00  0.72461560935E+02  0.69999987808E+02 0.  0.
        -12    1    1    2    0    0 -0.57195247576E+00 -0.18717249081E+02 -0.13029676330E+00  0.18726439065E+02  0.00000000000E+00 0.  1.
         11    1    3    3    0    0  0.18954858236E+02  0.39994899477E+00  0.11164276804E+02  0.22001992790E+02  0.51100000000E-03 0. -1.
        -11    1    3    3    0    0  0.58909444721E+01  0.53207062394E+01  0.12117204052E+02  0.14485847436E+02  0.51100000000E-03 0.  1.
        -12    1    3    3    0    0 -0.24273850232E+02  0.12996593847E+02 -0.23151184092E+02  0.35973720708E+02  0.00000000000E+00 0.  1.
</event>
<event>
 7    1  0.1749439E-013  0.7246158E+02  0.7816164E-02  0.1226708E+00
        -11   -1    0    0    0    0  0.00000000000E+00  0.00000000000E+00  0.45593999997E+02  0.45594000000E+02  0.51100000000E-03 0. -1.
         11   -1    0    0    0    0 -0.00000000000E+00 -0.00000000000E+00 -0.45593999997E+02  0.45594000000E+02  0.51100000000E-03 0.  1.
    9900012    2    1    2    0    0 -0.11960677817E+02 -0.11208639207E+01  0.14365401699E+02  0.72461577070E+02  0.70000008826E+02 0.  0.
        -12    1    1    2    0    0  0.11960677817E+02  0.11208639207E+01 -0.14365401699E+02  0.18726422930E+02  0.00000000000E+00 0.  1.
         11    1    3    3    0    0 -0.20084538063E+02 -0.18048024977E+02  0.10857800135E+02  0.29103465409E+02  0.51100000000E-03 0. -1.
        -11    1    3    3    0    0 -0.46902310956E+01 -0.11272235344E+02  0.23412577553E+00  0.12211321490E+02  0.51100000000E-03 0.  1.
        -12    1    3    3    0    0  0.12814091342E+02  0.28199396400E+02  0.32734757892E+01  0.31146790172E+02  0.00000000000E+00 0.  1.
</event>
<event>
 7    1  0.1749439E-013  0.7246104E+02  0.7816164E-02  0.1226709E+00
        -11   -1    0    0    0    0  0.00000000000E+00  0.00000000000E+00  0.45593999997E+02  0.45594000000E+02  0.51100000000E-03 0.  1.
         11   -1    0    0    0    0 -0.00000000000E+00 -0.00000000000E+00 -0.45593999997E+02  0.45594000000E+02  0.51100000000E-03 0. -1.
    9900012    2    1    2    0    0  0.28591091323E+01  0.18496475605E+02 -0.63620866287E+00  0.72461044126E+02  0.69999314565E+02 0.  0.
        -12    1    1    2    0    0 -0.28591091323E+01 -0.18496475605E+02  0.63620866287E+00  0.18726955874E+02  0.00000000000E+00 0.  1.
         11    1    3    3    0    0 -0.88159605334E+01  0.91611630978E+01 -0.16738032848E+02  0.21019272426E+02  0.51100000000E-03 0. -1.
        -11    1    3    3    0    0 -0.12186759176E+02  0.19426893851E+02  0.69083382477E+01  0.23950917342E+02  0.51100000000E-03 0.  1.
        -12    1    3    3    0    0  0.23861828841E+02 -0.10091581344E+02  0.91934859373E+01  0.27490854358E+02  0.00000000000E+00 0.  1.
</event>
<event>
 7    1  0.1749439E-013  0.7246164E+02  0.7816164E-02  0.1226708E+00
        -11   -1    0    0    0    0  0.00000000000E+00  0.00000000000E+00  0.45593999997E+02  0.45594000000E+02  0.51100000000E-03 0.  1.
         11   -1    0    0    0    0 -0.00000000000E+00 -0.00000000000E+00 -0.45593999997E+02  0.45594000000E+02  0.51100000000E-03 0. -1.
    9900012    2    1    2    0    0  0.18238640228E+02  0.22598643950E+01 -0.35946761829E+01  0.72461636730E+02  0.70000086545E+02 0.  0.
        -12    1    1    2    0    0 -0.18238640228E+02 -0.22598643950E+01  0.35946761829E+01  0.18726363270E+02  0.00000000000E+00 0.  1.
         11    1    3    3    0    0 -0.97834026768E+01  0.36929407530E+01 -0.11673862287E+02  0.15672646244E+02  0.51100000000E-03 0. -1.
        -11    1    3    3    0    0  0.21336390053E+02  0.16104813943E+02 -0.12001371751E+02  0.29302551029E+02  0.51100000000E-03 0.  1.
        -12    1    3    3    0    0  0.66856528521E+01 -0.17537890301E+02  0.20080557855E+02  0.27486439457E+02  0.00000000000E+00 0.  1.
</event>
<event>
 7    1  0.1749439E-013  0.7246158E+02  0.7816164E-02  0.1226708E+00
        -11   -1    0    0    0    0  0.00000000000E+00  0.00000000000E+00  0.45593999997E+02  0.45594000000E+02  0.51100000000E-03 0.  1.
         11   -1    0    0    0    0 -0.00000000000E+00 -0.00000000000E+00 -0.45593999997E+02  0.45594000000E+02  0.51100000000E-03 0. -1.
    9900012    2    1    2    0    0  0.16083256070E+01 -0.29061242962E+01 -0.18429498464E+02  0.72461583276E+02  0.70000016911E+02 0.  0.
        -12    1    1    2    0    0 -0.16083256070E+01  0.29061242962E+01  0.18429498464E+02  0.18726416724E+02  0.00000000000E+00 0.  1.
         11    1    3    3    0    0  0.84801517859E+01 -0.39511984668E+01  0.13301210854E+02  0.16261831203E+02  0.51100000000E-03 0. -1.
        -11    1    3    3    0    0 -0.11104313870E+02  0.11516805075E+01  0.95567986884E+01  0.14695732576E+02  0.51100000000E-03 0.  1.
         12    1    3    3    0    0  0.42324876911E+01 -0.10660633690E+00 -0.41287508007E+02  0.41504019497E+02  0.00000000000E+00 0. -1.
</event>
<event>
 7    1  0.1749439E-013  0.7246159E+02  0.7816164E-02  0.1226708E+00
        -11   -1    0    0    0    0  0.00000000000E+00  0.00000000000E+00  0.45593999997E+02  0.45594000000E+02  0.51100000000E-03 0. -1.
         11   -1    0    0    0    0 -0.00000000000E+00 -0.00000000000E+00 -0.45593999997E+02  0.45594000000E+02  0.51100000000E-03 0.  1.
    9900012    2    1    2    0    0 -0.96004140481E+01  0.34384618732E+00  0.16074582214E+02  0.72461591550E+02  0.70000027689E+02 0.  0.
        -12    1    1    2    0    0  0.96004140481E+01 -0.34384618732E+00 -0.16074582214E+02  0.18726408450E+02  0.00000000000E+00 0.  1.
         11    1    3    3    0    0 -0.32017099102E+01 -0.14703044093E+02 -0.52670555456E+01  0.15942782892E+02  0.51100000000E-03 0. -1.
        -11    1    3    3    0    0 -0.71464505631E+01  0.18294529990E+02 -0.11996360853E+02  0.23014653097E+02  0.51100000000E-03 0.  1.
         12    1    3    3    0    0  0.74774642529E+00 -0.32476397102E+01  0.33337998612E+02  0.33504155561E+02  0.00000000000E+00 0. -1.
</event>
<event>
 7    1  0.1749439E-013  0.7246154E+02  0.7816164E-02  0.1226708E+00
        -11   -1    0    0    0    0  0.00000000000E+00  0.00000000000E+00  0.45593999997E+02  0.45594000000E+02  0.51100000000E-03 0.  1.
         11   -1    0    0    0    0 -0.00000000000E+00 -0.00000000000E+00 -0.45593999997E+02  0.45594000000E+02  0.51100000000E-03 0. -1.
    9900012    2    1    2    0    0  0.25813341180E+01  0.14934735992E+02 -0.10998661816E+02  0.72461543135E+02  0.69999964620E+02 0.  0.
        -12    1    1    2    0    0 -0.25813341180E+01 -0.14934735992E+02  0.10998661816E+02  0.18726456865E+02  0.00000000000E+00 0.  1.
         11    1    3    3    0    0  0.64997495180E+01  0.38469360655E+02  0.57974199299E+00  0.39018899959E+02  0.51100000000E-03 0. -1.
        -11    1    3    3    0    0  0.75330063858E+01 -0.10295138651E+02 -0.58124567123E+00  0.12770039618E+02  0.51100000000E-03 0.  1.
        -12    1    3    3    0    0 -0.11451421786E+02 -0.13239486012E+02 -0.10997158138E+02  0.20672603559E+02  0.00000000000E+00 0.  1.
</event>
<event>
 7    1  0.1749439E-013  0.7246136E+02  0.7816164E-02  0.1226709E+00
        -11   -1    0    0    0    0  0.00000000000E+00  0.00000000000E+00  0.45593999997E+02  0.45594000000E+02  0.51100000000E-03 0.  1.
         11   -1    0    0    0    0 -0.00000000000E+00 -0.00000000000E+00 -0.45593999997E+02  0.45594000000E+02  0.51100000000E-03 0. -1.
    9900012    2    1    2    0    0  0.10971326201E+02 -0.13080907599E+02 -0.76946011293E+01  0.72461360452E+02  0.69999726640E+02 0.  0.
        -12    1    1    2    0    0 -0.10971326201E+02  0.13080907599E+02  0.76946011293E+01  0.18726639548E+02  0.00000000000E+00 0.  1.
         11    1    3    3    0    0 -0.56922928726E+01  0.84218693721E+01  0.55702221405E+01  0.11591266403E+02  0.51100000000E-03 0. -1.
        -11    1    3    3    0    0  0.24035056725E+02 -0.18868107267E+02  0.13189829276E+02  0.33281541734E+02  0.51100000000E-03 0.  1.
         12    1    3    3    0    0 -0.73714376513E+01 -0.26346697042E+01 -0.26454652546E+02  0.27588552315E+02  0.00000000000E+00 0. -1.
</event>
<event>
 7    1  0.1749439E-013  0.7246157E+02  0.7816164E-02  0.1226708E+00
        -11   -1    0    0    0    0  0.00000000000E+00  0.00000000000E+00  0.45593999997E+02  0.45594000000E+02  0.51100000000E-03 0. -1.
         11   -1    0    0    0    0 -0.00000000000E+00 -0.00000000000E+00 -0.45593999997E+02  0.45594000000E+02  0.51100000000E-03 0.  1.
    9900012    2    1    2    0    0  0.11575031518E+02 -0.52246384819E+01  0.13762306604E+02  0.72461567212E+02  0.69999995984E+02 0.  0.
        -12    1    1    2    0    0 -0.11575031518E+02  0.52246384819E+01 -0.13762306604E+02  0.18726432788E+02  0.00000000000E+00 0.  1.
         11    1    3    3    0    0  0.67059052762E+01  0.24375748139E+02  0.18050429902E+02  0.31063874240E+02  0.51100000000E-03 0. -1.
        -11    1    3    3    0    0  0.78812763158E+00  0.38506612679E+01  0.50778275924E+01  0.64212982085E+01  0.51100000000E-03 0.  1.
        -12    1    3    3    0    0  0.40809986105E+01 -0.33451047889E+02 -0.93659508903E+01  0.34976394763E+02  0.00000000000E+00 0.  1.
</event>
<event>
 7    1  0.1749439E-013  0.7246157E+02  0.7816164E-02  0.1226708E+00
        -11   -1    0    0    0    0  0.00000000000E+00  0.00000000000E+00  0.45593999997E+02  0.45594000000E+02  0.51100000000E-03 0.  1.
         11   -1    0    0    0    0 -0.00000000000E+00 -0.00000000000E+00 -0.45593999997E+02  0.45594000000E+02  0.51100000000E-03 0. -1.
    9900012    2    1    2    0    0 -0.20918020125E+01 -0.15628389968E+02  0.10102331842E+02  0.72461566348E+02  0.69999994859E+02 0.  0.
        -12    1    1    2    0    0  0.20918020125E+01  0.15628389968E+02 -0.10102331842E+02  0.18726433652E+02  0.00000000000E+00 0.  1.
         11    1    3    3    0    0  0.84721447300E+00  0.34515073001E+01 -0.21024833171E+02  0.21323092767E+02  0.51100000000E-03 0. -1.
        -11    1    3    3    0    0 -0.11300199042E+02  0.22985202871E+01 -0.10864374300E+01  0.11582661199E+02  0.51100000000E-03 0.  1.
        -12    1    3    3    0    0  0.83611825561E+01 -0.21378417555E+02  0.32213602443E+02  0.39555812383E+02  0.00000000000E+00 0.  1.
</event>
<event>
 7    1  0.1749439E-013  0.7246153E+02  0.7816164E-02  0.1226708E+00
        -11   -1    0    0    0    0  0.00000000000E+00  0.00000000000E+00  0.45593999997E+02  0.45594000000E+02  0.51100000000E-03 0. -1.
         11   -1    0    0    0    0 -0.00000000000E+00 -0.00000000000E+00 -0.45593999997E+02  0.45594000000E+02  0.51100000000E-03 0.  1.
    9900012    2    1    2    0    0  0.13588313283E+02  0.27653045371E+01  0.12585369719E+02  0.72461529483E+02  0.69999946836E+02 0.  0.
        -12    1    1    2    0    0 -0.13588313283E+02 -0.27653045371E+01 -0.12585369719E+02  0.18726470517E+02  0.00000000000E+00 0.  1.
         11    1    3    3    0    0 -0.25699857584E+00  0.10663740165E+02  0.19908772392E+02  0.22586292768E+02  0.51100000000E-03 0. -1.
        -11    1    3    3    0    0  0.30976890381E+02 -0.27999716126E+01 -0.17502599418E+01  0.31152383357E+02  0.51100000000E-03 0.  1.
        -12    1    3    3    0    0 -0.17131578522E+02 -0.50984640158E+01 -0.55731427310E+01  0.18722853359E+02  0.00000000000E+00 0.  1.
</event>
<event>
 7    1  0.1749439E-013  0.7246196E+02  0.7816164E-02  0.1226707E+00
        -11   -1    0    0    0    0  0.00000000000E+00  0.00000000000E+00  0.45593999997E+02  0.45594000000E+02  0.51100000000E-03 0. -1.
         11   -1    0    0    0    0 -0.00000000000E+00 -0.00000000000E+00 -0.45593999997E+02  0.45594000000E+02  0.51100000000E-03 0.  1.
    9900012    2    1    2    0    0  0.12702848142E+02  0.35686881627E+01  0.13287845747E+02  0.72461955818E+02  0.70000502214E+02 0.  0.
        -12    1    1    2    0    0 -0.12702848142E+02 -0.35686881627E+01 -0.13287845747E+02  0.18726044182E+02  0.00000000000E+00 0.  1.
         11    1    3    3    0    0 -0.72851763857E+01  0.29303943676E+01  0.38095835812E+01  0.87277679532E+01  0.51100000000E-03 0. -1.
        -11    1    3    3    0    0  0.64269153961E+01  0.19903103333E+02 -0.17960890351E+02  0.27568684159E+02  0.51100000000E-03 0.  1.
         12    1    3    3    0    0  0.13561109132E+02 -0.19264809538E+02  0.27439152517E+02  0.36165503705E+02  0.00000000000E+00 0. -1.
</event>
<event>
 7    1  0.1749439E-013  0.7246157E+02  0.7816164E-02  0.1226708E+00
        -11   -1    0    0    0    0  0.00000000000E+00  0.00000000000E+00  0.45593999997E+02  0.45594000000E+02  0.51100000000E-03 0.  1.
         11   -1    0    0    0    0 -0.00000000000E+00 -0.00000000000E+00 -0.45593999997E+02  0.45594000000E+02  0.51100000000E-03 0. -1.
    9900012    2    1    2    0    0  0.21449340459E+01 -0.15515370271E+02 -0.10264106532E+02  0.72461565753E+02  0.69999994084E+02 0.  0.
        -12    1    1    2    0    0 -0.21449340459E+01  0.15515370271E+02  0.10264106532E+02  0.18726434247E+02  0.00000000000E+00 0.  1.
         11    1    3    3    0    0 -0.91096594416E+01  0.81846073372E+01  0.20067709088E+01  0.12409706771E+02  0.51100000000E-03 0. -1.
        -11    1    3    3    0    0 -0.19313496219E+02 -0.87334094746E+01 -0.14908833812E+02  0.25914414968E+02  0.51100000000E-03 0.  1.
         12    1    3    3    0    0  0.30568089707E+02 -0.14966568133E+02  0.26379563706E+01  0.34137444014E+02  0.00000000000E+00 0. -1.
</event>
<event>
 7    1  0.1749439E-013  0.7246155E+02  0.7816164E-02  0.1226708E+00
        -11   -1    0    0    0    0  0.00000000000E+00  0.00000000000E+00  0.45593999997E+02  0.45594000000E+02  0.51100000000E-03 0.  1.
         11   -1    0    0    0    0 -0.00000000000E+00 -0.00000000000E+00 -0.45593999997E+02  0.45594000000E+02  0.51100000000E-03 0. -1.
    9900012    2    1    2    0    0 -0.17564017875E+02  0.63367871680E+01 -0.14248781873E+01  0.72461551501E+02  0.69999975518E+02 0.  0.
        -12    1    1    2    0    0  0.17564017875E+02 -0.63367871680E+01  0.14248781873E+01  0.18726448499E+02  0.00000000000E+00 0.  1.
         11    1    3    3    0    0  0.10869050751E+01  0.25607688006E+02 -0.21913031979E+02  0.33721150906E+02  0.51100000000E-03 0. -1.
        -11    1    3    3    0    0 -0.63750069499E+01  0.24090761799E+01  0.56249446974E+00  0.68381841114E+01  0.51100000000E-03 0.  1.
        -12    1    3    3    0    0 -0.12275916001E+02 -0.21679977018E+02  0.19925659322E+02  0.31902216484E+02  0.00000000000E+00 0.  1.
</event>
<event>
 7    1  0.1749439E-013  0.7246153E+02  0.7816164E-02  0.1226708E+00
        -11   -1    0    0    0    0  0.00000000000E+00  0.00000000000E+00  0.45593999997E+02  0.45594000000E+02  0.51100000000E-03 0.  1.
         11   -1    0    0    0    0 -0.00000000000E+00 -0.00000000000E+00 -0.45593999997E+02  0.45594000000E+02  0.51100000000E-03 0. -1.
    9900012    2    1    2    0    0  0.17077242727E+02  0.66834932571E+01 -0.37920189864E+01  0.72461529183E+02  0.69999946445E+02 0.  0.
        -12    1    1    2    0    0 -0.17077242727E+02 -0.66834932571E+01  0.37920189864E+01  0.18726470817E+02  0.00000000000E+00 0.  1.
         11    1    3    3    0    0  0.47235137894E+01  0.22998003679E+02 -0.12377396696E+02  0.26540906258E+02  0.51100000000E-03 0. -1.
        -11    1    3    3    0    0  0.14357087858E+02  0.10085385805E+02  0.83802913569E+01  0.19444028957E+02  0.51100000000E-03 0.  1.
         12    1    3    3    0    0 -0.20033589208E+01 -0.26399896227E+02  0.20508635277E+00  0.26476593968E+02  0.00000000000E+00 0. -1.
</event>
<event>
 7    1  0.1749439E-013  0.7246154E+02  0.7816164E-02  0.1226708E+00
        -11   -1    0    0    0    0  0.00000000000E+00  0.00000000000E+00  0.45593999997E+02  0.45594000000E+02  0.51100000000E-03 0. -1.
         11   -1    0    0    0    0 -0.00000000000E+00 -0.00000000000E+00 -0.45593999997E+02  0.45594000000E+02  0.51100000000E-03 0.  1.
    9900012    2    1    2    0    0  0.27562570086E+01  0.61318035043E+01  0.17478111243E+02  0.72461539055E+02  0.69999959305E+02 0.  0.
        -12    1    1    2    0    0 -0.27562570086E+01 -0.61318035043E+01 -0.17478111243E+02  0.18726460945E+02  0.00000000000E+00 0.  1.
         11    1    3    3    0    0 -0.77217089592E+01  0.16857961577E+02  0.36663803836E+01  0.18901269882E+02  0.51100000000E-03 0. -1.
        -11    1    3    3    0    0  0.17303802062E+02  0.12904189852E+02  0.18609744115E+02  0.28500215049E+02  0.51100000000E-03 0.  1.
        -12    1    3    3    0    0 -0.68258360943E+01 -0.23630347925E+02 -0.47980132558E+01  0.25060054123E+02  0.00000000000E+00 0.  1.
</event>
<event>
 7    1  0.1749439E-013  0.7246156E+02  0.7816164E-02  0.1226708E+00
        -11   -1    0    0    0    0  0.00000000000E+00  0.00000000000E+00  0.45593999997E+02  0.45594000000E+02  0.51100000000E-03 0. -1.
         11   -1    0    0    0    0 -0.00000000000E+00 -0.00000000000E+00 -0.45593999997E+02  0.45594000000E+02  0.51100000000E-03 0.  1.
    9900012    2    1    2    0    0 -0.38930800872E+00  0.24833421057E+01  0.18556966831E+02  0.72461559689E+02  0.69999986185E+02 0.  0.
        -12    1    1    2    0    0  0.38930800872E+00 -0.24833421057E+01 -0.18556966831E+02  0.18726440311E+02  0.00000000000E+00 0.  1.
         11    1    3    3    0    0 -0.25258187338E+02  0.11883692401E+02  0.14364316338E+02  0.31393180100E+02  0.51100000000E-03 0. -1.
        -11    1    3    3    0    0 -0.21114802143E+01 -0.74307528640E+01 -0.82411325974E+01  0.11295605498E+02  0.51100000000E-03 0.  1.
         12    1    3    3    0    0  0.26980359543E+02 -0.19695974308E+01  0.12433783091E+02  0.29772774091E+02  0.00000000000E+00 0. -1.
</event>
<event>
 7    1  0.1749439E-013  0.7246160E+02  0.7816164E-02  0.1226708E+00
        -11   -1    0    0    0    0  0.00000000000E+00  0.00000000000E+00  0.45593999997E+02  0.45594000000E+02  0.51100000000E-03 0. -1.
         11   -1    0    0    0    0 -0.00000000000E+00 -0.00000000000E+00 -0.45593999997E+02  0.45594000000E+02  0.51100000000E-03 0.  1.
    9900012    2    1    2    0    0  0.23031360722E+01  0.67141450472E+01  0.17328994863E+02  0.72461595047E+02  0.70000032246E+02 0.  0.
        -12    1    1    2    0    0 -0.23031360722E+01 -0.67141450472E+01 -0.17328994863E+02  0.18726404953E+02  0.00000000000E+00 0.  1.
         11    1    3    3    0    0  0.99247053436E+01  0.23417900788E+02  0.21299116993E+02  0.33174542023E+02  0.51100000000E-03 0. -1.
        -11    1    3    3    0    0 -0.12705806111E+01  0.74075761771E+01 -0.11053560161E+02  0.13366665717E+02  0.51100000000E-03 0.  1.
        -12    1    3    3    0    0 -0.63509886603E+01 -0.24111331918E+02  0.70834380307E+01  0.25920387307E+02  0.00000000000E+00 0.  1.
</event>
<event>
 7    1  0.1749439E-013  0.7246149E+02  0.7816164E-02  0.1226708E+00
        -11   -1    0    0    0    0  0.00000000000E+00  0.00000000000E+00  0.45593999997E+02  0.45594000000E+02  0.51100000000E-03 0. -1.
         11   -1    0    0    0    0 -0.00000000000E+00 -0.00000000000E+00 -0.45593999997E+02  0.45594000000E+02  0.51100000000E-03 0.  1.
    9900012    2    1    2    0    0 -0.10717428374E+02 -0.11134069546E+02  0.10575977518E+02  0.72461492689E+02  0.69999898904E+02 0.  0.
        -12    1    1    2    0    0  0.10717428374E+02  0.11134069546E+02 -0.10575977518E+02  0.18726507311E+02  0.00000000000E+00 0.  1.
         11    1    3    3    0    0  0.12479336371E+02 -0.94420901310E+01 -0.22464111679E+01  0.15809277836E+02  0.51100000000E-03 0. -1.
        -11    1    3    3    0    0  0.83362190614E+01 -0.17686474737E+02  0.72751317869E+01  0.20862202176E+02  0.51100000000E-03 0.  1.
        -12    1    3    3    0    0 -0.31532983806E+02  0.15994495321E+02  0.55472568991E+01  0.35790012677E+02  0.00000000000E+00 0.  1.
</event>
<event>
 7    1  0.1749439E-013  0.7246154E+02  0.7816164E-02  0.1226708E+00
        -11   -1    0    0    0    0  0.00000000000E+00  0.00000000000E+00  0.45593999997E+02  0.45594000000E+02  0.51100000000E-03 0.  1.
         11   -1    0    0    0    0 -0.00000000000E+00 -0.00000000000E+00 -0.45593999997E+02  0.45594000000E+02  0.51100000000E-03 0. -1.
    9900012    2    1    2    0    0 -0.32031149685E+01  0.96892192163E+01 -0.15701576122E+02  0.72461537247E+02  0.69999956950E+02 0.  0.
        -12    1    1    2    0    0  0.32031149685E+01 -0.96892192163E+01  0.15701576122E+02  0.18726462753E+02  0.00000000000E+00 0.  1.
         11    1    3    3    0    0  0.65497745714E+01 -0.72679720922E+00 -0.27739976952E+02  0.28511999275E+02  0.51100000000E-03 0. -1.
        -11    1    3    3    0    0  0.14943274493E+02  0.90821492708E+01  0.39388021994E+01  0.17924872412E+02  0.51100000000E-03 0.  1.
        -12    1    3    3    0    0 -0.24696164033E+02  0.13338671548E+01  0.80995986308E+01  0.26024665560E+02  0.00000000000E+00 0.  1.
</event>
<event>
 7    1  0.1749439E-013  0.7246171E+02  0.7816164E-02  0.1226708E+00
        -11   -1    0    0    0    0  0.00000000000E+00  0.00000000000E+00  0.45593999997E+02  0.45594000000E+02  0.51100000000E-03 0.  1.
         11   -1    0    0    0    0 -0.00000000000E+00 -0.00000000000E+00 -0.45593999997E+02  0.45594000000E+02  0.51100000000E-03 0. -1.
    9900012    2    1    2    0    0  0.10603084356E+02 -0.29973628204E+01 -0.15141473134E+02  0.72461713918E+02  0.70000187097E+02 0.  0.
        -12    1    1    2    0    0 -0.10603084356E+02  0.29973628204E+01  0.15141473134E+02  0.18726286082E+02  0.00000000000E+00 0.  1.
         11    1    3    3    0    0 -0.18294195865E+02  0.36833886599E+01 -0.19931716449E+02  0.27304180545E+02  0.51100000000E-03 0. -1.
        -11    1    3    3    0    0  0.11270134920E+02 -0.19262637528E+02 -0.21377393021E+01  0.22419524421E+02  0.51100000000E-03 0.  1.
         12    1    3    3    0    0  0.17627145301E+02  0.12581886048E+02  0.69279826174E+01  0.22738008953E+02  0.00000000000E+00 0. -1.
</event>
<event>
 7    1  0.1749439E-013  0.7246156E+02  0.7816164E-02  0.1226708E+00
        -11   -1    0    0    0    0  0.00000000000E+00  0.00000000000E+00  0.45593999997E+02  0.45594000000E+02  0.51100000000E-03 0. -1.
         11   -1    0    0    0    0 -0.00000000000E+00 -0.00000000000E+00 -0.45593999997E+02  0.45594000000E+02  0.51100000000E-03 0.  1.
    9900012    2    1    2    0    0 -0.78257226023E+00  0.16997191779E+02  0.78206434079E+01  0.72461563846E+02  0.69999991600E+02 0.  0.
        -12    1    1    2    0    0  0.78257226023E+00 -0.16997191779E+02 -0.78206434079E+01  0.18726436154E+02  0.00000000000E+00 0.  1.
         11    1    3    3    0    0 -0.32635650472E+00  0.67386559712E+01  0.10664812968E+02  0.12619597013E+02  0.51100000000E-03 0. -1.
        -11    1    3    3    0    0 -0.58816959435E+00 -0.20746738835E+02  0.13532631944E+02  0.24777111279E+02  0.51100000000E-03 0.  1.
        -12    1    3    3    0    0  0.13195383883E+00  0.31005274643E+02 -0.16376801504E+02  0.35064855554E+02  0.00000000000E+00 0.  1.
</event>
<event>
 7    1  0.1749439E-013  0.7246157E+02  0.7816164E-02  0.1226708E+00
        -11   -1    0    0    0    0  0.00000000000E+00  0.00000000000E+00  0.45593999997E+02  0.45594000000E+02  0.51100000000E-03 0. -1.
         11   -1    0    0    0    0 -0.00000000000E+00 -0.00000000000E+00 -0.45593999997E+02  0.45594000000E+02  0.51100000000E-03 0.  1.
    9900012    2    1    2    0    0  0.42935930234E+01  0.14512509215E+02  0.11028665208E+02  0.72461566249E+02  0.69999994730E+02 0.  0.
        -12    1    1    2    0    0 -0.42935930234E+01 -0.14512509215E+02 -0.11028665208E+02  0.18726433751E+02  0.00000000000E+00 0.  1.
         11    1    3    3    0    0  0.10761163327E+02  0.17627685343E+01 -0.67550756541E+01  0.12827355005E+02  0.51100000000E-03 0.  1.
        -11    1    3    3    0    0 -0.16781807349E+02 -0.21586496640E+00 -0.15251125724E+02  0.22677576848E+02  0.51100000000E-03 0. -1.
         12    1    3    3    0    0  0.10314237045E+02  0.12965605647E+02  0.33034866586E+02  0.36956634397E+02  0.00000000000E+00 0. -1.
</event>
<event>
 7    1  0.1749439E-013  0.7246155E+02  0.7816164E-02  0.1226708E+00
        -11   -1    0    0    0    0  0.00000000000E+00  0.00000000000E+00  0.45593999997E+02  0.45594000000E+02  0.51100000000E-03 0.  1.
         11   -1    0    0    0    0 -0.00000000000E+00 -0.00000000000E+00 -0.45593999997E+02  0.45594000000E+02  0.51100000000E-03 0. -1.
    9900012    2    1    2    0    0  0.46858086566E+01  0.18128097227E+02  0.30854505758E+00  0.72461550473E+02  0.69999974179E+02 0.  0.
        -12    1    1    2    0    0 -0.46858086566E+01 -0.18128097227E+02 -0.30854505758E+00  0.18726449527E+02  0.00000000000E+00 0.  1.
         11    1    3    3    0    0  0.52098187579E+01  0.12192867404E+02 -0.27179760585E+02  0.30241488270E+02  0.51100000000E-03 0. -1.
        -11    1    3    3    0    0 -0.82013709379E+01  0.88123652946E+00 -0.41782891065E+01  0.92464676066E+01  0.51100000000E-03 0.  1.
        -12    1    3    3    0    0  0.76773608365E+01  0.50539932929E+01  0.31666594749E+02  0.32973594597E+02  0.00000000000E+00 0.  1.
</event>
<event>
 7    1  0.1749439E-013  0.7246155E+02  0.7816164E-02  0.1226708E+00
        -11   -1    0    0    0    0  0.00000000000E+00  0.00000000000E+00  0.45593999997E+02  0.45594000000E+02  0.51100000000E-03 0.  1.
         11   -1    0    0    0    0 -0.00000000000E+00 -0.00000000000E+00 -0.45593999997E+02  0.45594000000E+02  0.51100000000E-03 0. -1.
    9900012    2    1    2    0    0  0.53038117388E+01 -0.45881932893E+01 -0.17363695705E+02  0.72461551721E+02  0.69999975805E+02 0.  0.
        -12    1    1    2    0    0 -0.53038117388E+01  0.45881932893E+01  0.17363695705E+02  0.18726448279E+02  0.00000000000E+00 0.  1.
         11    1    3    3    0    0 -0.18701556236E+01  0.98645318909E+01  0.60179140994E+01  0.11705629494E+02  0.51100000000E-03 0. -1.
        -11    1    3    3    0    0 -0.20875686410E+02 -0.62543667599E+01  0.22189248991E+01  0.21905136718E+02  0.51100000000E-03 0.  1.
         12    1    3    3    0    0  0.28049653773E+02 -0.81983584203E+01 -0.25600534703E+02  0.38850785509E+02  0.00000000000E+00 0. -1.
</event>
<event>
 7    1  0.1749439E-013  0.7246158E+02  0.7816164E-02  0.1226708E+00
        -11   -1    0    0    0    0  0.00000000000E+00  0.00000000000E+00  0.45593999997E+02  0.45594000000E+02  0.51100000000E-03 0.  1.
         11   -1    0    0    0    0 -0.00000000000E+00 -0.00000000000E+00 -0.45593999997E+02  0.45594000000E+02  0.51100000000E-03 0. -1.
    9900012    2    1    2    0    0 -0.64346558493E+01  0.15611744565E+02 -0.80961330416E+01  0.72461581910E+02  0.70000015131E+02 0.  0.
        -12    1    1    2    0    0  0.64346558493E+01 -0.15611744565E+02  0.80961330416E+01  0.18726418090E+02  0.00000000000E+00 0.  1.
         11    1    3    3    0    0 -0.11877915705E+02 -0.13985781107E+02  0.25798421349E+01  0.18529504590E+02  0.51100000000E-03 0. -1.
        -11    1    3    3    0    0 -0.16775860956E+02  0.39935203532E+01  0.27634476879E+01  0.17464660289E+02  0.51100000000E-03 0.  1.
        -12    1    3    3    0    0  0.22219120811E+02  0.25604005319E+02 -0.13439422865E+02  0.36467417031E+02  0.00000000000E+00 0.  1.
</event>
<event>
 7    1  0.1749439E-013  0.7246160E+02  0.7816164E-02  0.1226708E+00
        -11   -1    0    0    0    0  0.00000000000E+00  0.00000000000E+00  0.45593999997E+02  0.45594000000E+02  0.51100000000E-03 0.  1.
         11   -1    0    0    0    0 -0.00000000000E+00 -0.00000000000E+00 -0.45593999997E+02  0.45594000000E+02  0.51100000000E-03 0. -1.
    9900012    2    1    2    0    0  0.16982186860E+02  0.46542817645E+01  0.63734662613E+01  0.72461599345E+02  0.70000037844E+02 0.  0.
        -12    1    1    2    0    0 -0.16982186860E+02 -0.46542817645E+01 -0.63734662613E+01  0.18726400655E+02  0.00000000000E+00 0.  1.
         11    1    3    3    0    0  0.16986731261E+02 -0.10431050787E+01  0.10530540103E+02  0.20013230181E+02  0.51100000000E-03 0. -1.
        -11    1    3    3    0    0  0.11120005774E+02  0.75786051898E+01  0.20963175468E+02  0.24910730841E+02  0.51100000000E-03 0.  1.
         12    1    3    3    0    0 -0.11124550175E+02 -0.18812183466E+01 -0.25120249310E+02  0.27537638324E+02  0.00000000000E+00 0. -1.
</event>
<event>
 7    1  0.1749439E-013  0.7246158E+02  0.7816164E-02  0.1226708E+00
        -11   -1    0    0    0    0  0.00000000000E+00  0.00000000000E+00  0.45593999997E+02  0.45594000000E+02  0.51100000000E-03 0.  1.
         11   -1    0    0    0    0 -0.00000000000E+00 -0.00000000000E+00 -0.45593999997E+02  0.45594000000E+02  0.51100000000E-03 0. -1.
    9900012    2    1    2    0    0  0.90731101483E+01  0.43911567056E+01 -0.15782112086E+02  0.72461584249E+02  0.70000018179E+02 0.  0.
        -12    1    1    2    0    0 -0.90731101483E+01 -0.43911567056E+01  0.15782112086E+02  0.18726415751E+02  0.00000000000E+00 0.  1.
         11    1    3    3    0    0 -0.22828828005E+01 -0.62752740648E+01  0.16132996437E+02  0.17460360614E+02  0.51100000000E-03 0. -1.
        -11    1    3    3    0    0 -0.96286045643E-01 -0.14235735077E+02 -0.19133362515E+01  0.14364062102E+02  0.51100000000E-03 0.  1.
         12    1    3    3    0    0  0.11452278994E+02  0.24902165848E+02 -0.30001772271E+02  0.40637161534E+02  0.00000000000E+00 0. -1.
</event>
<event>
 7    1  0.1749439E-013  0.7246141E+02  0.7816164E-02  0.1226708E+00
        -11   -1    0    0    0    0  0.00000000000E+00  0.00000000000E+00  0.45593999997E+02  0.45594000000E+02  0.51100000000E-03 0. -1.
         11   -1    0    0    0    0 -0.00000000000E+00 -0.00000000000E+00 -0.45593999997E+02  0.45594000000E+02  0.51100000000E-03 0.  1.
    9900012    2    1    2    0    0 -0.79467734655E+01 -0.11631287351E+02  0.12338840548E+02  0.72461413551E+02  0.69999795813E+02 0.  0.
        -12    1    1    2    0    0  0.79467734655E+01  0.11631287351E+02 -0.12338840548E+02  0.18726586449E+02  0.00000000000E+00 0.  1.
         11    1    3    3    0    0 -0.93472727316E+01 -0.23245041261E+02 -0.17546699604E+01  0.25115380102E+02  0.51100000000E-03 0. -1.
        -11    1    3    3    0    0  0.14435417445E+02 -0.77752400894E+01 -0.50340181006E+01  0.17151588083E+02  0.51100000000E-03 0.  1.
         12    1    3    3    0    0 -0.13034918179E+02  0.19388994000E+02  0.19127528609E+02  0.30194445366E+02  0.00000000000E+00 0. -1.
</event>
<event>
 7    1  0.1749439E-013  0.7246163E+02  0.7816164E-02  0.1226708E+00
        -11   -1    0    0    0    0  0.00000000000E+00  0.00000000000E+00  0.45593999997E+02  0.45594000000E+02  0.51100000000E-03 0.  1.
         11   -1    0    0    0    0 -0.00000000000E+00 -0.00000000000E+00 -0.45593999997E+02  0.45594000000E+02  0.51100000000E-03 0. -1.
    9900012    2    1    2    0    0  0.13490338147E+02  0.98712563510E+01  0.84407306570E+01  0.72461631978E+02  0.70000080354E+02 0.  0.
        -12    1    1    2    0    0 -0.13490338147E+02 -0.98712563510E+01 -0.84407306570E+01  0.18726368022E+02  0.00000000000E+00 0.  1.
         11    1    3    3    0    0 -0.83708466858E+01 -0.16903247576E+02  0.51786529429E-01  0.18862490158E+02  0.51100000000E-03 0. -1.
        -11    1    3    3    0    0  0.47986779281E+01 -0.29114826219E+01 -0.12351667075E+02  0.13567155955E+02  0.51100000000E-03 0.  1.
        -12    1    3    3    0    0  0.17062506905E+02  0.29685986549E+02  0.20740611203E+02  0.40031985865E+02  0.00000000000E+00 0.  1.
</event>
<event>
 7    1  0.1749439E-013  0.7246153E+02  0.7816164E-02  0.1226708E+00
        -11   -1    0    0    0    0  0.00000000000E+00  0.00000000000E+00  0.45593999997E+02  0.45594000000E+02  0.51100000000E-03 0.  1.
         11   -1    0    0    0    0 -0.00000000000E+00 -0.00000000000E+00 -0.45593999997E+02  0.45594000000E+02  0.51100000000E-03 0. -1.
    9900012    2    1    2    0    0 -0.10075298078E+02  0.94945570315E+01 -0.12610413472E+02  0.72461527494E+02  0.69999944245E+02 0.  0.
        -12    1    1    2    0    0  0.10075298078E+02 -0.94945570315E+01  0.12610413472E+02  0.18726472506E+02  0.00000000000E+00 0.  1.
         11    1    3    3    0    0 -0.85407163482E+01  0.46140766065E+01 -0.62861033422E+00  0.97277278891E+01  0.51100000000E-03 0. -1.
        -11    1    3    3    0    0 -0.11973394152E+02  0.84518113352E+01  0.22319840719E+02  0.26701508803E+02  0.51100000000E-03 0.  1.
         12    1    3    3    0    0  0.10438812422E+02 -0.35713309102E+01 -0.34301643856E+02  0.36032290803E+02  0.00000000000E+00 0. -1.
</event>
<event>
 7    1  0.1749439E-013  0.7246149E+02  0.7816164E-02  0.1226708E+00
        -11   -1    0    0    0    0  0.00000000000E+00  0.00000000000E+00  0.45593999997E+02  0.45594000000E+02  0.51100000000E-03 0. -1.
         11   -1    0    0    0    0 -0.00000000000E+00 -0.00000000000E+00 -0.45593999997E+02  0.45594000000E+02  0.51100000000E-03 0.  1.
    9900012    2    1    2    0    0 -0.13841429350E+02  0.37452612399E+01  0.12044498798E+02  0.72461492064E+02  0.69999898090E+02 0.  0.
        -12    1    1    2    0    0  0.13841429350E+02 -0.37452612399E+01 -0.12044498798E+02  0.18726507936E+02  0.00000000000E+00 0.  1.
         11    1    3    3    0    0 -0.11123328344E+01 -0.17587851551E+02 -0.72902450035E+01  0.19071378529E+02  0.51100000000E-03 0. -1.
        -11    1    3    3    0    0  0.29393705093E+01  0.92218614024E+01 -0.12554288656E+02  0.15852217215E+02  0.51100000000E-03 0.  1.
         12    1    3    3    0    0 -0.15668467025E+02  0.12111251388E+02  0.31889032457E+02  0.37537896320E+02  0.00000000000E+00 0. -1.
</event>
<event>
 7    1  0.1749439E-013  0.7246152E+02  0.7816164E-02  0.1226708E+00
        -11   -1    0    0    0    0  0.00000000000E+00  0.00000000000E+00  0.45593999997E+02  0.45594000000E+02  0.51100000000E-03 0.  1.
         11   -1    0    0    0    0 -0.00000000000E+00 -0.00000000000E+00 -0.45593999997E+02  0.45594000000E+02  0.51100000000E-03 0. -1.
    9900012    2    1    2    0    0  0.35477141312E+01  0.70757109325E+01 -0.16971417716E+02  0.72461521953E+02  0.69999937027E+02 0.  0.
        -12    1    1    2    0    0 -0.35477141312E+01 -0.70757109325E+01  0.16971417716E+02  0.18726478047E+02  0.00000000000E+00 0.  1.
         11    1    3    3    0    0 -0.13507174522E+02  0.10896660902E+02 -0.20754070953E+01  0.17478223515E+02  0.51100000000E-03 0. -1.
        -11    1    3    3    0    0 -0.85774818522E+01  0.78153776203E+01  0.11540560631E+02  0.16365752723E+02  0.51100000000E-03 0.  1.
         12    1    3    3    0    0  0.25632370505E+02 -0.11636327590E+02 -0.26436571251E+02  0.38617545714E+02  0.00000000000E+00 0. -1.
</event>
<event>
 7    1  0.1749439E-013  0.7246218E+02  0.7816164E-02  0.1226706E+00
        -11   -1    0    0    0    0  0.00000000000E+00  0.00000000000E+00  0.45593999997E+02  0.45594000000E+02  0.51100000000E-03 0. -1.
         11   -1    0    0    0    0 -0.00000000000E+00 -0.00000000000E+00 -0.45593999997E+02  0.45594000000E+02  0.51100000000E-03 0.  1.
    9900012    2    1    2    0    0  0.62010193390E+01  0.17617400859E+02 -0.13530990608E+01  0.72462180100E+02  0.70000794380E+02 0.  0.
        -12    1    1    2    0    0 -0.62010193390E+01 -0.17617400859E+02  0.13530990608E+01  0.18725819900E+02  0.00000000000E+00 0.  1.
         11    1    3    3    0    0 -0.35581035215E+01  0.13661774050E+02  0.55053032296E+01  0.15152971154E+02  0.51100000000E-03 0. -1.
        -11    1    3    3    0    0  0.13827380341E+02  0.26122133187E+02 -0.15252964682E+02  0.33259813908E+02  0.51100000000E-03 0.  1.
         12    1    3    3    0    0 -0.40682574805E+01 -0.22166506378E+02  0.83945623919E+01  0.24049395038E+02  0.00000000000E+00 0. -1.
</event>
<event>
 7    1  0.1749439E-013  0.7246123E+02  0.7816164E-02  0.1226709E+00
        -11   -1    0    0    0    0  0.00000000000E+00  0.00000000000E+00  0.45593999997E+02  0.45594000000E+02  0.51100000000E-03 0. -1.
         11   -1    0    0    0    0 -0.00000000000E+00 -0.00000000000E+00 -0.45593999997E+02  0.45594000000E+02  0.51100000000E-03 0.  1.
    9900012    2    1    2    0    0 -0.37245922771E+01  0.69965552314E+01  0.16966659548E+02  0.72461230152E+02  0.69999556899E+02 0.  0.
        -12    1    1    2    0    0  0.37245922771E+01 -0.69965552314E+01 -0.16966659548E+02  0.18726769848E+02  0.00000000000E+00 0.  1.
         11    1    3    3    0    0  0.15871032776E+02  0.17084936188E+02 -0.88027581391E+01  0.24925354101E+02  0.51100000000E-03 0. -1.
        -11    1    3    3    0    0 -0.36008663211E+01 -0.49013882520E+00 -0.80952693189E+01  0.88735483284E+01  0.51100000000E-03 0.  1.
         12    1    3    3    0    0 -0.15994758732E+02 -0.95982421319E+01  0.33864687006E+02  0.38662327723E+02  0.00000000000E+00 0. -1.
</event>
<event>
 7    1  0.1749439E-013  0.7246149E+02  0.7816164E-02  0.1226708E+00
        -11   -1    0    0    0    0  0.00000000000E+00  0.00000000000E+00  0.45593999997E+02  0.45594000000E+02  0.51100000000E-03 0.  1.
         11   -1    0    0    0    0 -0.00000000000E+00 -0.00000000000E+00 -0.45593999997E+02  0.45594000000E+02  0.51100000000E-03 0. -1.
    9900012    2    1    2    0    0 -0.10048067571E+02  0.69899389763E+00  0.15787011624E+02  0.72461494977E+02  0.69999901885E+02 0.  0.
        -12    1    1    2    0    0  0.10048067571E+02 -0.69899389763E+00 -0.15787011624E+02  0.18726505023E+02  0.00000000000E+00 0.  1.
         11    1    3    3    0    0 -0.94501504757E+01 -0.33144075470E+01  0.31044731078E+01  0.10484674289E+02  0.51100000000E-03 0. -1.
        -11    1    3    3    0    0  0.18659765368E+02 -0.17686482682E+02  0.19386040543E+02  0.32199644120E+02  0.51100000000E-03 0.  1.
         12    1    3    3    0    0 -0.19257682463E+02  0.21699884126E+02 -0.67035020269E+01  0.29777176568E+02  0.00000000000E+00 0. -1.
</event>
<event>
 7    1  0.1749439E-013  0.7246162E+02  0.7816164E-02  0.1226708E+00
        -11   -1    0    0    0    0  0.00000000000E+00  0.00000000000E+00  0.45593999997E+02  0.45594000000E+02  0.51100000000E-03 0.  1.
         11   -1    0    0    0    0 -0.00000000000E+00 -0.00000000000E+00 -0.45593999997E+02  0.45594000000E+02  0.51100000000E-03 0. -1.
    9900012    2    1    2    0    0  0.32735068747E+01 -0.16212942946E+02  0.87807733380E+01  0.72461618966E+02  0.70000063404E+02 0.  0.
        -12    1    1    2    0    0 -0.32735068747E+01  0.16212942946E+02 -0.87807733380E+01  0.18726381034E+02  0.00000000000E+00 0.  1.
         11    1    3    3    0    0 -0.78282972249E+01  0.11087445756E+02 -0.14535154229E+02  0.19886789574E+02  0.51100000000E-03 0. -1.
        -11    1    3    3    0    0 -0.10836087901E+02 -0.19897917929E+00  0.38932575506E+00  0.10844905187E+02  0.51100000000E-03 0.  1.
        -12    1    3    3    0    0  0.21937892001E+02 -0.27101409522E+02  0.22926601812E+02  0.41729924205E+02  0.00000000000E+00 0.  1.
</event>
<event>
 7    1  0.1749439E-013  0.7246151E+02  0.7816164E-02  0.1226708E+00
        -11   -1    0    0    0    0  0.00000000000E+00  0.00000000000E+00  0.45593999997E+02  0.45594000000E+02  0.51100000000E-03 0.  1.
         11   -1    0    0    0    0 -0.00000000000E+00 -0.00000000000E+00 -0.45593999997E+02  0.45594000000E+02  0.51100000000E-03 0. -1.
    9900012    2    1    2    0    0 -0.11778543694E+02 -0.15538302657E+01 -0.14475255239E+02  0.72461508223E+02  0.69999919141E+02 0.  0.
        -12    1    1    2    0    0  0.11778543694E+02  0.15538302657E+01  0.14475255239E+02  0.18726491777E+02  0.00000000000E+00 0.  1.
         11    1    3    3    0    0 -0.23319324382E+02 -0.64085948258E+01 -0.14935399242E+02  0.28424058965E+02  0.51100000000E-03 0. -1.
        -11    1    3    3    0    0 -0.29766499740E+01 -0.17144609266E+02  0.25946118729E+01  0.17593467054E+02  0.51100000000E-03 0.  1.
        -12    1    3    3    0    0  0.14517430662E+02  0.21999373826E+02 -0.21344678697E+01  0.26443982205E+02  0.00000000000E+00 0.  1.
</event>
<event>
 7    1  0.1749439E-013  0.7246157E+02  0.7816164E-02  0.1226708E+00
        -11   -1    0    0    0    0  0.00000000000E+00  0.00000000000E+00  0.45593999997E+02  0.45594000000E+02  0.51100000000E-03 0. -1.
         11   -1    0    0    0    0 -0.00000000000E+00 -0.00000000000E+00 -0.45593999997E+02  0.45594000000E+02  0.51100000000E-03 0.  1.
    9900012    2    1    2    0    0  0.71887681604E+01  0.11875972747E+02  0.12568300401E+02  0.72461567042E+02  0.69999995764E+02 0.  0.
        -12    1    1    2    0    0 -0.71887681604E+01 -0.11875972747E+02 -0.12568300401E+02  0.18726432958E+02  0.00000000000E+00 0.  1.
         11    1    3    3    0    0 -0.69158225638E+01 -0.44262896750E+01  0.53746146719E+01  0.98136193707E+01  0.51100000000E-03 0. -1.
        -11    1    3    3    0    0 -0.12483793375E+02 -0.83540009106E+01 -0.14095636199E+02  0.20599062803E+02  0.51100000000E-03 0.  1.
         12    1    3    3    0    0  0.26588384099E+02  0.24656263333E+02  0.21289321928E+02  0.42048884869E+02  0.00000000000E+00 0. -1.
</event>
<event>
 7    1  0.1749439E-013  0.7246159E+02  0.7816164E-02  0.1226708E+00
        -11   -1    0    0    0    0  0.00000000000E+00  0.00000000000E+00  0.45593999997E+02  0.45594000000E+02  0.51100000000E-03 0.  1.
         11   -1    0    0    0    0 -0.00000000000E+00 -0.00000000000E+00 -0.45593999997E+02  0.45594000000E+02  0.51100000000E-03 0. -1.
    9900012    2    1    2    0    0  0.12271548250E+02 -0.11492363544E+01 -0.14098473844E+02  0.72461585357E+02  0.70000019622E+02 0.  0.
        -12    1    1    2    0    0 -0.12271548250E+02  0.11492363544E+01  0.14098473844E+02  0.18726414643E+02  0.00000000000E+00 0.  1.
         11    1    3    3    0    0  0.97670690950E+01 -0.12338009101E+02  0.59734758244E+00  0.15747346814E+02  0.51100000000E-03 0. -1.
        -11    1    3    3    0    0  0.17329463070E+00 -0.13615363647E+02 -0.26004935301E+02  0.29354127794E+02  0.51100000000E-03 0.  1.
        -12    1    3    3    0    0  0.23311845243E+01  0.24804136394E+02  0.11309113875E+02  0.27360110749E+02  0.00000000000E+00 0.  1.
</event>
<event>
 7    1  0.1749439E-013  0.7246155E+02  0.7816164E-02  0.1226708E+00
        -11   -1    0    0    0    0  0.00000000000E+00  0.00000000000E+00  0.45593999997E+02  0.45594000000E+02  0.51100000000E-03 0.  1.
         11   -1    0    0    0    0 -0.00000000000E+00 -0.00000000000E+00 -0.45593999997E+02  0.45594000000E+02  0.51100000000E-03 0. -1.
    9900012    2    1    2    0    0  0.12926910058E+02 -0.10176462902E+01  0.13510716052E+02  0.72461546629E+02  0.69999969171E+02 0.  0.
        -12    1    1    2    0    0 -0.12926910058E+02  0.10176462902E+01 -0.13510716052E+02  0.18726453371E+02  0.00000000000E+00 0.  1.
         11    1    3    3    0    0  0.74701733205E+01 -0.74472852944E+01 -0.65911589681E+01  0.12438204231E+02  0.51100000000E-03 0. -1.
        -11    1    3    3    0    0 -0.22039659806E+02  0.20146983068E+01  0.23127682507E+02  0.32010862407E+02  0.51100000000E-03 0.  1.
         12    1    3    3    0    0  0.27496396544E+02  0.44149406974E+01 -0.30258074871E+01  0.28012479991E+02  0.00000000000E+00 0. -1.
</event>
<event>
 7    1  0.1749439E-013  0.7246158E+02  0.7816164E-02  0.1226708E+00
        -11   -1    0    0    0    0  0.00000000000E+00  0.00000000000E+00  0.45593999997E+02  0.45594000000E+02  0.51100000000E-03 0. -1.
         11   -1    0    0    0    0 -0.00000000000E+00 -0.00000000000E+00 -0.45593999997E+02  0.45594000000E+02  0.51100000000E-03 0.  1.
    9900012    2    1    2    0    0 -0.11865246509E+02  0.80981261786E+01  0.12013125918E+02  0.72461577046E+02  0.70000008795E+02 0.  0.
        -12    1    1    2    0    0  0.11865246509E+02 -0.80981261786E+01 -0.12013125918E+02  0.18726422954E+02  0.00000000000E+00 0.  1.
         11    1    3    3    0    0 -0.10842080704E+01 -0.10852469165E+01 -0.12977678156E+02  0.13068029637E+02  0.51100000000E-03 0. -1.
        -11    1    3    3    0    0  0.17750607905E+02  0.64496306879E+01 -0.32410967952E+01  0.19162111723E+02  0.51100000000E-03 0.  1.
         12    1    3    3    0    0 -0.28531646343E+02  0.27337424072E+01  0.28231900870E+02  0.40231435686E+02  0.00000000000E+00 0. -1.
</event>
<event>
 7    1  0.1749439E-013  0.7246151E+02  0.7816164E-02  0.1226708E+00
        -11   -1    0    0    0    0  0.00000000000E+00  0.00000000000E+00  0.45593999997E+02  0.45594000000E+02  0.51100000000E-03 0. -1.
         11   -1    0    0    0    0 -0.00000000000E+00 -0.00000000000E+00 -0.45593999997E+02  0.45594000000E+02  0.51100000000E-03 0.  1.
    9900012    2    1    2    0    0 -0.10598050105E+02  0.10977329466E+02 -0.10856376071E+02  0.72461512619E+02  0.69999924867E+02 0.  0.
        -12    1    1    2    0    0  0.10598050105E+02 -0.10977329466E+02  0.10856376071E+02  0.18726487381E+02  0.00000000000E+00 0.  1.
         11    1    3    3    0    0 -0.92466344766E+01 -0.11268002250E+02 -0.38157925729E+01  0.15067461534E+02  0.51100000000E-03 0. -1.
        -11    1    3    3    0    0 -0.21176050784E+02  0.10067747399E+02 -0.19950290728E+02  0.30786340556E+02  0.51100000000E-03 0.  1.
         12    1    3    3    0    0  0.19824635155E+02  0.12177584318E+02  0.12909707230E+02  0.26607710529E+02  0.00000000000E+00 0. -1.
</event>
<event>
 7    1  0.1749439E-013  0.7246155E+02  0.7816164E-02  0.1226708E+00
        -11   -1    0    0    0    0  0.00000000000E+00  0.00000000000E+00  0.45593999997E+02  0.45594000000E+02  0.51100000000E-03 0. -1.
         11   -1    0    0    0    0 -0.00000000000E+00 -0.00000000000E+00 -0.45593999997E+02  0.45594000000E+02  0.51100000000E-03 0.  1.
    9900012    2    1    2    0    0 -0.14536019668E+02  0.11554667687E+02  0.24235995635E+01  0.72461546839E+02  0.69999969445E+02 0.  0.
        -12    1    1    2    0    0  0.14536019668E+02 -0.11554667687E+02 -0.24235995635E+01  0.18726453161E+02  0.00000000000E+00 0.  1.
         11    1    3    3    0    0 -0.14324891105E+02  0.23074424702E+02 -0.14517418918E+02  0.30795893116E+02  0.51100000000E-03 0. -1.
        -11    1    3    3    0    0 -0.10696540949E+02  0.92359515143E+01  0.10282998314E+02  0.17477380903E+02  0.51100000000E-03 0.  1.
        -12    1    3    3    0    0  0.10485412385E+02 -0.20755708530E+02  0.66580201680E+01  0.24188272820E+02  0.00000000000E+00 0.  1.
</event>
<event>
 7    1  0.1749439E-013  0.7246135E+02  0.7816164E-02  0.1226709E+00
        -11   -1    0    0    0    0  0.00000000000E+00  0.00000000000E+00  0.45593999997E+02  0.45594000000E+02  0.51100000000E-03 0.  1.
         11   -1    0    0    0    0 -0.00000000000E+00 -0.00000000000E+00 -0.45593999997E+02  0.45594000000E+02  0.51100000000E-03 0. -1.
    9900012    2    1    2    0    0  0.59551567848E+01  0.56938843613E+01 -0.16816749939E+02  0.72461353478E+02  0.69999717556E+02 0.  0.
        -12    1    1    2    0    0 -0.59551567848E+01 -0.56938843613E+01  0.16816749939E+02  0.18726646522E+02  0.00000000000E+00 0.  1.
         11    1    3    3    0    0  0.23019279722E+02  0.75383458199E+01 -0.24348860878E+01  0.24344251213E+02  0.51100000000E-03 0. -1.
        -11    1    3    3    0    0  0.12382814514E+02 -0.79603847954E+01 -0.98252988679E+01  0.17698540038E+02  0.51100000000E-03 0.  1.
        -12    1    3    3    0    0 -0.29446937451E+02  0.61159233369E+01 -0.45565649832E+01  0.30418562227E+02  0.00000000000E+00 0.  1.
</event>
<event>
 7    1  0.1749439E-013  0.7246157E+02  0.7816164E-02  0.1226708E+00
        -11   -1    0    0    0    0  0.00000000000E+00  0.00000000000E+00  0.45593999997E+02  0.45594000000E+02  0.51100000000E-03 0.  1.
         11   -1    0    0    0    0 -0.00000000000E+00 -0.00000000000E+00 -0.45593999997E+02  0.45594000000E+02  0.51100000000E-03 0. -1.
    9900012    2    1    2    0    0  0.14545772672E+02  0.10375906703E+02 -0.56071488526E+01  0.72461573198E+02  0.70000003782E+02 0.  0.
        -12    1    1    2    0    0 -0.14545772672E+02 -0.10375906703E+02  0.56071488526E+01  0.18726426802E+02  0.00000000000E+00 0.  1.
         11    1    3    3    0    0  0.17006237306E+02  0.20546425738E+02 -0.30321816814E+02  0.40382920809E+02  0.51100000000E-03 0. -1.
        -11    1    3    3    0    0  0.58684427757E+01  0.50236259715E+00  0.33221145641E+01  0.67622063137E+01  0.51100000000E-03 0.  1.
        -12    1    3    3    0    0 -0.83289074100E+01 -0.10672881632E+02  0.21392553398E+02  0.25316446074E+02  0.00000000000E+00 0.  1.
</event>
<event>
 7    1  0.1749439E-013  0.7246155E+02  0.7816164E-02  0.1226708E+00
        -11   -1    0    0    0    0  0.00000000000E+00  0.00000000000E+00  0.45593999997E+02  0.45594000000E+02  0.51100000000E-03 0.  1.
         11   -1    0    0    0    0 -0.00000000000E+00 -0.00000000000E+00 -0.45593999997E+02  0.45594000000E+02  0.51100000000E-03 0. -1.
    9900012    2    1    2    0    0  0.10344292245E+02 -0.11725914010E+02 -0.10304298989E+02  0.72461547611E+02  0.69999970450E+02 0.  0.
        -12    1    1    2    0    0 -0.10344292245E+02  0.11725914010E+02  0.10304298989E+02  0.18726452389E+02  0.00000000000E+00 0.  1.
         11    1    3    3    0    0 -0.60536045498E+01 -0.22860403540E+01 -0.83867999949E+01  0.10592946850E+02  0.51100000000E-03 0. -1.
        -11    1    3    3    0    0 -0.47682246650E+01 -0.28493457408E+02 -0.12512287464E+02  0.31482859135E+02  0.51100000000E-03 0.  1.
         12    1    3    3    0    0  0.21166121460E+02  0.19053583751E+02  0.10594788469E+02  0.30385741625E+02  0.00000000000E+00 0. -1.
</event>
<event>
 7    1  0.1749439E-013  0.7246166E+02  0.7816164E-02  0.1226708E+00
        -11   -1    0    0    0    0  0.00000000000E+00  0.00000000000E+00  0.45593999997E+02  0.45594000000E+02  0.51100000000E-03 0. -1.
         11   -1    0    0    0    0 -0.00000000000E+00 -0.00000000000E+00 -0.45593999997E+02  0.45594000000E+02  0.51100000000E-03 0.  1.
    9900012    2    1    2    0    0  0.57685458311E+01 -0.91218260357E+01  0.15303338303E+02  0.72461655070E+02  0.70000110436E+02 0.  0.
        -12    1    1    2    0    0 -0.57685458311E+01  0.91218260357E+01 -0.15303338303E+02  0.18726344930E+02  0.00000000000E+00 0.  1.
         11    1    3    3    0    0  0.43820743876E+01 -0.12654410283E+02  0.17389613095E+02  0.21948469637E+02  0.51100000000E-03 0. -1.
        -11    1    3    3    0    0 -0.20952740097E+02 -0.10799521963E+02 -0.39734294942E+01  0.23904709461E+02  0.51100000000E-03 0.  1.
        -12    1    3    3    0    0  0.22339211541E+02  0.14332106210E+02  0.18871547017E+01  0.26608475972E+02  0.00000000000E+00 0.  1.
</event>
<event>
 7    1  0.1749439E-013  0.7246166E+02  0.7816164E-02  0.1226708E+00
        -11   -1    0    0    0    0  0.00000000000E+00  0.00000000000E+00  0.45593999997E+02  0.45594000000E+02  0.51100000000E-03 0.  1.
         11   -1    0    0    0    0 -0.00000000000E+00 -0.00000000000E+00 -0.45593999997E+02  0.45594000000E+02  0.51100000000E-03 0. -1.
    9900012    2    1    2    0    0  0.15170686676E+02  0.78464446277E+01 -0.76784915081E+01  0.72461664017E+02  0.70000122090E+02 0.  0.
        -12    1    1    2    0    0 -0.15170686676E+02 -0.78464446277E+01  0.76784915081E+01  0.18726335983E+02  0.00000000000E+00 0.  1.
         11    1    3    3    0    0  0.11785049403E+02  0.24466011363E+02  0.89591313446E+01  0.28596138483E+02  0.51100000000E-03 0. -1.
        -11    1    3    3    0    0  0.10698653357E+02  0.73155653402E+01 -0.13378281419E+02  0.18626784315E+02  0.51100000000E-03 0.  1.
        -12    1    3    3    0    0 -0.73130160845E+01 -0.23935132075E+02 -0.32593414336E+01  0.25238741219E+02  0.00000000000E+00 0.  1.
</event>
<event>
 7    1  0.1749439E-013  0.7246155E+02  0.7816164E-02  0.1226708E+00
        -11   -1    0    0    0    0  0.00000000000E+00  0.00000000000E+00  0.45593999997E+02  0.45594000000E+02  0.51100000000E-03 0.  1.
         11   -1    0    0    0    0 -0.00000000000E+00 -0.00000000000E+00 -0.45593999997E+02  0.45594000000E+02  0.51100000000E-03 0. -1.
    9900012    2    1    2    0    0 -0.46612633312E+01 -0.16607446617E+02 -0.72900689368E+01  0.72461554419E+02  0.69999979320E+02 0.  0.
        -12    1    1    2    0    0  0.46612633312E+01  0.16607446617E+02  0.72900689368E+01  0.18726445581E+02  0.00000000000E+00 0.  1.
         11    1    3    3    0    0  0.99168406389E+01 -0.35895045857E+01 -0.19435469477E+02  0.22112569853E+02  0.51100000000E-03 0. -1.
        -11    1    3    3    0    0  0.84347434379E+01 -0.40280964993E+01  0.21880755992E+02  0.23793653383E+02  0.51100000000E-03 0.  1.
        -12    1    3    3    0    0 -0.23012847408E+02 -0.89898455323E+01 -0.97353554510E+01  0.26555331184E+02  0.00000000000E+00 0.  1.
</event>
<event>
 7    1  0.1749439E-013  0.7246167E+02  0.7816164E-02  0.1226708E+00
        -11   -1    0    0    0    0  0.00000000000E+00  0.00000000000E+00  0.45593999997E+02  0.45594000000E+02  0.51100000000E-03 0. -1.
         11   -1    0    0    0    0 -0.00000000000E+00 -0.00000000000E+00 -0.45593999997E+02  0.45594000000E+02  0.51100000000E-03 0.  1.
    9900012    2    1    2    0    0  0.85944947617E+01  0.12340153613E+02  0.11159338790E+02  0.72461666306E+02  0.70000125072E+02 0.  0.
        -12    1    1    2    0    0 -0.85944947617E+01 -0.12340153613E+02 -0.11159338790E+02  0.18726333694E+02  0.00000000000E+00 0.  1.
         11    1    3    3    0    0  0.38127746267E+01 -0.93103784825E+00  0.19530843852E+02  0.19921293724E+02  0.51100000000E-03 0. -1.
        -11    1    3    3    0    0 -0.13736880437E+02  0.60601587813E+01  0.15432554794E+02  0.21531167092E+02  0.51100000000E-03 0.  1.
         12    1    3    3    0    0  0.18518600572E+02  0.72110326799E+01 -0.23804059856E+02  0.31009205489E+02  0.00000000000E+00 0. -1.
</event>
<event>
 7    1  0.1749439E-013  0.7246156E+02  0.7816164E-02  0.1226708E+00
        -11   -1    0    0    0    0  0.00000000000E+00  0.00000000000E+00  0.45593999997E+02  0.45594000000E+02  0.51100000000E-03 0. -1.
         11   -1    0    0    0    0 -0.00000000000E+00 -0.00000000000E+00 -0.45593999997E+02  0.45594000000E+02  0.51100000000E-03 0.  1.
    9900012    2    1    2    0    0  0.10735574945E+02 -0.43356320614E+00  0.15337505469E+02  0.72461558254E+02  0.69999984316E+02 0.  0.
        -12    1    1    2    0    0 -0.10735574945E+02  0.43356320614E+00 -0.15337505469E+02  0.18726441746E+02  0.00000000000E+00 0.  1.
         11    1    3    3    0    0  0.77561370355E+00 -0.17552644041E+02  0.71552146335E+01  0.18970872045E+02  0.51100000000E-03 0. -1.
        -11    1    3    3    0    0  0.75993373102E+01  0.36622336365E+01 -0.20255138753E+02  0.21941570795E+02  0.51100000000E-03 0.  1.
         12    1    3    3    0    0  0.23606239310E+01  0.13456847198E+02  0.28437429589E+02  0.31549115415E+02  0.00000000000E+00 0. -1.
</event>
<event>
 7    1  0.1749439E-013  0.7246159E+02  0.7816164E-02  0.1226708E+00
        -11   -1    0    0    0    0  0.00000000000E+00  0.00000000000E+00  0.45593999997E+02  0.45594000000E+02  0.51100000000E-03 0.  1.
         11   -1    0    0    0    0 -0.00000000000E+00 -0.00000000000E+00 -0.45593999997E+02  0.45594000000E+02  0.51100000000E-03 0. -1.
    9900012    2    1    2    0    0  0.68060917031E+01  0.10423686165E+02 -0.13989370198E+02  0.72461585605E+02  0.70000019945E+02 0.  0.
        -12    1    1    2    0    0 -0.68060917031E+01 -0.10423686165E+02  0.13989370198E+02  0.18726414395E+02  0.00000000000E+00 0.  1.
         11    1    3    3    0    0 -0.28955617531E+01 -0.10911448576E+02 -0.20661318814E+02  0.23544300441E+02  0.51100000000E-03 0. -1.
        -11    1    3    3    0    0 -0.16127069227E+02  0.89959098282E+01  0.83005659378E+01  0.20246188546E+02  0.51100000000E-03 0.  1.
        -12    1    3    3    0    0  0.25828722683E+02  0.12339224913E+02 -0.16286173227E+01  0.28671096618E+02  0.00000000000E+00 0.  1.
</event>
<event>
 7    1  0.1749439E-013  0.7246142E+02  0.7816164E-02  0.1226708E+00
        -11   -1    0    0    0    0  0.00000000000E+00  0.00000000000E+00  0.45593999997E+02  0.45594000000E+02  0.51100000000E-03 0.  1.
         11   -1    0    0    0    0 -0.00000000000E+00 -0.00000000000E+00 -0.45593999997E+02  0.45594000000E+02  0.51100000000E-03 0. -1.
    9900012    2    1    2    0    0  0.18253474779E+02  0.66831550520E+00 -0.41290315729E+01  0.72461417588E+02  0.69999801071E+02 0.  0.
        -12    1    1    2    0    0 -0.18253474779E+02 -0.66831550520E+00  0.41290315729E+01  0.18726582412E+02  0.00000000000E+00 0.  1.
         11    1    3    3    0    0  0.11152336934E+01  0.83086041245E+01  0.11410849871E+02  0.14159242343E+02  0.51100000000E-03 0. -1.
        -11    1    3    3    0    0 -0.16719324054E+02 -0.69580810117E+01  0.48828590547E+01  0.18756145686E+02  0.51100000000E-03 0.  1.
         12    1    3    3    0    0  0.33857565139E+02 -0.68220760760E+00 -0.20422740499E+02  0.39546029559E+02  0.00000000000E+00 0. -1.
</event>
<event>
 7    1  0.1749439E-013  0.7246157E+02  0.7816164E-02  0.1226708E+00
        -11   -1    0    0    0    0  0.00000000000E+00  0.00000000000E+00  0.45593999997E+02  0.45594000000E+02  0.51100000000E-03 0.  1.
         11   -1    0    0    0    0 -0.00000000000E+00 -0.00000000000E+00 -0.45593999997E+02  0.45594000000E+02  0.51100000000E-03 0. -1.
    9900012    2    1    2    0    0 -0.12470416326E+02 -0.12021083549E+02 -0.71176736608E+01  0.72461574516E+02  0.70000005500E+02 0.  0.
        -12    1    1    2    0    0  0.12470416326E+02  0.12021083549E+02  0.71176736608E+01  0.18726425484E+02  0.00000000000E+00 0.  1.
         11    1    3    3    0    0 -0.30686187506E+02 -0.12397439974E+02  0.26539828495E+00  0.33096964484E+02  0.51100000000E-03 0. -1.
        -11    1    3    3    0    0  0.11353056460E+02 -0.30061868323E+01  0.13043773445E+02  0.17551896656E+02  0.51100000000E-03 0.  1.
        -12    1    3    3    0    0  0.68627147193E+01  0.33825432569E+01 -0.20426845391E+02  0.21812713376E+02  0.00000000000E+00 0.  1.
</event>
<event>
 7    1  0.1749439E-013  0.7246159E+02  0.7816164E-02  0.1226708E+00
        -11   -1    0    0    0    0  0.00000000000E+00  0.00000000000E+00  0.45593999997E+02  0.45594000000E+02  0.51100000000E-03 0.  1.
         11   -1    0    0    0    0 -0.00000000000E+00 -0.00000000000E+00 -0.45593999997E+02  0.45594000000E+02  0.51100000000E-03 0. -1.
    9900012    2    1    2    0    0  0.47008654098E+01  0.83845572243E+01  0.16071077970E+02  0.72461588637E+02  0.70000023894E+02 0.  0.
        -12    1    1    2    0    0 -0.47008654098E+01 -0.83845572243E+01 -0.16071077970E+02  0.18726411363E+02  0.00000000000E+00 0.  1.
         11    1    3    3    0    0 -0.64205297383E+01 -0.13144203278E+02  0.20040291247E+02  0.24811419860E+02  0.51100000000E-03 0. -1.
        -11    1    3    3    0    0 -0.13162620454E+02  0.13477337333E+02  0.66108121085E+01  0.19964870042E+02  0.51100000000E-03 0.  1.
         12    1    3    3    0    0  0.24284015602E+02  0.80514231700E+01 -0.10580025386E+02  0.27685298734E+02  0.00000000000E+00 0. -1.
</event>
<event>
 7    1  0.1749439E-013  0.7246155E+02  0.7816164E-02  0.1226708E+00
        -11   -1    0    0    0    0  0.00000000000E+00  0.00000000000E+00  0.45593999997E+02  0.45594000000E+02  0.51100000000E-03 0. -1.
         11   -1    0    0    0    0 -0.00000000000E+00 -0.00000000000E+00 -0.45593999997E+02  0.45594000000E+02  0.51100000000E-03 0.  1.
    9900012    2    1    2    0    0 -0.60090386327E+01 -0.85926189350E+01  0.15515738848E+02  0.72461553529E+02  0.69999978160E+02 0.  0.
        -12    1    1    2    0    0  0.60090386327E+01  0.85926189350E+01 -0.15515738848E+02  0.18726446471E+02  0.00000000000E+00 0.  1.
         11    1    3    3    0    0 -0.32818873656E+01 -0.14070388674E+02  0.41884846879E+01  0.15042939419E+02  0.51100000000E-03 0. -1.
        -11    1    3    3    0    0  0.16841512820E+02 -0.15408913164E+02  0.16717651818E+02  0.28294010700E+02  0.51100000000E-03 0.  1.
         12    1    3    3    0    0 -0.19568664087E+02  0.20886682903E+02 -0.53903976580E+01  0.29124603409E+02  0.00000000000E+00 0. -1.
</event>
<event>
 7    1  0.1749439E-013  0.7246155E+02  0.7816164E-02  0.1226708E+00
        -11   -1    0    0    0    0  0.00000000000E+00  0.00000000000E+00  0.45593999997E+02  0.45594000000E+02  0.51100000000E-03 0. -1.
         11   -1    0    0    0    0 -0.00000000000E+00 -0.00000000000E+00 -0.45593999997E+02  0.45594000000E+02  0.51100000000E-03 0.  1.
    9900012    2    1    2    0    0 -0.17094476024E+02 -0.29858335038E+01  0.70387261963E+01  0.72461548688E+02  0.69999971854E+02 0.  0.
        -12    1    1    2    0    0  0.17094476024E+02  0.29858335038E+01 -0.70387261963E+01  0.18726451312E+02  0.00000000000E+00 0.  1.
         11    1    3    3    0    0 -0.77041927744E+01 -0.63377103928E+01 -0.62052504643E+01  0.11748459172E+02  0.51100000000E-03 0. -1.
        -11    1    3    3    0    0 -0.23418256988E+02 -0.73439809934E+00 -0.15759787557E+02  0.28236943975E+02  0.51100000000E-03 0.  1.
         12    1    3    3    0    0  0.14027973738E+02  0.40862749883E+01  0.29003764217E+02  0.32476145542E+02  0.00000000000E+00 0. -1.
</event>
<event>
 7    1  0.1814992E-013  0.7246157E+02  0.7816164E-02  0.1226708E+00
        -11   -1    0    0    0    0  0.00000000000E+00  0.00000000000E+00  0.45593999997E+02  0.45594000000E+02  0.51100000000E-03 0. -1.
         11   -1    0    0    0    0 -0.00000000000E+00 -0.00000000000E+00 -0.45593999997E+02  0.45594000000E+02  0.51100000000E-03 0.  1.
    9900012    2    1    2    0    0  0.12038845294E+02  0.64708167804E+01  0.12801327163E+02  0.72461568333E+02  0.69999997445E+02 0.  0.
        -12    1    1    2    0    0 -0.12038845294E+02 -0.64708167804E+01 -0.12801327163E+02  0.18726431667E+02  0.00000000000E+00 0.  1.
         11    1    3    3    0    0  0.26084783031E+02  0.73501288417E+00  0.20332540627E+02  0.33081238766E+02  0.51100000000E-03 0. -1.
        -11    1    3    3    0    0  0.11543747368E+02 -0.13491416072E+01  0.52061109602E+00  0.11633972775E+02  0.51100000000E-03 0.  1.
        -12    1    3    3    0    0 -0.25589685104E+02  0.70849455034E+01 -0.80518245594E+01  0.27746356792E+02  0.00000000000E+00 0.  1.
</event>
<event>
 7    1  0.1749439E-013  0.7246155E+02  0.7816164E-02  0.1226708E+00
        -11   -1    0    0    0    0  0.00000000000E+00  0.00000000000E+00  0.45593999997E+02  0.45594000000E+02  0.51100000000E-03 0. -1.
         11   -1    0    0    0    0 -0.00000000000E+00 -0.00000000000E+00 -0.45593999997E+02  0.45594000000E+02  0.51100000000E-03 0.  1.
    9900012    2    1    2    0    0 -0.21570805354E+01 -0.83254120882E+01  0.16634735511E+02  0.72461550567E+02  0.69999974301E+02 0.  0.
        -12    1    1    2    0    0  0.21570805354E+01  0.83254120882E+01 -0.16634735511E+02  0.18726449433E+02  0.00000000000E+00 0.  1.
         11    1    3    3    0    0 -0.11733391411E+02 -0.29742637429E+02  0.72785319173E+01  0.32791370547E+02  0.51100000000E-03 0. -1.
        -11    1    3    3    0    0  0.49948889200E+01 -0.48052202694E+01 -0.58005099845E+01  0.90379739711E+01  0.51100000000E-03 0.  1.
        -12    1    3    3    0    0  0.45814219560E+01  0.26222445610E+02  0.15156713578E+02  0.30632206048E+02  0.00000000000E+00 0.  1.
</event>
<event>
 7    1  0.1749439E-013  0.7246163E+02  0.7816164E-02  0.1226708E+00
        -11   -1    0    0    0    0  0.00000000000E+00  0.00000000000E+00  0.45593999997E+02  0.45594000000E+02  0.51100000000E-03 0.  1.
         11   -1    0    0    0    0 -0.00000000000E+00 -0.00000000000E+00 -0.45593999997E+02  0.45594000000E+02  0.51100000000E-03 0. -1.
    9900012    2    1    2    0    0  0.43499630118E+01 -0.88895114851E+01 -0.15897525802E+02  0.72461630377E+02  0.70000078268E+02 0.  0.
        -12    1    1    2    0    0 -0.43499630118E+01  0.88895114851E+01  0.15897525802E+02  0.18726369623E+02  0.00000000000E+00 0.  1.
         11    1    3    3    0    0 -0.10768247738E+02 -0.12466575741E+01 -0.36983610820E+01  0.11453697630E+02  0.51100000000E-03 0. -1.
        -11    1    3    3    0    0  0.82926261466E+01 -0.69169942354E+01 -0.35296911325E+02  0.36911846432E+02  0.51100000000E-03 0.  1.
        -12    1    3    3    0    0  0.68255846032E+01 -0.72585967571E+00  0.23097746605E+02  0.24096086314E+02  0.00000000000E+00 0.  1.
</event>
<event>
 7    1  0.1749439E-013  0.7246157E+02  0.7816164E-02  0.1226708E+00
        -11   -1    0    0    0    0  0.00000000000E+00  0.00000000000E+00  0.45593999997E+02  0.45594000000E+02  0.51100000000E-03 0. -1.
         11   -1    0    0    0    0 -0.00000000000E+00 -0.00000000000E+00 -0.45593999997E+02  0.45594000000E+02  0.51100000000E-03 0.  1.
    9900012    2    1    2    0    0  0.26746214938E+01  0.53716992840E+01  0.17738953549E+02  0.72461568777E+02  0.69999998024E+02 0.  0.
        -12    1    1    2    0    0 -0.26746214938E+01 -0.53716992840E+01 -0.17738953549E+02  0.18726431223E+02  0.00000000000E+00 0.  1.
         11    1    3    3    0    0 -0.65976053691E+01 -0.13441158072E+02  0.11132187894E+02  0.18657940253E+02  0.51100000000E-03 0. -1.
        -11    1    3    3    0    0 -0.44363373617E+01  0.37063095733E+01 -0.19690660619E+02  0.20521694271E+02  0.51100000000E-03 0.  1.
         12    1    3    3    0    0  0.13708564225E+02  0.15106547783E+02  0.26297426274E+02  0.33281934254E+02  0.00000000000E+00 0. -1.
</event>
<event>
 7    1  0.1749439E-013  0.7246157E+02  0.7816164E-02  0.1226708E+00
        -11   -1    0    0    0    0  0.00000000000E+00  0.00000000000E+00  0.45593999997E+02  0.45594000000E+02  0.51100000000E-03 0.  1.
         11   -1    0    0    0    0 -0.00000000000E+00 -0.00000000000E+00 -0.45593999997E+02  0.45594000000E+02  0.51100000000E-03 0. -1.
    9900012    2    1    2    0    0  0.11214045693E+02 -0.45308269950E+01 -0.14296706998E+02  0.72461573618E+02  0.70000004329E+02 0.  0.
        -12    1    1    2    0    0 -0.11214045693E+02  0.45308269950E+01  0.14296706998E+02  0.18726426382E+02  0.00000000000E+00 0.  1.
         11    1    3    3    0    0 -0.15023879781E+01 -0.95655126860E+01 -0.33438505010E+01  0.10243902529E+02  0.51100000000E-03 0.  1.
        -11    1    3    3    0    0 -0.61337463974E+01  0.24946627869E+02  0.10145700905E+02  0.27620505680E+02  0.51100000000E-03 0. -1.
         12    1    3    3    0    0  0.18850180069E+02 -0.19911942178E+02 -0.21098557401E+02  0.34597165409E+02  0.00000000000E+00 0. -1.
</event>
<event>
 7    1  0.1749439E-013  0.7246156E+02  0.7816164E-02  0.1226708E+00
        -11   -1    0    0    0    0  0.00000000000E+00  0.00000000000E+00  0.45593999997E+02  0.45594000000E+02  0.51100000000E-03 0.  1.
         11   -1    0    0    0    0 -0.00000000000E+00 -0.00000000000E+00 -0.45593999997E+02  0.45594000000E+02  0.51100000000E-03 0. -1.
    9900012    2    1    2    0    0 -0.56410021780E+01  0.11317369703E+02 -0.13812165772E+02  0.72461556507E+02  0.69999982040E+02 0.  0.
        -12    1    1    2    0    0  0.56410021780E+01 -0.11317369703E+02  0.13812165772E+02  0.18726443493E+02  0.00000000000E+00 0.  1.
         11    1    3    3    0    0 -0.14858681591E+02  0.17039445462E+02 -0.95509277468E+01  0.24542684070E+02  0.51100000000E-03 0. -1.
        -11    1    3    3    0    0 -0.14330887529E+02  0.35726814879E+01 -0.14418678114E+02  0.20640655735E+02  0.51100000000E-03 0.  1.
        -12    1    3    3    0    0  0.23548566942E+02 -0.92947572463E+01  0.10157440088E+02  0.27278216702E+02  0.00000000000E+00 0.  1.
</event>
<event>
 7    1  0.1749439E-013  0.7246156E+02  0.7816164E-02  0.1226708E+00
        -11   -1    0    0    0    0  0.00000000000E+00  0.00000000000E+00  0.45593999997E+02  0.45594000000E+02  0.51100000000E-03 0. -1.
         11   -1    0    0    0    0 -0.00000000000E+00 -0.00000000000E+00 -0.45593999997E+02  0.45594000000E+02  0.51100000000E-03 0.  1.
    9900012    2    1    2    0    0 -0.65332013635E+01  0.10643006749E+02  0.13954323372E+02  0.72461562712E+02  0.69999990123E+02 0.  0.
        -12    1    1    2    0    0  0.65332013635E+01 -0.10643006749E+02 -0.13954323372E+02  0.18726437288E+02  0.00000000000E+00 0.  1.
         11    1    3    3    0    0  0.16220359578E+02 -0.10055600836E+02  0.61299285139E+01  0.20044729903E+02  0.51100000000E-03 0. -1.
        -11    1    3    3    0    0 -0.98158416809E+01 -0.12152946741E+02 -0.20470455905E+01  0.15755483436E+02  0.51100000000E-03 0.  1.
        -12    1    3    3    0    0 -0.12937719261E+02  0.32851554327E+02  0.98714404484E+01  0.36661349373E+02  0.00000000000E+00 0.  1.
</event>
<event>
 7    1  0.1749439E-013  0.7246159E+02  0.7816164E-02  0.1226708E+00
        -11   -1    0    0    0    0  0.00000000000E+00  0.00000000000E+00  0.45593999997E+02  0.45594000000E+02  0.51100000000E-03 0.  1.
         11   -1    0    0    0    0 -0.00000000000E+00 -0.00000000000E+00 -0.45593999997E+02  0.45594000000E+02  0.51100000000E-03 0. -1.
    9900012    2    1    2    0    0  0.18702529403E+02 -0.89158764494E+00  0.31465475661E+00  0.72461587043E+02  0.70000021819E+02 0.  0.
        -12    1    1    2    0    0 -0.18702529403E+02  0.89158764494E+00 -0.31465475661E+00  0.18726412957E+02  0.00000000000E+00 0.  1.
         11    1    3    3    0    0  0.62062769786E+01 -0.12974110854E+02 -0.25826772151E+01  0.14612174658E+02  0.51100000000E-03 0. -1.
        -11    1    3    3    0    0  0.30161229650E+02 -0.60201100474E+01  0.85697015974E+01  0.31927751012E+02  0.51100000000E-03 0.  1.
         12    1    3    3    0    0 -0.17664977225E+02  0.18102633256E+02 -0.56723696256E+01  0.25921661373E+02  0.00000000000E+00 0. -1.
</event>
<event>
 7    1  0.1749439E-013  0.7246156E+02  0.7816164E-02  0.1226708E+00
        -11   -1    0    0    0    0  0.00000000000E+00  0.00000000000E+00  0.45593999997E+02  0.45594000000E+02  0.51100000000E-03 0. -1.
         11   -1    0    0    0    0 -0.00000000000E+00 -0.00000000000E+00 -0.45593999997E+02  0.45594000000E+02  0.51100000000E-03 0.  1.
    9900012    2    1    2    0    0 -0.91794780094E+01  0.25358085389E+00  0.16320305586E+02  0.72461561626E+02  0.69999988708E+02 0.  0.
        -12    1    1    2    0    0  0.91794780094E+01 -0.25358085389E+00 -0.16320305586E+02  0.18726438374E+02  0.00000000000E+00 0.  1.
         11    1    3    3    0    0 -0.18573256056E+02 -0.12307325707E+01  0.34601345736E+02  0.39290376305E+02  0.51100000000E-03 0. -1.
        -11    1    3    3    0    0 -0.65345832679E+01  0.32674389834E+01  0.17543673668E+01  0.75136370098E+01  0.51100000000E-03 0.  1.
        -12    1    3    3    0    0  0.15928361314E+02 -0.17831255589E+01 -0.20035407518E+02  0.25657548311E+02  0.00000000000E+00 0.  1.
</event>
<event>
 7    1  0.1749439E-013  0.7246156E+02  0.7816164E-02  0.1226708E+00
        -11   -1    0    0    0    0  0.00000000000E+00  0.00000000000E+00  0.45593999997E+02  0.45594000000E+02  0.51100000000E-03 0. -1.
         11   -1    0    0    0    0 -0.00000000000E+00 -0.00000000000E+00 -0.45593999997E+02  0.45594000000E+02  0.51100000000E-03 0.  1.
    9900012    2    1    2    0    0 -0.14907952905E+02  0.72873625605E+01  0.86790978552E+01  0.72461562739E+02  0.69999990158E+02 0.  0.
        -12    1    1    2    0    0  0.14907952905E+02 -0.72873625605E+01 -0.86790978552E+01  0.18726437261E+02  0.00000000000E+00 0.  1.
         11    1    3    3    0    0 -0.21562811332E+02 -0.20560446398E+01 -0.32551592353E+01  0.21903840166E+02  0.51100000000E-03 0. -1.
        -11    1    3    3    0    0 -0.15288024327E+02 -0.11249614557E+02  0.34496260684E+01  0.19291900782E+02  0.51100000000E-03 0.  1.
        -12    1    3    3    0    0  0.21942882754E+02  0.20593021757E+02  0.84846310221E+01  0.31265821791E+02  0.00000000000E+00 0.  1.
</event>
<event>
 7    1  0.1749439E-013  0.7246165E+02  0.7816164E-02  0.1226708E+00
        -11   -1    0    0    0    0  0.00000000000E+00  0.00000000000E+00  0.45593999997E+02  0.45594000000E+02  0.51100000000E-03 0. -1.
         11   -1    0    0    0    0 -0.00000000000E+00 -0.00000000000E+00 -0.45593999997E+02  0.45594000000E+02  0.51100000000E-03 0.  1.
    9900012    2    1    2    0    0  0.18158956073E+02  0.12232695142E+01 -0.44081659341E+01  0.72461654898E+02  0.70000110212E+02 0.  0.
        -12    1    1    2    0    0 -0.18158956073E+02 -0.12232695142E+01  0.44081659341E+01  0.18726345102E+02  0.00000000000E+00 0.  1.
         11    1    3    3    0    0  0.27954699047E+02 -0.78846362621E+00 -0.33293011194E+01  0.28163293840E+02  0.51100000000E-03 0. -1.
        -11    1    3    3    0    0  0.12588895883E+02  0.13967312100E+02 -0.19638087653E+01  0.18905624877E+02  0.51100000000E-03 0.  1.
         12    1    3    3    0    0 -0.22384638856E+02 -0.11955578960E+02  0.88494395059E+00  0.25392736182E+02  0.00000000000E+00 0. -1.
</event>
<event>
 7    1  0.1749439E-013  0.7246157E+02  0.7816164E-02  0.1226708E+00
        -11   -1    0    0    0    0  0.00000000000E+00  0.00000000000E+00  0.45593999997E+02  0.45594000000E+02  0.51100000000E-03 0.  1.
         11   -1    0    0    0    0 -0.00000000000E+00 -0.00000000000E+00 -0.45593999997E+02  0.45594000000E+02  0.51100000000E-03 0. -1.
    9900012    2    1    2    0    0  0.71910288782E+01 -0.44015933119E+01 -0.16721070768E+02  0.72461571412E+02  0.70000001456E+02 0.  0.
        -12    1    1    2    0    0 -0.71910288782E+01  0.44015933119E+01  0.16721070768E+02  0.18726428588E+02  0.00000000000E+00 0.  1.
         11    1    3    3    0    0  0.12167217218E+02  0.22208812749E+02 -0.28189290469E+02  0.37893385121E+02  0.51100000000E-03 0. -1.
        -11    1    3    3    0    0 -0.39723020464E+01 -0.15493946540E+02 -0.30214445154E+01  0.16277920326E+02  0.51100000000E-03 0.  1.
        -12    1    3    3    0    0 -0.10038862932E+01 -0.11116459521E+02  0.14489664216E+02  0.18290265965E+02  0.00000000000E+00 0.  1.
</event>
<event>
 7    1  0.1749439E-013  0.7246160E+02  0.7816164E-02  0.1226708E+00
        -11   -1    0    0    0    0  0.00000000000E+00  0.00000000000E+00  0.45593999997E+02  0.45594000000E+02  0.51100000000E-03 0.  1.
         11   -1    0    0    0    0 -0.00000000000E+00 -0.00000000000E+00 -0.45593999997E+02  0.45594000000E+02  0.51100000000E-03 0. -1.
    9900012    2    1    2    0    0 -0.26356692694E-01  0.14423780876E+02 -0.11942867172E+02  0.72461595494E+02  0.70000032827E+02 0.  0.
        -12    1    1    2    0    0  0.26356692694E-01 -0.14423780876E+02  0.11942867172E+02  0.18726404506E+02  0.00000000000E+00 0.  1.
         11    1    3    3    0    0  0.62218833902E+01  0.12137688303E+02 -0.19519894480E+02  0.23813055054E+02  0.51100000000E-03 0. -1.
        -11    1    3    3    0    0 -0.18754169848E+02 -0.10558594148E+02 -0.98300031366E+01  0.23660764125E+02  0.51100000000E-03 0.  1.
        -12    1    3    3    0    0  0.12505929765E+02  0.12844686722E+02  0.17407030444E+02  0.24987776315E+02  0.00000000000E+00 0.  1.
</event>
<event>
 7    1  0.1749439E-013  0.7246153E+02  0.7816164E-02  0.1226708E+00
        -11   -1    0    0    0    0  0.00000000000E+00  0.00000000000E+00  0.45593999997E+02  0.45594000000E+02  0.51100000000E-03 0. -1.
         11   -1    0    0    0    0 -0.00000000000E+00 -0.00000000000E+00 -0.45593999997E+02  0.45594000000E+02  0.51100000000E-03 0.  1.
    9900012    2    1    2    0    0  0.87675139766E+00  0.16611753185E+02  0.86001025558E+01  0.72461526737E+02  0.69999943258E+02 0.  0.
        -12    1    1    2    0    0 -0.87675139766E+00 -0.16611753185E+02 -0.86001025558E+01  0.18726473263E+02  0.00000000000E+00 0.  1.
         11    1    3    3    0    0 -0.29428910374E+02  0.38680661681E+01  0.37990506399E+01  0.29924162273E+02  0.51100000000E-03 0. -1.
        -11    1    3    3    0    0  0.12867078207E+02 -0.96669893988E+00  0.13532231431E+02  0.18698061295E+02  0.51100000000E-03 0.  1.
        -12    1    3    3    0    0  0.17438583565E+02  0.13710385957E+02 -0.87311795153E+01  0.23839303169E+02  0.00000000000E+00 0.  1.
</event>
<event>
 7    1  0.1749439E-013  0.7246157E+02  0.7816164E-02  0.1226708E+00
        -11   -1    0    0    0    0  0.00000000000E+00  0.00000000000E+00  0.45593999997E+02  0.45594000000E+02  0.51100000000E-03 0.  1.
         11   -1    0    0    0    0 -0.00000000000E+00 -0.00000000000E+00 -0.45593999997E+02  0.45594000000E+02  0.51100000000E-03 0. -1.
    9900012    2    1    2    0    0  0.94477041132E+01 -0.15917287268E+02  0.28390527323E+01  0.72461565011E+02  0.69999993117E+02 0.  0.
        -12    1    1    2    0    0 -0.94477041132E+01  0.15917287268E+02 -0.28390527323E+01  0.18726434989E+02  0.00000000000E+00 0.  1.
         11    1    3    3    0    0  0.18247936165E+02  0.59265067647E+01 -0.54075706902E+01  0.19933702058E+02  0.51100000000E-03 0. -1.
        -11    1    3    3    0    0  0.77130423059E+01  0.71838304654E+01  0.15120588962E+02  0.18431783760E+02  0.51100000000E-03 0.  1.
        -12    1    3    3    0    0 -0.16513274358E+02 -0.29027624498E+02 -0.68739655397E+01  0.34096079192E+02  0.00000000000E+00 0.  1.
</event>
<event>
 7    1  0.1749439E-013  0.7246158E+02  0.7816164E-02  0.1226708E+00
        -11   -1    0    0    0    0  0.00000000000E+00  0.00000000000E+00  0.45593999997E+02  0.45594000000E+02  0.51100000000E-03 0.  1.
         11   -1    0    0    0    0 -0.00000000000E+00 -0.00000000000E+00 -0.45593999997E+02  0.45594000000E+02  0.51100000000E-03 0. -1.
    9900012    2    1    2    0    0 -0.11146230733E+02  0.64455095249E+01 -0.13597639924E+02  0.72461578449E+02  0.70000010623E+02 0.  0.
        -12    1    1    2    0    0  0.11146230733E+02 -0.64455095249E+01  0.13597639924E+02  0.18726421551E+02  0.00000000000E+00 0.  1.
         11    1    3    3    0    0  0.64843410444E+01  0.22344061642E+02 -0.74917999455E+01  0.24442398330E+02  0.51100000000E-03 0. -1.
        -11    1    3    3    0    0  0.94603769493E+01 -0.11398468102E+02  0.83294540066E+01  0.16994222883E+02  0.51100000000E-03 0.  1.
         12    1    3    3    0    0 -0.27090948727E+02 -0.45000840153E+01 -0.14435293985E+02  0.31024957236E+02  0.00000000000E+00 0. -1.
</event>
<event>
 7    1  0.1749439E-013  0.7246171E+02  0.7816164E-02  0.1226708E+00
        -11   -1    0    0    0    0  0.00000000000E+00  0.00000000000E+00  0.45593999997E+02  0.45594000000E+02  0.51100000000E-03 0.  1.
         11   -1    0    0    0    0 -0.00000000000E+00 -0.00000000000E+00 -0.45593999997E+02  0.45594000000E+02  0.51100000000E-03 0. -1.
    9900012    2    1    2    0    0 -0.31379009755E+01  0.50027938206E+01 -0.17770754936E+02  0.72461705664E+02  0.70000176344E+02 0.  0.
        -12    1    1    2    0    0  0.31379009755E+01 -0.50027938206E+01  0.17770754936E+02  0.18726294336E+02  0.00000000000E+00 0.  1.
         11    1    3    3    0    0 -0.40352248559E+01 -0.21013240140E+02 -0.13070135715E+02  0.25073247669E+02  0.51100000000E-03 0. -1.
        -11    1    3    3    0    0  0.74592520498E+01  0.10771079443E+02 -0.20594233846E+02  0.24408585815E+02  0.51100000000E-03 0.  1.
        -12    1    3    3    0    0 -0.65619281693E+01  0.15244954517E+02  0.15893614625E+02  0.22979872179E+02  0.00000000000E+00 0.  1.
</event>
<event>
 7    1  0.1749439E-013  0.7246192E+02  0.7816164E-02  0.1226707E+00
        -11   -1    0    0    0    0  0.00000000000E+00  0.00000000000E+00  0.45593999997E+02  0.45594000000E+02  0.51100000000E-03 0.  1.
         11   -1    0    0    0    0 -0.00000000000E+00 -0.00000000000E+00 -0.45593999997E+02  0.45594000000E+02  0.51100000000E-03 0. -1.
    9900012    2    1    2    0    0 -0.15955707949E+02 -0.40214803865E+01 -0.89391928594E+01  0.72461919534E+02  0.70000454948E+02 0.  0.
        -12    1    1    2    0    0  0.15955707949E+02  0.40214803865E+01  0.89391928594E+01  0.18726080466E+02  0.00000000000E+00 0.  1.
         11    1    3    3    0    0 -0.16633589024E+02 -0.23709299083E+01 -0.29265841441E+02  0.33745919279E+02  0.51100000000E-03 0. -1.
        -11    1    3    3    0    0 -0.44455529140E+00 -0.24192807257E+01 -0.90141195697E+01  0.93437091412E+01  0.51100000000E-03 0.  1.
        -12    1    3    3    0    0  0.11224363671E+01  0.76873024754E+00  0.29340768151E+02  0.29372291114E+02  0.00000000000E+00 0.  1.
</event>
<event>
 7    1  0.1749439E-013  0.7246154E+02  0.7816164E-02  0.1226708E+00
        -11   -1    0    0    0    0  0.00000000000E+00  0.00000000000E+00  0.45593999997E+02  0.45594000000E+02  0.51100000000E-03 0.  1.
         11   -1    0    0    0    0 -0.00000000000E+00 -0.00000000000E+00 -0.45593999997E+02  0.45594000000E+02  0.51100000000E-03 0. -1.
    9900012    2    1    2    0    0  0.80857863984E+01  0.30858841719E+01 -0.16606553609E+02  0.72461541564E+02  0.69999962573E+02 0.  0.
        -12    1    1    2    0    0 -0.80857863984E+01 -0.30858841719E+01  0.16606553609E+02  0.18726458436E+02  0.00000000000E+00 0.  1.
         11    1    3    3    0    0 -0.62016316635E+01  0.56216426525E+00 -0.45729448102E+01  0.77258066536E+01  0.51100000000E-03 0. -1.
        -11    1    3    3    0    0  0.18833654528E+02  0.29295332967E+02  0.49367790188E+00  0.34830543990E+02  0.51100000000E-03 0.  1.
         12    1    3    3    0    0 -0.45462364666E+01 -0.26771613060E+02 -0.12527286701E+02  0.29905190920E+02  0.00000000000E+00 0. -1.
</event>
<event>
 7    1  0.1749439E-013  0.7246153E+02  0.7816164E-02  0.1226708E+00
        -11   -1    0    0    0    0  0.00000000000E+00  0.00000000000E+00  0.45593999997E+02  0.45594000000E+02  0.51100000000E-03 0.  1.
         11   -1    0    0    0    0 -0.00000000000E+00 -0.00000000000E+00 -0.45593999997E+02  0.45594000000E+02  0.51100000000E-03 0. -1.
    9900012    2    1    2    0    0 -0.14852512673E+02  0.83765500553E+01 -0.77405943085E+01  0.72461534136E+02  0.69999952897E+02 0.  0.
        -12    1    1    2    0    0  0.14852512673E+02 -0.83765500553E+01  0.77405943085E+01  0.18726465864E+02  0.00000000000E+00 0.  1.
         11    1    3    3    0    0 -0.19911417398E+02 -0.98663055138E+01 -0.10739551571E+02  0.24680893329E+02  0.51100000000E-03 0. -1.
        -11    1    3    3    0    0 -0.12164931199E+02 -0.73401729569E+01  0.83488820790E+01  0.16479305882E+02  0.51100000000E-03 0.  1.
         12    1    3    3    0    0  0.17223835925E+02  0.25583028526E+02 -0.53499248161E+01  0.31301334925E+02  0.00000000000E+00 0. -1.
</event>
<event>
 7    1  0.1749439E-013  0.7246135E+02  0.7816164E-02  0.1226709E+00
        -11   -1    0    0    0    0  0.00000000000E+00  0.00000000000E+00  0.45593999997E+02  0.45594000000E+02  0.51100000000E-03 0. -1.
         11   -1    0    0    0    0 -0.00000000000E+00 -0.00000000000E+00 -0.45593999997E+02  0.45594000000E+02  0.51100000000E-03 0.  1.
    9900012    2    1    2    0    0 -0.92147803099E+01 -0.14250467455E+02  0.79183058410E+01  0.72461346102E+02  0.69999707947E+02 0.  0.
        -12    1    1    2    0    0  0.92147803099E+01  0.14250467455E+02 -0.79183058410E+01  0.18726653898E+02  0.00000000000E+00 0.  1.
         11    1    3    3    0    0  0.75723990224E+01 -0.59814129023E+01  0.40254877604E+01  0.10455767750E+02  0.51100000000E-03 0. -1.
        -11    1    3    3    0    0  0.16066466775E+02  0.69870528899E+01  0.16086718499E+02  0.23785137692E+02  0.51100000000E-03 0.  1.
         12    1    3    3    0    0 -0.32853646107E+02 -0.15256107442E+02 -0.12193900419E+02  0.38220440660E+02  0.00000000000E+00 0. -1.
</event>
<event>
 7    1  0.1749439E-013  0.7246158E+02  0.7816164E-02  0.1226708E+00
        -11   -1    0    0    0    0  0.00000000000E+00  0.00000000000E+00  0.45593999997E+02  0.45594000000E+02  0.51100000000E-03 0.  1.
         11   -1    0    0    0    0 -0.00000000000E+00 -0.00000000000E+00 -0.45593999997E+02  0.45594000000E+02  0.51100000000E-03 0. -1.
    9900012    2    1    2    0    0 -0.37506428132E+01  0.51502802532E+01 -0.17609262215E+02  0.72461579521E+02  0.70000012019E+02 0.  0.
        -12    1    1    2    0    0  0.37506428132E+01 -0.51502802532E+01  0.17609262215E+02  0.18726420479E+02  0.00000000000E+00 0.  1.
         11    1    3    3    0    0 -0.17228138673E+02  0.57495735471E+01 -0.27698576622E+02  0.33122160335E+02  0.51100000000E-03 0. -1.
        -11    1    3    3    0    0  0.63763443942E+01  0.16175448830E+02 -0.19630205312E+01  0.17497324440E+02  0.51100000000E-03 0.  1.
        -12    1    3    3    0    0  0.71011514658E+01 -0.16774742124E+02  0.12052334938E+02  0.21842094746E+02  0.00000000000E+00 0.  1.
</event>
<event>
 7    1  0.1749439E-013  0.7246164E+02  0.7816164E-02  0.1226708E+00
        -11   -1    0    0    0    0  0.00000000000E+00  0.00000000000E+00  0.45593999997E+02  0.45594000000E+02  0.51100000000E-03 0. -1.
         11   -1    0    0    0    0 -0.00000000000E+00 -0.00000000000E+00 -0.45593999997E+02  0.45594000000E+02  0.51100000000E-03 0.  1.
    9900012    2    1    2    0    0 -0.58869978044E+01  0.12772289836E+02  0.12364806818E+02  0.72461639476E+02  0.70000090123E+02 0.  0.
        -12    1    1    2    0    0  0.58869978044E+01 -0.12772289836E+02 -0.12364806818E+02  0.18726360524E+02  0.00000000000E+00 0.  1.
         11    1    3    3    0    0  0.14545882710E+02 -0.22041628866E+01 -0.11575301704E+01  0.14757402014E+02  0.51100000000E-03 0. -1.
        -11    1    3    3    0    0 -0.14003668079E+02  0.26936195203E+02 -0.87717088869E+01  0.31600699498E+02  0.51100000000E-03 0.  1.
         12    1    3    3    0    0 -0.64292124361E+01 -0.11959742481E+02  0.22294045876E+02  0.26103537965E+02  0.00000000000E+00 0. -1.
</event>
<event>
 7    1  0.1749439E-013  0.7246158E+02  0.7816164E-02  0.1226708E+00
        -11   -1    0    0    0    0  0.00000000000E+00  0.00000000000E+00  0.45593999997E+02  0.45594000000E+02  0.51100000000E-03 0.  1.
         11   -1    0    0    0    0 -0.00000000000E+00 -0.00000000000E+00 -0.45593999997E+02  0.45594000000E+02  0.51100000000E-03 0. -1.
    9900012    2    1    2    0    0 -0.12999731516E+02 -0.13161970991E+02  0.29065932154E+01  0.72461580589E+02  0.70000013411E+02 0.  0.
        -12    1    1    2    0    0  0.12999731516E+02  0.13161970991E+02 -0.29065932154E+01  0.18726419411E+02  0.00000000000E+00 0.  1.
         11    1    3    3    0    0 -0.13960428342E+02  0.16201531556E+02 -0.51893092285E+01  0.22007092374E+02  0.51100000000E-03 0. -1.
        -11    1    3    3    0    0 -0.19230521102E+01  0.84480896611E+01  0.90396777936E+01  0.12521346701E+02  0.51100000000E-03 0.  1.
        -12    1    3    3    0    0  0.28837489363E+01 -0.37811592207E+02 -0.94377534966E+00  0.37933141514E+02  0.00000000000E+00 0.  1.
</event>
<event>
 7    1  0.1749439E-013  0.7246147E+02  0.7816164E-02  0.1226708E+00
        -11   -1    0    0    0    0  0.00000000000E+00  0.00000000000E+00  0.45593999997E+02  0.45594000000E+02  0.51100000000E-03 0.  1.
         11   -1    0    0    0    0 -0.00000000000E+00 -0.00000000000E+00 -0.45593999997E+02  0.45594000000E+02  0.51100000000E-03 0. -1.
    9900012    2    1    2    0    0  0.14377859294E+02  0.11773867281E+02  0.23100134368E+01  0.72461469336E+02  0.69999868483E+02 0.  0.
        -12    1    1    2    0    0 -0.14377859294E+02 -0.11773867281E+02 -0.23100134368E+01  0.18726530664E+02  0.00000000000E+00 0.  1.
         11    1    3    3    0    0  0.46472549324E+01 -0.12055065109E+02 -0.54135138895E+01  0.14008130000E+02  0.51100000000E-03 0. -1.
        -11    1    3    3    0    0  0.21516010000E+02 -0.83082655146E+01 -0.11460514720E+01  0.23092842969E+02  0.51100000000E-03 0.  1.
         12    1    3    3    0    0 -0.11785405638E+02  0.32137197905E+02  0.88695787983E+01  0.35360496367E+02  0.00000000000E+00 0. -1.
</event>
<event>
 7    1  0.1749439E-013  0.7246158E+02  0.7816164E-02  0.1226708E+00
        -11   -1    0    0    0    0  0.00000000000E+00  0.00000000000E+00  0.45593999997E+02  0.45594000000E+02  0.51100000000E-03 0.  1.
         11   -1    0    0    0    0 -0.00000000000E+00 -0.00000000000E+00 -0.45593999997E+02  0.45594000000E+02  0.51100000000E-03 0. -1.
    9900012    2    1    2    0    0  0.14172717229E+02  0.12238921034E+01 -0.12178465620E+02  0.72461578815E+02  0.70000011100E+02 0.  0.
        -12    1    1    2    0    0 -0.14172717229E+02 -0.12238921034E+01  0.12178465620E+02  0.18726421185E+02  0.00000000000E+00 0.  1.
         11    1    3    3    0    0  0.11255484222E+02  0.11054223184E+02 -0.90616114697E+01  0.18193256387E+02  0.51100000000E-03 0. -1.
        -11    1    3    3    0    0  0.41027349498E+01  0.18395779124E+02  0.11884164550E+02  0.22281617781E+02  0.51100000000E-03 0.  1.
         12    1    3    3    0    0 -0.11855019424E+01 -0.28226110204E+02 -0.15001018700E+02  0.31986704647E+02  0.00000000000E+00 0. -1.
</event>
<event>
 7    1  0.1749439E-013  0.7246158E+02  0.7816164E-02  0.1226708E+00
        -11   -1    0    0    0    0  0.00000000000E+00  0.00000000000E+00  0.45593999997E+02  0.45594000000E+02  0.51100000000E-03 0. -1.
         11   -1    0    0    0    0 -0.00000000000E+00 -0.00000000000E+00 -0.45593999997E+02  0.45594000000E+02  0.51100000000E-03 0.  1.
    9900012    2    1    2    0    0 -0.29805947304E+01 -0.12248605660E+02  0.13847976045E+02  0.72461582133E+02  0.70000015422E+02 0.  0.
        -12    1    1    2    0    0  0.29805947304E+01  0.12248605660E+02 -0.13847976045E+02  0.18726417867E+02  0.00000000000E+00 0.  1.
         11    1    3    3    0    0 -0.55389594153E+00 -0.35514543589E+02 -0.46852475394E+00  0.35521952688E+02  0.51100000000E-03 0. -1.
        -11    1    3    3    0    0  0.10449279193E+02  0.57211705536E+01  0.77341106224E+01  0.14203369162E+02  0.51100000000E-03 0.  1.
        -12    1    3    3    0    0 -0.12875977982E+02  0.17544767375E+02  0.65823901770E+01  0.22736260284E+02  0.00000000000E+00 0.  1.
</event>
<event>
 7    1  0.1749439E-013  0.7246157E+02  0.7816164E-02  0.1226708E+00
        -11   -1    0    0    0    0  0.00000000000E+00  0.00000000000E+00  0.45593999997E+02  0.45594000000E+02  0.51100000000E-03 0.  1.
         11   -1    0    0    0    0 -0.00000000000E+00 -0.00000000000E+00 -0.45593999997E+02  0.45594000000E+02  0.51100000000E-03 0. -1.
    9900012    2    1    2    0    0 -0.92101478393E+01  0.88794328052E+01 -0.13675089830E+02  0.72461568626E+02  0.69999997826E+02 0.  0.
        -12    1    1    2    0    0  0.92101478393E+01 -0.88794328052E+01  0.13675089830E+02  0.18726431374E+02  0.00000000000E+00 0.  1.
         11    1    3    3    0    0 -0.63299096229E+01  0.11684212446E+02  0.99701700073E-02  0.13288667201E+02  0.51100000000E-03 0. -1.
        -11    1    3    3    0    0  0.21091032137E+02 -0.14676212504E+02  0.54717925189E+01  0.26270960464E+02  0.51100000000E-03 0.  1.
         12    1    3    3    0    0 -0.23971270353E+02  0.11871432863E+02 -0.19156852518E+02  0.32901940961E+02  0.00000000000E+00 0. -1.
</event>
<event>
 7    1  0.1749439E-013  0.7246157E+02  0.7816164E-02  0.1226708E+00
        -11   -1    0    0    0    0  0.00000000000E+00  0.00000000000E+00  0.45593999997E+02  0.45594000000E+02  0.51100000000E-03 0.  1.
         11   -1    0    0    0    0 -0.00000000000E+00 -0.00000000000E+00 -0.45593999997E+02  0.45594000000E+02  0.51100000000E-03 0. -1.
    9900012    2    1    2    0    0  0.17636350067E+02  0.11442408024E+01 -0.61910316743E+01  0.72461574716E+02  0.70000005760E+02 0.  0.
        -12    1    1    2    0    0 -0.17636350067E+02 -0.11442408024E+01  0.61910316743E+01  0.18726425284E+02  0.00000000000E+00 0.  1.
         11    1    3    3    0    0  0.40325631577E+02 -0.32846736466E+00 -0.34644329110E+01  0.40475508009E+02  0.51100000000E-03 0. -1.
        -11    1    3    3    0    0 -0.61460628806E+01  0.82507454877E+01  0.61911080935E+01  0.12007443930E+02  0.51100000000E-03 0.  1.
        -12    1    3    3    0    0 -0.16543218629E+02 -0.67780373207E+01 -0.89177068569E+01  0.19978622778E+02  0.00000000000E+00 0.  1.
</event>
<event>
 7    1  0.1749439E-013  0.7246205E+02  0.7816164E-02  0.1226707E+00
        -11   -1    0    0    0    0  0.00000000000E+00  0.00000000000E+00  0.45593999997E+02  0.45594000000E+02  0.51100000000E-03 0.  1.
         11   -1    0    0    0    0 -0.00000000000E+00 -0.00000000000E+00 -0.45593999997E+02  0.45594000000E+02  0.51100000000E-03 0. -1.
    9900012    2    1    2    0    0 -0.42035690074E+01 -0.52924166611E+01 -0.17463718810E+02  0.72462051661E+02  0.70000627067E+02 0.  0.
        -12    1    1    2    0    0  0.42035690074E+01  0.52924166611E+01  0.17463718810E+02  0.18725948339E+02  0.00000000000E+00 0.  1.
         11    1    3    3    0    0 -0.41136089924E+01 -0.90903807594E+00 -0.19644940218E+01  0.46483724236E+01  0.51100000000E-03 0. -1.
        -11    1    3    3    0    0 -0.72319136820E+01  0.27386087844E+02  0.57884937242E+01  0.28910293024E+02  0.51100000000E-03 0.  1.
         12    1    3    3    0    0  0.71419536670E+01 -0.31769466429E+02 -0.21287718513E+02  0.38903386213E+02  0.00000000000E+00 0. -1.
</event>
<event>
 7    1  0.1749439E-013  0.7246157E+02  0.7816164E-02  0.1226708E+00
        -11   -1    0    0    0    0  0.00000000000E+00  0.00000000000E+00  0.45593999997E+02  0.45594000000E+02  0.51100000000E-03 0.  1.
         11   -1    0    0    0    0 -0.00000000000E+00 -0.00000000000E+00 -0.45593999997E+02  0.45594000000E+02  0.51100000000E-03 0. -1.
    9900012    2    1    2    0    0 -0.60642342248E+01 -0.16921729979E+02  0.52497013092E+01  0.72461568251E+02  0.69999997338E+02 0.  0.
        -12    1    1    2    0    0  0.60642342248E+01  0.16921729979E+02 -0.52497013092E+01  0.18726431749E+02  0.00000000000E+00 0.  1.
         11    1    3    3    0    0 -0.20215039808E+02 -0.33991804677E+01  0.60823227991E+01  0.21382163435E+02  0.51100000000E-03 0. -1.
        -11    1    3    3    0    0  0.19138697055E+02 -0.59995604165E+01  0.20031253893E+02  0.28346703211E+02  0.51100000000E-03 0.  1.
         12    1    3    3    0    0 -0.49878914720E+01 -0.75229890948E+01 -0.20863875383E+02  0.22732701604E+02  0.00000000000E+00 0. -1.
</event>
<event>
 7    1  0.1749439E-013  0.7246160E+02  0.7816164E-02  0.1226708E+00
        -11   -1    0    0    0    0  0.00000000000E+00  0.00000000000E+00  0.45593999997E+02  0.45594000000E+02  0.51100000000E-03 0.  1.
         11   -1    0    0    0    0 -0.00000000000E+00 -0.00000000000E+00 -0.45593999997E+02  0.45594000000E+02  0.51100000000E-03 0. -1.
    9900012    2    1    2    0    0 -0.18509314903E+01 -0.11865715675E+02 -0.14368609973E+02  0.72461598626E+02  0.70000036907E+02 0.  0.
        -12    1    1    2    0    0  0.18509314903E+01  0.11865715675E+02  0.14368609973E+02  0.18726401374E+02  0.00000000000E+00 0.  1.
         11    1    3    3    0    0  0.78704143480E+00 -0.13178816347E+01  0.72781031591E+01  0.74382143072E+01  0.51100000000E-03 0. -1.
        -11    1    3    3    0    0 -0.12536705186E+02  0.23069208426E+02 -0.99769147656E+01  0.28087295754E+02  0.51100000000E-03 0.  1.
         12    1    3    3    0    0  0.98987322605E+01 -0.33617042466E+02 -0.11669798367E+02  0.36936088564E+02  0.00000000000E+00 0. -1.
</event>
<event>
 7    1  0.1749439E-013  0.7246161E+02  0.7816164E-02  0.1226708E+00
        -11   -1    0    0    0    0  0.00000000000E+00  0.00000000000E+00  0.45593999997E+02  0.45594000000E+02  0.51100000000E-03 0. -1.
         11   -1    0    0    0    0 -0.00000000000E+00 -0.00000000000E+00 -0.45593999997E+02  0.45594000000E+02  0.51100000000E-03 0.  1.
    9900012    2    1    2    0    0 -0.16346472063E+02  0.32222339480E+01 -0.85491293708E+01  0.72461613442E+02  0.70000056208E+02 0.  0.
        -12    1    1    2    0    0  0.16346472063E+02 -0.32222339480E+01  0.85491293708E+01  0.18726386558E+02  0.00000000000E+00 0.  1.
         11    1    3    3    0    0  0.14071761501E+02  0.61013475300E+01  0.98697815455E+01  0.18238791118E+02  0.51100000000E-03 0. -1.
        -11    1    3    3    0    0  0.96809073681E+01  0.36889269260E+01 -0.34317994134E+01  0.10913541900E+02  0.51100000000E-03 0.  1.
        -12    1    3    3    0    0 -0.40099140932E+02 -0.65680405080E+01 -0.14987111503E+02  0.43309280424E+02  0.00000000000E+00 0.  1.
</event>
<event>
 7    1  0.1749439E-013  0.7246158E+02  0.7816164E-02  0.1226708E+00
        -11   -1    0    0    0    0  0.00000000000E+00  0.00000000000E+00  0.45593999997E+02  0.45594000000E+02  0.51100000000E-03 0.  1.
         11   -1    0    0    0    0 -0.00000000000E+00 -0.00000000000E+00 -0.45593999997E+02  0.45594000000E+02  0.51100000000E-03 0. -1.
    9900012    2    1    2    0    0  0.56394432670E+00 -0.72700616505E+01 -0.17248394251E+02  0.72461576587E+02  0.70000008197E+02 0.  0.
        -12    1    1    2    0    0 -0.56394432670E+00  0.72700616505E+01  0.17248394251E+02  0.18726423413E+02  0.00000000000E+00 0.  1.
         11    1    3    3    0    0 -0.39588100283E+01  0.46649359877E+01 -0.16899712596E+02  0.17973149159E+02  0.51100000000E-03 0. -1.
        -11    1    3    3    0    0 -0.51842363140E+00  0.16591119815E+02 -0.14688813591E+02  0.22165181361E+02  0.51100000000E-03 0.  1.
         12    1    3    3    0    0  0.50411779864E+01 -0.28526117453E+02  0.14340131936E+02  0.32323246068E+02  0.00000000000E+00 0. -1.
</event>
<event>
 7    1  0.1749439E-013  0.7246155E+02  0.7816164E-02  0.1226708E+00
        -11   -1    0    0    0    0  0.00000000000E+00  0.00000000000E+00  0.45593999997E+02  0.45594000000E+02  0.51100000000E-03 0. -1.
         11   -1    0    0    0    0 -0.00000000000E+00 -0.00000000000E+00 -0.45593999997E+02  0.45594000000E+02  0.51100000000E-03 0.  1.
    9900012    2    1    2    0    0 -0.84563502485E+00  0.74081466980E+01  0.17178013898E+02  0.72461550855E+02  0.69999974677E+02 0.  0.
        -12    1    1    2    0    0  0.84563502485E+00 -0.74081466980E+01 -0.17178013898E+02  0.18726449145E+02  0.00000000000E+00 0.  1.
         11    1    3    3    0    0  0.33952697439E+01  0.31005589913E+01 -0.59330352553E+01  0.75061461679E+01  0.51100000000E-03 0. -1.
        -11    1    3    3    0    0 -0.29406296303E+02 -0.10826671853E+02  0.11598064720E+02  0.33413503127E+02  0.51100000000E-03 0.  1.
         12    1    3    3    0    0  0.25165391534E+02  0.15134259560E+02  0.11512984433E+02  0.31541901561E+02  0.00000000000E+00 0. -1.
</event>
<event>
 7    1  0.1749439E-013  0.7246164E+02  0.7816164E-02  0.1226708E+00
        -11   -1    0    0    0    0  0.00000000000E+00  0.00000000000E+00  0.45593999997E+02  0.45594000000E+02  0.51100000000E-03 0. -1.
         11   -1    0    0    0    0 -0.00000000000E+00 -0.00000000000E+00 -0.45593999997E+02  0.45594000000E+02  0.51100000000E-03 0.  1.
    9900012    2    1    2    0    0  0.16383301309E+02  0.83220911503E+01  0.36064687399E+01  0.72461644784E+02  0.70000097037E+02 0.  0.
        -12    1    1    2    0    0 -0.16383301309E+02 -0.83220911503E+01 -0.36064687399E+01  0.18726355216E+02  0.00000000000E+00 0.  1.
         11    1    3    3    0    0  0.12697497490E+02  0.76608630488E+00  0.17134824005E+02  0.21340466833E+02  0.51100000000E-03 0. -1.
        -11    1    3    3    0    0  0.10351078840E+01  0.12616789744E+02  0.16363313651E+02  0.20688471806E+02  0.51100000000E-03 0.  1.
        -12    1    3    3    0    0  0.26506959354E+01 -0.50607848986E+01 -0.29891668915E+02  0.30432706145E+02  0.00000000000E+00 0.  1.
</event>
<event>
 7    1  0.1749439E-013  0.7246159E+02  0.7816164E-02  0.1226708E+00
        -11   -1    0    0    0    0  0.00000000000E+00  0.00000000000E+00  0.45593999997E+02  0.45594000000E+02  0.51100000000E-03 0.  1.
         11   -1    0    0    0    0 -0.00000000000E+00 -0.00000000000E+00 -0.45593999997E+02  0.45594000000E+02  0.51100000000E-03 0. -1.
    9900012    2    1    2    0    0 -0.18688071183E+02  0.10763420359E+01 -0.52539991132E+00  0.72461586521E+02  0.70000021138E+02 0.  0.
        -12    1    1    2    0    0  0.18688071183E+02 -0.10763420359E+01  0.52539991132E+00  0.18726413479E+02  0.00000000000E+00 0.  1.
         11    1    3    3    0    0 -0.19283140325E+02  0.71701572918E+01 -0.14281094823E+02  0.25043967856E+02  0.51100000000E-03 0. -1.
        -11    1    3    3    0    0 -0.85755167968E+01  0.16929209588E+02  0.12254300260E+02  0.22589942469E+02  0.51100000000E-03 0.  1.
        -12    1    3    3    0    0  0.91705859387E+01 -0.23023024844E+02  0.15013946515E+01  0.24827676197E+02  0.00000000000E+00 0.  1.
</event>
<event>
 7    1  0.1749439E-013  0.7246153E+02  0.7816164E-02  0.1226708E+00
        -11   -1    0    0    0    0  0.00000000000E+00  0.00000000000E+00  0.45593999997E+02  0.45594000000E+02  0.51100000000E-03 0.  1.
         11   -1    0    0    0    0 -0.00000000000E+00 -0.00000000000E+00 -0.45593999997E+02  0.45594000000E+02  0.51100000000E-03 0. -1.
    9900012    2    1    2    0    0  0.78347151698E+01 -0.87720406695E+01 -0.14572209120E+02  0.72461528417E+02  0.69999945447E+02 0.  0.
        -12    1    1    2    0    0 -0.78347151698E+01  0.87720406695E+01  0.14572209120E+02  0.18726471583E+02  0.00000000000E+00 0.  1.
         11    1    3    3    0    0  0.17543139598E+02  0.15798027354E+01 -0.14410686401E+00  0.17614718014E+02  0.51100000000E-03 0. -1.
        -11    1    3    3    0    0  0.12694566481E+02 -0.16763141032E+02  0.80063990695E+01  0.22500163148E+02  0.51100000000E-03 0.  1.
         12    1    3    3    0    0 -0.22402990909E+02  0.64112976269E+01 -0.22434501325E+02  0.32346647255E+02  0.00000000000E+00 0. -1.
</event>
<event>
 7    1  0.1749439E-013  0.7246155E+02  0.7816164E-02  0.1226708E+00
        -11   -1    0    0    0    0  0.00000000000E+00  0.00000000000E+00  0.45593999997E+02  0.45594000000E+02  0.51100000000E-03 0. -1.
         11   -1    0    0    0    0 -0.00000000000E+00 -0.00000000000E+00 -0.45593999997E+02  0.45594000000E+02  0.51100000000E-03 0.  1.
    9900012    2    1    2    0    0 -0.55556793862E+00  0.74477015013E+01  0.17172738101E+02  0.72461552198E+02  0.69999976426E+02 0.  0.
        -12    1    1    2    0    0  0.55556793862E+00 -0.74477015013E+01 -0.17172738101E+02  0.18726447802E+02  0.00000000000E+00 0.  1.
         11    1    3    3    0    0  0.25662583402E+02 -0.66567120936E+01  0.35333667634E+01  0.26746302244E+02  0.51100000000E-03 0. -1.
        -11    1    3    3    0    0 -0.68098957144E+01 -0.61228113517E+01  0.15083216316E+02  0.17645591891E+02  0.51100000000E-03 0.  1.
        -12    1    3    3    0    0 -0.19408255626E+02  0.20227224947E+02 -0.14438449777E+01  0.28069658064E+02  0.00000000000E+00 0.  1.
</event>
<event>
 7    1  0.1749439E-013  0.7246161E+02  0.7816164E-02  0.1226708E+00
        -11   -1    0    0    0    0  0.00000000000E+00  0.00000000000E+00  0.45593999997E+02  0.45594000000E+02  0.51100000000E-03 0.  1.
         11   -1    0    0    0    0 -0.00000000000E+00 -0.00000000000E+00 -0.45593999997E+02  0.45594000000E+02  0.51100000000E-03 0. -1.
    9900012    2    1    2    0    0  0.33320492223E+01  0.16436703690E+02 -0.83312715571E+01  0.72461605099E+02  0.70000045340E+02 0.  0.
        -12    1    1    2    0    0 -0.33320492223E+01 -0.16436703690E+02  0.83312715571E+01  0.18726394901E+02  0.00000000000E+00 0.  1.
         11    1    3    3    0    0  0.19160552260E+01 -0.10639693645E+02 -0.92297459455E+01  0.14214871050E+02  0.51100000000E-03 0. -1.
        -11    1    3    3    0    0 -0.12181263929E+02 -0.11814743649E+02 -0.10400708777E+01  0.17001561872E+02  0.51100000000E-03 0.  1.
        -12    1    3    3    0    0  0.13597257926E+02  0.38891140984E+02  0.19385452660E+01  0.41245172177E+02  0.00000000000E+00 0.  1.
</event>
<event>
 7    1  0.1749439E-013  0.7246157E+02  0.7816164E-02  0.1226708E+00
        -11   -1    0    0    0    0  0.00000000000E+00  0.00000000000E+00  0.45593999997E+02  0.45594000000E+02  0.51100000000E-03 0.  1.
         11   -1    0    0    0    0 -0.00000000000E+00 -0.00000000000E+00 -0.45593999997E+02  0.45594000000E+02  0.51100000000E-03 0. -1.
    9900012    2    1    2    0    0  0.97314463647E+01  0.61958964797E+01 -0.14750899485E+02  0.72461569023E+02  0.69999998344E+02 0.  0.
        -12    1    1    2    0    0 -0.97314463647E+01 -0.61958964797E+01  0.14750899485E+02  0.18726430977E+02  0.00000000000E+00 0.  1.
         11    1    3    3    0    0  0.16267275572E+01  0.75740579860E+01 -0.77859731383E+01  0.10983349894E+02  0.51100000000E-03 0. -1.
        -11    1    3    3    0    0 -0.16386371833E+02  0.19181197285E+02 -0.13834687572E+02  0.28772036626E+02  0.51100000000E-03 0.  1.
         12    1    3    3    0    0  0.24491090640E+02 -0.20559358791E+02  0.68697612258E+01  0.32706182503E+02  0.00000000000E+00 0. -1.
</event>
<event>
 7    1  0.1749439E-013  0.7246152E+02  0.7816164E-02  0.1226708E+00
        -11   -1    0    0    0    0  0.00000000000E+00  0.00000000000E+00  0.45593999997E+02  0.45594000000E+02  0.51100000000E-03 0. -1.
         11   -1    0    0    0    0 -0.00000000000E+00 -0.00000000000E+00 -0.45593999997E+02  0.45594000000E+02  0.51100000000E-03 0.  1.
    9900012    2    1    2    0    0 -0.11174591548E+02 -0.19551577727E+01  0.14899223509E+02  0.72461521438E+02  0.69999936355E+02 0.  0.
        -12    1    1    2    0    0  0.11174591548E+02  0.19551577727E+01 -0.14899223509E+02  0.18726478562E+02  0.00000000000E+00 0.  1.
         11    1    3    3    0    0  0.87739898486E+01  0.13765989137E+01  0.67388526937E+00  0.89068537683E+01  0.51100000000E-03 0. -1.
        -11    1    3    3    0    0  0.17506504261E+02 -0.24659518847E+01  0.18805139059E+02  0.25810692850E+02  0.51100000000E-03 0.  1.
         12    1    3    3    0    0 -0.37455085658E+02 -0.86580480171E+00 -0.45798008191E+01  0.37743974819E+02  0.00000000000E+00 0. -1.
</event>
<event>
 7    1  0.1749439E-013  0.7246155E+02  0.7816164E-02  0.1226708E+00
        -11   -1    0    0    0    0  0.00000000000E+00  0.00000000000E+00  0.45593999997E+02  0.45594000000E+02  0.51100000000E-03 0.  1.
         11   -1    0    0    0    0 -0.00000000000E+00 -0.00000000000E+00 -0.45593999997E+02  0.45594000000E+02  0.51100000000E-03 0. -1.
    9900012    2    1    2    0    0 -0.85127586933E+01 -0.11877573751E+02  0.11710507373E+02  0.72461553415E+02  0.69999978011E+02 0.  0.
        -12    1    1    2    0    0  0.85127586933E+01  0.11877573751E+02 -0.11710507373E+02  0.18726446585E+02  0.00000000000E+00 0.  1.
         11    1    3    3    0    0 -0.60429937580E+01 -0.66587616376E+01 -0.11647143093E+02  0.14714374693E+02  0.51100000000E-03 0. -1.
        -11    1    3    3    0    0 -0.24981421638E+02 -0.55555530867E+01  0.24193711619E+02  0.35217485421E+02  0.51100000000E-03 0.  1.
        -12    1    3    3    0    0  0.22511656703E+02  0.33674097334E+00 -0.83606115292E+00  0.22529693301E+02  0.00000000000E+00 0.  1.
</event>
<event>
 7    1  0.1749439E-013  0.7246163E+02  0.7816164E-02  0.1226708E+00
        -11   -1    0    0    0    0  0.00000000000E+00  0.00000000000E+00  0.45593999997E+02  0.45594000000E+02  0.51100000000E-03 0. -1.
         11   -1    0    0    0    0 -0.00000000000E+00 -0.00000000000E+00 -0.45593999997E+02  0.45594000000E+02  0.51100000000E-03 0.  1.
    9900012    2    1    2    0    0 -0.25016927607E+01  0.13466334415E+02  0.12770137103E+02  0.72461627397E+02  0.70000074387E+02 0.  0.
        -12    1    1    2    0    0  0.25016927607E+01 -0.13466334415E+02 -0.12770137103E+02  0.18726372603E+02  0.00000000000E+00 0.  1.
         11    1    3    3    0    0 -0.34475128544E+01  0.58147450571E+01  0.73362515905E+01  0.99758304226E+01  0.51100000000E-03 0. -1.
        -11    1    3    3    0    0 -0.28453190458E+02  0.14395298724E+02  0.52877910150E+01  0.32322892919E+02  0.51100000000E-03 0.  1.
         12    1    3    3    0    0  0.29399010552E+02 -0.67437093657E+01  0.14609449735E+00  0.30162904055E+02  0.00000000000E+00 0. -1.
</event>
<event>
 7    1  0.1749439E-013  0.7246159E+02  0.7816164E-02  0.1226708E+00
        -11   -1    0    0    0    0  0.00000000000E+00  0.00000000000E+00  0.45593999997E+02  0.45594000000E+02  0.51100000000E-03 0.  1.
         11   -1    0    0    0    0 -0.00000000000E+00 -0.00000000000E+00 -0.45593999997E+02  0.45594000000E+02  0.51100000000E-03 0. -1.
    9900012    2    1    2    0    0 -0.16716383661E+02 -0.29238642550E+01 -0.79178157961E+01  0.72461594262E+02  0.70000031222E+02 0.  0.
        -12    1    1    2    0    0  0.16716383661E+02  0.29238642550E+01  0.79178157961E+01  0.18726405738E+02  0.00000000000E+00 0.  1.
         11    1    3    3    0    0  0.10507162433E+02  0.73116333953E+01 -0.41252845468E+00  0.12807444135E+02  0.51100000000E-03 0. -1.
        -11    1    3    3    0    0  0.14117807886E+02 -0.23477754538E+01 -0.10053592193E+02  0.17489976139E+02  0.51100000000E-03 0.  1.
        -12    1    3    3    0    0 -0.41341353980E+02 -0.78877221965E+01  0.25483048520E+01  0.42164173987E+02  0.00000000000E+00 0.  1.
</event>
<event>
 7    1  0.1749439E-013  0.7246157E+02  0.7816164E-02  0.1226708E+00
        -11   -1    0    0    0    0  0.00000000000E+00  0.00000000000E+00  0.45593999997E+02  0.45594000000E+02  0.51100000000E-03 0.  1.
         11   -1    0    0    0    0 -0.00000000000E+00 -0.00000000000E+00 -0.45593999997E+02  0.45594000000E+02  0.51100000000E-03 0. -1.
    9900012    2    1    2    0    0  0.21620416042E+01  0.96722985993E+01 -0.15888717687E+02  0.72461571247E+02  0.70000001242E+02 0.  0.
        -12    1    1    2    0    0 -0.21620416042E+01 -0.96722985993E+01  0.15888717687E+02  0.18726428753E+02  0.00000000000E+00 0.  1.
         11    1    3    3    0    0 -0.12595103594E+01  0.14613653471E+02 -0.12131774380E+02  0.19034841317E+02  0.51100000000E-03 0. -1.
        -11    1    3    3    0    0 -0.91887605790E+01  0.13631802326E+02  0.16425247156E+02  0.23238935002E+02  0.51100000000E-03 0.  1.
         12    1    3    3    0    0  0.12610312543E+02 -0.18573157197E+02 -0.20182190463E+02  0.30187794928E+02  0.00000000000E+00 0. -1.
</event>
<event>
 7    1  0.1749439E-013  0.7246150E+02  0.7816164E-02  0.1226708E+00
        -11   -1    0    0    0    0  0.00000000000E+00  0.00000000000E+00  0.45593999997E+02  0.45594000000E+02  0.51100000000E-03 0. -1.
         11   -1    0    0    0    0 -0.00000000000E+00 -0.00000000000E+00 -0.45593999997E+02  0.45594000000E+02  0.51100000000E-03 0.  1.
    9900012    2    1    2    0    0 -0.16180264210E+02 -0.88350176894E+01 -0.32898931059E+01  0.72461497814E+02  0.69999905580E+02 0.  0.
        -12    1    1    2    0    0  0.16180264210E+02  0.88350176894E+01  0.32898931059E+01  0.18726502186E+02  0.00000000000E+00 0.  1.
         11    1    3    3    0    0 -0.10634077682E+02  0.70117542257E+01  0.16020055001E+02  0.20466813820E+02  0.51100000000E-03 0. -1.
        -11    1    3    3    0    0  0.12432147872E+02 -0.16569429345E+02 -0.25602575066E+02  0.32933207250E+02  0.51100000000E-03 0.  1.
         12    1    3    3    0    0 -0.17978334400E+02  0.72265742959E+00  0.62926269599E+01  0.19061476743E+02  0.00000000000E+00 0. -1.
</event>
<event>
 7    1  0.1749439E-013  0.7246155E+02  0.7816164E-02  0.1226708E+00
        -11   -1    0    0    0    0  0.00000000000E+00  0.00000000000E+00  0.45593999997E+02  0.45594000000E+02  0.51100000000E-03 0.  1.
         11   -1    0    0    0    0 -0.00000000000E+00 -0.00000000000E+00 -0.45593999997E+02  0.45594000000E+02  0.51100000000E-03 0. -1.
    9900012    2    1    2    0    0  0.14462362263E+02  0.36893527165E+01 -0.11309665167E+02  0.72461554211E+02  0.69999979049E+02 0.  0.
        -12    1    1    2    0    0 -0.14462362263E+02 -0.36893527165E+01  0.11309665167E+02  0.18726445789E+02  0.00000000000E+00 0.  1.
         11    1    3    3    0    0 -0.31976122382E+01  0.14921783038E+02  0.11673302205E+01  0.15305129635E+02  0.51100000000E-03 0. -1.
        -11    1    3    3    0    0 -0.17435260151E+02 -0.58663208707E+01 -0.11390552119E+02  0.21636697875E+02  0.51100000000E-03 0.  1.
         12    1    3    3    0    0  0.35095234652E+02 -0.53661094504E+01 -0.10864432681E+01  0.35519726701E+02  0.00000000000E+00 0. -1.
</event>
<event>
 7    1  0.1749439E-013  0.7246154E+02  0.7816164E-02  0.1226708E+00
        -11   -1    0    0    0    0  0.00000000000E+00  0.00000000000E+00  0.45593999997E+02  0.45594000000E+02  0.51100000000E-03 0.  1.
         11   -1    0    0    0    0 -0.00000000000E+00 -0.00000000000E+00 -0.45593999997E+02  0.45594000000E+02  0.51100000000E-03 0. -1.
    9900012    2    1    2    0    0 -0.43688406729E+01  0.13732835527E+02  0.11958383378E+02  0.72461535479E+02  0.69999954647E+02 0.  0.
        -12    1    1    2    0    0  0.43688406729E+01 -0.13732835527E+02 -0.11958383378E+02  0.18726464521E+02  0.00000000000E+00 0.  1.
         11    1    3    3    0    0 -0.32315037155E+01 -0.78250188959E+01  0.66049336790E+01  0.10737722577E+02  0.51100000000E-03 0.  1.
        -11    1    3    3    0    0 -0.85121564233E+01 -0.17859712436E+02 -0.47967058222E+01  0.20357664951E+02  0.51100000000E-03 0. -1.
         12    1    3    3    0    0  0.73748194660E+01  0.39417566858E+02  0.10150155521E+02  0.41366147951E+02  0.00000000000E+00 0. -1.
</event>
<event>
 7    1  0.1749439E-013  0.7246158E+02  0.7816164E-02  0.1226708E+00
        -11   -1    0    0    0    0  0.00000000000E+00  0.00000000000E+00  0.45593999997E+02  0.45594000000E+02  0.51100000000E-03 0.  1.
         11   -1    0    0    0    0 -0.00000000000E+00 -0.00000000000E+00 -0.45593999997E+02  0.45594000000E+02  0.51100000000E-03 0. -1.
    9900012    2    1    2    0    0  0.27172038646E+01 -0.16337207939E+02 -0.87402132441E+01  0.72461577821E+02  0.70000009805E+02 0.  0.
        -12    1    1    2    0    0 -0.27172038646E+01  0.16337207939E+02  0.87402132441E+01  0.18726422179E+02  0.00000000000E+00 0.  1.
         11    1    3    3    0    0  0.10032279321E+02 -0.13146194458E+02  0.13492332849E+02  0.21342729513E+02  0.51100000000E-03 0. -1.
        -11    1    3    3    0    0 -0.66577858191E+01 -0.15219014759E+02  0.81005409994E+01  0.18481430870E+02  0.51100000000E-03 0.  1.
         12    1    3    3    0    0 -0.65728963755E+00  0.12028001279E+02 -0.30333087093E+02  0.32637417438E+02  0.00000000000E+00 0. -1.
</event>
<event>
 7    1  0.1749439E-013  0.7246154E+02  0.7816164E-02  0.1226708E+00
        -11   -1    0    0    0    0  0.00000000000E+00  0.00000000000E+00  0.45593999997E+02  0.45594000000E+02  0.51100000000E-03 0.  1.
         11   -1    0    0    0    0 -0.00000000000E+00 -0.00000000000E+00 -0.45593999997E+02  0.45594000000E+02  0.51100000000E-03 0. -1.
    9900012    2    1    2    0    0  0.14625161023E+02  0.18516948963E+00 -0.11694042988E+02  0.72461541069E+02  0.69999961929E+02 0.  0.
        -12    1    1    2    0    0 -0.14625161023E+02 -0.18516948963E+00  0.11694042988E+02  0.18726458931E+02  0.00000000000E+00 0.  1.
         11    1    3    3    0    0 -0.62237817417E+01  0.28501482374E+02 -0.10276546602E+02  0.30930201536E+02  0.51100000000E-03 0.  1.
        -11    1    3    3    0    0  0.34705765726E+01 -0.29244252486E+00  0.67184452654E+01  0.75675578241E+01  0.51100000000E-03 0. -1.
         12    1    3    3    0    0  0.17378366192E+02 -0.28023870360E+02 -0.81359416506E+01  0.33963781709E+02  0.00000000000E+00 0. -1.
</event>
<event>
 7    1  0.1749439E-013  0.7246156E+02  0.7816164E-02  0.1226708E+00
        -11   -1    0    0    0    0  0.00000000000E+00  0.00000000000E+00  0.45593999997E+02  0.45594000000E+02  0.51100000000E-03 0.  1.
         11   -1    0    0    0    0 -0.00000000000E+00 -0.00000000000E+00 -0.45593999997E+02  0.45594000000E+02  0.51100000000E-03 0. -1.
    9900012    2    1    2    0    0 -0.11130608419E+01  0.18311754826E+02  0.37577020449E+01  0.72461558964E+02  0.69999985240E+02 0.  0.
        -12    1    1    2    0    0  0.11130608419E+01 -0.18311754826E+02 -0.37577020449E+01  0.18726441036E+02  0.00000000000E+00 0.  1.
         11    1    3    3    0    0 -0.28359768828E+00  0.13735388087E+02  0.26956202009E+01  0.14000274358E+02  0.51100000000E-03 0. -1.
        -11    1    3    3    0    0 -0.32858025697E+01  0.23014358416E+02  0.20904003860E+02  0.31263949998E+02  0.51100000000E-03 0.  1.
         12    1    3    3    0    0  0.24563394160E+01 -0.18437991678E+02 -0.19841922016E+02  0.27197334608E+02  0.00000000000E+00 0. -1.
</event>
<event>
 7    1  0.1749439E-013  0.7246160E+02  0.7816164E-02  0.1226708E+00
        -11   -1    0    0    0    0  0.00000000000E+00  0.00000000000E+00  0.45593999997E+02  0.45594000000E+02  0.51100000000E-03 0. -1.
         11   -1    0    0    0    0 -0.00000000000E+00 -0.00000000000E+00 -0.45593999997E+02  0.45594000000E+02  0.51100000000E-03 0.  1.
    9900012    2    1    2    0    0 -0.25043741997E+01  0.59397419918E+01  0.17581965978E+02  0.72461602783E+02  0.70000042323E+02 0.  0.
        -12    1    1    2    0    0  0.25043741997E+01 -0.59397419918E+01 -0.17581965978E+02  0.18726397217E+02  0.00000000000E+00 0.  1.
         11    1    3    3    0    0  0.15444053465E+02 -0.23299774234E+02  0.38225212779E+01  0.28213648044E+02  0.51100000000E-03 0. -1.
        -11    1    3    3    0    0  0.67579773820E+00 -0.26407646317E+01  0.58996068621E+01  0.64989000463E+01  0.51100000000E-03 0.  1.
        -12    1    3    3    0    0 -0.18624225403E+02  0.31880280857E+02  0.78598378380E+01  0.37749054693E+02  0.00000000000E+00 0.  1.
</event>
<event>
 7    1  0.1749439E-013  0.7246157E+02  0.7816164E-02  0.1226708E+00
        -11   -1    0    0    0    0  0.00000000000E+00  0.00000000000E+00  0.45593999997E+02  0.45594000000E+02  0.51100000000E-03 0. -1.
         11   -1    0    0    0    0 -0.00000000000E+00 -0.00000000000E+00 -0.45593999997E+02  0.45594000000E+02  0.51100000000E-03 0.  1.
    9900012    2    1    2    0    0  0.94213055632E+00 -0.76012424877E+01  0.17088382004E+02  0.72461566894E+02  0.69999995571E+02 0.  0.
        -12    1    1    2    0    0 -0.94213055632E+00  0.76012424877E+01 -0.17088382004E+02  0.18726433106E+02  0.00000000000E+00 0.  1.
         11    1    3    3    0    0 -0.39395258780E+01  0.56923694039E+01  0.14894280714E+01  0.70810542870E+01  0.51100000000E-03 0. -1.
        -11    1    3    3    0    0 -0.25416100775E+02 -0.19343565614E+02  0.32375195655E+01  0.32103477108E+02  0.51100000000E-03 0.  1.
         12    1    3    3    0    0  0.30297757209E+02  0.60499537220E+01  0.12361434368E+02  0.33277035499E+02  0.00000000000E+00 0. -1.
</event>
<event>
 7    1  0.1749439E-013  0.7246165E+02  0.7816164E-02  0.1226708E+00
        -11   -1    0    0    0    0  0.00000000000E+00  0.00000000000E+00  0.45593999997E+02  0.45594000000E+02  0.51100000000E-03 0. -1.
         11   -1    0    0    0    0 -0.00000000000E+00 -0.00000000000E+00 -0.45593999997E+02  0.45594000000E+02  0.51100000000E-03 0.  1.
    9900012    2    1    2    0    0 -0.38756843596E+01 -0.12617621239E+02 -0.13283477058E+02  0.72461653380E+02  0.70000108234E+02 0.  0.
        -12    1    1    2    0    0  0.38756843596E+01  0.12617621239E+02  0.13283477058E+02  0.18726346620E+02  0.00000000000E+00 0.  1.
         11    1    3    3    0    0  0.13967785664E+02  0.49120865735E+00 -0.12567468315E+02  0.18795786295E+02  0.51100000000E-03 0. -1.
        -11    1    3    3    0    0  0.12750968547E+02  0.85771815060E+01 -0.43994641715E+01  0.15984696642E+02  0.51100000000E-03 0.  1.
         12    1    3    3    0    0 -0.30594438571E+02 -0.21686011402E+02  0.36834554286E+01  0.37681170443E+02  0.00000000000E+00 0. -1.
</event>
<event>
 7    1  0.1749439E-013  0.7246158E+02  0.7816164E-02  0.1226708E+00
        -11   -1    0    0    0    0  0.00000000000E+00  0.00000000000E+00  0.45593999997E+02  0.45594000000E+02  0.51100000000E-03 0. -1.
         11   -1    0    0    0    0 -0.00000000000E+00 -0.00000000000E+00 -0.45593999997E+02  0.45594000000E+02  0.51100000000E-03 0.  1.
    9900012    2    1    2    0    0  0.14759402890E+02 -0.58572666875E+01 -0.99262994255E+01  0.72461575702E+02  0.70000007044E+02 0.  0.
        -12    1    1    2    0    0 -0.14759402890E+02  0.58572666875E+01  0.99262994255E+01  0.18726424298E+02  0.00000000000E+00 0.  1.
         11    1    3    3    0    0 -0.55650640307E+01  0.17916472660E+02  0.28059585472E+01  0.18969536997E+02  0.51100000000E-03 0. -1.
        -11    1    3    3    0    0  0.24397030538E+02  0.22532323743E+01 -0.64917513156E+00  0.24509459069E+02  0.51100000000E-03 0.  1.
         12    1    3    3    0    0 -0.40725636176E+01 -0.26026971722E+02 -0.12083082841E+02  0.28982579636E+02  0.00000000000E+00 0. -1.
</event>
<event>
 7    1  0.1749439E-013  0.7246161E+02  0.7816164E-02  0.1226708E+00
        -11   -1    0    0    0    0  0.00000000000E+00  0.00000000000E+00  0.45593999997E+02  0.45594000000E+02  0.51100000000E-03 0. -1.
         11   -1    0    0    0    0 -0.00000000000E+00 -0.00000000000E+00 -0.45593999997E+02  0.45594000000E+02  0.51100000000E-03 0.  1.
    9900012    2    1    2    0    0  0.47909546016E+01  0.18020602920E+02 -0.17269124811E+01  0.72461612139E+02  0.70000054510E+02 0.  0.
        -12    1    1    2    0    0 -0.47909546016E+01 -0.18020602920E+02  0.17269124811E+01  0.18726387861E+02  0.00000000000E+00 0.  1.
         11    1    3    3    0    0  0.53771306467E+01  0.68260380825E+01  0.32120245077E+01  0.92642016167E+01  0.51100000000E-03 0. -1.
        -11    1    3    3    0    0  0.14649003913E+02 -0.15942798579E+02 -0.19224105266E+02  0.28953969774E+02  0.51100000000E-03 0.  1.
         12    1    3    3    0    0 -0.15235179958E+02  0.27137363417E+02  0.14285168277E+02  0.34243440748E+02  0.00000000000E+00 0. -1.
</event>
<event>
 7    1  0.1749439E-013  0.7246164E+02  0.7816164E-02  0.1226708E+00
        -11   -1    0    0    0    0  0.00000000000E+00  0.00000000000E+00  0.45593999997E+02  0.45594000000E+02  0.51100000000E-03 0.  1.
         11   -1    0    0    0    0 -0.00000000000E+00 -0.00000000000E+00 -0.45593999997E+02  0.45594000000E+02  0.51100000000E-03 0. -1.
    9900012    2    1    2    0    0 -0.16996115123E+02 -0.16898379679E+01  0.76780804348E+01  0.72461644220E+02  0.70000096302E+02 0.  0.
        -12    1    1    2    0    0  0.16996115123E+02  0.16898379679E+01 -0.76780804348E+01  0.18726355780E+02  0.00000000000E+00 0.  1.
         11    1    3    3    0    0 -0.28875094114E+02 -0.52937033079E+01  0.28171651600E+01  0.29491198256E+02  0.51100000000E-03 0. -1.
        -11    1    3    3    0    0 -0.46137651374E+01  0.17649821909E+02 -0.53642443717E+01  0.19015208653E+02  0.51100000000E-03 0.  1.
        -12    1    3    3    0    0  0.16492744128E+02 -0.14045956569E+02  0.10225159646E+02  0.23955237311E+02  0.00000000000E+00 0.  1.
</event>
<event>
 7    1  0.1749439E-013  0.7246158E+02  0.7816164E-02  0.1226708E+00
        -11   -1    0    0    0    0  0.00000000000E+00  0.00000000000E+00  0.45593999997E+02  0.45594000000E+02  0.51100000000E-03 0.  1.
         11   -1    0    0    0    0 -0.00000000000E+00 -0.00000000000E+00 -0.45593999997E+02  0.45594000000E+02  0.51100000000E-03 0. -1.
    9900012    2    1    2    0    0 -0.68545821196E+01 -0.10160726987E+02 -0.14158146038E+02  0.72461581011E+02  0.70000013960E+02 0.  0.
        -12    1    1    2    0    0  0.68545821196E+01  0.10160726987E+02  0.14158146038E+02  0.18726418989E+02  0.00000000000E+00 0.  1.
         11    1    3    3    0    0 -0.12004615561E+01  0.47857178458E+01 -0.15582349186E+01  0.51741955481E+01  0.51100000000E-03 0. -1.
        -11    1    3    3    0    0 -0.71052412983E+01  0.11831310613E+02  0.20484295246E+02  0.24699609647E+02  0.51100000000E-03 0.  1.
         12    1    3    3    0    0  0.14511207347E+01 -0.26777755446E+02 -0.33084206365E+02  0.42587775816E+02  0.00000000000E+00 0. -1.
</event>
<event>
 7    1  0.1749439E-013  0.7246162E+02  0.7816164E-02  0.1226708E+00
        -11   -1    0    0    0    0  0.00000000000E+00  0.00000000000E+00  0.45593999997E+02  0.45594000000E+02  0.51100000000E-03 0. -1.
         11   -1    0    0    0    0 -0.00000000000E+00 -0.00000000000E+00 -0.45593999997E+02  0.45594000000E+02  0.51100000000E-03 0.  1.
    9900012    2    1    2    0    0 -0.15507479870E+02  0.85195572602E+01  0.61329070477E+01  0.72461619232E+02  0.70000063750E+02 0.  0.
        -12    1    1    2    0    0  0.15507479870E+02 -0.85195572602E+01 -0.61329070477E+01  0.18726380768E+02  0.00000000000E+00 0.  1.
         11    1    3    3    0    0 -0.79878580715E+00  0.12810481410E+02  0.22483070227E+02  0.25888896072E+02  0.51100000000E-03 0. -1.
        -11    1    3    3    0    0 -0.88268113423E+01 -0.60739971945E+01  0.12850950977E+02  0.16731795530E+02  0.51100000000E-03 0.  1.
        -12    1    3    3    0    0 -0.58818827205E+01  0.17830730445E+01 -0.29201114156E+02  0.29840927630E+02  0.00000000000E+00 0.  1.
</event>
<event>
 7    1  0.1749439E-013  0.7246163E+02  0.7816164E-02  0.1226708E+00
        -11   -1    0    0    0    0  0.00000000000E+00  0.00000000000E+00  0.45593999997E+02  0.45594000000E+02  0.51100000000E-03 0. -1.
         11   -1    0    0    0    0 -0.00000000000E+00 -0.00000000000E+00 -0.45593999997E+02  0.45594000000E+02  0.51100000000E-03 0.  1.
    9900012    2    1    2    0    0  0.15321043113E+02  0.79223794097E+01  0.72923651614E+01  0.72461626960E+02  0.70000073817E+02 0.  0.
        -12    1    1    2    0    0 -0.15321043113E+02 -0.79223794097E+01 -0.72923651614E+01  0.18726373040E+02  0.00000000000E+00 0.  1.
         11    1    3    3    0    0  0.52379219036E+01  0.28316027975E+01  0.27711483843E+02  0.28343961214E+02  0.51100000000E-03 0. -1.
        -11    1    3    3    0    0 -0.19780985945E+01 -0.20892168279E+00  0.10406481786E+02  0.10594875447E+02  0.51100000000E-03 0.  1.
         12    1    3    3    0    0  0.12061219804E+02  0.52996982950E+01 -0.30825600468E+02  0.33522790298E+02  0.00000000000E+00 0. -1.
</event>
<event>
 7    1  0.1749439E-013  0.7246159E+02  0.7816164E-02  0.1226708E+00
        -11   -1    0    0    0    0  0.00000000000E+00  0.00000000000E+00  0.45593999997E+02  0.45594000000E+02  0.51100000000E-03 0. -1.
         11   -1    0    0    0    0 -0.00000000000E+00 -0.00000000000E+00 -0.45593999997E+02  0.45594000000E+02  0.51100000000E-03 0.  1.
    9900012    2    1    2    0    0 -0.18419985235E+01 -0.17337992530E+02 -0.68322509601E+01  0.72461585589E+02  0.70000019924E+02 0.  0.
        -12    1    1    2    0    0  0.18419985235E+01  0.17337992530E+02  0.68322509601E+01  0.18726414411E+02  0.00000000000E+00 0.  1.
         11    1    3    3    0    0  0.91841535264E+01 -0.98243810110E+01  0.20235756049E+02  0.24297180111E+02  0.51100000000E-03 0. -1.
        -11    1    3    3    0    0 -0.23749499634E+02 -0.10018220439E+02 -0.12455303853E+02  0.28627575307E+02  0.51100000000E-03 0.  1.
        -12    1    3    3    0    0  0.12723347584E+02  0.25046089204E+01 -0.14612703156E+02  0.19536830170E+02  0.00000000000E+00 0.  1.
</event>
<event>
 7    1  0.1749439E-013  0.7246159E+02  0.7816164E-02  0.1226708E+00
        -11   -1    0    0    0    0  0.00000000000E+00  0.00000000000E+00  0.45593999997E+02  0.45594000000E+02  0.51100000000E-03 0. -1.
         11   -1    0    0    0    0 -0.00000000000E+00 -0.00000000000E+00 -0.45593999997E+02  0.45594000000E+02  0.51100000000E-03 0.  1.
    9900012    2    1    2    0    0 -0.10072344108E+01  0.17356823795E+02  0.69573351412E+01  0.72461591757E+02  0.70000027959E+02 0.  0.
        -12    1    1    2    0    0  0.10072344108E+01 -0.17356823795E+02 -0.69573351412E+01  0.18726408243E+02  0.00000000000E+00 0.  1.
         11    1    3    3    0    0  0.31773623031E-01  0.12454944650E+01 -0.15739223002E+01  0.20073608777E+01  0.51100000000E-03 0. -1.
        -11    1    3    3    0    0  0.29849811780E+02 -0.70879757074E+01 -0.88484770292E+00  0.30692566179E+02  0.51100000000E-03 0.  1.
         12    1    3    3    0    0 -0.30888819813E+02  0.23199305037E+02  0.94161051443E+01  0.39761664701E+02  0.00000000000E+00 0. -1.
</event>
<event>
 7    1  0.1749439E-013  0.7246158E+02  0.7816164E-02  0.1226708E+00
        -11   -1    0    0    0    0  0.00000000000E+00  0.00000000000E+00  0.45593999997E+02  0.45594000000E+02  0.51100000000E-03 0. -1.
         11   -1    0    0    0    0 -0.00000000000E+00 -0.00000000000E+00 -0.45593999997E+02  0.45594000000E+02  0.51100000000E-03 0.  1.
    9900012    2    1    2    0    0 -0.72246401808E+01  0.14404490983E+01  0.17216517863E+02  0.72461579983E+02  0.70000012621E+02 0.  0.
        -12    1    1    2    0    0  0.72246401808E+01 -0.14404490983E+01 -0.17216517863E+02  0.18726420017E+02  0.00000000000E+00 0.  1.
         11    1    3    3    0    0  0.53240229211E+01  0.11269561859E+02 -0.80396809063E+01  0.14831881671E+02  0.51100000000E-03 0. -1.
        -11    1    3    3    0    0 -0.18361326529E+02  0.16444392424E+02  0.14865802505E+02  0.28784517340E+02  0.51100000000E-03 0.  1.
         12    1    3    3    0    0  0.58126634273E+01 -0.26273505184E+02  0.10390396265E+02  0.28845180972E+02  0.00000000000E+00 0. -1.
</event>
<event>
 7    1  0.1749439E-013  0.7246157E+02  0.7816164E-02  0.1226708E+00
        -11   -1    0    0    0    0  0.00000000000E+00  0.00000000000E+00  0.45593999997E+02  0.45594000000E+02  0.51100000000E-03 0.  1.
         11   -1    0    0    0    0 -0.00000000000E+00 -0.00000000000E+00 -0.45593999997E+02  0.45594000000E+02  0.51100000000E-03 0. -1.
    9900012    2    1    2    0    0  0.55613034029E+01 -0.10666771772E+02 -0.14351688976E+02  0.72461572363E+02  0.70000002695E+02 0.  0.
        -12    1    1    2    0    0 -0.55613034029E+01  0.10666771772E+02  0.14351688976E+02  0.18726427637E+02  0.00000000000E+00 0.  1.
         11    1    3    3    0    0 -0.84956508904E+01 -0.17706894098E+02 -0.34517045880E+02  0.39713179666E+02  0.51100000000E-03 0. -1.
        -11    1    3    3    0    0  0.11754035441E+02  0.17151725690E+01  0.11870052475E+00  0.11879110075E+02  0.51100000000E-03 0.  1.
        -12    1    3    3    0    0  0.23029188521E+01  0.53249497569E+01  0.20046656379E+02  0.20869282622E+02  0.00000000000E+00 0.  1.
</event>
<event>
 7    1  0.1749439E-013  0.7246185E+02  0.7816164E-02  0.1226707E+00
        -11   -1    0    0    0    0  0.00000000000E+00  0.00000000000E+00  0.45593999997E+02  0.45594000000E+02  0.51100000000E-03 0. -1.
         11   -1    0    0    0    0 -0.00000000000E+00 -0.00000000000E+00 -0.45593999997E+02  0.45594000000E+02  0.51100000000E-03 0.  1.
    9900012    2    1    2    0    0  0.32706106406E+01 -0.35161435672E+01  0.18099963447E+02  0.72461846195E+02  0.70000359411E+02 0.  0.
        -12    1    1    2    0    0 -0.32706106406E+01  0.35161435672E+01 -0.18099963447E+02  0.18726153805E+02  0.00000000000E+00 0.  1.
         11    1    3    3    0    0 -0.96801516243E+01  0.28744891429E+01  0.27565358167E+02  0.29356719749E+02  0.51100000000E-03 0. -1.
        -11    1    3    3    0    0  0.17189210802E-01 -0.13601985974E+02  0.11242914474E+02  0.17647023659E+02  0.51100000000E-03 0.  1.
        -12    1    3    3    0    0  0.12933573054E+02  0.72113532637E+01 -0.20708309193E+02  0.25458102787E+02  0.00000000000E+00 0.  1.
</event>
<event>
 7    1  0.1749439E-013  0.7246173E+02  0.7816164E-02  0.1226708E+00
        -11   -1    0    0    0    0  0.00000000000E+00  0.00000000000E+00  0.45593999997E+02  0.45594000000E+02  0.51100000000E-03 0.  1.
         11   -1    0    0    0    0 -0.00000000000E+00 -0.00000000000E+00 -0.45593999997E+02  0.45594000000E+02  0.51100000000E-03 0. -1.
    9900012    2    1    2    0    0 -0.79390442827E+01 -0.58109192071E+00 -0.16950132446E+02  0.72461732836E+02  0.70000211741E+02 0.  0.
        -12    1    1    2    0    0  0.79390442827E+01  0.58109192071E+00  0.16950132446E+02  0.18726267164E+02  0.00000000000E+00 0.  1.
         11    1    3    3    0    0 -0.19177097548E+02 -0.17156897667E+02 -0.16652091561E+02  0.30649834608E+02  0.51100000000E-03 0. -1.
        -11    1    3    3    0    0  0.41342867634E+00 -0.79558119790E+01 -0.10450357734E+02  0.13140618119E+02  0.51100000000E-03 0.  1.
        -12    1    3    3    0    0  0.10824624589E+02  0.24531617725E+02  0.10152316848E+02  0.28671280109E+02  0.00000000000E+00 0.  1.
</event>
<event>
 7    1  0.1749439E-013  0.7246188E+02  0.7816164E-02  0.1226707E+00
        -11   -1    0    0    0    0  0.00000000000E+00  0.00000000000E+00  0.45593999997E+02  0.45594000000E+02  0.51100000000E-03 0.  1.
         11   -1    0    0    0    0 -0.00000000000E+00 -0.00000000000E+00 -0.45593999997E+02  0.45594000000E+02  0.51100000000E-03 0. -1.
    9900012    2    1    2    0    0  0.49668669597E+01  0.12302349000E+02 -0.13215528526E+02  0.72461875133E+02  0.70000397108E+02 0.  0.
        -12    1    1    2    0    0 -0.49668669597E+01 -0.12302349000E+02  0.13215528526E+02  0.18726124867E+02  0.00000000000E+00 0.  1.
         11    1    3    3    0    0  0.48459102561E+01  0.37813488535E+00  0.38494902893E+01  0.62003554696E+01  0.51100000000E-03 0. -1.
        -11    1    3    3    0    0  0.24900086285E+02  0.21883110847E+02  0.23679174250E+01  0.33233896409E+02  0.51100000000E-03 0.  1.
         12    1    3    3    0    0 -0.24779129581E+02 -0.99588967323E+01 -0.19432936240E+02  0.33027623254E+02  0.00000000000E+00 0. -1.
</event>
<event>
 7    1  0.1749439E-013  0.7246155E+02  0.7816164E-02  0.1226708E+00
        -11   -1    0    0    0    0  0.00000000000E+00  0.00000000000E+00  0.45593999997E+02  0.45594000000E+02  0.51100000000E-03 0.  1.
         11   -1    0    0    0    0 -0.00000000000E+00 -0.00000000000E+00 -0.45593999997E+02  0.45594000000E+02  0.51100000000E-03 0. -1.
    9900012    2    1    2    0    0 -0.11121739245E+02  0.14973992075E+02  0.16632037742E+01  0.72461554280E+02  0.69999979139E+02 0.  0.
        -12    1    1    2    0    0  0.11121739245E+02 -0.14973992075E+02 -0.16632037742E+01  0.18726445720E+02  0.00000000000E+00 0.  1.
         11    1    3    3    0    0 -0.14292788059E+02  0.92556419131E+01 -0.98568336973E+01  0.19675057014E+02  0.51100000000E-03 0. -1.
        -11    1    3    3    0    0 -0.11254211424E+02  0.85115798774E+00  0.28097134863E+02  0.30279212877E+02  0.51100000000E-03 0.  1.
         12    1    3    3    0    0  0.14425260239E+02  0.48671921745E+01 -0.16577097391E+02  0.22507284388E+02  0.00000000000E+00 0. -1.
</event>
<event>
 7    1  0.1749439E-013  0.7246157E+02  0.7816164E-02  0.1226708E+00
        -11   -1    0    0    0    0  0.00000000000E+00  0.00000000000E+00  0.45593999997E+02  0.45594000000E+02  0.51100000000E-03 0. -1.
         11   -1    0    0    0    0 -0.00000000000E+00 -0.00000000000E+00 -0.45593999997E+02  0.45594000000E+02  0.51100000000E-03 0.  1.
    9900012    2    1    2    0    0 -0.24897767432E+01 -0.15496543600E+02  0.10214563425E+02  0.72461570609E+02  0.70000000410E+02 0.  0.
        -12    1    1    2    0    0  0.24897767432E+01  0.15496543600E+02 -0.10214563425E+02  0.18726429391E+02  0.00000000000E+00 0.  1.
         11    1    3    3    0    0 -0.10667524689E+02 -0.82457362271E+01  0.25599337539E+02  0.28932928155E+02  0.51100000000E-03 0. -1.
        -11    1    3    3    0    0 -0.11267911483E+02  0.58058033494E+01  0.38207695213E+01  0.13239012868E+02  0.51100000000E-03 0.  1.
        -12    1    3    3    0    0  0.19445659429E+02 -0.13056610722E+02 -0.19205543636E+02  0.30289629587E+02  0.00000000000E+00 0.  1.
</event>
<event>
 7    1  0.1749439E-013  0.7246152E+02  0.7816164E-02  0.1226708E+00
        -11   -1    0    0    0    0  0.00000000000E+00  0.00000000000E+00  0.45593999997E+02  0.45594000000E+02  0.51100000000E-03 0.  1.
         11   -1    0    0    0    0 -0.00000000000E+00 -0.00000000000E+00 -0.45593999997E+02  0.45594000000E+02  0.51100000000E-03 0. -1.
    9900012    2    1    2    0    0 -0.13515706652E+02 -0.48844735399E+01  0.12006195494E+02  0.72461517728E+02  0.69999931522E+02 0.  0.
        -12    1    1    2    0    0  0.13515706652E+02  0.48844735399E+01 -0.12006195494E+02  0.18726482272E+02  0.00000000000E+00 0.  1.
         11    1    3    3    0    0  0.31553928022E+01  0.33444919550E+01  0.23071588231E+01  0.51444253585E+01  0.51100000000E-03 0. -1.
        -11    1    3    3    0    0 -0.12886575229E+02 -0.46769599427E+01  0.37035975646E+02  0.39491787346E+02  0.51100000000E-03 0.  1.
         12    1    3    3    0    0 -0.37845242256E+01 -0.35520055521E+01 -0.27336938976E+02  0.27825305023E+02  0.00000000000E+00 0. -1.
</event>
<event>
 7    1  0.1749439E-013  0.7246146E+02  0.7816164E-02  0.1226708E+00
        -11   -1    0    0    0    0  0.00000000000E+00  0.00000000000E+00  0.45593999997E+02  0.45594000000E+02  0.51100000000E-03 0.  1.
         11   -1    0    0    0    0 -0.00000000000E+00 -0.00000000000E+00 -0.45593999997E+02  0.45594000000E+02  0.51100000000E-03 0. -1.
    9900012    2    1    2    0    0 -0.34814499574E+01  0.86527913293E+01 -0.16238601889E+02  0.72461455126E+02  0.69999849972E+02 0.  0.
        -12    1    1    2    0    0  0.34814499574E+01 -0.86527913293E+01  0.16238601889E+02  0.18726544874E+02  0.00000000000E+00 0.  1.
         11    1    3    3    0    0 -0.13325393717E+01 -0.28860764219E+01  0.16888471806E+02  0.17185039380E+02  0.51100000000E-03 0. -1.
        -11    1    3    3    0    0  0.20197529346E+02  0.51324831812E+01 -0.13291144865E+02  0.24717141974E+02  0.51100000000E-03 0.  1.
         12    1    3    3    0    0 -0.22346439932E+02  0.64063845701E+01 -0.19835928830E+02  0.30559273772E+02  0.00000000000E+00 0. -1.
</event>
<event>
 7    1  0.1749439E-013  0.7246158E+02  0.7816164E-02  0.1226708E+00
        -11   -1    0    0    0    0  0.00000000000E+00  0.00000000000E+00  0.45593999997E+02  0.45594000000E+02  0.51100000000E-03 0. -1.
         11   -1    0    0    0    0 -0.00000000000E+00 -0.00000000000E+00 -0.45593999997E+02  0.45594000000E+02  0.51100000000E-03 0.  1.
    9900012    2    1    2    0    0  0.49143185704E+01  0.32252718950E+01  0.17779933275E+02  0.72461576607E+02  0.70000008224E+02 0.  0.
        -12    1    1    2    0    0 -0.49143185704E+01 -0.32252718950E+01 -0.17779933275E+02  0.18726423393E+02  0.00000000000E+00 0.  1.
         11    1    3    3    0    0  0.60112693858E+01 -0.28308633571E+01 -0.76143976957E+01  0.10105849767E+02  0.51100000000E-03 0.  1.
        -11    1    3    3    0    0  0.19706656349E+02  0.30851205290E+01  0.34183133676E+02  0.39577227054E+02  0.51100000000E-03 0. -1.
         12    1    3    3    0    0 -0.20803607165E+02  0.29710147231E+01 -0.87888027048E+01  0.22778499786E+02  0.00000000000E+00 0. -1.
</event>
<event>
 7    1  0.1749439E-013  0.7246157E+02  0.7816164E-02  0.1226708E+00
        -11   -1    0    0    0    0  0.00000000000E+00  0.00000000000E+00  0.45593999997E+02  0.45594000000E+02  0.51100000000E-03 0. -1.
         11   -1    0    0    0    0 -0.00000000000E+00 -0.00000000000E+00 -0.45593999997E+02  0.45594000000E+02  0.51100000000E-03 0.  1.
    9900012    2    1    2    0    0 -0.81813220378E+00 -0.15344715976E+02  0.10702773332E+02  0.72461574669E+02  0.70000005699E+02 0.  0.
        -12    1    1    2    0    0  0.81813220378E+00  0.15344715976E+02 -0.10702773332E+02  0.18726425331E+02  0.00000000000E+00 0.  1.
         11    1    3    3    0    0  0.44746348211E+01  0.86923649009E+01 -0.12565042941E+02  0.15920423007E+02  0.51100000000E-03 0. -1.
        -11    1    3    3    0    0 -0.50666700717E+01  0.12853282352E+02  0.20034501035E+01  0.13960366235E+02  0.51100000000E-03 0.  1.
         12    1    3    3    0    0 -0.22609695320E+00 -0.36890363228E+02  0.21264366170E+02  0.42580785427E+02  0.00000000000E+00 0. -1.
</event>
<event>
 7    1  0.1749439E-013  0.7246161E+02  0.7816164E-02  0.1226708E+00
        -11   -1    0    0    0    0  0.00000000000E+00  0.00000000000E+00  0.45593999997E+02  0.45594000000E+02  0.51100000000E-03 0.  1.
         11   -1    0    0    0    0 -0.00000000000E+00 -0.00000000000E+00 -0.45593999997E+02  0.45594000000E+02  0.51100000000E-03 0. -1.
    9900012    2    1    2    0    0  0.15276339144E+02  0.10517835178E+02  0.25857656629E+01  0.72461612774E+02  0.70000055337E+02 0.  0.
        -12    1    1    2    0    0 -0.15276339144E+02 -0.10517835178E+02 -0.25857656629E+01  0.18726387226E+02  0.00000000000E+00 0.  1.
         11    1    3    3    0    0  0.18718378029E+02 -0.74315399986E+01 -0.30694402730E+01  0.20372209665E+02  0.51100000000E-03 0. -1.
        -11    1    3    3    0    0  0.99706471419E+01 -0.94301886881E+01 -0.10781797197E+02  0.17452490200E+02  0.51100000000E-03 0.  1.
        -12    1    3    3    0    0 -0.13412686027E+02  0.27379563865E+02  0.16437003132E+02  0.34636912909E+02  0.00000000000E+00 0.  1.
</event>
<event>
 7    1  0.1749439E-013  0.7246159E+02  0.7816164E-02  0.1226708E+00
        -11   -1    0    0    0    0  0.00000000000E+00  0.00000000000E+00  0.45593999997E+02  0.45594000000E+02  0.51100000000E-03 0.  1.
         11   -1    0    0    0    0 -0.00000000000E+00 -0.00000000000E+00 -0.45593999997E+02  0.45594000000E+02  0.51100000000E-03 0. -1.
    9900012    2    1    2    0    0  0.11218026588E+01  0.13651589112E+02 -0.12769260161E+02  0.72461592668E+02  0.70000029146E+02 0.  0.
        -12    1    1    2    0    0 -0.11218026588E+01 -0.13651589112E+02  0.12769260161E+02  0.18726407332E+02  0.00000000000E+00 0.  1.
         11    1    3    3    0    0 -0.13456558248E+02  0.13249489991E+02 -0.20054399332E+01  0.18990780249E+02  0.51100000000E-03 0. -1.
        -11    1    3    3    0    0 -0.13186250077E+02 -0.11849068539E+02 -0.14489034667E+02  0.22895627142E+02  0.51100000000E-03 0.  1.
        -12    1    3    3    0    0  0.27764610984E+02  0.12251167661E+02  0.37252144397E+01  0.30575185277E+02  0.00000000000E+00 0.  1.
</event>
<event>
 7    1  0.1749439E-013  0.7246155E+02  0.7816164E-02  0.1226708E+00
        -11   -1    0    0    0    0  0.00000000000E+00  0.00000000000E+00  0.45593999997E+02  0.45594000000E+02  0.51100000000E-03 0.  1.
         11   -1    0    0    0    0 -0.00000000000E+00 -0.00000000000E+00 -0.45593999997E+02  0.45594000000E+02  0.51100000000E-03 0. -1.
    9900012    2    1    2    0    0 -0.14474739826E+02 -0.10046581105E+02 -0.63425576488E+01  0.72461550191E+02  0.69999973811E+02 0.  0.
        -12    1    1    2    0    0  0.14474739826E+02  0.10046581105E+02  0.63425576488E+01  0.18726449809E+02  0.00000000000E+00 0.  1.
         11    1    3    3    0    0  0.43728228203E+00 -0.11928312508E+02 -0.61123774657E+01  0.13410332346E+02  0.51100000000E-03 0. -1.
        -11    1    3    3    0    0  0.16926151986E+02 -0.45127882205E+01 -0.15293165003E+02  0.23253833547E+02  0.51100000000E-03 0.  1.
        -12    1    3    3    0    0 -0.31838174094E+02  0.63945196240E+01  0.15062984820E+02  0.35797384298E+02  0.00000000000E+00 0.  1.
</event>
<event>
 7    1  0.1749439E-013  0.7246163E+02  0.7816164E-02  0.1226708E+00
        -11   -1    0    0    0    0  0.00000000000E+00  0.00000000000E+00  0.45593999997E+02  0.45594000000E+02  0.51100000000E-03 0. -1.
         11   -1    0    0    0    0 -0.00000000000E+00 -0.00000000000E+00 -0.45593999997E+02  0.45594000000E+02  0.51100000000E-03 0.  1.
    9900012    2    1    2    0    0  0.28806989484E+01 -0.15304384234E+02  0.10399734373E+02  0.72461626132E+02  0.70000072738E+02 0.  0.
        -12    1    1    2    0    0 -0.28806989484E+01  0.15304384234E+02 -0.10399734373E+02  0.18726373868E+02  0.00000000000E+00 0.  1.
         11    1    3    3    0    0  0.59600039978E+01 -0.20503033046E+02  0.29825223211E+01  0.21559022506E+02  0.51100000000E-03 0. -1.
        -11    1    3    3    0    0  0.84321462326E+01  0.25589767834E+02  0.39369071463E+01  0.27229332457E+02  0.51100000000E-03 0.  1.
         12    1    3    3    0    0 -0.11511451282E+02 -0.20391119023E+02  0.34803049061E+01  0.23673271169E+02  0.00000000000E+00 0. -1.
</event>
<event>
 7    1  0.1749439E-013  0.7246158E+02  0.7816164E-02  0.1226708E+00
        -11   -1    0    0    0    0  0.00000000000E+00  0.00000000000E+00  0.45593999997E+02  0.45594000000E+02  0.51100000000E-03 0. -1.
         11   -1    0    0    0    0 -0.00000000000E+00 -0.00000000000E+00 -0.45593999997E+02  0.45594000000E+02  0.51100000000E-03 0.  1.
    9900012    2    1    2    0    0 -0.14764970449E+02  0.13583009042E+01  0.11438077691E+02  0.72461576022E+02  0.70000007462E+02 0.  0.
        -12    1    1    2    0    0  0.14764970449E+02 -0.13583009042E+01 -0.11438077691E+02  0.18726423978E+02  0.00000000000E+00 0.  1.
         11    1    3    3    0    0  0.11575420236E+02  0.11924130702E+02  0.23947859520E+02  0.29149189054E+02  0.51100000000E-03 0. -1.
        -11    1    3    3    0    0  0.11776519263E+01  0.43961581262E+01  0.55334203569E+01  0.71646222118E+01  0.51100000000E-03 0.  1.
        -12    1    3    3    0    0 -0.27518042612E+02 -0.14961987924E+02 -0.18043202185E+02  0.36147764757E+02  0.00000000000E+00 0.  1.
</event>
<event>
 7    1  0.1749439E-013  0.7246152E+02  0.7816164E-02  0.1226708E+00
        -11   -1    0    0    0    0  0.00000000000E+00  0.00000000000E+00  0.45593999997E+02  0.45594000000E+02  0.51100000000E-03 0. -1.
         11   -1    0    0    0    0 -0.00000000000E+00 -0.00000000000E+00 -0.45593999997E+02  0.45594000000E+02  0.51100000000E-03 0.  1.
    9900012    2    1    2    0    0 -0.12756179674E+02  0.26850391249E+01  0.13444387100E+02  0.72461518764E+02  0.69999932872E+02 0.  0.
        -12    1    1    2    0    0  0.12756179674E+02 -0.26850391249E+01 -0.13444387100E+02  0.18726481236E+02  0.00000000000E+00 0.  1.
         11    1    3    3    0    0 -0.29495630929E+02  0.12530095966E+02  0.51870680100E+01  0.32463844868E+02  0.51100000000E-03 0. -1.
        -11    1    3    3    0    0  0.34413389840E+01  0.10563569150E+02  0.10815298931E+02  0.15504918524E+02  0.51100000000E-03 0.  1.
        -12    1    3    3    0    0  0.13298112271E+02 -0.20408625992E+02 -0.25579798412E+01  0.24492755372E+02  0.00000000000E+00 0.  1.
</event>
<event>
 7    1  0.1749439E-013  0.7246158E+02  0.7816164E-02  0.1226708E+00
        -11   -1    0    0    0    0  0.00000000000E+00  0.00000000000E+00  0.45593999997E+02  0.45594000000E+02  0.51100000000E-03 0.  1.
         11   -1    0    0    0    0 -0.00000000000E+00 -0.00000000000E+00 -0.45593999997E+02  0.45594000000E+02  0.51100000000E-03 0. -1.
    9900012    2    1    2    0    0  0.93341605710E+01  0.13465076628E+02 -0.90688357449E+01  0.72461584861E+02  0.70000018976E+02 0.  0.
        -12    1    1    2    0    0 -0.93341605710E+01 -0.13465076628E+02  0.90688357449E+01  0.18726415139E+02  0.00000000000E+00 0.  1.
         11    1    3    3    0    0  0.43927714494E+01 -0.73862834522E+01 -0.25806277582E+02  0.27199587996E+02  0.51100000000E-03 0. -1.
        -11    1    3    3    0    0  0.18322222909E+02  0.14845131799E+01  0.91208125602E+01  0.20520644574E+02  0.51100000000E-03 0.  1.
        -12    1    3    3    0    0 -0.13380833787E+02  0.19366846901E+02  0.76166292767E+01  0.24741352292E+02  0.00000000000E+00 0.  1.
</event>
<event>
 7    1  0.1749439E-013  0.7246157E+02  0.7816164E-02  0.1226708E+00
        -11   -1    0    0    0    0  0.00000000000E+00  0.00000000000E+00  0.45593999997E+02  0.45594000000E+02  0.51100000000E-03 0.  1.
         11   -1    0    0    0    0 -0.00000000000E+00 -0.00000000000E+00 -0.45593999997E+02  0.45594000000E+02  0.51100000000E-03 0. -1.
    9900012    2    1    2    0    0 -0.29234166277E+01  0.16549613187E+02 -0.82609481605E+01  0.72461566118E+02  0.69999994559E+02 0.  0.
        -12    1    1    2    0    0  0.29234166277E+01 -0.16549613187E+02  0.82609481605E+01  0.18726433882E+02  0.00000000000E+00 0.  1.
         11    1    3    3    0    0 -0.15197548897E+02  0.18865544867E+02 -0.28699129865E+01  0.24394890375E+02  0.51100000000E-03 0. -1.
        -11    1    3    3    0    0 -0.35830488070E+01 -0.34799529823E+01  0.18614556096E+02  0.19273038433E+02  0.51100000000E-03 0.  1.
         12    1    3    3    0    0  0.15857181076E+02  0.11640213025E+01 -0.24005591270E+02  0.28793637310E+02  0.00000000000E+00 0. -1.
</event>
<event>
 7    1  0.1749439E-013  0.7246157E+02  0.7816164E-02  0.1226708E+00
        -11   -1    0    0    0    0  0.00000000000E+00  0.00000000000E+00  0.45593999997E+02  0.45594000000E+02  0.51100000000E-03 0.  1.
         11   -1    0    0    0    0 -0.00000000000E+00 -0.00000000000E+00 -0.45593999997E+02  0.45594000000E+02  0.51100000000E-03 0. -1.
    9900012    2    1    2    0    0  0.15894140530E+02 -0.83372104558E+01  0.53428821529E+01  0.72461570253E+02  0.69999999946E+02 0.  0.
        -12    1    1    2    0    0 -0.15894140530E+02  0.83372104558E+01 -0.53428821529E+01  0.18726429747E+02  0.00000000000E+00 0.  1.
         11    1    3    3    0    0  0.55137902972E+01 -0.16695578723E+01  0.79034533044E+01  0.97802802274E+01  0.51100000000E-03 0. -1.
        -11    1    3    3    0    0 -0.21274389184E+02  0.10111055679E+02  0.87254539572E+01  0.25119049128E+02  0.51100000000E-03 0.  1.
         12    1    3    3    0    0  0.31654739417E+02 -0.16778708262E+02 -0.11286025109E+02  0.37562240897E+02  0.00000000000E+00 0. -1.
</event>
<event>
 7    1  0.1749439E-013  0.7246156E+02  0.7816164E-02  0.1226708E+00
        -11   -1    0    0    0    0  0.00000000000E+00  0.00000000000E+00  0.45593999997E+02  0.45594000000E+02  0.51100000000E-03 0. -1.
         11   -1    0    0    0    0 -0.00000000000E+00 -0.00000000000E+00 -0.45593999997E+02  0.45594000000E+02  0.51100000000E-03 0.  1.
    9900012    2    1    2    0    0 -0.16662321322E+02  0.79151017898E+01  0.32245709752E+01  0.72461557568E+02  0.69999983421E+02 0.  0.
        -12    1    1    2    0    0  0.16662321322E+02 -0.79151017898E+01 -0.32245709752E+01  0.18726442432E+02  0.00000000000E+00 0.  1.
         11    1    3    3    0    0  0.16260618068E+01 -0.17615334695E+01  0.36656343912E+01  0.43799489626E+01  0.51100000000E-03 0. -1.
        -11    1    3    3    0    0 -0.18593053744E+02  0.35164246112E+02 -0.97341678466E+01  0.40950944752E+02  0.51100000000E-03 0.  1.
         12    1    3    3    0    0  0.30467061488E+00 -0.25487610853E+02  0.92931044306E+01  0.27130663853E+02  0.00000000000E+00 0. -1.
</event>
<event>
 7    1  0.1749439E-013  0.7246156E+02  0.7816164E-02  0.1226708E+00
        -11   -1    0    0    0    0  0.00000000000E+00  0.00000000000E+00  0.45593999997E+02  0.45594000000E+02  0.51100000000E-03 0.  1.
         11   -1    0    0    0    0 -0.00000000000E+00 -0.00000000000E+00 -0.45593999997E+02  0.45594000000E+02  0.51100000000E-03 0. -1.
    9900012    2    1    2    0    0  0.11325452123E+02  0.14862034275E+02  0.12384029995E+01  0.72461559586E+02  0.69999986051E+02 0.  0.
        -12    1    1    2    0    0 -0.11325452123E+02 -0.14862034275E+02 -0.12384029995E+01  0.18726440414E+02  0.00000000000E+00 0.  1.
         11    1    3    3    0    0  0.22374327598E+01  0.40961229660E+01 -0.33220255333E-02  0.46673697094E+01  0.51100000000E-03 0. -1.
        -11    1    3    3    0    0 -0.18265926401E+02  0.25166127483E+02  0.14312037007E+02  0.34231746133E+02  0.51100000000E-03 0.  1.
         12    1    3    3    0    0  0.27353945764E+02 -0.14400216174E+02 -0.13070311982E+02  0.33562443744E+02  0.00000000000E+00 0. -1.
</event>
<event>
 7    1  0.1749439E-013  0.7246153E+02  0.7816164E-02  0.1226708E+00
        -11   -1    0    0    0    0  0.00000000000E+00  0.00000000000E+00  0.45593999997E+02  0.45594000000E+02  0.51100000000E-03 0. -1.
         11   -1    0    0    0    0 -0.00000000000E+00 -0.00000000000E+00 -0.45593999997E+02  0.45594000000E+02  0.51100000000E-03 0.  1.
    9900012    2    1    2    0    0  0.18124378317E+02  0.88882872973E+00 -0.46257689411E+01  0.72461525580E+02  0.69999941752E+02 0.  0.
        -12    1    1    2    0    0 -0.18124378317E+02 -0.88882872973E+00  0.46257689411E+01  0.18726474420E+02  0.00000000000E+00 0.  1.
         11    1    3    3    0    0  0.33532232002E+02  0.17539189660E+01 -0.87405861994E+01  0.34697041115E+02  0.51100000000E-03 0. -1.
        -11    1    3    3    0    0  0.63222762885E+01 -0.11476108679E+02  0.35526325843E+01  0.13575472236E+02  0.51100000000E-03 0.  1.
        -12    1    3    3    0    0 -0.21730129973E+02  0.10611018443E+02  0.56218467398E+00  0.24189012230E+02  0.00000000000E+00 0.  1.
</event>
<event>
 7    1  0.1749439E-013  0.7246156E+02  0.7816164E-02  0.1226708E+00
        -11   -1    0    0    0    0  0.00000000000E+00  0.00000000000E+00  0.45593999997E+02  0.45594000000E+02  0.51100000000E-03 0. -1.
         11   -1    0    0    0    0 -0.00000000000E+00 -0.00000000000E+00 -0.45593999997E+02  0.45594000000E+02  0.51100000000E-03 0.  1.
    9900012    2    1    2    0    0 -0.14394726445E+02  0.10397044259E+02 -0.59474945308E+01  0.72461564943E+02  0.69999993028E+02 0.  0.
        -12    1    1    2    0    0  0.14394726445E+02 -0.10397044259E+02  0.59474945308E+01  0.18726435057E+02  0.00000000000E+00 0.  1.
         11    1    3    3    0    0  0.54177120584E+01 -0.11396893004E+02 -0.53790650987E+00  0.12630523258E+02  0.51100000000E-03 0. -1.
        -11    1    3    3    0    0  0.11135847403E+02 -0.22378542818E+01 -0.15644655038E+02  0.19333140477E+02  0.51100000000E-03 0.  1.
         12    1    3    3    0    0 -0.30948285907E+02  0.24031791545E+02  0.10235067017E+02  0.40497901208E+02  0.00000000000E+00 0. -1.
</event>
<event>
 7    1  0.1749439E-013  0.7246158E+02  0.7816164E-02  0.1226708E+00
        -11   -1    0    0    0    0  0.00000000000E+00  0.00000000000E+00  0.45593999997E+02  0.45594000000E+02  0.51100000000E-03 0. -1.
         11   -1    0    0    0    0 -0.00000000000E+00 -0.00000000000E+00 -0.45593999997E+02  0.45594000000E+02  0.51100000000E-03 0.  1.
    9900012    2    1    2    0    0  0.17489354508E+02 -0.36007189385E+01 -0.56423437892E+01  0.72461581725E+02  0.70000014890E+02 0.  0.
        -12    1    1    2    0    0 -0.17489354508E+02  0.36007189385E+01  0.56423437892E+01  0.18726418275E+02  0.00000000000E+00 0.  1.
         11    1    3    3    0    0 -0.17837735255E+01  0.14529554276E+02 -0.15653080785E+02  0.21431489304E+02  0.51100000000E-03 0. -1.
        -11    1    3    3    0    0  0.26157274074E+02 -0.20158945680E+01 -0.64195854396E+01  0.27008848464E+02  0.51100000000E-03 0.  1.
         12    1    3    3    0    0 -0.68841460403E+01 -0.16114378647E+02  0.16430322435E+02  0.24021243956E+02  0.00000000000E+00 0. -1.
</event>
<event>
 7    1  0.1749439E-013  0.7246140E+02  0.7816164E-02  0.1226708E+00
        -11   -1    0    0    0    0  0.00000000000E+00  0.00000000000E+00  0.45593999997E+02  0.45594000000E+02  0.51100000000E-03 0.  1.
         11   -1    0    0    0    0 -0.00000000000E+00 -0.00000000000E+00 -0.45593999997E+02  0.45594000000E+02  0.51100000000E-03 0. -1.
    9900012    2    1    2    0    0 -0.49471121783E+01  0.16925267086E+02 -0.63045169334E+01  0.72461400773E+02  0.69999779167E+02 0.  0.
        -12    1    1    2    0    0  0.49471121783E+01 -0.16925267086E+02  0.63045169334E+01  0.18726599227E+02  0.00000000000E+00 0.  1.
         11    1    3    3    0    0 -0.80162980644E+01 -0.68858145460E+01 -0.10608976970E+02  0.14974173408E+02  0.51100000000E-03 0.  1.
        -11    1    3    3    0    0  0.63209412929E+01  0.27897342663E+02 -0.18517689173E+02  0.34075223243E+02  0.51100000000E-03 0. -1.
        -12    1    3    3    0    0 -0.32517554068E+01 -0.40862610310E+01  0.22822149211E+02  0.23412004122E+02  0.00000000000E+00 0.  1.
</event>
<event>
 7    1  0.1749439E-013  0.7246163E+02  0.7816164E-02  0.1226708E+00
        -11   -1    0    0    0    0  0.00000000000E+00  0.00000000000E+00  0.45593999997E+02  0.45594000000E+02  0.51100000000E-03 0.  1.
         11   -1    0    0    0    0 -0.00000000000E+00 -0.00000000000E+00 -0.45593999997E+02  0.45594000000E+02  0.51100000000E-03 0. -1.
    9900012    2    1    2    0    0  0.79048115465E+01  0.74136927762E+01 -0.15271802032E+02  0.72461632934E+02  0.70000081600E+02 0.  0.
        -12    1    1    2    0    0 -0.79048115465E+01 -0.74136927762E+01  0.15271802032E+02  0.18726367066E+02  0.00000000000E+00 0.  1.
         11    1    3    3    0    0  0.27362404652E+01  0.20042386195E+01  0.81092569057E+01  0.87899961406E+01  0.51100000000E-03 0.  1.
        -11    1    3    3    0    0  0.27454298915E+02  0.17698179902E+01  0.44107581049E+01  0.27862619618E+02  0.51100000000E-03 0. -1.
         12    1    3    3    0    0 -0.22285727834E+02  0.36396361665E+01 -0.27791817043E+02  0.35809017176E+02  0.00000000000E+00 0. -1.
</event>
<event>
 7    1  0.1749439E-013  0.7246148E+02  0.7816164E-02  0.1226708E+00
        -11   -1    0    0    0    0  0.00000000000E+00  0.00000000000E+00  0.45593999997E+02  0.45594000000E+02  0.51100000000E-03 0.  1.
         11   -1    0    0    0    0 -0.00000000000E+00 -0.00000000000E+00 -0.45593999997E+02  0.45594000000E+02  0.51100000000E-03 0. -1.
    9900012    2    1    2    0    0 -0.90333873904E+00 -0.18454522427E+02 -0.30491433450E+01  0.72461476189E+02  0.69999877411E+02 0.  0.
        -12    1    1    2    0    0  0.90333873904E+00  0.18454522427E+02  0.30491433450E+01  0.18726523811E+02  0.00000000000E+00 0.  1.
         11    1    3    3    0    0  0.33971981083E+01  0.79560193621E+01 -0.93673135685E+01  0.12750912235E+02  0.51100000000E-03 0. -1.
        -11    1    3    3    0    0 -0.20428087416E+02  0.74809185274E+01  0.38830021117E+01  0.22098610888E+02  0.51100000000E-03 0.  1.
         12    1    3    3    0    0  0.16127550569E+02 -0.33891460317E+02  0.24351681118E+01  0.37611953067E+02  0.00000000000E+00 0. -1.
</event>
<event>
 7    1  0.1749439E-013  0.7246155E+02  0.7816164E-02  0.1226708E+00
        -11   -1    0    0    0    0  0.00000000000E+00  0.00000000000E+00  0.45593999997E+02  0.45594000000E+02  0.51100000000E-03 0.  1.
         11   -1    0    0    0    0 -0.00000000000E+00 -0.00000000000E+00 -0.45593999997E+02  0.45594000000E+02  0.51100000000E-03 0. -1.
    9900012    2    1    2    0    0  0.75226673918E+01 -0.53770483374E+00 -0.17140602482E+02  0.72461550667E+02  0.69999974432E+02 0.  0.
        -12    1    1    2    0    0 -0.75226673918E+01  0.53770483374E+00  0.17140602482E+02  0.18726449333E+02  0.00000000000E+00 0.  1.
         11    1    3    3    0    0  0.75532607404E+01 -0.12281006056E+02 -0.13012662252E+02  0.19421746490E+02  0.51100000000E-03 0. -1.
        -11    1    3    3    0    0  0.21530216300E+02 -0.82081156825E+01 -0.52899081480E+01  0.23641203554E+02  0.51100000000E-03 0.  1.
        -12    1    3    3    0    0 -0.21560809649E+02  0.19951416904E+02  0.11619679186E+01  0.29398600624E+02  0.00000000000E+00 0.  1.
</event>
<event>
 7    1  0.1749439E-013  0.7246159E+02  0.7816164E-02  0.1226708E+00
        -11   -1    0    0    0    0  0.00000000000E+00  0.00000000000E+00  0.45593999997E+02  0.45594000000E+02  0.51100000000E-03 0.  1.
         11   -1    0    0    0    0 -0.00000000000E+00 -0.00000000000E+00 -0.45593999997E+02  0.45594000000E+02  0.51100000000E-03 0. -1.
    9900012    2    1    2    0    0 -0.14077424008E+02  0.28600879001E+01 -0.12013513887E+02  0.72461588560E+02  0.70000023794E+02 0.  0.
        -12    1    1    2    0    0  0.14077424008E+02 -0.28600879001E+01  0.12013513887E+02  0.18726411440E+02  0.00000000000E+00 0.  1.
         11    1    3    3    0    0 -0.25940292812E+02 -0.89954995766E+00 -0.99939404039E+01  0.27813428885E+02  0.51100000000E-03 0. -1.
        -11    1    3    3    0    0  0.18364548055E+02 -0.11117343748E+02  0.10734809832E+02  0.24001835340E+02  0.51100000000E-03 0.  1.
         12    1    3    3    0    0 -0.65016792516E+01  0.14876981606E+02 -0.12754383315E+02  0.20646324335E+02  0.00000000000E+00 0. -1.
</event>
<event>
 7    1  0.1749439E-013  0.7246156E+02  0.7816164E-02  0.1226708E+00
        -11   -1    0    0    0    0  0.00000000000E+00  0.00000000000E+00  0.45593999997E+02  0.45594000000E+02  0.51100000000E-03 0. -1.
         11   -1    0    0    0    0 -0.00000000000E+00 -0.00000000000E+00 -0.45593999997E+02  0.45594000000E+02  0.51100000000E-03 0.  1.
    9900012    2    1    2    0    0 -0.82705775926E+01 -0.14077411746E+02  0.91708076521E+01  0.72461556446E+02  0.69999981960E+02 0.  0.
        -12    1    1    2    0    0  0.82705775926E+01  0.14077411746E+02 -0.91708076521E+01  0.18726443554E+02  0.00000000000E+00 0.  1.
         11    1    3    3    0    0  0.98826262051E-01 -0.10160190871E-01  0.29756521964E+02  0.29756687811E+02  0.51100000000E-03 0. -1.
        -11    1    3    3    0    0  0.11403939698E+02 -0.17803297104E+01  0.12952326788E+00  0.11542798234E+02  0.51100000000E-03 0.  1.
        -12    1    3    3    0    0 -0.19773343553E+02 -0.12286921845E+02 -0.20715237580E+02  0.31162070401E+02  0.00000000000E+00 0.  1.
</event>
<event>
 7    1  0.1749439E-013  0.7246158E+02  0.7816164E-02  0.1226708E+00
        -11   -1    0    0    0    0  0.00000000000E+00  0.00000000000E+00  0.45593999997E+02  0.45594000000E+02  0.51100000000E-03 0. -1.
         11   -1    0    0    0    0 -0.00000000000E+00 -0.00000000000E+00 -0.45593999997E+02  0.45594000000E+02  0.51100000000E-03 0.  1.
    9900012    2    1    2    0    0 -0.12848270148E+02 -0.13313015366E+02  0.28921024682E+01  0.72461583348E+02  0.70000017005E+02 0.  0.
        -12    1    1    2    0    0  0.12848270148E+02  0.13313015366E+02 -0.28921024682E+01  0.18726416652E+02  0.00000000000E+00 0.  1.
         11    1    3    3    0    0  0.93358153089E+00 -0.35587097013E+02 -0.65875870258E+01  0.36203720132E+02  0.51100000000E-03 0. -1.
        -11    1    3    3    0    0 -0.17748870818E+02  0.69201157801E+01  0.64527940332E+01  0.20113402716E+02  0.51100000000E-03 0.  1.
        -12    1    3    3    0    0  0.39670191395E+01  0.15353965867E+02  0.30268954608E+01  0.16144460500E+02  0.00000000000E+00 0.  1.
</event>
<event>
 7    1  0.1749439E-013  0.7246157E+02  0.7816164E-02  0.1226708E+00
        -11   -1    0    0    0    0  0.00000000000E+00  0.00000000000E+00  0.45593999997E+02  0.45594000000E+02  0.51100000000E-03 0. -1.
         11   -1    0    0    0    0 -0.00000000000E+00 -0.00000000000E+00 -0.45593999997E+02  0.45594000000E+02  0.51100000000E-03 0.  1.
    9900012    2    1    2    0    0 -0.34237672638E+01  0.57378737056E+01  0.17493820786E+02  0.72461571013E+02  0.70000000936E+02 0.  0.
        -12    1    1    2    0    0  0.34237672638E+01 -0.57378737056E+01 -0.17493820786E+02  0.18726428987E+02  0.00000000000E+00 0.  1.
         11    1    3    3    0    0  0.23197941148E+02  0.18474991317E+02  0.23325999078E+02  0.37730253258E+02  0.51100000000E-03 0. -1.
        -11    1    3    3    0    0  0.15398614927E+01 -0.14688677375E+01  0.24925257902E+01  0.32774122296E+01  0.51100000000E-03 0.  1.
        -12    1    3    3    0    0 -0.28161569905E+02 -0.11268249874E+02 -0.83247040819E+01  0.31453905525E+02  0.00000000000E+00 0.  1.
</event>
<event>
 7    1  0.1749439E-013  0.7246140E+02  0.7816164E-02  0.1226708E+00
        -11   -1    0    0    0    0  0.00000000000E+00  0.00000000000E+00  0.45593999997E+02  0.45594000000E+02  0.51100000000E-03 0. -1.
         11   -1    0    0    0    0 -0.00000000000E+00 -0.00000000000E+00 -0.45593999997E+02  0.45594000000E+02  0.51100000000E-03 0.  1.
    9900012    2    1    2    0    0  0.14268709169E+02  0.71465535177E+01  0.97987856681E+01  0.72461401561E+02  0.69999780193E+02 0.  0.
        -12    1    1    2    0    0 -0.14268709169E+02 -0.71465535177E+01 -0.97987856681E+01  0.18726598439E+02  0.00000000000E+00 0.  1.
         11    1    3    3    0    0 -0.24541514795E+02 -0.44005525569E+01 -0.64483589879E+00  0.24941263497E+02  0.51100000000E-03 0.  1.
        -11    1    3    3    0    0  0.13056747720E+02 -0.67763395624E+01  0.23892023193E+01  0.14903211965E+02  0.51100000000E-03 0. -1.
        -12    1    3    3    0    0  0.25753476245E+02  0.18323445637E+02  0.80544192476E+01  0.32616926099E+02  0.00000000000E+00 0.  1.
</event>
<event>
 7    1  0.1749439E-013  0.7246160E+02  0.7816164E-02  0.1226708E+00
        -11   -1    0    0    0    0  0.00000000000E+00  0.00000000000E+00  0.45593999997E+02  0.45594000000E+02  0.51100000000E-03 0.  1.
         11   -1    0    0    0    0 -0.00000000000E+00 -0.00000000000E+00 -0.45593999997E+02  0.45594000000E+02  0.51100000000E-03 0. -1.
    9900012    2    1    2    0    0  0.88329713496E+01 -0.23617795966E+01 -0.16342539378E+02  0.72461602081E+02  0.70000041407E+02 0.  0.
        -12    1    1    2    0    0 -0.88329713496E+01  0.23617795966E+01  0.16342539378E+02  0.18726397919E+02  0.00000000000E+00 0.  1.
         11    1    3    3    0    0  0.11909293773E+02 -0.10137489533E+02 -0.33458067231E+02  0.36932942414E+02  0.51100000000E-03 0. -1.
        -11    1    3    3    0    0  0.39247665584E+01  0.11700016039E+02 -0.39729778721E+01  0.12964517781E+02  0.51100000000E-03 0.  1.
        -12    1    3    3    0    0 -0.70010889821E+01 -0.39243061022E+01  0.21088505726E+02  0.22564141886E+02  0.00000000000E+00 0.  1.
</event>
<event>
 7    1  0.1749439E-013  0.7246157E+02  0.7816164E-02  0.1226708E+00
        -11   -1    0    0    0    0  0.00000000000E+00  0.00000000000E+00  0.45593999997E+02  0.45594000000E+02  0.51100000000E-03 0. -1.
         11   -1    0    0    0    0 -0.00000000000E+00 -0.00000000000E+00 -0.45593999997E+02  0.45594000000E+02  0.51100000000E-03 0.  1.
    9900012    2    1    2    0    0 -0.51480457464E+01 -0.17828904403E+02  0.25113468597E+01  0.72461572944E+02  0.70000003452E+02 0.  0.
        -12    1    1    2    0    0  0.51480457464E+01  0.17828904403E+02 -0.25113468597E+01  0.18726427056E+02  0.00000000000E+00 0.  1.
         11    1    3    3    0    0  0.21894994134E+02 -0.49002463903E+01  0.17603745726E+02  0.28518328258E+02  0.51100000000E-03 0. -1.
        -11    1    3    3    0    0 -0.16892727997E+02  0.13166858130E+00  0.52820703142E+01  0.17699770135E+02  0.51100000000E-03 0.  1.
        -12    1    3    3    0    0 -0.10150311884E+02 -0.13060326594E+02 -0.20374469181E+02  0.26243474550E+02  0.00000000000E+00 0.  1.
</event>
<event>
 7    1  0.1749439E-013  0.7246154E+02  0.7816164E-02  0.1226708E+00
        -11   -1    0    0    0    0  0.00000000000E+00  0.00000000000E+00  0.45593999997E+02  0.45594000000E+02  0.51100000000E-03 0. -1.
         11   -1    0    0    0    0 -0.00000000000E+00 -0.00000000000E+00 -0.45593999997E+02  0.45594000000E+02  0.51100000000E-03 0.  1.
    9900012    2    1    2    0    0  0.10191605858E+02 -0.15353047014E+02  0.33309692361E+01  0.72461541749E+02  0.69999962814E+02 0.  0.
        -12    1    1    2    0    0 -0.10191605858E+02  0.15353047014E+02 -0.33309692361E+01  0.18726458251E+02  0.00000000000E+00 0.  1.
         11    1    3    3    0    0  0.88481510894E+01 -0.53332044384E+01 -0.16603276753E+02  0.19555092597E+02  0.51100000000E-03 0. -1.
        -11    1    3    3    0    0 -0.17681681751E+02 -0.90779157024E+01 -0.59694965174E+01  0.20752959114E+02  0.51100000000E-03 0.  1.
         12    1    3    3    0    0  0.19025136519E+02 -0.94192687350E+00  0.25903742506E+02  0.32153490038E+02  0.00000000000E+00 0. -1.
</event>
<event>
 7    1  0.1749439E-013  0.7246159E+02  0.7816164E-02  0.1226708E+00
        -11   -1    0    0    0    0  0.00000000000E+00  0.00000000000E+00  0.45593999997E+02  0.45594000000E+02  0.51100000000E-03 0. -1.
         11   -1    0    0    0    0 -0.00000000000E+00 -0.00000000000E+00 -0.45593999997E+02  0.45594000000E+02  0.51100000000E-03 0.  1.
    9900012    2    1    2    0    0  0.98064174162E+01  0.15878766204E+02  0.15418692291E+01  0.72461590857E+02  0.70000026786E+02 0.  0.
        -12    1    1    2    0    0 -0.98064174162E+01 -0.15878766204E+02 -0.15418692291E+01  0.18726409143E+02  0.00000000000E+00 0.  1.
         11    1    3    3    0    0 -0.12876609120E+01  0.18559320720E+02 -0.21474274742E+02  0.28412161695E+02  0.51100000000E-03 0. -1.
        -11    1    3    3    0    0  0.68105895798E+01  0.55882642975E+01 -0.78557137655E+01  0.11803603997E+02  0.51100000000E-03 0.  1.
         12    1    3    3    0    0  0.42834887485E+01 -0.82688188138E+01  0.30871857737E+02  0.32245825165E+02  0.00000000000E+00 0. -1.
</event>
<event>
 7    1  0.1749439E-013  0.7246162E+02  0.7816164E-02  0.1226708E+00
        -11   -1    0    0    0    0  0.00000000000E+00  0.00000000000E+00  0.45593999997E+02  0.45594000000E+02  0.51100000000E-03 0.  1.
         11   -1    0    0    0    0 -0.00000000000E+00 -0.00000000000E+00 -0.45593999997E+02  0.45594000000E+02  0.51100000000E-03 0. -1.
    9900012    2    1    2    0    0 -0.99470398275E+01 -0.92921530592E+01 -0.12860387615E+02  0.72461620760E+02  0.70000065741E+02 0.  0.
        -12    1    1    2    0    0  0.99470398275E+01  0.92921530592E+01  0.12860387615E+02  0.18726379240E+02  0.00000000000E+00 0.  1.
         11    1    3    3    0    0 -0.11637316055E+02  0.12458081938E+02 -0.15709246775E+02  0.23182134609E+02  0.51100000000E-03 0. -1.
        -11    1    3    3    0    0  0.70441365314E+01  0.12556648478E+02  0.20950685788E+01  0.14549178434E+02  0.51100000000E-03 0.  1.
         12    1    3    3    0    0 -0.53538603043E+01 -0.34306883475E+02  0.75379058112E+00  0.34730307718E+02  0.00000000000E+00 0. -1.
</event>
<event>
 7    1  0.1749439E-013  0.7246155E+02  0.7816164E-02  0.1226708E+00
        -11   -1    0    0    0    0  0.00000000000E+00  0.00000000000E+00  0.45593999997E+02  0.45594000000E+02  0.51100000000E-03 0.  1.
         11   -1    0    0    0    0 -0.00000000000E+00 -0.00000000000E+00 -0.45593999997E+02  0.45594000000E+02  0.51100000000E-03 0. -1.
    9900012    2    1    2    0    0 -0.16003239473E+02 -0.76914523782E+01 -0.59512826903E+01  0.72461551351E+02  0.69999975323E+02 0.  0.
        -12    1    1    2    0    0  0.16003239473E+02  0.76914523782E+01  0.59512826903E+01  0.18726448649E+02  0.00000000000E+00 0.  1.
         11    1    3    3    0    0  0.41997406207E+01  0.10141501193E+02 -0.97385717092E+01  0.14674046713E+02  0.51100000000E-03 0. -1.
        -11    1    3    3    0    0  0.14968880649E+02 -0.48857241120E+01 -0.90612509157E+01  0.18167111944E+02  0.51100000000E-03 0.  1.
        -12    1    3    3    0    0 -0.35171860743E+02 -0.12947229460E+02  0.12848539935E+02  0.39620392694E+02  0.00000000000E+00 0.  1.
</event>
<event>
 7    1  0.1749439E-013  0.7246157E+02  0.7816164E-02  0.1226708E+00
        -11   -1    0    0    0    0  0.00000000000E+00  0.00000000000E+00  0.45593999997E+02  0.45594000000E+02  0.51100000000E-03 0.  1.
         11   -1    0    0    0    0 -0.00000000000E+00 -0.00000000000E+00 -0.45593999997E+02  0.45594000000E+02  0.51100000000E-03 0. -1.
    9900012    2    1    2    0    0 -0.66461125177E+01 -0.27361266736E+01 -0.17292255063E+02  0.72461567186E+02  0.69999995951E+02 0.  0.
        -12    1    1    2    0    0  0.66461125177E+01  0.27361266736E+01  0.17292255063E+02  0.18726432814E+02  0.00000000000E+00 0.  1.
         11    1    3    3    0    0  0.52596563393E+01 -0.19984538717E+01 -0.21968863785E+02  0.22677935950E+02  0.51100000000E-03 0. -1.
        -11    1    3    3    0    0 -0.24187888817E+02 -0.14932490693E+02  0.10226564459E+02  0.30209532678E+02  0.51100000000E-03 0.  1.
         12    1    3    3    0    0  0.12282119960E+02  0.14194817891E+02 -0.55499557364E+01  0.19574098558E+02  0.00000000000E+00 0. -1.
</event>
<event>
 7    1  0.1749439E-013  0.7246162E+02  0.7816164E-02  0.1226708E+00
        -11   -1    0    0    0    0  0.00000000000E+00  0.00000000000E+00  0.45593999997E+02  0.45594000000E+02  0.51100000000E-03 0.  1.
         11   -1    0    0    0    0 -0.00000000000E+00 -0.00000000000E+00 -0.45593999997E+02  0.45594000000E+02  0.51100000000E-03 0. -1.
    9900012    2    1    2    0    0 -0.13440665995E+02 -0.63617913881E+01 -0.11382160607E+02  0.72461615615E+02  0.70000059039E+02 0.  0.
        -12    1    1    2    0    0  0.13440665995E+02  0.63617913881E+01  0.11382160607E+02  0.18726384385E+02  0.00000000000E+00 0.  1.
         11    1    3    3    0    0 -0.17404251146E+02 -0.10515435851E+02  0.13056611327E+02  0.24165211539E+02  0.51100000000E-03 0. -1.
        -11    1    3    3    0    0 -0.12234476109E+02 -0.21420940931E+01  0.55750240365E+01  0.13614399216E+02  0.51100000000E-03 0.  1.
         12    1    3    3    0    0  0.16198061260E+02  0.62957385564E+01 -0.30013795970E+02  0.34682004860E+02  0.00000000000E+00 0. -1.
</event>
<event>
 7    1  0.1749439E-013  0.7246147E+02  0.7816164E-02  0.1226708E+00
        -11   -1    0    0    0    0  0.00000000000E+00  0.00000000000E+00  0.45593999997E+02  0.45594000000E+02  0.51100000000E-03 0. -1.
         11   -1    0    0    0    0 -0.00000000000E+00 -0.00000000000E+00 -0.45593999997E+02  0.45594000000E+02  0.51100000000E-03 0.  1.
    9900012    2    1    2    0    0  0.12301334124E+02 -0.14084511718E+02 -0.99330450501E+00  0.72461469478E+02  0.69999868667E+02 0.  0.
        -12    1    1    2    0    0 -0.12301334124E+02  0.14084511718E+02  0.99330450501E+00  0.18726530522E+02  0.00000000000E+00 0.  1.
         11    1    3    3    0    0  0.31865001535E+02 -0.38556455607E+01  0.72395226793E+01  0.32903723413E+02  0.51100000000E-03 0. -1.
        -11    1    3    3    0    0 -0.36449468112E+01  0.11020147090E+02  0.47156094073E+00  0.11616869161E+02  0.51100000000E-03 0.  1.
        -12    1    3    3    0    0 -0.15918720600E+02 -0.21249013247E+02 -0.87043881250E+01  0.27940876903E+02  0.00000000000E+00 0.  1.
</event>
<event>
 7    1  0.1749439E-013  0.7246161E+02  0.7816164E-02  0.1226708E+00
        -11   -1    0    0    0    0  0.00000000000E+00  0.00000000000E+00  0.45593999997E+02  0.45594000000E+02  0.51100000000E-03 0.  1.
         11   -1    0    0    0    0 -0.00000000000E+00 -0.00000000000E+00 -0.45593999997E+02  0.45594000000E+02  0.51100000000E-03 0. -1.
    9900012    2    1    2    0    0  0.96552262854E+01 -0.63420782588E+01 -0.14738807178E+02  0.72461607174E+02  0.70000048042E+02 0.  0.
        -12    1    1    2    0    0 -0.96552262854E+01  0.63420782588E+01  0.14738807178E+02  0.18726392826E+02  0.00000000000E+00 0.  1.
         11    1    3    3    0    0 -0.68830566907E+01  0.28455161418E+01 -0.99192755081E+01  0.12404251625E+02  0.51100000000E-03 0. -1.
        -11    1    3    3    0    0  0.13165794628E+02  0.47518804063E+01  0.24047245906E+02  0.27824243952E+02  0.51100000000E-03 0.  1.
         12    1    3    3    0    0  0.33724883484E+01 -0.13939474807E+02 -0.28866777576E+02  0.32233111596E+02  0.00000000000E+00 0. -1.
</event>
<event>
 7    1  0.1749439E-013  0.7246162E+02  0.7816164E-02  0.1226708E+00
        -11   -1    0    0    0    0  0.00000000000E+00  0.00000000000E+00  0.45593999997E+02  0.45594000000E+02  0.51100000000E-03 0.  1.
         11   -1    0    0    0    0 -0.00000000000E+00 -0.00000000000E+00 -0.45593999997E+02  0.45594000000E+02  0.51100000000E-03 0. -1.
    9900012    2    1    2    0    0 -0.17944722495E+01 -0.11277031550E+02 -0.14842023673E+02  0.72461621868E+02  0.70000067184E+02 0.  0.
        -12    1    1    2    0    0  0.17944722495E+01  0.11277031550E+02  0.14842023673E+02  0.18726378132E+02  0.00000000000E+00 0.  1.
         11    1    3    3    0    0 -0.71463623625E+01  0.14099767431E+02 -0.24075138739E+01  0.15989686049E+02  0.51100000000E-03 0. -1.
        -11    1    3    3    0    0  0.10934058286E+02  0.12588780229E+02 -0.47327572629E+01  0.17332916945E+02  0.51100000000E-03 0.  1.
         12    1    3    3    0    0 -0.55821681730E+01 -0.37965579210E+02 -0.77017525364E+01  0.39139018874E+02  0.00000000000E+00 0. -1.
</event>
<event>
 7    1  0.1749439E-013  0.7246161E+02  0.7816164E-02  0.1226708E+00
        -11   -1    0    0    0    0  0.00000000000E+00  0.00000000000E+00  0.45593999997E+02  0.45594000000E+02  0.51100000000E-03 0. -1.
         11   -1    0    0    0    0 -0.00000000000E+00 -0.00000000000E+00 -0.45593999997E+02  0.45594000000E+02  0.51100000000E-03 0.  1.
    9900012    2    1    2    0    0 -0.71384706987E+01 -0.10509454326E+02  0.13757586232E+02  0.72461612920E+02  0.70000055528E+02 0.  0.
        -12    1    1    2    0    0  0.71384706987E+01  0.10509454326E+02 -0.13757586232E+02  0.18726387080E+02  0.00000000000E+00 0.  1.
         11    1    3    3    0    0 -0.28229662230E+02  0.87960893436E+01  0.17629190146E+02  0.34424894522E+02  0.51100000000E-03 0. -1.
        -11    1    3    3    0    0  0.17270797527E+01  0.88171567240E+00  0.75697898016E+01  0.78142142856E+01  0.51100000000E-03 0.  1.
        -12    1    3    3    0    0  0.19364111779E+02 -0.20187259342E+02 -0.11441393716E+02  0.30222504113E+02  0.00000000000E+00 0.  1.
</event>
<event>
 7    1  0.1749439E-013  0.7246154E+02  0.7816164E-02  0.1226708E+00
        -11   -1    0    0    0    0  0.00000000000E+00  0.00000000000E+00  0.45593999997E+02  0.45594000000E+02  0.51100000000E-03 0. -1.
         11   -1    0    0    0    0 -0.00000000000E+00 -0.00000000000E+00 -0.45593999997E+02  0.45594000000E+02  0.51100000000E-03 0.  1.
    9900012    2    1    2    0    0 -0.57134723491E+01  0.16200684691E+02  0.74548209393E+01  0.72461539951E+02  0.69999960472E+02 0.  0.
        -12    1    1    2    0    0  0.57134723491E+01 -0.16200684691E+02 -0.74548209393E+01  0.18726460049E+02  0.00000000000E+00 0.  1.
         11    1    3    3    0    0  0.58232463602E+01 -0.77962413164E+00  0.15425352638E+01  0.60743252514E+01  0.51100000000E-03 0. -1.
        -11    1    3    3    0    0 -0.12856257228E+01  0.23151584925E+02 -0.24483713533E+02  0.33720927429E+02  0.51100000000E-03 0.  1.
         12    1    3    3    0    0 -0.10251092987E+02 -0.61712761024E+01  0.30395999209E+02  0.32666287271E+02  0.00000000000E+00 0. -1.
</event>
<event>
 7    1  0.1749439E-013  0.7246158E+02  0.7816164E-02  0.1226708E+00
        -11   -1    0    0    0    0  0.00000000000E+00  0.00000000000E+00  0.45593999997E+02  0.45594000000E+02  0.51100000000E-03 0. -1.
         11   -1    0    0    0    0 -0.00000000000E+00 -0.00000000000E+00 -0.45593999997E+02  0.45594000000E+02  0.51100000000E-03 0.  1.
    9900012    2    1    2    0    0  0.24265273049E+00  0.33045577961E+01  0.18430948883E+02  0.72461578577E+02  0.70000010790E+02 0.  0.
        -12    1    1    2    0    0 -0.24265273049E+00 -0.33045577961E+01 -0.18430948883E+02  0.18726421423E+02  0.00000000000E+00 0.  1.
         11    1    3    3    0    0 -0.17411348166E+02  0.25063503682E+02  0.19692961211E+02  0.36320063095E+02  0.51100000000E-03 0.  1.
        -11    1    3    3    0    0 -0.31750203863E-01 -0.16873822192E+02  0.33943209807E+01  0.17211865053E+02  0.51100000000E-03 0. -1.
        -12    1    3    3    0    0  0.17685751100E+02 -0.48851236943E+01 -0.46563333085E+01  0.18929650429E+02  0.00000000000E+00 0.  1.
</event>
<event>
 7    1  0.1749439E-013  0.7246156E+02  0.7816164E-02  0.1226708E+00
        -11   -1    0    0    0    0  0.00000000000E+00  0.00000000000E+00  0.45593999997E+02  0.45594000000E+02  0.51100000000E-03 0. -1.
         11   -1    0    0    0    0 -0.00000000000E+00 -0.00000000000E+00 -0.45593999997E+02  0.45594000000E+02  0.51100000000E-03 0.  1.
    9900012    2    1    2    0    0 -0.12717537908E+02  0.61709165501E+01  0.12282659934E+02  0.72461555689E+02  0.69999980973E+02 0.  0.
        -12    1    1    2    0    0  0.12717537908E+02 -0.61709165501E+01 -0.12282659934E+02  0.18726444311E+02  0.00000000000E+00 0.  1.
         11    1    3    3    0    0  0.65180650856E+01 -0.90344753498E+01 -0.89896957561E+01  0.14315081116E+02  0.51100000000E-03 0. -1.
        -11    1    3    3    0    0  0.15456399434E+02  0.87927433105E+01  0.12666322563E+02  0.21832277617E+02  0.51100000000E-03 0.  1.
         12    1    3    3    0    0 -0.34692002428E+02  0.64126485895E+01  0.86060331269E+01  0.36314196956E+02  0.00000000000E+00 0. -1.
</event>
<event>
 7    1  0.1749439E-013  0.7246151E+02  0.7816164E-02  0.1226708E+00
        -11   -1    0    0    0    0  0.00000000000E+00  0.00000000000E+00  0.45593999997E+02  0.45594000000E+02  0.51100000000E-03 0.  1.
         11   -1    0    0    0    0 -0.00000000000E+00 -0.00000000000E+00 -0.45593999997E+02  0.45594000000E+02  0.51100000000E-03 0. -1.
    9900012    2    1    2    0    0  0.93109657530E+01 -0.16191826514E+02 -0.13461330030E+01  0.72461510656E+02  0.69999922309E+02 0.  0.
        -12    1    1    2    0    0 -0.93109657530E+01  0.16191826514E+02  0.13461330030E+01  0.18726489344E+02  0.00000000000E+00 0.  1.
         11    1    3    3    0    0  0.66072849743E-01  0.13115052413E+02 -0.11835027841E+02  0.17665696977E+02  0.51100000000E-03 0. -1.
        -11    1    3    3    0    0  0.12184706510E+02  0.48594397803E+01  0.15315266376E+02  0.20165282347E+02  0.51100000000E-03 0.  1.
        -12    1    3    3    0    0 -0.29398136065E+01 -0.34166318708E+02 -0.48263715387E+01  0.34630531331E+02  0.00000000000E+00 0.  1.
</event>
<event>
 7    1  0.1749439E-013  0.7246106E+02  0.7816164E-02  0.1226709E+00
        -11   -1    0    0    0    0  0.00000000000E+00  0.00000000000E+00  0.45593999997E+02  0.45594000000E+02  0.51100000000E-03 0.  1.
         11   -1    0    0    0    0 -0.00000000000E+00 -0.00000000000E+00 -0.45593999997E+02  0.45594000000E+02  0.51100000000E-03 0. -1.
    9900012    2    1    2    0    0 -0.92619952119E+01 -0.16266001628E+02  0.57511010326E+00  0.72461064429E+02  0.69999341013E+02 0.  0.
        -12    1    1    2    0    0  0.92619952119E+01  0.16266001628E+02 -0.57511010326E+00  0.18726935571E+02  0.00000000000E+00 0.  1.
         11    1    3    3    0    0 -0.17263843028E+02 -0.67111089339E+01  0.29113925479E+02  0.34506519910E+02  0.51100000000E-03 0. -1.
        -11    1    3    3    0    0 -0.10606750726E+01  0.34757935003E+01  0.15383708196E+01  0.39462332807E+01  0.51100000000E-03 0.  1.
         12    1    3    3    0    0  0.90625228892E+01 -0.13030686194E+02 -0.30077186195E+02  0.34008311238E+02  0.00000000000E+00 0. -1.
</event>
<event>
 7    1  0.1749439E-013  0.7246159E+02  0.7816164E-02  0.1226708E+00
        -11   -1    0    0    0    0  0.00000000000E+00  0.00000000000E+00  0.45593999997E+02  0.45594000000E+02  0.51100000000E-03 0. -1.
         11   -1    0    0    0    0 -0.00000000000E+00 -0.00000000000E+00 -0.45593999997E+02  0.45594000000E+02  0.51100000000E-03 0.  1.
    9900012    2    1    2    0    0  0.11608299783E+02  0.14584610139E+02  0.17930134482E+01  0.72461591535E+02  0.70000027670E+02 0.  0.
        -12    1    1    2    0    0 -0.11608299783E+02 -0.14584610139E+02 -0.17930134482E+01  0.18726408465E+02  0.00000000000E+00 0.  1.
         11    1    3    3    0    0  0.18705005267E+01  0.11221624600E+02 -0.20551128292E+02  0.23489838340E+02  0.51100000000E-03 0. -1.
        -11    1    3    3    0    0  0.75198278870E+01  0.11114818033E+02 -0.92930897922E+01  0.16323250580E+02  0.51100000000E-03 0.  1.
         12    1    3    3    0    0  0.22179713693E+01 -0.77518324938E+01  0.31637231532E+02  0.32648502616E+02  0.00000000000E+00 0. -1.
</event>
<event>
 7    1  0.1749439E-013  0.7246157E+02  0.7816164E-02  0.1226708E+00
        -11   -1    0    0    0    0  0.00000000000E+00  0.00000000000E+00  0.45593999997E+02  0.45594000000E+02  0.51100000000E-03 0. -1.
         11   -1    0    0    0    0 -0.00000000000E+00 -0.00000000000E+00 -0.45593999997E+02  0.45594000000E+02  0.51100000000E-03 0.  1.
    9900012    2    1    2    0    0  0.98271080102E+01 -0.11847709734E+02 -0.10664844421E+02  0.72461569899E+02  0.69999999485E+02 0.  0.
        -12    1    1    2    0    0 -0.98271080102E+01  0.11847709734E+02  0.10664844421E+02  0.18726430101E+02  0.00000000000E+00 0.  1.
         11    1    3    3    0    0  0.97134614317E+01 -0.85274830799E+01 -0.33679471683E+01  0.13357109307E+02  0.51100000000E-03 0. -1.
        -11    1    3    3    0    0  0.74873360471E+01 -0.29543349041E+02  0.14006107577E+01  0.30509529403E+02  0.51100000000E-03 0.  1.
        -12    1    3    3    0    0 -0.73736894686E+01  0.26223122387E+02 -0.86975080101E+01  0.28594931189E+02  0.00000000000E+00 0.  1.
</event>
<event>
 7    1  0.1749439E-013  0.7246156E+02  0.7816164E-02  0.1226708E+00
        -11   -1    0    0    0    0  0.00000000000E+00  0.00000000000E+00  0.45593999997E+02  0.45594000000E+02  0.51100000000E-03 0. -1.
         11   -1    0    0    0    0 -0.00000000000E+00 -0.00000000000E+00 -0.45593999997E+02  0.45594000000E+02  0.51100000000E-03 0.  1.
    9900012    2    1    2    0    0 -0.17621406043E+02  0.23243419669E+01  0.58960309170E+01  0.72461556208E+02  0.69999981650E+02 0.  0.
        -12    1    1    2    0    0  0.17621406043E+02 -0.23243419669E+01 -0.58960309170E+01  0.18726443792E+02  0.00000000000E+00 0.  1.
         11    1    3    3    0    0 -0.40045122836E+01  0.35888394374E+01 -0.11905525351E+02  0.13063591439E+02  0.51100000000E-03 0.  1.
        -11    1    3    3    0    0 -0.35329470318E+01  0.22813500065E+02  0.23213629459E+02  0.32738510852E+02  0.51100000000E-03 0. -1.
         12    1    3    3    0    0 -0.10083946728E+02 -0.24077997535E+02 -0.54120731905E+01  0.26659453917E+02  0.00000000000E+00 0. -1.
</event>
<event>
 7    1  0.1749439E-013  0.7246157E+02  0.7816164E-02  0.1226708E+00
        -11   -1    0    0    0    0  0.00000000000E+00  0.00000000000E+00  0.45593999997E+02  0.45594000000E+02  0.51100000000E-03 0.  1.
         11   -1    0    0    0    0 -0.00000000000E+00 -0.00000000000E+00 -0.45593999997E+02  0.45594000000E+02  0.51100000000E-03 0. -1.
    9900012    2    1    2    0    0  0.18589262613E+02 -0.59664636917E+00  0.21823098496E+01  0.72461570878E+02  0.70000000760E+02 0.  0.
        -12    1    1    2    0    0 -0.18589262613E+02  0.59664636917E+00 -0.21823098496E+01  0.18726429122E+02  0.00000000000E+00 0.  1.
         11    1    3    3    0    0  0.18250408042E+02  0.17339381118E+02 -0.15803331046E+02  0.29723337694E+02  0.51100000000E-03 0. -1.
        -11    1    3    3    0    0  0.12009942971E+02  0.49953454928E+01  0.68579289517E+01  0.14704536597E+02  0.51100000000E-03 0.  1.
        -12    1    3    3    0    0 -0.11671088399E+02 -0.22931372981E+02  0.11127711944E+02  0.28033696587E+02  0.00000000000E+00 0.  1.
</event>
<event>
 7    1  0.1749439E-013  0.7246156E+02  0.7816164E-02  0.1226708E+00
        -11   -1    0    0    0    0  0.00000000000E+00  0.00000000000E+00  0.45593999997E+02  0.45594000000E+02  0.51100000000E-03 0. -1.
         11   -1    0    0    0    0 -0.00000000000E+00 -0.00000000000E+00 -0.45593999997E+02  0.45594000000E+02  0.51100000000E-03 0.  1.
    9900012    2    1    2    0    0 -0.30289637427E+01  0.70296302429E+01  0.17090616499E+02  0.72461561603E+02  0.69999988678E+02 0.  0.
        -12    1    1    2    0    0  0.30289637427E+01 -0.70296302429E+01 -0.17090616499E+02  0.18726438397E+02  0.00000000000E+00 0.  1.
         11    1    3    3    0    0  0.26246741848E+02 -0.12263899209E+02  0.84681362164E+01  0.30182843019E+02  0.51100000000E-03 0. -1.
        -11    1    3    3    0    0  0.15045525228E+01  0.77220488820E+01 -0.12030023662E+01  0.79587016645E+01  0.51100000000E-03 0.  1.
         12    1    3    3    0    0 -0.30780258114E+02  0.11571480570E+02  0.98254826488E+01  0.34320016920E+02  0.00000000000E+00 0. -1.
</event>
<event>
 7    1  0.1749439E-013  0.7246159E+02  0.7816164E-02  0.1226708E+00
        -11   -1    0    0    0    0  0.00000000000E+00  0.00000000000E+00  0.45593999997E+02  0.45594000000E+02  0.51100000000E-03 0. -1.
         11   -1    0    0    0    0 -0.00000000000E+00 -0.00000000000E+00 -0.45593999997E+02  0.45594000000E+02  0.51100000000E-03 0.  1.
    9900012    2    1    2    0    0  0.18718670918E+02  0.66990736496E-01  0.53419636588E+00  0.72461588318E+02  0.70000023480E+02 0.  0.
        -12    1    1    2    0    0 -0.18718670918E+02 -0.66990736496E-01 -0.53419636588E+00  0.18726411682E+02  0.00000000000E+00 0.  1.
         11    1    3    3    0    0  0.28355002989E+01 -0.51903201339E+01  0.13001244602E+01  0.60555601649E+01  0.51100000000E-03 0. -1.
        -11    1    3    3    0    0  0.27269220872E+02 -0.27069013947E+01 -0.25887681272E+02  0.37697609527E+02  0.51100000000E-03 0.  1.
         12    1    3    3    0    0 -0.11386050252E+02  0.79642122651E+01  0.25121753178E+02  0.28708418627E+02  0.00000000000E+00 0. -1.
</event>
<event>
 7    1  0.1749439E-013  0.7246162E+02  0.7816164E-02  0.1226708E+00
        -11   -1    0    0    0    0  0.00000000000E+00  0.00000000000E+00  0.45593999997E+02  0.45594000000E+02  0.51100000000E-03 0.  1.
         11   -1    0    0    0    0 -0.00000000000E+00 -0.00000000000E+00 -0.45593999997E+02  0.45594000000E+02  0.51100000000E-03 0. -1.
    9900012    2    1    2    0    0 -0.14080936939E+01 -0.10103099801E+02 -0.15704203605E+02  0.72461618494E+02  0.70000062789E+02 0.  0.
        -12    1    1    2    0    0  0.14080936939E+01  0.10103099801E+02  0.15704203605E+02  0.18726381506E+02  0.00000000000E+00 0.  1.
         11    1    3    3    0    0 -0.11187891536E+02  0.16739220752E+01 -0.28316279408E+02  0.30492336937E+02  0.51100000000E-03 0. -1.
        -11    1    3    3    0    0 -0.99914225925E+01 -0.16856477913E+02  0.54973376451E+01  0.20351660731E+02  0.51100000000E-03 0.  1.
        -12    1    3    3    0    0  0.19771220434E+02  0.50794560368E+01  0.71147381583E+01  0.21617620825E+02  0.00000000000E+00 0.  1.
</event>
<event>
 7    1  0.1749439E-013  0.7246155E+02  0.7816164E-02  0.1226708E+00
        -11   -1    0    0    0    0  0.00000000000E+00  0.00000000000E+00  0.45593999997E+02  0.45594000000E+02  0.51100000000E-03 0. -1.
         11   -1    0    0    0    0 -0.00000000000E+00 -0.00000000000E+00 -0.45593999997E+02  0.45594000000E+02  0.51100000000E-03 0.  1.
    9900012    2    1    2    0    0  0.14777745595E+02  0.58787979894E+01  0.98862496563E+01  0.72461549110E+02  0.69999972403E+02 0.  0.
        -12    1    1    2    0    0 -0.14777745595E+02 -0.58787979894E+01 -0.98862496563E+01  0.18726450890E+02  0.00000000000E+00 0.  1.
         11    1    3    3    0    0  0.24564642654E+00  0.99008204453E+01 -0.74828157953E+01  0.12412861078E+02  0.51100000000E-03 0. -1.
        -11    1    3    3    0    0  0.29935590712E+02  0.11969778801E+02  0.63675264280E+00  0.32246250170E+02  0.51100000000E-03 0.  1.
         12    1    3    3    0    0 -0.15403491543E+02 -0.15991801256E+02  0.16732312809E+02  0.27802437862E+02  0.00000000000E+00 0. -1.
</event>
<event>
 7    1  0.1749439E-013  0.7246157E+02  0.7816164E-02  0.1226708E+00
        -11   -1    0    0    0    0  0.00000000000E+00  0.00000000000E+00  0.45593999997E+02  0.45594000000E+02  0.51100000000E-03 0.  1.
         11   -1    0    0    0    0 -0.00000000000E+00 -0.00000000000E+00 -0.45593999997E+02  0.45594000000E+02  0.51100000000E-03 0. -1.
    9900012    2    1    2    0    0 -0.54665750508E+01 -0.31543668924E+01 -0.17630821080E+02  0.72461566136E+02  0.69999994583E+02 0.  0.
        -12    1    1    2    0    0  0.54665750508E+01  0.31543668924E+01  0.17630821080E+02  0.18726433864E+02  0.00000000000E+00 0.  1.
         11    1    3    3    0    0  0.75170216684E+00  0.31733927890E+00 -0.36042018912E+01  0.36954068652E+01  0.51100000000E-03 0. -1.
        -11    1    3    3    0    0 -0.30487186921E+02  0.12919214933E+02 -0.20268938296E+02  0.38822732268E+02  0.51100000000E-03 0.  1.
         12    1    3    3    0    0  0.24268909704E+02 -0.16390921105E+02  0.62423191066E+01  0.29943427003E+02  0.00000000000E+00 0. -1.
</event>
<event>
 7    1  0.1749439E-013  0.7246159E+02  0.7816164E-02  0.1226708E+00
        -11   -1    0    0    0    0  0.00000000000E+00  0.00000000000E+00  0.45593999997E+02  0.45594000000E+02  0.51100000000E-03 0.  1.
         11   -1    0    0    0    0 -0.00000000000E+00 -0.00000000000E+00 -0.45593999997E+02  0.45594000000E+02  0.51100000000E-03 0. -1.
    9900012    2    1    2    0    0 -0.12080495114E+02  0.77066359007E+00 -0.14287970365E+02  0.72461591329E+02  0.70000027401E+02 0.  0.
        -12    1    1    2    0    0  0.12080495114E+02 -0.77066359007E+00  0.14287970365E+02  0.18726408671E+02  0.00000000000E+00 0.  1.
         11    1    3    3    0    0  0.15254667496E+02  0.93982274531E+01 -0.80467314104E+01  0.19641319872E+02  0.51100000000E-03 0. -1.
        -11    1    3    3    0    0 -0.10783545806E+02 -0.25364916112E+02 -0.92875597503E+01  0.29084748510E+02  0.51100000000E-03 0.  1.
         12    1    3    3    0    0 -0.16551616804E+02  0.16737352249E+02  0.30463207954E+01  0.23735522946E+02  0.00000000000E+00 0. -1.
</event>
<event>
 7    1  0.1749439E-013  0.7246154E+02  0.7816164E-02  0.1226708E+00
        -11   -1    0    0    0    0  0.00000000000E+00  0.00000000000E+00  0.45593999997E+02  0.45594000000E+02  0.51100000000E-03 0.  1.
         11   -1    0    0    0    0 -0.00000000000E+00 -0.00000000000E+00 -0.45593999997E+02  0.45594000000E+02  0.51100000000E-03 0. -1.
    9900012    2    1    2    0    0 -0.84572180676E+01  0.15681741988E+02 -0.57652971974E+01  0.72461542220E+02  0.69999963427E+02 0.  0.
        -12    1    1    2    0    0  0.84572180676E+01 -0.15681741988E+02  0.57652971974E+01  0.18726457780E+02  0.00000000000E+00 0.  1.
         11    1    3    3    0    0 -0.37124262396E+01 -0.17723832614E+01 -0.62168613409E+01  0.74547177145E+01  0.51100000000E-03 0. -1.
        -11    1    3    3    0    0 -0.25627538647E+02 -0.12412089968E+02  0.18697470140E+01  0.28536409526E+02  0.51100000000E-03 0.  1.
         12    1    3    3    0    0  0.20882746819E+02  0.29866215217E+02 -0.14181828705E+01  0.36470414979E+02  0.00000000000E+00 0. -1.
</event>
<event>
 7    1  0.1749439E-013  0.7246146E+02  0.7816164E-02  0.1226708E+00
        -11   -1    0    0    0    0  0.00000000000E+00  0.00000000000E+00  0.45593999997E+02  0.45594000000E+02  0.51100000000E-03 0.  1.
         11   -1    0    0    0    0 -0.00000000000E+00 -0.00000000000E+00 -0.45593999997E+02  0.45594000000E+02  0.51100000000E-03 0. -1.
    9900012    2    1    2    0    0 -0.17712503872E+01 -0.15141124839E+02 -0.10876220904E+02  0.72461463468E+02  0.69999860839E+02 0.  0.
        -12    1    1    2    0    0  0.17712503872E+01  0.15141124839E+02  0.10876220904E+02  0.18726536532E+02  0.00000000000E+00 0.  1.
         11    1    3    3    0    0  0.23461810701E+02 -0.97448738938E+01 -0.29362636428E+02  0.38827613201E+02  0.51100000000E-03 0. -1.
        -11    1    3    3    0    0 -0.12789435765E+02 -0.21778439409E+01  0.26560755690E+01  0.13242636033E+02  0.51100000000E-03 0.  1.
        -12    1    3    3    0    0 -0.12443625323E+02 -0.32184070043E+01  0.15830339955E+02  0.20391214234E+02  0.00000000000E+00 0.  1.
</event>
<event>
 7    1  0.1749439E-013  0.7246162E+02  0.7816164E-02  0.1226708E+00
        -11   -1    0    0    0    0  0.00000000000E+00  0.00000000000E+00  0.45593999997E+02  0.45594000000E+02  0.51100000000E-03 0. -1.
         11   -1    0    0    0    0 -0.00000000000E+00 -0.00000000000E+00 -0.45593999997E+02  0.45594000000E+02  0.51100000000E-03 0.  1.
    9900012    2    1    2    0    0  0.63411022404E+01  0.77329662942E+01  0.15832522950E+02  0.72461624796E+02  0.70000070998E+02 0.  0.
        -12    1    1    2    0    0 -0.63411022404E+01 -0.77329662942E+01 -0.15832522950E+02  0.18726375204E+02  0.00000000000E+00 0.  1.
         11    1    3    3    0    0 -0.24346305773E+00 -0.93341069263E+01  0.49951967442E+00  0.93506334832E+01  0.51100000000E-03 0. -1.
        -11    1    3    3    0    0 -0.41861542022E+01 -0.13042121790E+02 -0.14094243143E+02  0.19653715115E+02  0.51100000000E-03 0.  1.
         12    1    3    3    0    0  0.10770719500E+02  0.30109195011E+02  0.29427246418E+02  0.43457276198E+02  0.00000000000E+00 0. -1.
</event>
<event>
 7    1  0.1749439E-013  0.7246154E+02  0.7816164E-02  0.1226708E+00
        -11   -1    0    0    0    0  0.00000000000E+00  0.00000000000E+00  0.45593999997E+02  0.45594000000E+02  0.51100000000E-03 0.  1.
         11   -1    0    0    0    0 -0.00000000000E+00 -0.00000000000E+00 -0.45593999997E+02  0.45594000000E+02  0.51100000000E-03 0. -1.
    9900012    2    1    2    0    0  0.91210578908E+01  0.93438152790E+01 -0.13423108493E+02  0.72461536836E+02  0.69999956415E+02 0.  0.
        -12    1    1    2    0    0 -0.91210578908E+01 -0.93438152790E+01  0.13423108493E+02  0.18726463164E+02  0.00000000000E+00 0.  1.
         11    1    3    3    0    0  0.23007977430E+02  0.29086170809E+02 -0.22054059203E+02  0.43148046136E+02  0.51100000000E-03 0. -1.
        -11    1    3    3    0    0 -0.11903988497E+01  0.11979258622E+01 -0.19992576086E+01  0.26170798688E+01  0.51100000000E-03 0.  1.
        -12    1    3    3    0    0 -0.12696520689E+02 -0.20940281392E+02  0.10630208319E+02  0.26696410832E+02  0.00000000000E+00 0.  1.
</event>
<event>
 7    1  0.1749439E-013  0.7246157E+02  0.7816164E-02  0.1226708E+00
        -11   -1    0    0    0    0  0.00000000000E+00  0.00000000000E+00  0.45593999997E+02  0.45594000000E+02  0.51100000000E-03 0.  1.
         11   -1    0    0    0    0 -0.00000000000E+00 -0.00000000000E+00 -0.45593999997E+02  0.45594000000E+02  0.51100000000E-03 0. -1.
    9900012    2    1    2    0    0 -0.60798034605E+01 -0.15554462763E+02  0.84719390132E+01  0.72461572882E+02  0.70000003370E+02 0.  0.
        -12    1    1    2    0    0  0.60798034605E+01  0.15554462763E+02 -0.84719390132E+01  0.18726427118E+02  0.00000000000E+00 0.  1.
         11    1    3    3    0    0 -0.33551766157E+02 -0.13867814047E+01 -0.46220845481E+01  0.33897018169E+02  0.51100000000E-03 0. -1.
        -11    1    3    3    0    0 -0.56638564586E+00  0.13995815442E+01 -0.24873352017E+01  0.29097178327E+01  0.51100000000E-03 0.  1.
        -12    1    3    3    0    0  0.28038348342E+02 -0.15567262903E+02  0.15581358763E+02  0.35654836880E+02  0.00000000000E+00 0.  1.
</event>
<event>
 7    1  0.1749439E-013  0.7246134E+02  0.7816164E-02  0.1226709E+00
        -11   -1    0    0    0    0  0.00000000000E+00  0.00000000000E+00  0.45593999997E+02  0.45594000000E+02  0.51100000000E-03 0. -1.
         11   -1    0    0    0    0 -0.00000000000E+00 -0.00000000000E+00 -0.45593999997E+02  0.45594000000E+02  0.51100000000E-03 0.  1.
    9900012    2    1    2    0    0  0.17807552671E+02  0.33284957482E+01  0.47433991449E+01  0.72461343825E+02  0.69999704981E+02 0.  0.
        -12    1    1    2    0    0 -0.17807552671E+02 -0.33284957482E+01 -0.47433991449E+01  0.18726656175E+02  0.00000000000E+00 0.  1.
         11    1    3    3    0    0 -0.12938675326E+02 -0.26055566517E+01  0.64699825487E+01  0.14698942788E+02  0.51100000000E-03 0. -1.
        -11    1    3    3    0    0  0.20879406887E+02 -0.13197156710E+02  0.16376563232E+02  0.29636234591E+02  0.51100000000E-03 0.  1.
        -12    1    3    3    0    0  0.98668211101E+01  0.19131209110E+02 -0.18103146636E+02  0.28126166446E+02  0.00000000000E+00 0.  1.
</event>
<event>
 7    1  0.1749439E-013  0.7246156E+02  0.7816164E-02  0.1226708E+00
        -11   -1    0    0    0    0  0.00000000000E+00  0.00000000000E+00  0.45593999997E+02  0.45594000000E+02  0.51100000000E-03 0. -1.
         11   -1    0    0    0    0 -0.00000000000E+00 -0.00000000000E+00 -0.45593999997E+02  0.45594000000E+02  0.51100000000E-03 0.  1.
    9900012    2    1    2    0    0  0.67440402904E+01  0.58885953617E+00  0.17459970482E+02  0.72461564028E+02  0.69999991837E+02 0.  0.
        -12    1    1    2    0    0 -0.67440402904E+01 -0.58885953617E+00 -0.17459970482E+02  0.18726435972E+02  0.00000000000E+00 0.  1.
         11    1    3    3    0    0 -0.53151305095E+01 -0.10048055921E+02 -0.94698650606E+01  0.14795012154E+02  0.51100000000E-03 0. -1.
        -11    1    3    3    0    0  0.51193557464E+01 -0.14355820838E+01 -0.13711269107E+02  0.14706039575E+02  0.51100000000E-03 0.  1.
         12    1    3    3    0    0  0.69398150536E+01  0.12072497541E+02  0.40641104650E+02  0.42960512299E+02  0.00000000000E+00 0. -1.
</event>
<event>
 7    1  0.1749439E-013  0.7246138E+02  0.7816164E-02  0.1226709E+00
        -11   -1    0    0    0    0  0.00000000000E+00  0.00000000000E+00  0.45593999997E+02  0.45594000000E+02  0.51100000000E-03 0.  1.
         11   -1    0    0    0    0 -0.00000000000E+00 -0.00000000000E+00 -0.45593999997E+02  0.45594000000E+02  0.51100000000E-03 0. -1.
    9900012    2    1    2    0    0  0.11566241878E+02 -0.10960997208E+02 -0.98369061045E+01  0.72461384378E+02  0.69999757809E+02 0.  0.
        -12    1    1    2    0    0 -0.11566241878E+02  0.10960997208E+02  0.98369061045E+01  0.18726615622E+02  0.00000000000E+00 0.  1.
         11    1    3    3    0    0 -0.15460475902E+01 -0.25537134032E+01  0.18800297371E+01  0.35279211117E+01  0.51100000000E-03 0. -1.
        -11    1    3    3    0    0  0.29640895872E+02 -0.14985110206E+02  0.15314037945E+02  0.36573979746E+02  0.51100000000E-03 0.  1.
         12    1    3    3    0    0 -0.16528606404E+02  0.65778264021E+01 -0.27030973787E+02  0.32359483520E+02  0.00000000000E+00 0. -1.
</event>
<event>
 7    1  0.1749439E-013  0.7246155E+02  0.7816164E-02  0.1226708E+00
        -11   -1    0    0    0    0  0.00000000000E+00  0.00000000000E+00  0.45593999997E+02  0.45594000000E+02  0.51100000000E-03 0. -1.
         11   -1    0    0    0    0 -0.00000000000E+00 -0.00000000000E+00 -0.45593999997E+02  0.45594000000E+02  0.51100000000E-03 0.  1.
    9900012    2    1    2    0    0  0.10334036360E+02 -0.65826762341E+01  0.14161773693E+02  0.72461554314E+02  0.69999979183E+02 0.  0.
        -12    1    1    2    0    0 -0.10334036360E+02  0.65826762341E+01 -0.14161773693E+02  0.18726445686E+02  0.00000000000E+00 0.  1.
         11    1    3    3    0    0 -0.32587149101E+01  0.30607251035E+01 -0.18699645863E+02  0.19226648608E+02  0.51100000000E-03 0. -1.
        -11    1    3    3    0    0  0.36952304584E+01 -0.57701900196E+01 -0.82773106814E+01  0.10745403361E+02  0.51100000000E-03 0.  1.
         12    1    3    3    0    0  0.98975208120E+01 -0.38732113180E+01  0.41138730237E+02  0.42489502346E+02  0.00000000000E+00 0. -1.
</event>
<event>
 7    1  0.1749439E-013  0.7246161E+02  0.7816164E-02  0.1226708E+00
        -11   -1    0    0    0    0  0.00000000000E+00  0.00000000000E+00  0.45593999997E+02  0.45594000000E+02  0.51100000000E-03 0.  1.
         11   -1    0    0    0    0 -0.00000000000E+00 -0.00000000000E+00 -0.45593999997E+02  0.45594000000E+02  0.51100000000E-03 0. -1.
    9900012    2    1    2    0    0 -0.23211710961E+01 -0.14362697738E+02  0.11789935280E+02  0.72461614991E+02  0.70000058226E+02 0.  0.
        -12    1    1    2    0    0  0.23211710961E+01  0.14362697738E+02 -0.11789935280E+02  0.18726385009E+02  0.00000000000E+00 0.  1.
         11    1    3    3    0    0  0.19187932647E+02  0.17828140157E+02  0.36624956326E+01  0.26446799717E+02  0.51100000000E-03 0. -1.
        -11    1    3    3    0    0  0.46062668139E+01 -0.51161970670E+01 -0.17883049071E+01  0.71127491936E+01  0.51100000000E-03 0.  1.
        -12    1    3    3    0    0 -0.26115370557E+02 -0.27074640829E+02  0.99157445549E+01  0.38902066081E+02  0.00000000000E+00 0.  1.
</event>
<event>
 7    1  0.1749439E-013  0.7246149E+02  0.7816164E-02  0.1226708E+00
        -11   -1    0    0    0    0  0.00000000000E+00  0.00000000000E+00  0.45593999997E+02  0.45594000000E+02  0.51100000000E-03 0.  1.
         11   -1    0    0    0    0 -0.00000000000E+00 -0.00000000000E+00 -0.45593999997E+02  0.45594000000E+02  0.51100000000E-03 0. -1.
    9900012    2    1    2    0    0  0.16783994568E+02  0.43719926019E+00 -0.82938869287E+01  0.72461489988E+02  0.69999895386E+02 0.  0.
        -12    1    1    2    0    0 -0.16783994568E+02 -0.43719926019E+00  0.82938869287E+01  0.18726510012E+02  0.00000000000E+00 0.  1.
         11    1    3    3    0    0  0.21787715312E+01  0.62597903984E+01 -0.33546375630E+01  0.74287020844E+01  0.51100000000E-03 0. -1.
        -11    1    3    3    0    0  0.34088117106E+02 -0.56587540294E+01 -0.20429322854E+02  0.40141978745E+02  0.51100000000E-03 0.  1.
         12    1    3    3    0    0 -0.19482894069E+02 -0.16383710887E+00  0.15490073489E+02  0.24890809159E+02  0.00000000000E+00 0. -1.
</event>
<event>
 7    1  0.1749439E-013  0.7246143E+02  0.7816164E-02  0.1226708E+00
        -11   -1    0    0    0    0  0.00000000000E+00  0.00000000000E+00  0.45593999997E+02  0.45594000000E+02  0.51100000000E-03 0. -1.
         11   -1    0    0    0    0 -0.00000000000E+00 -0.00000000000E+00 -0.45593999997E+02  0.45594000000E+02  0.51100000000E-03 0.  1.
    9900012    2    1    2    0    0  0.71925632601E+01  0.17187436731E+02 -0.18823695898E+01  0.72461434301E+02  0.69999822843E+02 0.  0.
        -12    1    1    2    0    0 -0.71925632601E+01 -0.17187436731E+02  0.18823695898E+01  0.18726565699E+02  0.00000000000E+00 0.  1.
         11    1    3    3    0    0  0.81897443792E+01  0.19651462771E+02  0.87937258347E+01  0.23034355132E+02  0.51100000000E-03 0. -1.
        -11    1    3    3    0    0  0.77164574046E+01  0.14544100103E+02  0.11552473682E+02  0.20113035850E+02  0.51100000000E-03 0.  1.
        -12    1    3    3    0    0 -0.87136385238E+01 -0.17008126142E+02 -0.22228569106E+02  0.29314043319E+02  0.00000000000E+00 0.  1.
</event>
<event>
 7    1  0.1749439E-013  0.7246157E+02  0.7816164E-02  0.1226708E+00
        -11   -1    0    0    0    0  0.00000000000E+00  0.00000000000E+00  0.45593999997E+02  0.45594000000E+02  0.51100000000E-03 0.  1.
         11   -1    0    0    0    0 -0.00000000000E+00 -0.00000000000E+00 -0.45593999997E+02  0.45594000000E+02  0.51100000000E-03 0. -1.
    9900012    2    1    2    0    0 -0.13159758444E+02  0.12486714508E+02  0.46456255726E+01  0.72461571657E+02  0.70000001775E+02 0.  0.
        -12    1    1    2    0    0  0.13159758444E+02 -0.12486714508E+02 -0.46456255726E+01  0.18726428343E+02  0.00000000000E+00 0.  1.
         11    1    3    3    0    0 -0.69619579019E+01  0.69648103387E+01  0.15508158622E+02  0.18370640299E+02  0.51100000000E-03 0. -1.
        -11    1    3    3    0    0  0.82343411480E+01 -0.21112149435E+02 -0.36774276856E+01  0.22957584859E+02  0.51100000000E-03 0.  1.
         12    1    3    3    0    0 -0.14432141690E+02  0.26634053605E+02 -0.71851053639E+01  0.31133346500E+02  0.00000000000E+00 0. -1.
</event>
<event>
 7    1  0.1749439E-013  0.7246155E+02  0.7816164E-02  0.1226708E+00
        -11   -1    0    0    0    0  0.00000000000E+00  0.00000000000E+00  0.45593999997E+02  0.45594000000E+02  0.51100000000E-03 0.  1.
         11   -1    0    0    0    0 -0.00000000000E+00 -0.00000000000E+00 -0.45593999997E+02  0.45594000000E+02  0.51100000000E-03 0. -1.
    9900012    2    1    2    0    0  0.18256556194E+01  0.17976017916E+02 -0.49203272579E+01  0.72461551888E+02  0.69999976022E+02 0.  0.
        -12    1    1    2    0    0 -0.18256556194E+01 -0.17976017916E+02  0.49203272579E+01  0.18726448112E+02  0.00000000000E+00 0.  1.
         11    1    3    3    0    0 -0.17594454461E+02  0.13513891770E+02  0.11743401650E+02  0.25101744583E+02  0.51100000000E-03 0. -1.
        -11    1    3    3    0    0  0.24887775550E+02  0.13607252552E+02 -0.95801166839E+00  0.28380917541E+02  0.51100000000E-03 0.  1.
        -12    1    3    3    0    0 -0.54676654698E+01 -0.91451264050E+01 -0.15705717240E+02  0.18978889764E+02  0.00000000000E+00 0.  1.
</event>
<event>
 7    1  0.1749439E-013  0.7246151E+02  0.7816164E-02  0.1226708E+00
        -11   -1    0    0    0    0  0.00000000000E+00  0.00000000000E+00  0.45593999997E+02  0.45594000000E+02  0.51100000000E-03 0.  1.
         11   -1    0    0    0    0 -0.00000000000E+00 -0.00000000000E+00 -0.45593999997E+02  0.45594000000E+02  0.51100000000E-03 0. -1.
    9900012    2    1    2    0    0 -0.71319870823E+01  0.17086114978E+02 -0.28073189538E+01  0.72461505280E+02  0.69999915307E+02 0.  0.
        -12    1    1    2    0    0  0.71319870823E+01 -0.17086114978E+02  0.28073189538E+01  0.18726494720E+02  0.00000000000E+00 0.  1.
         11    1    3    3    0    0  0.35671224922E+01 -0.60400343061E+01 -0.19195995382E+01  0.72726363817E+01  0.51100000000E-03 0. -1.
        -11    1    3    3    0    0 -0.71786376841E+01  0.22361944676E+02  0.27733435928E+02  0.36341888741E+02  0.51100000000E-03 0.  1.
         12    1    3    3    0    0 -0.35204718903E+01  0.76420460815E+00 -0.28621155343E+02  0.28846980157E+02  0.00000000000E+00 0. -1.
</event>
<event>
 7    1  0.1749439E-013  0.7246153E+02  0.7816164E-02  0.1226708E+00
        -11   -1    0    0    0    0  0.00000000000E+00  0.00000000000E+00  0.45593999997E+02  0.45594000000E+02  0.51100000000E-03 0. -1.
         11   -1    0    0    0    0 -0.00000000000E+00 -0.00000000000E+00 -0.45593999997E+02  0.45594000000E+02  0.51100000000E-03 0.  1.
    9900012    2    1    2    0    0 -0.15917407020E+02 -0.90159585273E-01  0.98645201359E+01  0.72461528562E+02  0.69999945636E+02 0.  0.
        -12    1    1    2    0    0  0.15917407020E+02  0.90159585273E-01 -0.98645201359E+01  0.18726471438E+02  0.00000000000E+00 0.  1.
         11    1    3    3    0    0 -0.23667514512E+01  0.18955190210E+02  0.22359771597E+02  0.29408504458E+02  0.51100000000E-03 0. -1.
        -11    1    3    3    0    0 -0.13659571531E+02  0.41897496788E+01  0.36652395234E+01  0.14750317888E+02  0.51100000000E-03 0.  1.
        -12    1    3    3    0    0  0.10891596154E+00 -0.23235099474E+02 -0.16160490985E+02  0.28302706216E+02  0.00000000000E+00 0.  1.
</event>
<event>
 7    1  0.1749439E-013  0.7246156E+02  0.7816164E-02  0.1226708E+00
        -11   -1    0    0    0    0  0.00000000000E+00  0.00000000000E+00  0.45593999997E+02  0.45594000000E+02  0.51100000000E-03 0.  1.
         11   -1    0    0    0    0 -0.00000000000E+00 -0.00000000000E+00 -0.45593999997E+02  0.45594000000E+02  0.51100000000E-03 0. -1.
    9900012    2    1    2    0    0 -0.29250957944E+01  0.13171980366E+02 -0.12985460413E+02  0.72461563225E+02  0.69999990791E+02 0.  0.
        -12    1    1    2    0    0  0.29250957944E+01 -0.13171980366E+02  0.12985460413E+02  0.18726436775E+02  0.00000000000E+00 0.  1.
         11    1    3    3    0    0 -0.17307035859E+02  0.20457589630E+01 -0.67700851454E+01  0.18696327797E+02  0.51100000000E-03 0. -1.
        -11    1    3    3    0    0 -0.11115603611E+01  0.20233878309E+02  0.15546940162E+02  0.25541197046E+02  0.51100000000E-03 0.  1.
        -12    1    3    3    0    0  0.15493500425E+02 -0.91076569067E+01 -0.21762315429E+02  0.28224038382E+02  0.00000000000E+00 0.  1.
</event>
<event>
 7    1  0.1749439E-013  0.7246155E+02  0.7816164E-02  0.1226708E+00
        -11   -1    0    0    0    0  0.00000000000E+00  0.00000000000E+00  0.45593999997E+02  0.45594000000E+02  0.51100000000E-03 0. -1.
         11   -1    0    0    0    0 -0.00000000000E+00 -0.00000000000E+00 -0.45593999997E+02  0.45594000000E+02  0.51100000000E-03 0.  1.
    9900012    2    1    2    0    0 -0.18699871537E+02  0.88710782623E+00  0.45564634936E+00  0.72461554277E+02  0.69999979135E+02 0.  0.
        -12    1    1    2    0    0  0.18699871537E+02 -0.88710782623E+00 -0.45564634936E+00  0.18726445723E+02  0.00000000000E+00 0.  1.
         11    1    3    3    0    0  0.18334607396E+01  0.28686031009E+01  0.21212244852E+00  0.34110787485E+01  0.51100000000E-03 0. -1.
        -11    1    3    3    0    0  0.22887348920E+02 -0.98355618344E+01 -0.56844583795E+00  0.24917707521E+02  0.51100000000E-03 0.  1.
         12    1    3    3    0    0 -0.43420681197E+02  0.78540665597E+01  0.81196973879E+00  0.44132768007E+02  0.00000000000E+00 0. -1.
</event>
<event>
 7    1  0.1749439E-013  0.7246160E+02  0.7816164E-02  0.1226708E+00
        -11   -1    0    0    0    0  0.00000000000E+00  0.00000000000E+00  0.45593999997E+02  0.45594000000E+02  0.51100000000E-03 0.  1.
         11   -1    0    0    0    0 -0.00000000000E+00 -0.00000000000E+00 -0.45593999997E+02  0.45594000000E+02  0.51100000000E-03 0. -1.
    9900012    2    1    2    0    0 -0.51665938267E+01 -0.17997953868E+02  0.24086220132E+00  0.72461600191E+02  0.70000038946E+02 0.  0.
        -12    1    1    2    0    0  0.51665938267E+01  0.17997953868E+02 -0.24086220132E+00  0.18726399809E+02  0.00000000000E+00 0.  1.
         11    1    3    3    0    0 -0.22608554820E+02 -0.35538183314E+02 -0.91227664662E+01  0.43096799099E+02  0.51100000000E-03 0. -1.
        -11    1    3    3    0    0  0.35220815987E+00  0.14388900480E+01  0.53410411634E+01  0.55426686829E+01  0.51100000000E-03 0.  1.
        -12    1    3    3    0    0  0.17089752833E+02  0.16101339397E+02  0.40225875040E+01  0.23822132409E+02  0.00000000000E+00 0.  1.
</event>
<event>
 7    1  0.1749439E-013  0.7246160E+02  0.7816164E-02  0.1226708E+00
        -11   -1    0    0    0    0  0.00000000000E+00  0.00000000000E+00  0.45593999997E+02  0.45594000000E+02  0.51100000000E-03 0. -1.
         11   -1    0    0    0    0 -0.00000000000E+00 -0.00000000000E+00 -0.45593999997E+02  0.45594000000E+02  0.51100000000E-03 0.  1.
    9900012    2    1    2    0    0  0.13875109501E+02  0.12561856575E+02  0.59928650279E+00  0.72461600224E+02  0.70000038988E+02 0.  0.
        -12    1    1    2    0    0 -0.13875109501E+02 -0.12561856575E+02 -0.59928650279E+00  0.18726399776E+02  0.00000000000E+00 0.  1.
         11    1    3    3    0    0  0.30765429385E+01  0.22476013198E+01 -0.12894774579E+01  0.40223849295E+01  0.51100000000E-03 0. -1.
        -11    1    3    3    0    0 -0.18202671303E+02  0.24269906147E+02 -0.12965958249E+02  0.32992145437E+02  0.51100000000E-03 0.  1.
         12    1    3    3    0    0  0.29001237865E+02 -0.13955650892E+02  0.14854722210E+02  0.35447069857E+02  0.00000000000E+00 0. -1.
</event>
<event>
 7    1  0.1749439E-013  0.7246156E+02  0.7816164E-02  0.1226708E+00
        -11   -1    0    0    0    0  0.00000000000E+00  0.00000000000E+00  0.45593999997E+02  0.45594000000E+02  0.51100000000E-03 0.  1.
         11   -1    0    0    0    0 -0.00000000000E+00 -0.00000000000E+00 -0.45593999997E+02  0.45594000000E+02  0.51100000000E-03 0. -1.
    9900012    2    1    2    0    0 -0.11571878101E+02  0.13950023260E+02  0.47082829536E+01  0.72461563069E+02  0.69999990588E+02 0.  0.
        -12    1    1    2    0    0  0.11571878101E+02 -0.13950023260E+02 -0.47082829536E+01  0.18726436931E+02  0.00000000000E+00 0.  1.
         11    1    3    3    0    0  0.16820567031E+02  0.64766203162E+01  0.14845560345E+01  0.18085408285E+02  0.51100000000E-03 0. -1.
        -11    1    3    3    0    0 -0.12938569425E+02 -0.98707377149E+01  0.19953775397E+02  0.25748615393E+02  0.51100000000E-03 0.  1.
         12    1    3    3    0    0 -0.15453875707E+02  0.17344140659E+02 -0.16730048478E+02  0.28627539392E+02  0.00000000000E+00 0. -1.
</event>
<event>
 7    1  0.1749439E-013  0.7246141E+02  0.7816164E-02  0.1226708E+00
        -11   -1    0    0    0    0  0.00000000000E+00  0.00000000000E+00  0.45593999997E+02  0.45594000000E+02  0.51100000000E-03 0. -1.
         11   -1    0    0    0    0 -0.00000000000E+00 -0.00000000000E+00 -0.45593999997E+02  0.45594000000E+02  0.51100000000E-03 0.  1.
    9900012    2    1    2    0    0  0.11724430796E+02  0.14468519613E+02 -0.19709778714E+01  0.72461412189E+02  0.69999794038E+02 0.  0.
        -12    1    1    2    0    0 -0.11724430796E+02 -0.14468519613E+02  0.19709778714E+01  0.18726587811E+02  0.00000000000E+00 0.  1.
         11    1    3    3    0    0 -0.19672212726E+01  0.38278489778E+01  0.13261033147E+02  0.13941929125E+02  0.51100000000E-03 0. -1.
        -11    1    3    3    0    0  0.23175374744E+02 -0.15906709608E+02 -0.51285407900E+01  0.28573122615E+02  0.51100000000E-03 0.  1.
         12    1    3    3    0    0 -0.94837226748E+01  0.26547380242E+02 -0.10103470229E+02  0.29946360449E+02  0.00000000000E+00 0. -1.
</event>
<event>
 7    1  0.1749439E-013  0.7246160E+02  0.7816164E-02  0.1226708E+00
        -11   -1    0    0    0    0  0.00000000000E+00  0.00000000000E+00  0.45593999997E+02  0.45594000000E+02  0.51100000000E-03 0. -1.
         11   -1    0    0    0    0 -0.00000000000E+00 -0.00000000000E+00 -0.45593999997E+02  0.45594000000E+02  0.51100000000E-03 0.  1.
    9900012    2    1    2    0    0  0.97046773583E+01  0.13287010686E+02  0.89416247736E+01  0.72461599673E+02  0.70000038271E+02 0.  0.
        -12    1    1    2    0    0 -0.97046773583E+01 -0.13287010686E+02 -0.89416247736E+01  0.18726400327E+02  0.00000000000E+00 0.  1.
         11    1    3    3    0    0  0.98342802846E+01 -0.57650906687E+01 -0.49666356158E+01  0.12434500743E+02  0.51100000000E-03 0. -1.
        -11    1    3    3    0    0  0.13940836386E+02 -0.13480200372E+02  0.15075998027E+02  0.24563152036E+02  0.51100000000E-03 0.  1.
         12    1    3    3    0    0 -0.14070439312E+02  0.32532301727E+02 -0.11677376376E+01  0.35463946893E+02  0.00000000000E+00 0. -1.
</event>
<event>
 7    1  0.1749439E-013  0.7246157E+02  0.7816164E-02  0.1226708E+00
        -11   -1    0    0    0    0  0.00000000000E+00  0.00000000000E+00  0.45593999997E+02  0.45594000000E+02  0.51100000000E-03 0. -1.
         11   -1    0    0    0    0 -0.00000000000E+00 -0.00000000000E+00 -0.45593999997E+02  0.45594000000E+02  0.51100000000E-03 0.  1.
    9900012    2    1    2    0    0 -0.27972863122E+01 -0.17250984714E+02  0.67273968020E+01  0.72461570761E+02  0.70000000608E+02 0.  0.
        -12    1    1    2    0    0  0.27972863122E+01  0.17250984714E+02 -0.67273968020E+01  0.18726429239E+02  0.00000000000E+00 0.  1.
         11    1    3    3    0    0  0.21866219050E+02 -0.46930422794E+01  0.73665313029E-01  0.22364293153E+02  0.51100000000E-03 0. -1.
        -11    1    3    3    0    0 -0.49701303877E+01 -0.25082452102E+02 -0.84337887137E+00  0.25584035798E+02  0.51100000000E-03 0.  1.
         12    1    3    3    0    0 -0.19693374974E+02  0.12524509668E+02  0.74971103604E+01  0.24513241811E+02  0.00000000000E+00 0. -1.
</event>
<event>
 7    1  0.1749439E-013  0.7246161E+02  0.7816164E-02  0.1226708E+00
        -11   -1    0    0    0    0  0.00000000000E+00  0.00000000000E+00  0.45593999997E+02  0.45594000000E+02  0.51100000000E-03 0. -1.
         11   -1    0    0    0    0 -0.00000000000E+00 -0.00000000000E+00 -0.45593999997E+02  0.45594000000E+02  0.51100000000E-03 0.  1.
    9900012    2    1    2    0    0  0.93111394290E+01 -0.40437318427E+01  0.15736225120E+02  0.72461605107E+02  0.70000045349E+02 0.  0.
        -12    1    1    2    0    0 -0.93111394290E+01  0.40437318427E+01 -0.15736225120E+02  0.18726394893E+02  0.00000000000E+00 0.  1.
         11    1    3    3    0    0  0.50837457632E+01 -0.14612949411E+01 -0.22212091443E+01  0.57370396734E+01  0.51100000000E-03 0. -1.
        -11    1    3    3    0    0  0.23743281236E+02 -0.20747204835E+02  0.23708772373E+02  0.39449915082E+02  0.51100000000E-03 0.  1.
         12    1    3    3    0    0 -0.19515887570E+02  0.18164767934E+02 -0.57513381089E+01  0.27274650351E+02  0.00000000000E+00 0. -1.
</event>
<event>
 7    1  0.1749439E-013  0.7246157E+02  0.7816164E-02  0.1226708E+00
        -11   -1    0    0    0    0  0.00000000000E+00  0.00000000000E+00  0.45593999997E+02  0.45594000000E+02  0.51100000000E-03 0.  1.
         11   -1    0    0    0    0 -0.00000000000E+00 -0.00000000000E+00 -0.45593999997E+02  0.45594000000E+02  0.51100000000E-03 0. -1.
    9900012    2    1    2    0    0 -0.15674068189E+02 -0.95579893136E-01 -0.10246637149E+02  0.72461571564E+02  0.70000001654E+02 0.  0.
        -12    1    1    2    0    0  0.15674068189E+02  0.95579893136E-01  0.10246637149E+02  0.18726428436E+02  0.00000000000E+00 0.  1.
         11    1    3    3    0    0 -0.41414732694E+01 -0.16462599248E+02  0.59384755713E+01  0.17984283895E+02  0.51100000000E-03 0. -1.
        -11    1    3    3    0    0 -0.34461060269E+01  0.51227329290E+01  0.17231493858E+02  0.18304164014E+02  0.51100000000E-03 0.  1.
         12    1    3    3    0    0 -0.80864888924E+01  0.11244286426E+02 -0.33416606578E+02  0.36173123656E+02  0.00000000000E+00 0. -1.
</event>
<event>
 7    1  0.1749439E-013  0.7246157E+02  0.7816164E-02  0.1226708E+00
        -11   -1    0    0    0    0  0.00000000000E+00  0.00000000000E+00  0.45593999997E+02  0.45594000000E+02  0.51100000000E-03 0. -1.
         11   -1    0    0    0    0 -0.00000000000E+00 -0.00000000000E+00 -0.45593999997E+02  0.45594000000E+02  0.51100000000E-03 0.  1.
    9900012    2    1    2    0    0 -0.17179342658E+02 -0.57606293268E+01 -0.47290944841E+01  0.72461574846E+02  0.70000005929E+02 0.  0.
        -12    1    1    2    0    0  0.17179342658E+02  0.57606293268E+01  0.47290944841E+01  0.18726425154E+02  0.00000000000E+00 0.  1.
         11    1    3    3    0    0 -0.17594963869E+02  0.89097424429E+01 -0.94962634614E+01  0.21889387473E+02  0.51100000000E-03 0. -1.
        -11    1    3    3    0    0  0.14399830933E+02  0.82540709846E+01 -0.10541099283E+02  0.19662136025E+02  0.51100000000E-03 0.  1.
         12    1    3    3    0    0 -0.13984209722E+02 -0.22924442754E+02  0.15308268260E+02  0.30910051347E+02  0.00000000000E+00 0. -1.
</event>
<event>
 7    1  0.1749439E-013  0.7246157E+02  0.7816164E-02  0.1226708E+00
        -11   -1    0    0    0    0  0.00000000000E+00  0.00000000000E+00  0.45593999997E+02  0.45594000000E+02  0.51100000000E-03 0.  1.
         11   -1    0    0    0    0 -0.00000000000E+00 -0.00000000000E+00 -0.45593999997E+02  0.45594000000E+02  0.51100000000E-03 0. -1.
    9900012    2    1    2    0    0  0.18428457797E+01 -0.81371735598E+01 -0.16765122104E+02  0.72461575000E+02  0.70000006130E+02 0.  0.
        -12    1    1    2    0    0 -0.18428457797E+01  0.81371735598E+01  0.16765122104E+02  0.18726425000E+02  0.00000000000E+00 0.  1.
         11    1    3    3    0    0  0.63599000972E+01  0.16644438839E+01  0.13267915828E+00  0.65754320550E+01  0.51100000000E-03 0. -1.
        -11    1    3    3    0    0 -0.34842916122E+01  0.23976816036E+02  0.61299126278E+01  0.24992075231E+02  0.51100000000E-03 0.  1.
         12    1    3    3    0    0 -0.10327627053E+01 -0.33778433480E+02 -0.23027713890E+02  0.40894067714E+02  0.00000000000E+00 0. -1.
</event>
<event>
 7    1  0.1749439E-013  0.7246158E+02  0.7816164E-02  0.1226708E+00
        -11   -1    0    0    0    0  0.00000000000E+00  0.00000000000E+00  0.45593999997E+02  0.45594000000E+02  0.51100000000E-03 0.  1.
         11   -1    0    0    0    0 -0.00000000000E+00 -0.00000000000E+00 -0.45593999997E+02  0.45594000000E+02  0.51100000000E-03 0. -1.
    9900012    2    1    2    0    0 -0.12018953220E+02  0.43740748008E+01  0.13678121710E+02  0.72461580685E+02  0.70000013535E+02 0.  0.
        -12    1    1    2    0    0  0.12018953220E+02 -0.43740748008E+01 -0.13678121710E+02  0.18726419315E+02  0.00000000000E+00 0.  1.
         11    1    3    3    0    0 -0.11371607662E+01  0.22198872588E+02 -0.61330811910E+01  0.23058572461E+02  0.51100000000E-03 0. -1.
        -11    1    3    3    0    0  0.10685291043E+02  0.65603278226E+01  0.36555425993E+01  0.13060487655E+02  0.51100000000E-03 0.  1.
        -12    1    3    3    0    0 -0.21567083497E+02 -0.24385125609E+02  0.16155660302E+02  0.36342520569E+02  0.00000000000E+00 0.  1.
</event>
<event>
 7    1  0.1749439E-013  0.7246164E+02  0.7816164E-02  0.1226708E+00
        -11   -1    0    0    0    0  0.00000000000E+00  0.00000000000E+00  0.45593999997E+02  0.45594000000E+02  0.51100000000E-03 0.  1.
         11   -1    0    0    0    0 -0.00000000000E+00 -0.00000000000E+00 -0.45593999997E+02  0.45594000000E+02  0.51100000000E-03 0. -1.
    9900012    2    1    2    0    0  0.13925394692E+02  0.75041111115E+00 -0.12497877891E+02  0.72461636607E+02  0.70000086384E+02 0.  0.
        -12    1    1    2    0    0 -0.13925394692E+02 -0.75041111115E+00  0.12497877891E+02  0.18726363393E+02  0.00000000000E+00 0.  1.
         11    1    3    3    0    0  0.68483643271E+01 -0.68361643519E+00  0.36672912948E+01  0.77984903083E+01  0.51100000000E-03 0. -1.
        -11    1    3    3    0    0  0.29881762466E+02 -0.16001651314E+02 -0.92364025176E+01  0.35132374024E+02  0.51100000000E-03 0.  1.
         12    1    3    3    0    0 -0.22804732101E+02  0.17435678861E+02 -0.69287666687E+01  0.29530772274E+02  0.00000000000E+00 0. -1.
</event>
<event>
 7    1  0.1749439E-013  0.7246149E+02  0.7816164E-02  0.1226708E+00
        -11   -1    0    0    0    0  0.00000000000E+00  0.00000000000E+00  0.45593999997E+02  0.45594000000E+02  0.51100000000E-03 0.  1.
         11   -1    0    0    0    0 -0.00000000000E+00 -0.00000000000E+00 -0.45593999997E+02  0.45594000000E+02  0.51100000000E-03 0. -1.
    9900012    2    1    2    0    0 -0.14344446415E+02 -0.11983806975E+02 -0.11433785176E+01  0.72461492397E+02  0.69999898524E+02 0.  0.
        -12    1    1    2    0    0  0.14344446415E+02  0.11983806975E+02  0.11433785176E+01  0.18726507603E+02  0.00000000000E+00 0.  1.
         11    1    3    3    0    0  0.19304548539E+02  0.20580547648E+01 -0.66451863485E+01  0.20519738926E+02  0.51100000000E-03 0. -1.
        -11    1    3    3    0    0  0.10579019605E+00 -0.80726455705E+01  0.14416363561E+02  0.16523024441E+02  0.51100000000E-03 0.  1.
         12    1    3    3    0    0 -0.33754785151E+02 -0.59692161697E+01 -0.89145557304E+01  0.35418729030E+02  0.00000000000E+00 0. -1.
</event>
<event>
 7    1  0.1749439E-013  0.7246156E+02  0.7816164E-02  0.1226708E+00
        -11   -1    0    0    0    0  0.00000000000E+00  0.00000000000E+00  0.45593999997E+02  0.45594000000E+02  0.51100000000E-03 0. -1.
         11   -1    0    0    0    0 -0.00000000000E+00 -0.00000000000E+00 -0.45593999997E+02  0.45594000000E+02  0.51100000000E-03 0.  1.
    9900012    2    1    2    0    0  0.15761804253E+02  0.16574274593E+01  0.99748704900E+01  0.72461559325E+02  0.69999985710E+02 0.  0.
        -12    1    1    2    0    0 -0.15761804253E+02 -0.16574274593E+01 -0.99748704900E+01  0.18726440675E+02  0.00000000000E+00 0.  1.
         11    1    3    3    0    0 -0.36008543328E+01 -0.10065378178E+02  0.23197898474E+02  0.25542523048E+02  0.51100000000E-03 0. -1.
        -11    1    3    3    0    0 -0.35859212238E+01  0.58112374267E+01  0.11054114856E+02  0.12993181557E+02  0.51100000000E-03 0.  1.
        -12    1    3    3    0    0  0.22948579809E+02  0.59115682107E+01 -0.24277142840E+02  0.33925854720E+02  0.00000000000E+00 0.  1.
</event>
<event>
 7    1  0.1749439E-013  0.7246169E+02  0.7816164E-02  0.1226708E+00
        -11   -1    0    0    0    0  0.00000000000E+00  0.00000000000E+00  0.45593999997E+02  0.45594000000E+02  0.51100000000E-03 0.  1.
         11   -1    0    0    0    0 -0.00000000000E+00 -0.00000000000E+00 -0.45593999997E+02  0.45594000000E+02  0.51100000000E-03 0. -1.
    9900012    2    1    2    0    0 -0.93110967010E+01  0.17757024817E+01  0.16150083957E+02  0.72461685550E+02  0.70000150141E+02 0.  0.
        -12    1    1    2    0    0  0.93110967010E+01 -0.17757024817E+01 -0.16150083957E+02  0.18726314450E+02  0.00000000000E+00 0.  1.
         11    1    3    3    0    0  0.24768010537E+02  0.16358296362E+02  0.21079797386E+01  0.29757213994E+02  0.51100000000E-03 0. -1.
        -11    1    3    3    0    0  0.16696006245E+01  0.92184139682E-01  0.36099168645E+00  0.17106663672E+01  0.51100000000E-03 0.  1.
        -12    1    3    3    0    0 -0.35748707863E+02 -0.14674778020E+02  0.13681112532E+02  0.40993805189E+02  0.00000000000E+00 0.  1.
</event>
<event>
 7    1  0.1749439E-013  0.7246159E+02  0.7816164E-02  0.1226708E+00
        -11   -1    0    0    0    0  0.00000000000E+00  0.00000000000E+00  0.45593999997E+02  0.45594000000E+02  0.51100000000E-03 0.  1.
         11   -1    0    0    0    0 -0.00000000000E+00 -0.00000000000E+00 -0.45593999997E+02  0.45594000000E+02  0.51100000000E-03 0. -1.
    9900012    2    1    2    0    0 -0.13281068930E+01 -0.26625888237E+00 -0.18677353610E+02  0.72461593522E+02  0.70000030258E+02 0.  0.
        -12    1    1    2    0    0  0.13281068930E+01  0.26625888237E+00  0.18677353610E+02  0.18726406478E+02  0.00000000000E+00 0.  1.
         11    1    3    3    0    0 -0.88673373020E+01 -0.56952658713E+00 -0.33712190272E+01  0.95036387426E+01  0.51100000000E-03 0. -1.
        -11    1    3    3    0    0  0.26091277435E+01  0.28923639228E+02  0.20700020273E+01  0.29114761934E+02  0.51100000000E-03 0.  1.
         12    1    3    3    0    0  0.49301026655E+01 -0.28620371524E+02 -0.17376136610E+02  0.33843192845E+02  0.00000000000E+00 0. -1.
</event>
<event>
 7    1  0.1749439E-013  0.7246165E+02  0.7816164E-02  0.1226708E+00
        -11   -1    0    0    0    0  0.00000000000E+00  0.00000000000E+00  0.45593999997E+02  0.45594000000E+02  0.51100000000E-03 0. -1.
         11   -1    0    0    0    0 -0.00000000000E+00 -0.00000000000E+00 -0.45593999997E+02  0.45594000000E+02  0.51100000000E-03 0.  1.
    9900012    2    1    2    0    0 -0.20527565674E+01  0.18393089799E+02  0.28560049910E+01  0.72461646206E+02  0.70000098890E+02 0.  0.
        -12    1    1    2    0    0  0.20527565674E+01 -0.18393089799E+02 -0.28560049910E+01  0.18726353794E+02  0.00000000000E+00 0.  1.
         11    1    3    3    0    0 -0.12482705874E+02  0.14529593409E+02  0.12472748603E+02  0.22858182092E+02  0.51100000000E-03 0. -1.
        -11    1    3    3    0    0  0.89156349799E+01  0.24918065434E+02 -0.14146086048E+00  0.26465421657E+02  0.51100000000E-03 0.  1.
        -12    1    3    3    0    0  0.15143143270E+01 -0.21054569044E+02 -0.94752827517E+01  0.23138042457E+02  0.00000000000E+00 0.  1.
</event>
<event>
 7    1  0.1749439E-013  0.7246163E+02  0.7816164E-02  0.1226708E+00
        -11   -1    0    0    0    0  0.00000000000E+00  0.00000000000E+00  0.45593999997E+02  0.45594000000E+02  0.51100000000E-03 0. -1.
         11   -1    0    0    0    0 -0.00000000000E+00 -0.00000000000E+00 -0.45593999997E+02  0.45594000000E+02  0.51100000000E-03 0.  1.
    9900012    2    1    2    0    0 -0.93020829791E+01  0.12188538319E+02  0.10751171815E+02  0.72461630638E+02  0.70000078608E+02 0.  0.
        -12    1    1    2    0    0  0.93020829791E+01 -0.12188538319E+02 -0.10751171815E+02  0.18726369362E+02  0.00000000000E+00 0.  1.
         11    1    3    3    0    0 -0.23464402382E+02 -0.20588864442E+02  0.13087930801E+02  0.33849275488E+02  0.51100000000E-03 0. -1.
        -11    1    3    3    0    0 -0.11756794310E+00  0.12481364324E+02 -0.54151110641E+01  0.13605943764E+02  0.51100000000E-03 0.  1.
        -12    1    3    3    0    0  0.14279887346E+02  0.20296038437E+02  0.30783520783E+01  0.25006411385E+02  0.00000000000E+00 0.  1.
</event>
<event>
 7    1  0.1749439E-013  0.7246156E+02  0.7816164E-02  0.1226708E+00
        -11   -1    0    0    0    0  0.00000000000E+00  0.00000000000E+00  0.45593999997E+02  0.45594000000E+02  0.51100000000E-03 0. -1.
         11   -1    0    0    0    0 -0.00000000000E+00 -0.00000000000E+00 -0.45593999997E+02  0.45594000000E+02  0.51100000000E-03 0.  1.
    9900012    2    1    2    0    0 -0.11815192598E+02 -0.13680046262E+02 -0.48925413289E+01  0.72461564073E+02  0.69999991896E+02 0.  0.
        -12    1    1    2    0    0  0.11815192598E+02  0.13680046262E+02  0.48925413289E+01  0.18726435927E+02  0.00000000000E+00 0.  1.
         11    1    3    3    0    0  0.89008732603E+01 -0.20475972844E+02  0.25514538769E+02  0.33904021849E+02  0.51100000000E-03 0. -1.
        -11    1    3    3    0    0 -0.70956990922E+01  0.59309573320E+01 -0.17396345393E+02  0.19701726670E+02  0.51100000000E-03 0.  1.
        -12    1    3    3    0    0 -0.13620366766E+02  0.86496924964E+00 -0.13010734704E+02  0.18855815554E+02  0.00000000000E+00 0.  1.
</event>
<event>
 7    1  0.1749439E-013  0.7246156E+02  0.7816164E-02  0.1226708E+00
        -11   -1    0    0    0    0  0.00000000000E+00  0.00000000000E+00  0.45593999997E+02  0.45594000000E+02  0.51100000000E-03 0.  1.
         11   -1    0    0    0    0 -0.00000000000E+00 -0.00000000000E+00 -0.45593999997E+02  0.45594000000E+02  0.51100000000E-03 0. -1.
    9900012    2    1    2    0    0 -0.50841542002E+01  0.16944803832E+02  0.61404110377E+01  0.72461557504E+02  0.69999983339E+02 0.  0.
        -12    1    1    2    0    0  0.50841542002E+01 -0.16944803832E+02 -0.61404110377E+01  0.18726442496E+02  0.00000000000E+00 0.  1.
         11    1    3    3    0    0 -0.27534711972E+02  0.13567576435E+02 -0.99289102333E+01  0.32261784706E+02  0.51100000000E-03 0. -1.
        -11    1    3    3    0    0  0.16928616601E+01  0.13563136384E+02  0.70639994250E+01  0.15385855105E+02  0.51100000000E-03 0.  1.
        -12    1    3    3    0    0  0.20757696112E+02 -0.10185908987E+02  0.90053218460E+01  0.24813917694E+02  0.00000000000E+00 0.  1.
</event>
<event>
 7    1  0.1749439E-013  0.7246158E+02  0.7816164E-02  0.1226708E+00
        -11   -1    0    0    0    0  0.00000000000E+00  0.00000000000E+00  0.45593999997E+02  0.45594000000E+02  0.51100000000E-03 0.  1.
         11   -1    0    0    0    0 -0.00000000000E+00 -0.00000000000E+00 -0.45593999997E+02  0.45594000000E+02  0.51100000000E-03 0. -1.
    9900012    2    1    2    0    0 -0.65758902430E+01 -0.17085111454E+02  0.39414839210E+01  0.72461583861E+02  0.70000017674E+02 0.  0.
        -12    1    1    2    0    0  0.65758902430E+01  0.17085111454E+02 -0.39414839210E+01  0.18726416139E+02  0.00000000000E+00 0.  1.
         11    1    3    3    0    0 -0.13225674168E+02  0.16234611884E+02  0.22435817569E+02  0.30689525745E+02  0.51100000000E-03 0. -1.
        -11    1    3    3    0    0 -0.46789869653E+01 -0.14374421889E+02 -0.51093938196E+01  0.15956905374E+02  0.51100000000E-03 0.  1.
        -12    1    3    3    0    0  0.11328770890E+02 -0.18945301449E+02 -0.13384939828E+02  0.25815152742E+02  0.00000000000E+00 0.  1.
</event>
<event>
 7    1  0.1749439E-013  0.7246156E+02  0.7816164E-02  0.1226708E+00
        -11   -1    0    0    0    0  0.00000000000E+00  0.00000000000E+00  0.45593999997E+02  0.45594000000E+02  0.51100000000E-03 0.  1.
         11   -1    0    0    0    0 -0.00000000000E+00 -0.00000000000E+00 -0.45593999997E+02  0.45594000000E+02  0.51100000000E-03 0. -1.
    9900012    2    1    2    0    0 -0.27519134323E+01  0.16095992695E+02  0.91665385186E+01  0.72461563159E+02  0.69999990704E+02 0.  0.
        -12    1    1    2    0    0  0.27519134323E+01 -0.16095992695E+02 -0.91665385186E+01  0.18726436841E+02  0.00000000000E+00 0.  1.
         11    1    3    3    0    0 -0.21862520454E+02  0.14223873135E+02 -0.16742574767E+02  0.30993582846E+02  0.51100000000E-03 0. -1.
        -11    1    3    3    0    0 -0.58644999631E+00 -0.93424159661E+01  0.10464593223E+02  0.14040383587E+02  0.51100000000E-03 0.  1.
         12    1    3    3    0    0  0.19697057018E+02  0.11214535526E+02  0.15444520062E+02  0.27427596726E+02  0.00000000000E+00 0. -1.
</event>
<event>
 7    1  0.1749439E-013  0.7246159E+02  0.7816164E-02  0.1226708E+00
        -11   -1    0    0    0    0  0.00000000000E+00  0.00000000000E+00  0.45593999997E+02  0.45594000000E+02  0.51100000000E-03 0.  1.
         11   -1    0    0    0    0 -0.00000000000E+00 -0.00000000000E+00 -0.45593999997E+02  0.45594000000E+02  0.51100000000E-03 0. -1.
    9900012    2    1    2    0    0 -0.13090274108E+02  0.62885088815E+01  0.11822761286E+02  0.72461593388E+02  0.70000030084E+02 0.  0.
        -12    1    1    2    0    0  0.13090274108E+02 -0.62885088815E+01 -0.11822761286E+02  0.18726406612E+02  0.00000000000E+00 0.  1.
         11    1    3    3    0    0  0.10261274187E+02  0.13675372248E+02  0.28064344734E+01  0.17325865888E+02  0.51100000000E-03 0. -1.
        -11    1    3    3    0    0  0.88915528837E+01  0.23853672088E+01  0.18043134985E+02  0.20255972200E+02  0.51100000000E-03 0.  1.
         12    1    3    3    0    0 -0.32243101178E+02 -0.97722305751E+01 -0.90268081730E+01  0.34879755300E+02  0.00000000000E+00 0. -1.
</event>
<event>
 7    1  0.1749439E-013  0.7246156E+02  0.7816164E-02  0.1226708E+00
        -11   -1    0    0    0    0  0.00000000000E+00  0.00000000000E+00  0.45593999997E+02  0.45594000000E+02  0.51100000000E-03 0. -1.
         11   -1    0    0    0    0 -0.00000000000E+00 -0.00000000000E+00 -0.45593999997E+02  0.45594000000E+02  0.51100000000E-03 0.  1.
    9900012    2    1    2    0    0 -0.12919899429E+02  0.10068724983E+02 -0.90761463965E+01  0.72461562606E+02  0.69999989985E+02 0.  0.
        -12    1    1    2    0    0  0.12919899429E+02 -0.10068724983E+02  0.90761463965E+01  0.18726437394E+02  0.00000000000E+00 0.  1.
         11    1    3    3    0    0 -0.83845468904E+01 -0.29987923872E+01 -0.11573949917E+02  0.14603071570E+02  0.51100000000E-03 0. -1.
        -11    1    3    3    0    0  0.18110680784E+02 -0.86556896989E+01 -0.11897281365E+02  0.23333731522E+02  0.51100000000E-03 0.  1.
         12    1    3    3    0    0 -0.22646033323E+02  0.21723207069E+02  0.14395084886E+02  0.34524759514E+02  0.00000000000E+00 0. -1.
</event>
<event>
 7    1  0.1749439E-013  0.7246158E+02  0.7816164E-02  0.1226708E+00
        -11   -1    0    0    0    0  0.00000000000E+00  0.00000000000E+00  0.45593999997E+02  0.45594000000E+02  0.51100000000E-03 0.  1.
         11   -1    0    0    0    0 -0.00000000000E+00 -0.00000000000E+00 -0.45593999997E+02  0.45594000000E+02  0.51100000000E-03 0. -1.
    9900012    2    1    2    0    0 -0.88065616326E+01  0.42238478106E+01 -0.15977553820E+02  0.72461584321E+02  0.70000018272E+02 0.  0.
        -12    1    1    2    0    0  0.88065616326E+01 -0.42238478106E+01  0.15977553820E+02  0.18726415679E+02  0.00000000000E+00 0.  1.
         11    1    3    3    0    0 -0.14926494031E+02 -0.16184173633E+02  0.47040148993E+01  0.22513450572E+02  0.51100000000E-03 0.  1.
        -11    1    3    3    0    0 -0.13442451340E+02  0.33305448748E+01 -0.19546763035E+02  0.23955541584E+02  0.51100000000E-03 0. -1.
        -12    1    3    3    0    0  0.19562383739E+02  0.17077476569E+02 -0.11348056850E+01  0.25992592164E+02  0.00000000000E+00 0.  1.
</event>
<event>
 7    1  0.1749439E-013  0.7246156E+02  0.7816164E-02  0.1226708E+00
        -11   -1    0    0    0    0  0.00000000000E+00  0.00000000000E+00  0.45593999997E+02  0.45594000000E+02  0.51100000000E-03 0.  1.
         11   -1    0    0    0    0 -0.00000000000E+00 -0.00000000000E+00 -0.45593999997E+02  0.45594000000E+02  0.51100000000E-03 0. -1.
    9900012    2    1    2    0    0  0.79309404882E+01 -0.21981738737E+01 -0.16821049346E+02  0.72461561831E+02  0.69999988975E+02 0.  0.
        -12    1    1    2    0    0 -0.79309404882E+01  0.21981738737E+01  0.16821049346E+02  0.18726438169E+02  0.00000000000E+00 0.  1.
         11    1    3    3    0    0  0.37234145987E+01 -0.82683890963E+01  0.94834179876E+01  0.13121177215E+02  0.51100000000E-03 0. -1.
        -11    1    3    3    0    0 -0.23490794646E+02 -0.21760003580E+01 -0.70813756469E+01  0.24631246253E+02  0.51100000000E-03 0.  1.
         12    1    3    3    0    0  0.27698320536E+02  0.82462155807E+01 -0.19223091687E+02  0.34709138363E+02  0.00000000000E+00 0. -1.
</event>
<event>
 7    1  0.1749439E-013  0.7246162E+02  0.7816164E-02  0.1226708E+00
        -11   -1    0    0    0    0  0.00000000000E+00  0.00000000000E+00  0.45593999997E+02  0.45594000000E+02  0.51100000000E-03 0. -1.
         11   -1    0    0    0    0 -0.00000000000E+00 -0.00000000000E+00 -0.45593999997E+02  0.45594000000E+02  0.51100000000E-03 0.  1.
    9900012    2    1    2    0    0  0.27903463956E-01  0.14930352848E+02  0.11303146930E+02  0.72461619002E+02  0.70000063451E+02 0.  0.
        -12    1    1    2    0    0 -0.27903463956E-01 -0.14930352848E+02 -0.11303146930E+02  0.18726380998E+02  0.00000000000E+00 0.  1.
         11    1    3    3    0    0 -0.11273551112E+01 -0.20948077364E+01 -0.78418444548E+01  0.81947345115E+01  0.51100000000E-03 0. -1.
        -11    1    3    3    0    0 -0.24248561277E+02  0.10181303157E+02 -0.69592388298E+01  0.27204460357E+02  0.51100000000E-03 0.  1.
         12    1    3    3    0    0  0.25403819852E+02  0.68438574268E+01  0.26104230215E+02  0.37062424133E+02  0.00000000000E+00 0. -1.
</event>
<event>
 7    1  0.1749439E-013  0.7246158E+02  0.7816164E-02  0.1226708E+00
        -11   -1    0    0    0    0  0.00000000000E+00  0.00000000000E+00  0.45593999997E+02  0.45594000000E+02  0.51100000000E-03 0.  1.
         11   -1    0    0    0    0 -0.00000000000E+00 -0.00000000000E+00 -0.45593999997E+02  0.45594000000E+02  0.51100000000E-03 0. -1.
    9900012    2    1    2    0    0  0.66604663085E+01 -0.47615554488E+01 -0.16841746092E+02  0.72461584615E+02  0.70000018655E+02 0.  0.
        -12    1    1    2    0    0 -0.66604663085E+01  0.47615554488E+01  0.16841746092E+02  0.18726415385E+02  0.00000000000E+00 0.  1.
         11    1    3    3    0    0 -0.41250989079E+00 -0.26844847374E+02  0.15344359280E+01  0.26891829406E+02  0.51100000000E-03 0. -1.
        -11    1    3    3    0    0 -0.39303265993E+01 -0.16863575722E+01  0.75743353767E+01  0.86983806366E+01  0.51100000000E-03 0.  1.
        -12    1    3    3    0    0  0.11003302799E+02  0.23769649497E+02 -0.25950517397E+02  0.36871374572E+02  0.00000000000E+00 0.  1.
</event>
<event>
 7    1  0.1749439E-013  0.7246157E+02  0.7816164E-02  0.1226708E+00
        -11   -1    0    0    0    0  0.00000000000E+00  0.00000000000E+00  0.45593999997E+02  0.45594000000E+02  0.51100000000E-03 0. -1.
         11   -1    0    0    0    0 -0.00000000000E+00 -0.00000000000E+00 -0.45593999997E+02  0.45594000000E+02  0.51100000000E-03 0.  1.
    9900012    2    1    2    0    0 -0.97202741241E+01  0.96177545314E+01  0.12794312307E+02  0.72461565244E+02  0.69999993421E+02 0.  0.
        -12    1    1    2    0    0  0.97202741241E+01 -0.96177545314E+01 -0.12794312307E+02  0.18726434756E+02  0.00000000000E+00 0.  1.
         11    1    3    3    0    0 -0.18295970003E+01  0.93688611811E+00 -0.41965321670E+01  0.46729073682E+01  0.51100000000E-03 0. -1.
        -11    1    3    3    0    0 -0.25647347363E+02  0.21205093198E+02 -0.84470482500E+01  0.34333584559E+02  0.51100000000E-03 0.  1.
         12    1    3    3    0    0  0.17756670239E+02 -0.12524224784E+02  0.25437892724E+02  0.33455073317E+02  0.00000000000E+00 0. -1.
</event>
<event>
 7    1  0.1749439E-013  0.7246158E+02  0.7816164E-02  0.1226708E+00
        -11   -1    0    0    0    0  0.00000000000E+00  0.00000000000E+00  0.45593999997E+02  0.45594000000E+02  0.51100000000E-03 0.  1.
         11   -1    0    0    0    0 -0.00000000000E+00 -0.00000000000E+00 -0.45593999997E+02  0.45594000000E+02  0.51100000000E-03 0. -1.
    9900012    2    1    2    0    0 -0.66822930363E+00 -0.17825181355E+02 -0.57004622937E+01  0.72461577728E+02  0.70000009684E+02 0.  0.
        -12    1    1    2    0    0  0.66822930363E+00  0.17825181355E+02  0.57004622937E+01  0.18726422272E+02  0.00000000000E+00 0.  1.
         11    1    3    3    0    0 -0.19945918381E+02  0.13212205209E+02 -0.68714479867E+01  0.24892143826E+02  0.51100000000E-03 0. -1.
        -11    1    3    3    0    0  0.80928510900E+01 -0.10635283768E+02 -0.14343325997E+02  0.19604451038E+02  0.51100000000E-03 0.  1.
        -12    1    3    3    0    0  0.11184837988E+02 -0.20402102797E+02  0.15514311690E+02  0.27964982863E+02  0.00000000000E+00 0.  1.
</event>
<event>
 7    1  0.1749439E-013  0.7246163E+02  0.7816164E-02  0.1226708E+00
        -11   -1    0    0    0    0  0.00000000000E+00  0.00000000000E+00  0.45593999997E+02  0.45594000000E+02  0.51100000000E-03 0.  1.
         11   -1    0    0    0    0 -0.00000000000E+00 -0.00000000000E+00 -0.45593999997E+02  0.45594000000E+02  0.51100000000E-03 0. -1.
    9900012    2    1    2    0    0 -0.10928406528E+02 -0.42271806941E+00 -0.15200929091E+02  0.72461628087E+02  0.70000075285E+02 0.  0.
        -12    1    1    2    0    0  0.10928406528E+02  0.42271806941E+00  0.15200929091E+02  0.18726371913E+02  0.00000000000E+00 0.  1.
         11    1    3    3    0    0 -0.85014430223E+01  0.23612033935E+00 -0.16246672391E+02  0.18338065610E+02  0.51100000000E-03 0. -1.
        -11    1    3    3    0    0 -0.24157068905E+02 -0.14235596148E+02 -0.29376619365E+01  0.28193013916E+02  0.51100000000E-03 0.  1.
         12    1    3    3    0    0  0.21730105399E+02  0.13576757739E+02  0.39834052366E+01  0.25930548560E+02  0.00000000000E+00 0. -1.
</event>
<event>
 7    1  0.1749439E-013  0.7246161E+02  0.7816164E-02  0.1226708E+00
        -11   -1    0    0    0    0  0.00000000000E+00  0.00000000000E+00  0.45593999997E+02  0.45594000000E+02  0.51100000000E-03 0. -1.
         11   -1    0    0    0    0 -0.00000000000E+00 -0.00000000000E+00 -0.45593999997E+02  0.45594000000E+02  0.51100000000E-03 0.  1.
    9900012    2    1    2    0    0  0.66674605754E+01 -0.11180740604E+02  0.13461569919E+02  0.72461605375E+02  0.70000045699E+02 0.  0.
        -12    1    1    2    0    0 -0.66674605754E+01  0.11180740604E+02 -0.13461569919E+02  0.18726394625E+02  0.00000000000E+00 0.  1.
         11    1    3    3    0    0 -0.38776714999E+01 -0.10984398783E+02  0.97571565725E+01  0.15195244569E+02  0.51100000000E-03 0. -1.
        -11    1    3    3    0    0 -0.21106588343E+02 -0.10781418900E+02  0.13406793444E+00  0.23701161141E+02  0.51100000000E-03 0.  1.
         12    1    3    3    0    0  0.31651720418E+02  0.10585077078E+02  0.35703454122E+01  0.33565199665E+02  0.00000000000E+00 0. -1.
</event>
<event>
 7    1  0.1749439E-013  0.7246155E+02  0.7816164E-02  0.1226708E+00
        -11   -1    0    0    0    0  0.00000000000E+00  0.00000000000E+00  0.45593999997E+02  0.45594000000E+02  0.51100000000E-03 0. -1.
         11   -1    0    0    0    0 -0.00000000000E+00 -0.00000000000E+00 -0.45593999997E+02  0.45594000000E+02  0.51100000000E-03 0.  1.
    9900012    2    1    2    0    0  0.72468750606E+01  0.14791548895E+02  0.89091480795E+01  0.72461547150E+02  0.69999969850E+02 0.  0.
        -12    1    1    2    0    0 -0.72468750606E+01 -0.14791548895E+02 -0.89091480795E+01  0.18726452850E+02  0.00000000000E+00 0.  1.
         11    1    3    3    0    0 -0.17483511455E+02  0.12664627673E+02  0.11497789908E+02  0.24459459110E+02  0.51100000000E-03 0. -1.
        -11    1    3    3    0    0  0.30090467236E+00 -0.77468732865E+01  0.14607851354E+02  0.16537651308E+02  0.51100000000E-03 0.  1.
        -12    1    3    3    0    0  0.24429481843E+02  0.98737945078E+01 -0.17196493182E+02  0.31464436732E+02  0.00000000000E+00 0.  1.
</event>
<event>
 7    1  0.1749439E-013  0.7246153E+02  0.7816164E-02  0.1226708E+00
        -11   -1    0    0    0    0  0.00000000000E+00  0.00000000000E+00  0.45593999997E+02  0.45594000000E+02  0.51100000000E-03 0.  1.
         11   -1    0    0    0    0 -0.00000000000E+00 -0.00000000000E+00 -0.45593999997E+02  0.45594000000E+02  0.51100000000E-03 0. -1.
    9900012    2    1    2    0    0  0.16782615370E+02  0.79424897833E+00 -0.82700562266E+01  0.72461525690E+02  0.69999941894E+02 0.  0.
        -12    1    1    2    0    0 -0.16782615370E+02 -0.79424897833E+00  0.82700562266E+01  0.18726474310E+02  0.00000000000E+00 0.  1.
         11    1    3    3    0    0  0.49948365027E+01  0.68028964674E+01  0.32736353842E+01  0.90523190909E+01  0.51100000000E-03 0. -1.
        -11    1    3    3    0    0  0.13043875413E+02 -0.39798494646E+01  0.24097176692E+02  0.27688550203E+02  0.51100000000E-03 0.  1.
         12    1    3    3    0    0 -0.12560965457E+01 -0.20287980245E+01 -0.35640868303E+02  0.35720656396E+02  0.00000000000E+00 0. -1.
</event>
<event>
 7    1  0.1749439E-013  0.7246160E+02  0.7816164E-02  0.1226708E+00
        -11   -1    0    0    0    0  0.00000000000E+00  0.00000000000E+00  0.45593999997E+02  0.45594000000E+02  0.51100000000E-03 0. -1.
         11   -1    0    0    0    0 -0.00000000000E+00 -0.00000000000E+00 -0.45593999997E+02  0.45594000000E+02  0.51100000000E-03 0.  1.
    9900012    2    1    2    0    0  0.93555008315E+00 -0.13170825503E+02  0.13279013876E+02  0.72461598639E+02  0.70000036924E+02 0.  0.
        -12    1    1    2    0    0 -0.93555008315E+00  0.13170825503E+02 -0.13279013876E+02  0.18726401361E+02  0.00000000000E+00 0.  1.
         11    1    3    3    0    0 -0.90328986478E+01 -0.18601283587E+02  0.22905812116E+02  0.30858989582E+02  0.51100000000E-03 0. -1.
        -11    1    3    3    0    0  0.13197400137E+01 -0.16427368593E+02 -0.82117581589E+00  0.16500741879E+02  0.51100000000E-03 0.  1.
        -12    1    3    3    0    0  0.86487087172E+01  0.21857826677E+02 -0.88056224239E+01  0.25101867177E+02  0.00000000000E+00 0.  1.
</event>
<event>
 7    1  0.1749439E-013  0.7246137E+02  0.7816164E-02  0.1226709E+00
        -11   -1    0    0    0    0  0.00000000000E+00  0.00000000000E+00  0.45593999997E+02  0.45594000000E+02  0.51100000000E-03 0.  1.
         11   -1    0    0    0    0 -0.00000000000E+00 -0.00000000000E+00 -0.45593999997E+02  0.45594000000E+02  0.51100000000E-03 0. -1.
    9900012    2    1    2    0    0  0.13220085559E+02  0.12611429100E+02  0.41070587887E+01  0.72461368214E+02  0.69999736753E+02 0.  0.
        -12    1    1    2    0    0 -0.13220085559E+02 -0.12611429100E+02 -0.41070587887E+01  0.18726631786E+02  0.00000000000E+00 0.  1.
         11    1    3    3    0    0  0.92910344417E+01 -0.10922465048E+02 -0.28494381274E+01  0.14619947388E+02  0.51100000000E-03 0. -1.
        -11    1    3    3    0    0  0.25553306037E+01 -0.11463199211E+02  0.17668558165E+02  0.21215857242E+02  0.51100000000E-03 0.  1.
         12    1    3    3    0    0  0.13737205135E+01  0.34997093359E+02 -0.10712061249E+02  0.36625563584E+02  0.00000000000E+00 0. -1.
</event>
<event>
 7    1  0.1749439E-013  0.7246158E+02  0.7816164E-02  0.1226708E+00
        -11   -1    0    0    0    0  0.00000000000E+00  0.00000000000E+00  0.45593999997E+02  0.45594000000E+02  0.51100000000E-03 0. -1.
         11   -1    0    0    0    0 -0.00000000000E+00 -0.00000000000E+00 -0.45593999997E+02  0.45594000000E+02  0.51100000000E-03 0.  1.
    9900012    2    1    2    0    0  0.47789784998E+01 -0.99875936368E+01  0.15102591758E+02  0.72461576423E+02  0.70000007984E+02 0.  0.
        -12    1    1    2    0    0 -0.47789784998E+01  0.99875936368E+01 -0.15102591758E+02  0.18726423577E+02  0.00000000000E+00 0.  1.
         11    1    3    3    0    0  0.65230412113E+01 -0.16343671680E+01  0.22032054255E+02  0.23035464780E+02  0.51100000000E-03 0. -1.
        -11    1    3    3    0    0  0.21290609792E+02 -0.13664958975E+02 -0.36403431660E+01  0.25559211016E+02  0.51100000000E-03 0.  1.
        -12    1    3    3    0    0 -0.23034672504E+02  0.53117325058E+01 -0.32891193307E+01  0.23866900627E+02  0.00000000000E+00 0.  1.
</event>
<event>
 7    1  0.1749439E-013  0.7246156E+02  0.7816164E-02  0.1226708E+00
        -11   -1    0    0    0    0  0.00000000000E+00  0.00000000000E+00  0.45593999997E+02  0.45594000000E+02  0.51100000000E-03 0.  1.
         11   -1    0    0    0    0 -0.00000000000E+00 -0.00000000000E+00 -0.45593999997E+02  0.45594000000E+02  0.51100000000E-03 0. -1.
    9900012    2    1    2    0    0 -0.67779280374E+01 -0.16980298974E+02 -0.40507575780E+01  0.72461561506E+02  0.69999988552E+02 0.  0.
        -12    1    1    2    0    0  0.67779280374E+01  0.16980298974E+02  0.40507575780E+01  0.18726438494E+02  0.00000000000E+00 0.  1.
         11    1    3    3    0    0  0.13594510035E+02  0.14464355470E+02 -0.11292430394E+02  0.22837409369E+02  0.51100000000E-03 0. -1.
        -11    1    3    3    0    0 -0.24257155176E+02 -0.92609869432E+01 -0.77788929944E-02  0.25964890086E+02  0.51100000000E-03 0.  1.
        -12    1    3    3    0    0  0.38847171038E+01 -0.22183667500E+02  0.72494517093E+01  0.23659262051E+02  0.00000000000E+00 0.  1.
</event>
<event>
 7    1  0.1749439E-013  0.7246158E+02  0.7816164E-02  0.1226708E+00
        -11   -1    0    0    0    0  0.00000000000E+00  0.00000000000E+00  0.45593999997E+02  0.45594000000E+02  0.51100000000E-03 0. -1.
         11   -1    0    0    0    0 -0.00000000000E+00 -0.00000000000E+00 -0.45593999997E+02  0.45594000000E+02  0.51100000000E-03 0.  1.
    9900012    2    1    2    0    0  0.18281853911E+02 -0.83700936502E+00  0.39689053842E+01  0.72461575434E+02  0.70000006695E+02 0.  0.
        -12    1    1    2    0    0 -0.18281853911E+02  0.83700936502E+00 -0.39689053842E+01  0.18726424566E+02  0.00000000000E+00 0.  1.
         11    1    3    3    0    0  0.26292484148E+02  0.12822144744E+02  0.34468419566E+01  0.29454759178E+02  0.51100000000E-03 0. -1.
        -11    1    3    3    0    0  0.95236048321E+01  0.97919308013E+01 -0.91548866994E+00  0.13690108750E+02  0.51100000000E-03 0.  1.
        -12    1    3    3    0    0 -0.17534235070E+02 -0.23451084910E+02  0.14375520976E+01  0.29316707506E+02  0.00000000000E+00 0.  1.
</event>
<event>
 7    1  0.1749439E-013  0.7246154E+02  0.7816164E-02  0.1226708E+00
        -11   -1    0    0    0    0  0.00000000000E+00  0.00000000000E+00  0.45593999997E+02  0.45594000000E+02  0.51100000000E-03 0.  1.
         11   -1    0    0    0    0 -0.00000000000E+00 -0.00000000000E+00 -0.45593999997E+02  0.45594000000E+02  0.51100000000E-03 0. -1.
    9900012    2    1    2    0    0  0.10054263530E+02 -0.31263585091E+00 -0.15795395766E+02  0.72461535206E+02  0.69999954291E+02 0.  0.
        -12    1    1    2    0    0 -0.10054263530E+02  0.31263585091E+00  0.15795395766E+02  0.18726464794E+02  0.00000000000E+00 0.  1.
         11    1    3    3    0    0  0.21136289917E+02 -0.18419197962E+02 -0.30593578449E+02  0.41496706467E+02  0.51100000000E-03 0. -1.
        -11    1    3    3    0    0 -0.29833064588E+01 -0.85124264373E+00  0.90444253682E+01  0.95617133385E+01  0.51100000000E-03 0.  1.
        -12    1    3    3    0    0 -0.80987199282E+01  0.18957804755E+02  0.57537573156E+01  0.21403115400E+02  0.00000000000E+00 0.  1.
</event>
<event>
 7    1  0.1749439E-013  0.7246155E+02  0.7816164E-02  0.1226708E+00
        -11   -1    0    0    0    0  0.00000000000E+00  0.00000000000E+00  0.45593999997E+02  0.45594000000E+02  0.51100000000E-03 0. -1.
         11   -1    0    0    0    0 -0.00000000000E+00 -0.00000000000E+00 -0.45593999997E+02  0.45594000000E+02  0.51100000000E-03 0.  1.
    9900012    2    1    2    0    0  0.15689930263E+02  0.86151086100E+01  0.55032772665E+01  0.72461546287E+02  0.69999968726E+02 0.  0.
        -12    1    1    2    0    0 -0.15689930263E+02 -0.86151086100E+01 -0.55032772665E+01  0.18726453713E+02  0.00000000000E+00 0.  1.
         11    1    3    3    0    0  0.90776595968E+00  0.27305671807E+00  0.11888034057E+02  0.11925768445E+02  0.51100000000E-03 0. -1.
        -11    1    3    3    0    0 -0.15191094640E+02  0.18279616083E+01  0.16322265778E+02  0.22372464335E+02  0.51100000000E-03 0.  1.
        -12    1    3    3    0    0  0.29973258943E+02  0.65140902836E+01 -0.22707022569E+02  0.38163313507E+02  0.00000000000E+00 0.  1.
</event>
<event>
 7    1  0.1749439E-013  0.7246156E+02  0.7816164E-02  0.1226708E+00
        -11   -1    0    0    0    0  0.00000000000E+00  0.00000000000E+00  0.45593999997E+02  0.45594000000E+02  0.51100000000E-03 0. -1.
         11   -1    0    0    0    0 -0.00000000000E+00 -0.00000000000E+00 -0.45593999997E+02  0.45594000000E+02  0.51100000000E-03 0.  1.
    9900012    2    1    2    0    0 -0.21946220833E+01  0.16713988261E+02  0.81550997741E+01  0.72461563553E+02  0.69999991218E+02 0.  0.
        -12    1    1    2    0    0  0.21946220833E+01 -0.16713988261E+02 -0.81550997741E+01  0.18726436447E+02  0.00000000000E+00 0.  1.
         11    1    3    3    0    0 -0.17186450220E+01 -0.11384959214E+02  0.15935095663E+02  0.19659560297E+02  0.51100000000E-03 0. -1.
        -11    1    3    3    0    0  0.75163835183E+01  0.18236703983E+02  0.16295114088E+02  0.25585232787E+02  0.51100000000E-03 0.  1.
        -12    1    3    3    0    0 -0.79923605797E+01  0.98622434918E+01 -0.24075109977E+02  0.27216770469E+02  0.00000000000E+00 0.  1.
</event>
<event>
 7    1  0.1749439E-013  0.7246155E+02  0.7816164E-02  0.1226708E+00
        -11   -1    0    0    0    0  0.00000000000E+00  0.00000000000E+00  0.45593999997E+02  0.45594000000E+02  0.51100000000E-03 0. -1.
         11   -1    0    0    0    0 -0.00000000000E+00 -0.00000000000E+00 -0.45593999997E+02  0.45594000000E+02  0.51100000000E-03 0.  1.
    9900012    2    1    2    0    0  0.89643576027E+01  0.10044023925E+02 -0.13016834445E+02  0.72461545376E+02  0.69999967539E+02 0.  0.
        -12    1    1    2    0    0 -0.89643576027E+01 -0.10044023925E+02  0.13016834445E+02  0.18726454624E+02  0.00000000000E+00 0.  1.
         11    1    3    3    0    0 -0.30392856948E+01  0.11583587906E+02  0.70751264722E+01  0.13909499674E+02  0.51100000000E-03 0. -1.
        -11    1    3    3    0    0  0.78289552030E+01 -0.12783424807E+02  0.15157461041E+02  0.21317999785E+02  0.51100000000E-03 0.  1.
        -12    1    3    3    0    0  0.41746880945E+01  0.11243860826E+02 -0.35249421958E+02  0.37234045917E+02  0.00000000000E+00 0.  1.
</event>
<event>
 7    1  0.1749439E-013  0.7246155E+02  0.7816164E-02  0.1226708E+00
        -11   -1    0    0    0    0  0.00000000000E+00  0.00000000000E+00  0.45593999997E+02  0.45594000000E+02  0.51100000000E-03 0. -1.
         11   -1    0    0    0    0 -0.00000000000E+00 -0.00000000000E+00 -0.45593999997E+02  0.45594000000E+02  0.51100000000E-03 0.  1.
    9900012    2    1    2    0    0  0.83702549169E+01 -0.73872053397E+01  0.15034889074E+02  0.72461551870E+02  0.69999975999E+02 0.  0.
        -12    1    1    2    0    0 -0.83702549169E+01  0.73872053397E+01 -0.15034889074E+02  0.18726448130E+02  0.00000000000E+00 0.  1.
         11    1    3    3    0    0 -0.12097901616E+02 -0.16012139429E+02  0.31650444984E+01  0.20316627169E+02  0.51100000000E-03 0. -1.
        -11    1    3    3    0    0  0.88620380082E+01 -0.15983285775E+02 -0.64092907438E+01  0.19366986082E+02  0.51100000000E-03 0.  1.
         12    1    3    3    0    0  0.11606118525E+02  0.24608219864E+02  0.18279135319E+02  0.32777938619E+02  0.00000000000E+00 0. -1.
</event>
<event>
 7    1  0.1749439E-013  0.7246158E+02  0.7816164E-02  0.1226708E+00
        -11   -1    0    0    0    0  0.00000000000E+00  0.00000000000E+00  0.45593999997E+02  0.45594000000E+02  0.51100000000E-03 0.  1.
         11   -1    0    0    0    0 -0.00000000000E+00 -0.00000000000E+00 -0.45593999997E+02  0.45594000000E+02  0.51100000000E-03 0. -1.
    9900012    2    1    2    0    0  0.75341810958E+01  0.90639420116E+01 -0.14551977526E+02  0.72461575369E+02  0.70000006610E+02 0.  0.
        -12    1    1    2    0    0 -0.75341810958E+01 -0.90639420116E+01  0.14551977526E+02  0.18726424631E+02  0.00000000000E+00 0.  1.
         11    1    3    3    0    0 -0.13459647771E+02  0.17714196158E+02 -0.17696493229E+02  0.28427464475E+02  0.51100000000E-03 0. -1.
        -11    1    3    3    0    0  0.21448467893E+00  0.45520395076E+01 -0.13545312731E+02  0.14291345794E+02  0.51100000000E-03 0.  1.
        -12    1    3    3    0    0  0.20779344188E+02 -0.13202293654E+02  0.16689828434E+02  0.29742765099E+02  0.00000000000E+00 0.  1.
</event>
<event>
 7    1  0.1749439E-013  0.7246151E+02  0.7816164E-02  0.1226708E+00
        -11   -1    0    0    0    0  0.00000000000E+00  0.00000000000E+00  0.45593999997E+02  0.45594000000E+02  0.51100000000E-03 0. -1.
         11   -1    0    0    0    0 -0.00000000000E+00 -0.00000000000E+00 -0.45593999997E+02  0.45594000000E+02  0.51100000000E-03 0.  1.
    9900012    2    1    2    0    0 -0.47990477700E+01 -0.78940732349E+01  0.16289076690E+02  0.72461514181E+02  0.69999926902E+02 0.  0.
        -12    1    1    2    0    0  0.47990477700E+01  0.78940732349E+01 -0.16289076690E+02  0.18726485819E+02  0.00000000000E+00 0.  1.
         11    1    3    3    0    0 -0.93556550332E+01  0.17786650524E+02  0.32916625108E+02  0.38566791761E+02  0.51100000000E-03 0. -1.
        -11    1    3    3    0    0  0.50349050865E+01 -0.52194243698E+01  0.41112909937E+00  0.72637240710E+01  0.51100000000E-03 0.  1.
        -12    1    3    3    0    0 -0.47829782324E+00 -0.20461299389E+02 -0.17038677518E+02  0.26630998349E+02  0.00000000000E+00 0.  1.
</event>
<event>
 7    1  0.1749439E-013  0.7246155E+02  0.7816164E-02  0.1226708E+00
        -11   -1    0    0    0    0  0.00000000000E+00  0.00000000000E+00  0.45593999997E+02  0.45594000000E+02  0.51100000000E-03 0. -1.
         11   -1    0    0    0    0 -0.00000000000E+00 -0.00000000000E+00 -0.45593999997E+02  0.45594000000E+02  0.51100000000E-03 0.  1.
    9900012    2    1    2    0    0  0.73901516993E+01 -0.48016567543E+01  0.16523006479E+02  0.72461548312E+02  0.69999971363E+02 0.  0.
        -12    1    1    2    0    0 -0.73901516993E+01  0.48016567543E+01 -0.16523006479E+02  0.18726451688E+02  0.00000000000E+00 0.  1.
         11    1    3    3    0    0 -0.97686862792E+01 -0.67145813044E+01  0.11596949792E+02  0.16583186619E+02  0.51100000000E-03 0. -1.
        -11    1    3    3    0    0 -0.19011445623E+02  0.62827143617E+00 -0.16479485891E+01  0.19093075302E+02  0.51100000000E-03 0.  1.
         12    1    3    3    0    0  0.36170283601E+02  0.12846531139E+01  0.65740052764E+01  0.36785286390E+02  0.00000000000E+00 0. -1.
</event>
<event>
 7    1  0.1749439E-013  0.7246152E+02  0.7816164E-02  0.1226708E+00
        -11   -1    0    0    0    0  0.00000000000E+00  0.00000000000E+00  0.45593999997E+02  0.45594000000E+02  0.51100000000E-03 0.  1.
         11   -1    0    0    0    0 -0.00000000000E+00 -0.00000000000E+00 -0.45593999997E+02  0.45594000000E+02  0.51100000000E-03 0. -1.
    9900012    2    1    2    0    0  0.38413303065E+01 -0.18254194603E+02 -0.16461007869E+01  0.72461519099E+02  0.69999933309E+02 0.  0.
        -12    1    1    2    0    0 -0.38413303065E+01  0.18254194603E+02  0.16461007869E+01  0.18726480901E+02  0.00000000000E+00 0.  1.
         11    1    3    3    0    0  0.15179536888E+02 -0.40099540097E+02 -0.86063986304E+01  0.43731699644E+02  0.51100000000E-03 0. -1.
        -11    1    3    3    0    0  0.23076376940E+01  0.44038104283E+01  0.40128600664E+01  0.63891927650E+01  0.51100000000E-03 0.  1.
        -12    1    3    3    0    0 -0.13645844276E+02  0.17441535066E+02  0.29474377770E+01  0.22340626690E+02  0.00000000000E+00 0.  1.
</event>
<event>
 7    1  0.1749439E-013  0.7246168E+02  0.7816164E-02  0.1226708E+00
        -11   -1    0    0    0    0  0.00000000000E+00  0.00000000000E+00  0.45593999997E+02  0.45594000000E+02  0.51100000000E-03 0. -1.
         11   -1    0    0    0    0 -0.00000000000E+00 -0.00000000000E+00 -0.45593999997E+02  0.45594000000E+02  0.51100000000E-03 0.  1.
    9900012    2    1    2    0    0  0.12343594366E+02 -0.12670324433E+02  0.61460148787E+01  0.72461683171E+02  0.70000147042E+02 0.  0.
        -12    1    1    2    0    0 -0.12343594366E+02  0.12670324433E+02 -0.61460148787E+01  0.18726316829E+02  0.00000000000E+00 0.  1.
         11    1    3    3    0    0 -0.53180764205E+01 -0.53761573219E+01 -0.40026927075E+01  0.85560828383E+01  0.51100000000E-03 0. -1.
        -11    1    3    3    0    0  0.31326822089E+01 -0.21043581404E+02 -0.19019330828E+02  0.28537360802E+02  0.51100000000E-03 0.  1.
         12    1    3    3    0    0  0.14528988578E+02  0.13749414293E+02  0.29168038415E+02  0.35368239530E+02  0.00000000000E+00 0. -1.
</event>
<event>
 7    1  0.1749439E-013  0.7246158E+02  0.7816164E-02  0.1226708E+00
        -11   -1    0    0    0    0  0.00000000000E+00  0.00000000000E+00  0.45593999997E+02  0.45594000000E+02  0.51100000000E-03 0.  1.
         11   -1    0    0    0    0 -0.00000000000E+00 -0.00000000000E+00 -0.45593999997E+02  0.45594000000E+02  0.51100000000E-03 0. -1.
    9900012    2    1    2    0    0 -0.11852342194E+02  0.68547545110E+01  0.12775482350E+02  0.72461584855E+02  0.70000018968E+02 0.  0.
        -12    1    1    2    0    0  0.11852342194E+02 -0.68547545110E+01 -0.12775482350E+02  0.18726415145E+02  0.00000000000E+00 0.  1.
         11    1    3    3    0    0 -0.14567555864E+02  0.30515732516E+02 -0.97359528431E+01  0.35188242253E+02  0.51100000000E-03 0. -1.
        -11    1    3    3    0    0  0.70801086999E+01 -0.51004369671E+01  0.14194585207E+01  0.88406594330E+01  0.51100000000E-03 0.  1.
        -12    1    3    3    0    0 -0.43648950308E+01 -0.18560541038E+02  0.21091976672E+02  0.28432683169E+02  0.00000000000E+00 0.  1.
</event>
<event>
 7    1  0.1749439E-013  0.7246227E+02  0.7816164E-02  0.1226706E+00
        -11   -1    0    0    0    0  0.00000000000E+00  0.00000000000E+00  0.45593999997E+02  0.45594000000E+02  0.51100000000E-03 0. -1.
         11   -1    0    0    0    0 -0.00000000000E+00 -0.00000000000E+00 -0.45593999997E+02  0.45594000000E+02  0.51100000000E-03 0.  1.
    9900012    2    1    2    0    0  0.17021416309E+02 -0.10912205202E+01  0.77287533674E+01  0.72462268933E+02  0.70000910101E+02 0.  0.
        -12    1    1    2    0    0 -0.17021416309E+02  0.10912205202E+01 -0.77287533674E+01  0.18725731067E+02  0.00000000000E+00 0.  1.
         11    1    3    3    0    0  0.96016893977E+01  0.71289580847E+01 -0.14254591790E+02  0.18606661980E+02  0.51100000000E-03 0. -1.
        -11    1    3    3    0    0  0.18490158145E+02 -0.21401348041E+02  0.33369683109E+01  0.28478746531E+02  0.51100000000E-03 0.  1.
        -12    1    3    3    0    0 -0.11070431234E+02  0.13181169436E+02  0.18646376847E+02  0.25376860423E+02  0.00000000000E+00 0.  1.
</event>
<event>
 7    1  0.1749439E-013  0.7246179E+02  0.7816164E-02  0.1226707E+00
        -11   -1    0    0    0    0  0.00000000000E+00  0.00000000000E+00  0.45593999997E+02  0.45594000000E+02  0.51100000000E-03 0. -1.
         11   -1    0    0    0    0 -0.00000000000E+00 -0.00000000000E+00 -0.45593999997E+02  0.45594000000E+02  0.51100000000E-03 0.  1.
    9900012    2    1    2    0    0 -0.10716812732E+01  0.18694270908E+02  0.21639207592E+00  0.72461785992E+02  0.70000280986E+02 0.  0.
        -12    1    1    2    0    0  0.10716812732E+01 -0.18694270908E+02 -0.21639207592E+00  0.18726214008E+02  0.00000000000E+00 0.  1.
         11    1    3    3    0    0 -0.48116492636E+01 -0.70317290304E+01  0.60693794509E+01  0.10461096930E+02  0.51100000000E-03 0. -1.
        -11    1    3    3    0    0  0.15449967052E+01  0.16129617881E+01  0.23694629131E+02  0.23799666184E+02  0.51100000000E-03 0.  1.
        -12    1    3    3    0    0  0.21949712852E+01  0.24113038150E+02 -0.29547616506E+02  0.38201022879E+02  0.00000000000E+00 0.  1.
</event>
<event>
 7    1  0.1749439E-013  0.7246157E+02  0.7816164E-02  0.1226708E+00
        -11   -1    0    0    0    0  0.00000000000E+00  0.00000000000E+00  0.45593999997E+02  0.45594000000E+02  0.51100000000E-03 0.  1.
         11   -1    0    0    0    0 -0.00000000000E+00 -0.00000000000E+00 -0.45593999997E+02  0.45594000000E+02  0.51100000000E-03 0. -1.
    9900012    2    1    2    0    0  0.16099699261E+02  0.91633202301E+01 -0.27408956757E+01  0.72461567798E+02  0.69999996747E+02 0.  0.
        -12    1    1    2    0    0 -0.16099699261E+02 -0.91633202301E+01  0.27408956757E+01  0.18726432202E+02  0.00000000000E+00 0.  1.
         11    1    3    3    0    0  0.18289403483E+02 -0.24090810972E+02 -0.11365768382E+02  0.32311764796E+02  0.51100000000E-03 0. -1.
        -11    1    3    3    0    0 -0.10264724925E+02  0.16278759700E+02 -0.50593773176E+00  0.19251456268E+02  0.51100000000E-03 0.  1.
        -12    1    3    3    0    0  0.80750207029E+01  0.16975371501E+02  0.91308104384E+01  0.20898346734E+02  0.00000000000E+00 0.  1.
</event>
<event>
 7    1  0.1749439E-013  0.7246149E+02  0.7816164E-02  0.1226708E+00
        -11   -1    0    0    0    0  0.00000000000E+00  0.00000000000E+00  0.45593999997E+02  0.45594000000E+02  0.51100000000E-03 0.  1.
         11   -1    0    0    0    0 -0.00000000000E+00 -0.00000000000E+00 -0.45593999997E+02  0.45594000000E+02  0.51100000000E-03 0. -1.
    9900012    2    1    2    0    0  0.16109018232E+02 -0.92265889473E+01  0.24600675654E+01  0.72461485524E+02  0.69999889571E+02 0.  0.
        -12    1    1    2    0    0 -0.16109018232E+02  0.92265889473E+01 -0.24600675654E+01  0.18726514476E+02  0.00000000000E+00 0.  1.
         11    1    3    3    0    0  0.18103944739E+02  0.59079843297E+01 -0.11178778944E+02  0.22082169117E+02  0.51100000000E-03 0.  1.
        -11    1    3    3    0    0 -0.76884180018E+01  0.13508862316E+02 -0.42728719093E+01  0.16120129250E+02  0.51100000000E-03 0. -1.
        -12    1    3    3    0    0  0.56934914945E+01 -0.28643435593E+02  0.17911718419E+02  0.34259187157E+02  0.00000000000E+00 0.  1.
</event>
<event>
 7    1  0.1749439E-013  0.7246158E+02  0.7816164E-02  0.1226708E+00
        -11   -1    0    0    0    0  0.00000000000E+00  0.00000000000E+00  0.45593999997E+02  0.45594000000E+02  0.51100000000E-03 0. -1.
         11   -1    0    0    0    0 -0.00000000000E+00 -0.00000000000E+00 -0.45593999997E+02  0.45594000000E+02  0.51100000000E-03 0.  1.
    9900012    2    1    2    0    0 -0.10517850713E+02  0.60874827444E+00  0.15481705610E+02  0.72461575710E+02  0.70000007055E+02 0.  0.
        -12    1    1    2    0    0  0.10517850713E+02 -0.60874827444E+00 -0.15481705610E+02  0.18726424290E+02  0.00000000000E+00 0.  1.
         11    1    3    3    0    0 -0.10408442716E+01  0.95611750578E+00  0.17743502471E+02  0.17799702180E+02  0.51100000000E-03 0. -1.
        -11    1    3    3    0    0 -0.76777628656E+01  0.25485894525E+02  0.63634776004E+01  0.27367365781E+02  0.51100000000E-03 0.  1.
        -12    1    3    3    0    0 -0.17992435761E+01 -0.25833263756E+02 -0.86252744616E+01  0.27294507749E+02  0.00000000000E+00 0.  1.
</event>
<event>
 7    1  0.1749439E-013  0.7246155E+02  0.7816164E-02  0.1226708E+00
        -11   -1    0    0    0    0  0.00000000000E+00  0.00000000000E+00  0.45593999997E+02  0.45594000000E+02  0.51100000000E-03 0.  1.
         11   -1    0    0    0    0 -0.00000000000E+00 -0.00000000000E+00 -0.45593999997E+02  0.45594000000E+02  0.51100000000E-03 0. -1.
    9900012    2    1    2    0    0 -0.37887209013E+01 -0.16816102581E+02 -0.73173813039E+01  0.72461553961E+02  0.69999978723E+02 0.  0.
        -12    1    1    2    0    0  0.37887209013E+01  0.16816102581E+02  0.73173813039E+01  0.18726446039E+02  0.00000000000E+00 0.  1.
         11    1    3    3    0    0  0.45271930157E+01  0.21958942109E+02 -0.13534299230E+02  0.26189079233E+02  0.51100000000E-03 0. -1.
        -11    1    3    3    0    0  0.19192839767E+01 -0.14991583141E+01 -0.53877422084E+01  0.59126045868E+01  0.51100000000E-03 0.  1.
        -12    1    3    3    0    0 -0.10235197894E+02 -0.37275886376E+02  0.11604660134E+02  0.40359870142E+02  0.00000000000E+00 0.  1.
</event>
<event>
 7    1  0.1749439E-013  0.7246157E+02  0.7816164E-02  0.1226708E+00
        -11   -1    0    0    0    0  0.00000000000E+00  0.00000000000E+00  0.45593999997E+02  0.45594000000E+02  0.51100000000E-03 0. -1.
         11   -1    0    0    0    0 -0.00000000000E+00 -0.00000000000E+00 -0.45593999997E+02  0.45594000000E+02  0.51100000000E-03 0.  1.
    9900012    2    1    2    0    0 -0.77120672054E+01 -0.37973957039E+01  0.16636797275E+02  0.72461568992E+02  0.69999998304E+02 0.  0.
        -12    1    1    2    0    0  0.77120672054E+01  0.37973957039E+01 -0.16636797275E+02  0.18726431008E+02  0.00000000000E+00 0.  1.
         11    1    3    3    0    0 -0.57497052236E+01 -0.49575907342E+01 -0.19115509184E+02  0.20567924243E+02  0.51100000000E-03 0. -1.
        -11    1    3    3    0    0 -0.69873542420E+01 -0.17153277144E+02  0.19550515968E+02  0.26931036203E+02  0.51100000000E-03 0.  1.
         12    1    3    3    0    0  0.50249922602E+01  0.18313472174E+02  0.16201790491E+02  0.24962608546E+02  0.00000000000E+00 0. -1.
</event>
<event>
 7    1  0.1749439E-013  0.7246158E+02  0.7816164E-02  0.1226708E+00
        -11   -1    0    0    0    0  0.00000000000E+00  0.00000000000E+00  0.45593999997E+02  0.45594000000E+02  0.51100000000E-03 0.  1.
         11   -1    0    0    0    0 -0.00000000000E+00 -0.00000000000E+00 -0.45593999997E+02  0.45594000000E+02  0.51100000000E-03 0. -1.
    9900012    2    1    2    0    0  0.17396957842E+02  0.64931360822E+01  0.24215340779E+01  0.72461580544E+02  0.70000013352E+02 0.  0.
        -12    1    1    2    0    0 -0.17396957842E+02 -0.64931360822E+01 -0.24215340779E+01  0.18726419456E+02  0.00000000000E+00 0.  1.
         11    1    3    3    0    0  0.20861559446E+02 -0.11508461156E+02 -0.22210563372E+02  0.32572357395E+02  0.51100000000E-03 0. -1.
        -11    1    3    3    0    0  0.19338259105E+01  0.29778891449E+01 -0.50576801323E+01  0.61796144696E+01  0.51100000000E-03 0.  1.
        -12    1    3    3    0    0 -0.53984275140E+01  0.15023708094E+02  0.29689777582E+02  0.33709608680E+02  0.00000000000E+00 0.  1.
</event>
<event>
 7    1  0.1749439E-013  0.7246154E+02  0.7816164E-02  0.1226708E+00
        -11   -1    0    0    0    0  0.00000000000E+00  0.00000000000E+00  0.45593999997E+02  0.45594000000E+02  0.51100000000E-03 0. -1.
         11   -1    0    0    0    0 -0.00000000000E+00 -0.00000000000E+00 -0.45593999997E+02  0.45594000000E+02  0.51100000000E-03 0.  1.
    9900012    2    1    2    0    0  0.12661852287E+02 -0.26086129972E+01  0.13548174354E+02  0.72461537616E+02  0.69999957430E+02 0.  0.
        -12    1    1    2    0    0 -0.12661852287E+02  0.26086129972E+01 -0.13548174354E+02  0.18726462384E+02  0.00000000000E+00 0.  1.
         11    1    3    3    0    0 -0.78105373551E+01 -0.24432922726E+02  0.35741199965E+01  0.25898774888E+02  0.51100000000E-03 0. -1.
        -11    1    3    3    0    0 -0.81352165879E+01  0.87636642849E-01  0.65995423906E+01  0.10475847896E+02  0.51100000000E-03 0.  1.
        -12    1    3    3    0    0  0.28607606230E+02  0.21736673086E+02  0.33745119664E+01  0.36086914832E+02  0.00000000000E+00 0.  1.
</event>
<event>
 7    1  0.1749439E-013  0.7246153E+02  0.7816164E-02  0.1226708E+00
        -11   -1    0    0    0    0  0.00000000000E+00  0.00000000000E+00  0.45593999997E+02  0.45594000000E+02  0.51100000000E-03 0. -1.
         11   -1    0    0    0    0 -0.00000000000E+00 -0.00000000000E+00 -0.45593999997E+02  0.45594000000E+02  0.51100000000E-03 0.  1.
    9900012    2    1    2    0    0 -0.18535001405E+02  0.25385574056E+01  0.83071650309E+00  0.72461531014E+02  0.69999948830E+02 0.  0.
        -12    1    1    2    0    0  0.18535001405E+02 -0.25385574056E+01 -0.83071650309E+00  0.18726468986E+02  0.00000000000E+00 0.  1.
         11    1    3    3    0    0  0.86598206347E+01  0.16883829779E+02  0.15376326260E+02  0.24423095851E+02  0.51100000000E-03 0. -1.
        -11    1    3    3    0    0 -0.88673287739E+01  0.36550986262E+01 -0.19633288579E+02  0.21850750245E+02  0.51100000000E-03 0.  1.
         12    1    3    3    0    0 -0.18327493266E+02 -0.18000371000E+02  0.50876788223E+01  0.26187684918E+02  0.00000000000E+00 0. -1.
</event>
<event>
 7    1  0.1749439E-013  0.7246157E+02  0.7816164E-02  0.1226708E+00
        -11   -1    0    0    0    0  0.00000000000E+00  0.00000000000E+00  0.45593999997E+02  0.45594000000E+02  0.51100000000E-03 0. -1.
         11   -1    0    0    0    0 -0.00000000000E+00 -0.00000000000E+00 -0.45593999997E+02  0.45594000000E+02  0.51100000000E-03 0.  1.
    9900012    2    1    2    0    0  0.14239912617E+02  0.23876422747E+01  0.11924897855E+02  0.72461571194E+02  0.70000001172E+02 0.  0.
        -12    1    1    2    0    0 -0.14239912617E+02 -0.23876422747E+01 -0.11924897855E+02  0.18726428806E+02  0.00000000000E+00 0.  1.
         11    1    3    3    0    0  0.41193268332E+01  0.25320657685E+02  0.18150144963E+02  0.31425026994E+02  0.51100000000E-03 0. -1.
        -11    1    3    3    0    0 -0.79901024915E+01  0.33075339260E+01 -0.19817470015E+01  0.88718002646E+01  0.51100000000E-03 0.  1.
        -12    1    3    3    0    0  0.18110688275E+02 -0.26240549336E+02 -0.42435001057E+01  0.32164743935E+02  0.00000000000E+00 0.  1.
</event>
<event>
 7    1  0.1749439E-013  0.7246158E+02  0.7816164E-02  0.1226708E+00
        -11   -1    0    0    0    0  0.00000000000E+00  0.00000000000E+00  0.45593999997E+02  0.45594000000E+02  0.51100000000E-03 0.  1.
         11   -1    0    0    0    0 -0.00000000000E+00 -0.00000000000E+00 -0.45593999997E+02  0.45594000000E+02  0.51100000000E-03 0. -1.
    9900012    2    1    2    0    0 -0.11743047569E+02 -0.88071343502E+01 -0.11628151566E+02  0.72461583084E+02  0.70000016661E+02 0.  0.
        -12    1    1    2    0    0  0.11743047569E+02  0.88071343502E+01  0.11628151566E+02  0.18726416916E+02  0.00000000000E+00 0.  1.
         11    1    3    3    0    0  0.16877536588E+02  0.84520515065E+01  0.17836038022E+02  0.25969456455E+02  0.51100000000E-03 0. -1.
        -11    1    3    3    0    0 -0.43852726012E+01 -0.94965527664E+01 -0.97727849060E+01  0.14315112829E+02  0.51100000000E-03 0.  1.
        -12    1    3    3    0    0 -0.24235311556E+02 -0.77626330903E+01 -0.19691404682E+02  0.32177013800E+02  0.00000000000E+00 0.  1.
</event>
<event>
 7    1  0.1749439E-013  0.7246163E+02  0.7816164E-02  0.1226708E+00
        -11   -1    0    0    0    0  0.00000000000E+00  0.00000000000E+00  0.45593999997E+02  0.45594000000E+02  0.51100000000E-03 0.  1.
         11   -1    0    0    0    0 -0.00000000000E+00 -0.00000000000E+00 -0.45593999997E+02  0.45594000000E+02  0.51100000000E-03 0. -1.
    9900012    2    1    2    0    0  0.37488073258E+01  0.53512372973E+01 -0.17549576134E+02  0.72461630371E+02  0.70000078261E+02 0.  0.
        -12    1    1    2    0    0 -0.37488073258E+01 -0.53512372973E+01  0.17549576134E+02  0.18726369629E+02  0.00000000000E+00 0.  1.
         11    1    3    3    0    0 -0.83362284685E+01 -0.76066636141E+01 -0.10087264971E+02  0.15136279308E+02  0.51100000000E-03 0. -1.
        -11    1    3    3    0    0  0.92229713482E+01 -0.18461997939E+02  0.80699781003E+01  0.22159267027E+02  0.51100000000E-03 0.  1.
         12    1    3    3    0    0  0.28620644461E+01  0.31419898850E+02 -0.15532289263E+02  0.35166084036E+02  0.00000000000E+00 0. -1.
</event>
<event>
 7    1  0.1749439E-013  0.7246157E+02  0.7816164E-02  0.1226708E+00
        -11   -1    0    0    0    0  0.00000000000E+00  0.00000000000E+00  0.45593999997E+02  0.45594000000E+02  0.51100000000E-03 0.  1.
         11   -1    0    0    0    0 -0.00000000000E+00 -0.00000000000E+00 -0.45593999997E+02  0.45594000000E+02  0.51100000000E-03 0. -1.
    9900012    2    1    2    0    0  0.41792895171E+00  0.69479902268E+01 -0.17384757224E+02  0.72461574379E+02  0.70000005322E+02 0.  0.
        -12    1    1    2    0    0 -0.41792895171E+00 -0.69479902268E+01  0.17384757224E+02  0.18726425621E+02  0.00000000000E+00 0.  1.
         11    1    3    3    0    0 -0.17303331203E+02  0.15658838681E+02 -0.76062769350E+01  0.24545059557E+02  0.51100000000E-03 0. -1.
        -11    1    3    3    0    0  0.29660399876E+02  0.30126859900E+01 -0.90965118663E+01  0.31169891339E+02  0.51100000000E-03 0.  1.
         12    1    3    3    0    0 -0.11939139722E+02 -0.11723534445E+02 -0.68196842227E+00  0.16746623483E+02  0.00000000000E+00 0. -1.
</event>
<event>
 7    1  0.1749439E-013  0.7246155E+02  0.7816164E-02  0.1226708E+00
        -11   -1    0    0    0    0  0.00000000000E+00  0.00000000000E+00  0.45593999997E+02  0.45594000000E+02  0.51100000000E-03 0.  1.
         11   -1    0    0    0    0 -0.00000000000E+00 -0.00000000000E+00 -0.45593999997E+02  0.45594000000E+02  0.51100000000E-03 0. -1.
    9900012    2    1    2    0    0 -0.22765992194E+01  0.22773158000E+01 -0.18447514287E+02  0.72461552002E+02  0.69999976171E+02 0.  0.
        -12    1    1    2    0    0  0.22765992194E+01 -0.22773158000E+01  0.18447514287E+02  0.18726447998E+02  0.00000000000E+00 0.  1.
         11    1    3    3    0    0 -0.25714280339E+01  0.53200397833E+01  0.23563434128E+00  0.59135935973E+01  0.51100000000E-03 0. -1.
        -11    1    3    3    0    0 -0.30388423352E+02  0.10803332777E+01 -0.37484851340E-01  0.30407643763E+02  0.51100000000E-03 0.  1.
         12    1    3    3    0    0  0.30683252167E+02 -0.41230572610E+01 -0.18645663777E+02  0.36140314642E+02  0.00000000000E+00 0. -1.
</event>
<event>
 7    1  0.1749439E-013  0.7246159E+02  0.7816164E-02  0.1226708E+00
        -11   -1    0    0    0    0  0.00000000000E+00  0.00000000000E+00  0.45593999997E+02  0.45594000000E+02  0.51100000000E-03 0.  1.
         11   -1    0    0    0    0 -0.00000000000E+00 -0.00000000000E+00 -0.45593999997E+02  0.45594000000E+02  0.51100000000E-03 0. -1.
    9900012    2    1    2    0    0  0.25075096503E+01  0.43353206643E+01 -0.18044272676E+02  0.72461591206E+02  0.70000027242E+02 0.  0.
        -12    1    1    2    0    0 -0.25075096503E+01 -0.43353206643E+01  0.18044272676E+02  0.18726408794E+02  0.00000000000E+00 0.  1.
         11    1    3    3    0    0  0.12642450068E+02  0.10857959664E+02 -0.56056544454E+01  0.17582667426E+02  0.51100000000E-03 0. -1.
        -11    1    3    3    0    0 -0.56427808169E+01  0.59838445218E+01  0.19023569954E+02  0.20725433281E+02  0.51100000000E-03 0.  1.
        -12    1    3    3    0    0 -0.44921596008E+01 -0.12506483521E+02 -0.31462188185E+02  0.34153490500E+02  0.00000000000E+00 0.  1.
</event>
<event>
 7    1  0.1749439E-013  0.7246142E+02  0.7816164E-02  0.1226708E+00
        -11   -1    0    0    0    0  0.00000000000E+00  0.00000000000E+00  0.45593999997E+02  0.45594000000E+02  0.51100000000E-03 0.  1.
         11   -1    0    0    0    0 -0.00000000000E+00 -0.00000000000E+00 -0.45593999997E+02  0.45594000000E+02  0.51100000000E-03 0. -1.
    9900012    2    1    2    0    0 -0.60519773411E+01  0.10613822476E+02 -0.14191723872E+02  0.72461423064E+02  0.69999808205E+02 0.  0.
        -12    1    1    2    0    0  0.60519773411E+01 -0.10613822476E+02  0.14191723872E+02  0.18726576936E+02  0.00000000000E+00 0.  1.
         11    1    3    3    0    0  0.69758251654E+01  0.22411074357E+00  0.48651338447E-01  0.69795937974E+01  0.51100000000E-03 0. -1.
        -11    1    3    3    0    0 -0.42666428539E+00 -0.22817895277E+02  0.72774548680E+01  0.23954117326E+02  0.51100000000E-03 0.  1.
         12    1    3    3    0    0 -0.12601138221E+02  0.33207607009E+02 -0.21517830078E+02  0.41527711940E+02  0.00000000000E+00 0. -1.
</event>
<event>
 7    1  0.1749439E-013  0.7246163E+02  0.7816164E-02  0.1226708E+00
        -11   -1    0    0    0    0  0.00000000000E+00  0.00000000000E+00  0.45593999997E+02  0.45594000000E+02  0.51100000000E-03 0. -1.
         11   -1    0    0    0    0 -0.00000000000E+00 -0.00000000000E+00 -0.45593999997E+02  0.45594000000E+02  0.51100000000E-03 0.  1.
    9900012    2    1    2    0    0 -0.10041068672E+02 -0.14594302957E+02 -0.60712552849E+01  0.72461631436E+02  0.70000079648E+02 0.  0.
        -12    1    1    2    0    0  0.10041068672E+02  0.14594302957E+02  0.60712552849E+01  0.18726368564E+02  0.00000000000E+00 0.  1.
         11    1    3    3    0    0  0.62914655093E+01 -0.16356178952E+02 -0.22302654837E+02  0.28363983169E+02  0.51100000000E-03 0. -1.
        -11    1    3    3    0    0 -0.26675538040E+02 -0.63122455250E+01  0.77977557477E+01  0.28499715231E+02  0.51100000000E-03 0.  1.
         12    1    3    3    0    0  0.10343003859E+02  0.80741215203E+01  0.84336438046E+01  0.15597933035E+02  0.00000000000E+00 0. -1.
</event>
<event>
 7    1  0.1749439E-013  0.7246159E+02  0.7816164E-02  0.1226708E+00
        -11   -1    0    0    0    0  0.00000000000E+00  0.00000000000E+00  0.45593999997E+02  0.45594000000E+02  0.51100000000E-03 0. -1.
         11   -1    0    0    0    0 -0.00000000000E+00 -0.00000000000E+00 -0.45593999997E+02  0.45594000000E+02  0.51100000000E-03 0.  1.
    9900012    2    1    2    0    0  0.16465306087E+02  0.53356911910E+01  0.71486134719E+01  0.72461586045E+02  0.70000020519E+02 0.  0.
        -12    1    1    2    0    0 -0.16465306087E+02 -0.53356911910E+01 -0.71486134719E+01  0.18726413955E+02  0.00000000000E+00 0.  1.
         11    1    3    3    0    0 -0.14538492576E+02 -0.16231525000E+02 -0.60164989703E+01  0.22605937944E+02  0.51100000000E-03 0. -1.
        -11    1    3    3    0    0  0.33243713179E+01 -0.69336003192E-01  0.14323195291E+02  0.14704087042E+02  0.51100000000E-03 0.  1.
        -12    1    3    3    0    0  0.27679427345E+02  0.21636552194E+02 -0.11580828485E+01  0.35151561059E+02  0.00000000000E+00 0.  1.
</event>
<event>
 7    1  0.1749439E-013  0.7246158E+02  0.7816164E-02  0.1226708E+00
        -11   -1    0    0    0    0  0.00000000000E+00  0.00000000000E+00  0.45593999997E+02  0.45594000000E+02  0.51100000000E-03 0.  1.
         11   -1    0    0    0    0 -0.00000000000E+00 -0.00000000000E+00 -0.45593999997E+02  0.45594000000E+02  0.51100000000E-03 0. -1.
    9900012    2    1    2    0    0 -0.63416590563E+01 -0.75383174605E+01 -0.15925955852E+02  0.72461576435E+02  0.70000008000E+02 0.  0.
        -12    1    1    2    0    0  0.63416590563E+01  0.75383174605E+01  0.15925955852E+02  0.18726423565E+02  0.00000000000E+00 0.  1.
         11    1    3    3    0    0 -0.11248721891E+02 -0.33613701662E+01 -0.11919690773E+02  0.16730558328E+02  0.51100000000E-03 0. -1.
        -11    1    3    3    0    0 -0.16134845254E+02 -0.22383688835E+02  0.17472804342E+00  0.27593355855E+02  0.51100000000E-03 0.  1.
         12    1    3    3    0    0  0.21041908089E+02  0.18206741540E+02 -0.41809931221E+01  0.28137662252E+02  0.00000000000E+00 0. -1.
</event>
<event>
 7    1  0.1749439E-013  0.7246157E+02  0.7816164E-02  0.1226708E+00
        -11   -1    0    0    0    0  0.00000000000E+00  0.00000000000E+00  0.45593999997E+02  0.45594000000E+02  0.51100000000E-03 0.  1.
         11   -1    0    0    0    0 -0.00000000000E+00 -0.00000000000E+00 -0.45593999997E+02  0.45594000000E+02  0.51100000000E-03 0. -1.
    9900012    2    1    2    0    0  0.14316280607E+02  0.39512366265E+01 -0.11406625449E+02  0.72461567733E+02  0.69999996664E+02 0.  0.
        -12    1    1    2    0    0 -0.14316280607E+02 -0.39512366265E+01  0.11406625449E+02  0.18726432267E+02  0.00000000000E+00 0.  1.
         11    1    3    3    0    0  0.14225848345E+02 -0.79637399123E+01 -0.12238795463E+02  0.20385878180E+02  0.51100000000E-03 0. -1.
        -11    1    3    3    0    0  0.37416006859E+00 -0.16442494086E+02 -0.12578828369E+02  0.20705615927E+02  0.51100000000E-03 0.  1.
         12    1    3    3    0    0 -0.28372780607E+00  0.28357470625E+02  0.13410998383E+02  0.31370073627E+02  0.00000000000E+00 0. -1.
</event>
<event>
 7    1  0.1749439E-013  0.7246161E+02  0.7816164E-02  0.1226708E+00
        -11   -1    0    0    0    0  0.00000000000E+00  0.00000000000E+00  0.45593999997E+02  0.45594000000E+02  0.51100000000E-03 0.  1.
         11   -1    0    0    0    0 -0.00000000000E+00 -0.00000000000E+00 -0.45593999997E+02  0.45594000000E+02  0.51100000000E-03 0. -1.
    9900012    2    1    2    0    0 -0.15896577713E+02  0.91996720640E+01  0.36527422335E+01  0.72461610202E+02  0.70000051987E+02 0.  0.
        -12    1    1    2    0    0  0.15896577713E+02 -0.91996720640E+01 -0.36527422335E+01  0.18726389798E+02  0.00000000000E+00 0.  1.
         11    1    3    3    0    0  0.18177311994E+02 -0.70268406160E+01 -0.26813477503E+00  0.19490075856E+02  0.51100000000E-03 0. -1.
        -11    1    3    3    0    0  0.79197793603E+01  0.74722919039E+00 -0.65829774445E+00  0.79821433688E+01  0.51100000000E-03 0.  1.
        -12    1    3    3    0    0 -0.41993669067E+02  0.15479283490E+02  0.45791747530E+01  0.44989390977E+02  0.00000000000E+00 0.  1.
</event>
<event>
 7    1  0.1749439E-013  0.7246167E+02  0.7816164E-02  0.1226708E+00
        -11   -1    0    0    0    0  0.00000000000E+00  0.00000000000E+00  0.45593999997E+02  0.45594000000E+02  0.51100000000E-03 0. -1.
         11   -1    0    0    0    0 -0.00000000000E+00 -0.00000000000E+00 -0.45593999997E+02  0.45594000000E+02  0.51100000000E-03 0.  1.
    9900012    2    1    2    0    0 -0.16958749949E+02  0.67766388444E+01  0.41416614754E+01  0.72461671111E+02  0.70000131333E+02 0.  0.
        -12    1    1    2    0    0  0.16958749949E+02 -0.67766388444E+01 -0.41416614754E+01  0.18726328889E+02  0.00000000000E+00 0.  1.
         11    1    3    3    0    0 -0.40603376318E+01 -0.60354282088E+01  0.16042291079E+02  0.17614421327E+02  0.51100000000E-03 0. -1.
        -11    1    3    3    0    0  0.92827368469E+01  0.23644824622E+02 -0.15714082230E+02  0.29869370857E+02  0.51100000000E-03 0.  1.
         12    1    3    3    0    0 -0.22181149164E+02 -0.10832757569E+02  0.38134526258E+01  0.24977878928E+02  0.00000000000E+00 0. -1.
</event>
<event>
 7    1  0.1749439E-013  0.7246166E+02  0.7816164E-02  0.1226708E+00
        -11   -1    0    0    0    0  0.00000000000E+00  0.00000000000E+00  0.45593999997E+02  0.45594000000E+02  0.51100000000E-03 0. -1.
         11   -1    0    0    0    0 -0.00000000000E+00 -0.00000000000E+00 -0.45593999997E+02  0.45594000000E+02  0.51100000000E-03 0.  1.
    9900012    2    1    2    0    0  0.83873774206E+01 -0.63938956989E+01  0.15474030853E+02  0.72461664720E+02  0.70000123007E+02 0.  0.
        -12    1    1    2    0    0 -0.83873774206E+01  0.63938956989E+01 -0.15474030853E+02  0.18726335280E+02  0.00000000000E+00 0.  1.
         11    1    3    3    0    0  0.68702232283E+01  0.17504076743E+02  0.29761656369E+02  0.35204386941E+02  0.51100000000E-03 0. -1.
        -11    1    3    3    0    0 -0.80381885367E+01  0.65223965225E+00 -0.33298959058E+01  0.87250271358E+01  0.51100000000E-03 0.  1.
        -12    1    3    3    0    0  0.95553427291E+01 -0.24550212094E+02 -0.10957729610E+02  0.28532250643E+02  0.00000000000E+00 0.  1.
</event>
<event>
 7    1  0.1749439E-013  0.7246154E+02  0.7816164E-02  0.1226708E+00
        -11   -1    0    0    0    0  0.00000000000E+00  0.00000000000E+00  0.45593999997E+02  0.45594000000E+02  0.51100000000E-03 0.  1.
         11   -1    0    0    0    0 -0.00000000000E+00 -0.00000000000E+00 -0.45593999997E+02  0.45594000000E+02  0.51100000000E-03 0. -1.
    9900012    2    1    2    0    0 -0.86747638104E+00 -0.97221053414E+01 -0.15981505958E+02  0.72461537968E+02  0.69999957889E+02 0.  0.
        -12    1    1    2    0    0  0.86747638104E+00  0.97221053414E+01  0.15981505958E+02  0.18726462032E+02  0.00000000000E+00 0.  1.
         11    1    3    3    0    0 -0.87691742775E-01  0.57464004840E+01 -0.13708455896E+02  0.14864406200E+02  0.51100000000E-03 0. -1.
        -11    1    3    3    0    0  0.26079954226E+02 -0.15888938956E+01 -0.68684007566E+01  0.27015986480E+02  0.51100000000E-03 0.  1.
        -12    1    3    3    0    0 -0.26859738864E+02 -0.13879611930E+02  0.45953506942E+01  0.30581145289E+02  0.00000000000E+00 0.  1.
</event>
<event>
 7    1  0.1749439E-013  0.7246157E+02  0.7816164E-02  0.1226708E+00
        -11   -1    0    0    0    0  0.00000000000E+00  0.00000000000E+00  0.45593999997E+02  0.45594000000E+02  0.51100000000E-03 0. -1.
         11   -1    0    0    0    0 -0.00000000000E+00 -0.00000000000E+00 -0.45593999997E+02  0.45594000000E+02  0.51100000000E-03 0.  1.
    9900012    2    1    2    0    0 -0.15615506874E+02 -0.76881856631E+01  0.69084783956E+01  0.72461566077E+02  0.69999994506E+02 0.  0.
        -12    1    1    2    0    0  0.15615506874E+02  0.76881856631E+01 -0.69084783956E+01  0.18726433923E+02  0.00000000000E+00 0.  1.
         11    1    3    3    0    0 -0.10128214675E+02  0.94666681497E+01  0.23485508429E+02  0.27272103784E+02  0.51100000000E-03 0. -1.
        -11    1    3    3    0    0 -0.10436419547E+02  0.68890610435E+01  0.40302280785E+01  0.13138521745E+02  0.51100000000E-03 0.  1.
        -12    1    3    3    0    0  0.49491273479E+01 -0.24043914856E+02 -0.20607258112E+02  0.32050940548E+02  0.00000000000E+00 0.  1.
</event>
<event>
 7    1  0.1749439E-013  0.7246157E+02  0.7816164E-02  0.1226708E+00
        -11   -1    0    0    0    0  0.00000000000E+00  0.00000000000E+00  0.45593999997E+02  0.45594000000E+02  0.51100000000E-03 0.  1.
         11   -1    0    0    0    0 -0.00000000000E+00 -0.00000000000E+00 -0.45593999997E+02  0.45594000000E+02  0.51100000000E-03 0. -1.
    9900012    2    1    2    0    0 -0.12852651298E+02 -0.87220535262E+01 -0.10460122393E+02  0.72461574192E+02  0.70000005077E+02 0.  0.
        -12    1    1    2    0    0  0.12852651298E+02  0.87220535262E+01  0.10460122393E+02  0.18726425808E+02  0.00000000000E+00 0.  1.
         11    1    3    3    0    0 -0.21265649391E+02  0.17336102995E+02  0.61118226333E+01  0.28109121068E+02  0.51100000000E-03 0. -1.
        -11    1    3    3    0    0 -0.17800846642E+00  0.63957176502E+01 -0.69117037701E+01  0.94185211440E+01  0.51100000000E-03 0.  1.
        -12    1    3    3    0    0  0.85910065599E+01 -0.32453874171E+02 -0.96602412559E+01  0.34933931979E+02  0.00000000000E+00 0.  1.
</event>
<event>
 7    1  0.1749439E-013  0.7246157E+02  0.7816164E-02  0.1226708E+00
        -11   -1    0    0    0    0  0.00000000000E+00  0.00000000000E+00  0.45593999997E+02  0.45594000000E+02  0.51100000000E-03 0.  1.
         11   -1    0    0    0    0 -0.00000000000E+00 -0.00000000000E+00 -0.45593999997E+02  0.45594000000E+02  0.51100000000E-03 0. -1.
    9900012    2    1    2    0    0  0.78529677990E+01  0.16997600727E+02  0.30274087569E+00  0.72461569861E+02  0.69999999435E+02 0.  0.
        -12    1    1    2    0    0 -0.78529677990E+01 -0.16997600727E+02 -0.30274087569E+00  0.18726430139E+02  0.00000000000E+00 0.  1.
         11    1    3    3    0    0 -0.57306919402E+01  0.14574098708E+02  0.13208413171E+02  0.20486760652E+02  0.51100000000E-03 0. -1.
        -11    1    3    3    0    0  0.86750626128E+01 -0.12089748821E+02  0.14372967388E+02  0.20688183334E+02  0.51100000000E-03 0.  1.
         12    1    3    3    0    0  0.49085971265E+01  0.14513250839E+02 -0.27278639683E+02  0.31286625874E+02  0.00000000000E+00 0. -1.
</event>
<event>
 7    1  0.1749439E-013  0.7246156E+02  0.7816164E-02  0.1226708E+00
        -11   -1    0    0    0    0  0.00000000000E+00  0.00000000000E+00  0.45593999997E+02  0.45594000000E+02  0.51100000000E-03 0. -1.
         11   -1    0    0    0    0 -0.00000000000E+00 -0.00000000000E+00 -0.45593999997E+02  0.45594000000E+02  0.51100000000E-03 0.  1.
    9900012    2    1    2    0    0 -0.16067074712E+02  0.52451661651E+01  0.80633048858E+01  0.72461560307E+02  0.69999986989E+02 0.  0.
        -12    1    1    2    0    0  0.16067074712E+02 -0.52451661651E+01 -0.80633048858E+01  0.18726439693E+02  0.00000000000E+00 0.  1.
         11    1    3    3    0    0  0.14970497361E+02 -0.13258850169E+02  0.14101287899E+02  0.24469556999E+02  0.51100000000E-03 0. -1.
        -11    1    3    3    0    0 -0.30498124455E+01  0.97754841797E+01  0.10220818171E+02  0.14468122589E+02  0.51100000000E-03 0.  1.
        -12    1    3    3    0    0 -0.27987759627E+02  0.87285321549E+01 -0.16258801184E+02  0.33523880719E+02  0.00000000000E+00 0.  1.
</event>
<event>
 7    1  0.1749439E-013  0.7246155E+02  0.7816164E-02  0.1226708E+00
        -11   -1    0    0    0    0  0.00000000000E+00  0.00000000000E+00  0.45593999997E+02  0.45594000000E+02  0.51100000000E-03 0. -1.
         11   -1    0    0    0    0 -0.00000000000E+00 -0.00000000000E+00 -0.45593999997E+02  0.45594000000E+02  0.51100000000E-03 0.  1.
    9900012    2    1    2    0    0  0.12225733277E+02  0.12470596206E+02 -0.67598530565E+01  0.72461549796E+02  0.69999973297E+02 0.  0.
        -12    1    1    2    0    0 -0.12225733277E+02 -0.12470596206E+02  0.67598530565E+01  0.18726450204E+02  0.00000000000E+00 0.  1.
         11    1    3    3    0    0  0.10951905631E+02  0.18994158067E+02 -0.12122359002E+02  0.25053420239E+02  0.51100000000E-03 0. -1.
        -11    1    3    3    0    0  0.22838599141E+02 -0.55163279497E+01 -0.40767901501E+01  0.23846419080E+02  0.51100000000E-03 0.  1.
         12    1    3    3    0    0 -0.21564771495E+02 -0.10072339109E+01  0.94392960959E+01  0.23561710477E+02  0.00000000000E+00 0. -1.
</event>
<event>
 7    1  0.1749439E-013  0.7246164E+02  0.7816164E-02  0.1226708E+00
        -11   -1    0    0    0    0  0.00000000000E+00  0.00000000000E+00  0.45593999997E+02  0.45594000000E+02  0.51100000000E-03 0.  1.
         11   -1    0    0    0    0 -0.00000000000E+00 -0.00000000000E+00 -0.45593999997E+02  0.45594000000E+02  0.51100000000E-03 0. -1.
    9900012    2    1    2    0    0 -0.17960443972E+02  0.37661254139E+01  0.37303011029E+01  0.72461644385E+02  0.70000096516E+02 0.  0.
        -12    1    1    2    0    0  0.17960443972E+02 -0.37661254139E+01 -0.37303011029E+01  0.18726355615E+02  0.00000000000E+00 0.  1.
         11    1    3    3    0    0  0.11278745288E+02  0.71841454277E+01  0.17309193941E+02  0.21873048163E+02  0.51100000000E-03 0. -1.
        -11    1    3    3    0    0 -0.17970045877E+02 -0.13959842673E+02  0.79469863663E+01  0.24102994604E+02  0.51100000000E-03 0.  1.
         12    1    3    3    0    0 -0.11269143383E+02  0.10541822659E+02 -0.21525879204E+02  0.26485601618E+02  0.00000000000E+00 0. -1.
</event>
<event>
 7    1  0.1749439E-013  0.7246156E+02  0.7816164E-02  0.1226708E+00
        -11   -1    0    0    0    0  0.00000000000E+00  0.00000000000E+00  0.45593999997E+02  0.45594000000E+02  0.51100000000E-03 0.  1.
         11   -1    0    0    0    0 -0.00000000000E+00 -0.00000000000E+00 -0.45593999997E+02  0.45594000000E+02  0.51100000000E-03 0. -1.
    9900012    2    1    2    0    0  0.63211072989E+01 -0.28794762214E+01 -0.17390570983E+02  0.72461555065E+02  0.69999980161E+02 0.  0.
        -12    1    1    2    0    0 -0.63211072989E+01  0.28794762214E+01  0.17390570983E+02  0.18726444935E+02  0.00000000000E+00 0.  1.
         11    1    3    3    0    0  0.79130396907E+01 -0.62363429735E+01 -0.40892949881E+02  0.42115810820E+02  0.51100000000E-03 0. -1.
        -11    1    3    3    0    0 -0.11434185019E+01 -0.34919339396E+01 -0.18265848605E+01  0.41033426646E+01  0.51100000000E-03 0.  1.
        -12    1    3    3    0    0 -0.44851388994E+00  0.68488006917E+01  0.25328963758E+02  0.26242401580E+02  0.00000000000E+00 0.  1.
</event>
<event>
 7    1  0.1749439E-013  0.7246160E+02  0.7816164E-02  0.1226708E+00
        -11   -1    0    0    0    0  0.00000000000E+00  0.00000000000E+00  0.45593999997E+02  0.45594000000E+02  0.51100000000E-03 0.  1.
         11   -1    0    0    0    0 -0.00000000000E+00 -0.00000000000E+00 -0.45593999997E+02  0.45594000000E+02  0.51100000000E-03 0. -1.
    9900012    2    1    2    0    0 -0.13554970039E+02 -0.14004904087E+01 -0.12844431606E+02  0.72461601269E+02  0.70000040350E+02 0.  0.
        -12    1    1    2    0    0  0.13554970039E+02  0.14004904087E+01  0.12844431606E+02  0.18726398731E+02  0.00000000000E+00 0.  1.
         11    1    3    3    0    0 -0.15539612097E+02 -0.74395154687E+01 -0.29204688392E+01  0.17474411951E+02  0.51100000000E-03 0. -1.
        -11    1    3    3    0    0  0.15062403954E+02 -0.71555418603E+00  0.17963491227E+02  0.23453678773E+02  0.51100000000E-03 0.  1.
         12    1    3    3    0    0 -0.13077761896E+02  0.67545792460E+01 -0.27887453994E+02  0.31533510545E+02  0.00000000000E+00 0. -1.
</event>
<event>
 7    1  0.1749439E-013  0.7246163E+02  0.7816164E-02  0.1226708E+00
        -11   -1    0    0    0    0  0.00000000000E+00  0.00000000000E+00  0.45593999997E+02  0.45594000000E+02  0.51100000000E-03 0.  1.
         11   -1    0    0    0    0 -0.00000000000E+00 -0.00000000000E+00 -0.45593999997E+02  0.45594000000E+02  0.51100000000E-03 0. -1.
    9900012    2    1    2    0    0  0.23025371328E+01 -0.13832299315E+02 -0.12411402014E+02  0.72461626044E+02  0.70000072624E+02 0.  0.
        -12    1    1    2    0    0 -0.23025371328E+01  0.13832299315E+02  0.12411402014E+02  0.18726373956E+02  0.00000000000E+00 0.  1.
         11    1    3    3    0    0  0.16831147899E+02  0.21032402459E+02 -0.14636668434E+02  0.30657487763E+02  0.51100000000E-03 0. -1.
        -11    1    3    3    0    0 -0.37534873292E+01 -0.57874571045E+01 -0.66169299348E+01  0.95586133351E+01  0.51100000000E-03 0.  1.
        -12    1    3    3    0    0 -0.10775123437E+02 -0.29077244670E+02  0.88421963553E+01  0.32245524946E+02  0.00000000000E+00 0.  1.
</event>
<event>
 7    1  0.1749439E-013  0.7246156E+02  0.7816164E-02  0.1226708E+00
        -11   -1    0    0    0    0  0.00000000000E+00  0.00000000000E+00  0.45593999997E+02  0.45594000000E+02  0.51100000000E-03 0. -1.
         11   -1    0    0    0    0 -0.00000000000E+00 -0.00000000000E+00 -0.45593999997E+02  0.45594000000E+02  0.51100000000E-03 0.  1.
    9900012    2    1    2    0    0 -0.94445670487E+01 -0.11394444571E+02  0.11473725227E+02  0.72461559217E+02  0.69999985570E+02 0.  0.
        -12    1    1    2    0    0  0.94445670487E+01  0.11394444571E+02 -0.11473725227E+02  0.18726440783E+02  0.00000000000E+00 0.  1.
         11    1    3    3    0    0 -0.79451250931E+01 -0.11809331091E+02  0.76998831411E+01  0.16182506425E+02  0.51100000000E-03 0. -1.
        -11    1    3    3    0    0 -0.17838527033E+02 -0.11299433197E+02 -0.17193385658E+02  0.27230548065E+02  0.51100000000E-03 0.  1.
         12    1    3    3    0    0  0.16339085077E+02  0.11714319717E+02  0.20967227744E+02  0.29048504727E+02  0.00000000000E+00 0. -1.
</event>
<event>
 7    1  0.1749439E-013  0.7246156E+02  0.7816164E-02  0.1226708E+00
        -11   -1    0    0    0    0  0.00000000000E+00  0.00000000000E+00  0.45593999997E+02  0.45594000000E+02  0.51100000000E-03 0.  1.
         11   -1    0    0    0    0 -0.00000000000E+00 -0.00000000000E+00 -0.45593999997E+02  0.45594000000E+02  0.51100000000E-03 0. -1.
    9900012    2    1    2    0    0  0.10238097215E+02 -0.12190315113E+02 -0.98619037186E+01  0.72461559812E+02  0.69999986345E+02 0.  0.
        -12    1    1    2    0    0 -0.10238097215E+02  0.12190315113E+02  0.98619037186E+01  0.18726440188E+02  0.00000000000E+00 0.  1.
         11    1    3    3    0    0  0.24729264955E+02 -0.51089243085E+01 -0.53195027231E+00  0.25257090572E+02  0.51100000000E-03 0. -1.
        -11    1    3    3    0    0  0.14592885923E+02  0.34177890603E+01 -0.58466181924E+01  0.16087776297E+02  0.51100000000E-03 0.  1.
        -12    1    3    3    0    0 -0.29084053663E+02 -0.10499179865E+02 -0.34833352539E+01  0.31116692944E+02  0.00000000000E+00 0.  1.
</event>
<event>
 7    1  0.1749439E-013  0.7246156E+02  0.7816164E-02  0.1226708E+00
        -11   -1    0    0    0    0  0.00000000000E+00  0.00000000000E+00  0.45593999997E+02  0.45594000000E+02  0.51100000000E-03 0.  1.
         11   -1    0    0    0    0 -0.00000000000E+00 -0.00000000000E+00 -0.45593999997E+02  0.45594000000E+02  0.51100000000E-03 0. -1.
    9900012    2    1    2    0    0 -0.12865059238E+02  0.77984150626E+01  0.11151429221E+02  0.72461564131E+02  0.69999991971E+02 0.  0.
        -12    1    1    2    0    0  0.12865059238E+02 -0.77984150626E+01 -0.11151429221E+02  0.18726435869E+02  0.00000000000E+00 0.  1.
         11    1    3    3    0    0 -0.15642513965E+02  0.17907261269E+02 -0.29326705335E+01  0.23957437384E+02  0.51100000000E-03 0. -1.
        -11    1    3    3    0    0 -0.15499923238E+02  0.71902114119E+01  0.15810479343E+02  0.23279132670E+02  0.51100000000E-03 0.  1.
        -12    1    3    3    0    0  0.18277377964E+02 -0.17299057618E+02 -0.17263795892E+01  0.25224994077E+02  0.00000000000E+00 0.  1.
</event>
<event>
 7    1  0.1749439E-013  0.7246160E+02  0.7816164E-02  0.1226708E+00
        -11   -1    0    0    0    0  0.00000000000E+00  0.00000000000E+00  0.45593999997E+02  0.45594000000E+02  0.51100000000E-03 0.  1.
         11   -1    0    0    0    0 -0.00000000000E+00 -0.00000000000E+00 -0.45593999997E+02  0.45594000000E+02  0.51100000000E-03 0. -1.
    9900012    2    1    2    0    0  0.15710720265E+02 -0.10166969690E+02 -0.69567428789E+00  0.72461602412E+02  0.70000041839E+02 0.  0.
        -12    1    1    2    0    0 -0.15710720265E+02  0.10166969690E+02  0.69567428789E+00  0.18726397588E+02  0.00000000000E+00 0.  1.
         11    1    3    3    0    0  0.19011279960E+01 -0.64755710597E+01 -0.18499293427E+02  0.19691906098E+02  0.51100000000E-03 0. -1.
        -11    1    3    3    0    0 -0.17278692431E+02  0.34373232173E+01  0.83987656233E+01  0.19516855978E+02  0.51100000000E-03 0.  1.
        -12    1    3    3    0    0  0.31088284700E+02 -0.71287218475E+01  0.94048535156E+01  0.33252840336E+02  0.00000000000E+00 0.  1.
</event>
<event>
 7    1  0.1749439E-013  0.7246181E+02  0.7816164E-02  0.1226707E+00
        -11   -1    0    0    0    0  0.00000000000E+00  0.00000000000E+00  0.45593999997E+02  0.45594000000E+02  0.51100000000E-03 0.  1.
         11   -1    0    0    0    0 -0.00000000000E+00 -0.00000000000E+00 -0.45593999997E+02  0.45594000000E+02  0.51100000000E-03 0. -1.
    9900012    2    1    2    0    0 -0.19512915724E+00 -0.18696469995E+02  0.10363236632E+01  0.72461814259E+02  0.70000317809E+02 0.  0.
        -12    1    1    2    0    0  0.19512915724E+00  0.18696469995E+02 -0.10363236632E+01  0.18726185741E+02  0.00000000000E+00 0.  1.
         11    1    3    3    0    0 -0.72910159332E+01  0.10986288052E+02  0.83298305453E+01  0.15596266081E+02  0.51100000000E-03 0. -1.
        -11    1    3    3    0    0 -0.19961589123E+02 -0.11270991060E+02  0.15132161501E+01  0.22973682839E+02  0.51100000000E-03 0.  1.
         12    1    3    3    0    0  0.27057475899E+02 -0.18411766987E+02 -0.88067230322E+01  0.33891865339E+02  0.00000000000E+00 0. -1.
</event>
<event>
 7    1  0.1749439E-013  0.7246161E+02  0.7816164E-02  0.1226708E+00
        -11   -1    0    0    0    0  0.00000000000E+00  0.00000000000E+00  0.45593999997E+02  0.45594000000E+02  0.51100000000E-03 0.  1.
         11   -1    0    0    0    0 -0.00000000000E+00 -0.00000000000E+00 -0.45593999997E+02  0.45594000000E+02  0.51100000000E-03 0. -1.
    9900012    2    1    2    0    0 -0.54110879483E+01 -0.23018861243E+01 -0.17779176779E+02  0.72461610080E+02  0.70000051828E+02 0.  0.
        -12    1    1    2    0    0  0.54110879483E+01  0.23018861243E+01  0.17779176779E+02  0.18726389920E+02  0.00000000000E+00 0.  1.
         11    1    3    3    0    0  0.57822558096E+01  0.10276366675E+02 -0.12571366217E+02  0.17235934645E+02  0.51100000000E-03 0. -1.
        -11    1    3    3    0    0 -0.18553906074E+02  0.15967439661E+02 -0.76475552101E+01  0.25645499817E+02  0.51100000000E-03 0.  1.
         12    1    3    3    0    0  0.73605623158E+01 -0.28545692460E+02  0.24397446481E+01  0.29580175618E+02  0.00000000000E+00 0. -1.
</event>
<event>
 7    1  0.1749439E-013  0.7246159E+02  0.7816164E-02  0.1226708E+00
        -11   -1    0    0    0    0  0.00000000000E+00  0.00000000000E+00  0.45593999997E+02  0.45594000000E+02  0.51100000000E-03 0. -1.
         11   -1    0    0    0    0 -0.00000000000E+00 -0.00000000000E+00 -0.45593999997E+02  0.45594000000E+02  0.51100000000E-03 0.  1.
    9900012    2    1    2    0    0 -0.37673657440E+01 -0.16053587171E+02  0.88751163440E+01  0.72461590952E+02  0.70000026911E+02 0.  0.
        -12    1    1    2    0    0  0.37673657440E+01  0.16053587171E+02 -0.88751163440E+01  0.18726409048E+02  0.00000000000E+00 0.  1.
         11    1    3    3    0    0  0.27165154023E+01 -0.25527050240E+02 -0.21190414406E+02  0.33287286054E+02  0.51100000000E-03 0. -1.
        -11    1    3    3    0    0 -0.40343345317E+01 -0.21406814651E+00 -0.27394563795E+01  0.48812192946E+01  0.51100000000E-03 0.  1.
        -12    1    3    3    0    0 -0.24495466146E+01  0.96875312160E+01  0.32804987129E+02  0.34293085604E+02  0.00000000000E+00 0.  1.
</event>
<event>
 7    1  0.1749439E-013  0.7246160E+02  0.7816164E-02  0.1226708E+00
        -11   -1    0    0    0    0  0.00000000000E+00  0.00000000000E+00  0.45593999997E+02  0.45594000000E+02  0.51100000000E-03 0.  1.
         11   -1    0    0    0    0 -0.00000000000E+00 -0.00000000000E+00 -0.45593999997E+02  0.45594000000E+02  0.51100000000E-03 0. -1.
    9900012    2    1    2    0    0  0.14450748025E+01 -0.34055067144E+01 -0.18357352909E+02  0.72461598237E+02  0.70000036400E+02 0.  0.
        -12    1    1    2    0    0 -0.14450748025E+01  0.34055067144E+01  0.18357352909E+02  0.18726401763E+02  0.00000000000E+00 0.  1.
         11    1    3    3    0    0 -0.21657810054E+01 -0.12959854895E+01 -0.30163459794E+02  0.30268870027E+02  0.51100000000E-03 0. -1.
        -11    1    3    3    0    0  0.14442854187E+02 -0.76385168121E+01 -0.85803177561E+01  0.18454398641E+02  0.51100000000E-03 0.  1.
         12    1    3    3    0    0 -0.10831998379E+02  0.55289955872E+01  0.20386424640E+02  0.23738329568E+02  0.00000000000E+00 0. -1.
</event>
<event>
 7    1  0.1749439E-013  0.7246158E+02  0.7816164E-02  0.1226708E+00
        -11   -1    0    0    0    0  0.00000000000E+00  0.00000000000E+00  0.45593999997E+02  0.45594000000E+02  0.51100000000E-03 0. -1.
         11   -1    0    0    0    0 -0.00000000000E+00 -0.00000000000E+00 -0.45593999997E+02  0.45594000000E+02  0.51100000000E-03 0.  1.
    9900012    2    1    2    0    0 -0.68745506518E+01  0.12866402299E+02  0.11742025469E+02  0.72461577039E+02  0.70000008787E+02 0.  0.
        -12    1    1    2    0    0  0.68745506518E+01 -0.12866402299E+02 -0.11742025469E+02  0.18726422961E+02  0.00000000000E+00 0.  1.
         11    1    3    3    0    0  0.11856032276E+02  0.82200712935E+01  0.10489280881E+02  0.17837042554E+02  0.51100000000E-03 0. -1.
        -11    1    3    3    0    0 -0.37969672845E+01  0.15521787466E+02 -0.20560213679E+02  0.26039685741E+02  0.51100000000E-03 0.  1.
         12    1    3    3    0    0 -0.14933615643E+02 -0.10875456460E+02  0.21812958267E+02  0.28584848745E+02  0.00000000000E+00 0. -1.
</event>
<event>
 7    1  0.1749439E-013  0.7246156E+02  0.7816164E-02  0.1226708E+00
        -11   -1    0    0    0    0  0.00000000000E+00  0.00000000000E+00  0.45593999997E+02  0.45594000000E+02  0.51100000000E-03 0.  1.
         11   -1    0    0    0    0 -0.00000000000E+00 -0.00000000000E+00 -0.45593999997E+02  0.45594000000E+02  0.51100000000E-03 0. -1.
    9900012    2    1    2    0    0 -0.11960895214E+02 -0.14353724381E+02  0.12598664373E+01  0.72461556629E+02  0.69999982198E+02 0.  0.
        -12    1    1    2    0    0  0.11960895214E+02  0.14353724381E+02 -0.12598664373E+01  0.18726443371E+02  0.00000000000E+00 0.  1.
         11    1    3    3    0    0 -0.22018639811E+02 -0.63772873967E+01  0.52926176449E+01  0.23526625246E+02  0.51100000000E-03 0. -1.
        -11    1    3    3    0    0 -0.13792841104E+02 -0.17495003738E+02 -0.63093578890E+01  0.23154386599E+02  0.51100000000E-03 0.  1.
        -12    1    3    3    0    0  0.23850585702E+02  0.95185667545E+01  0.22766066815E+01  0.25780544784E+02  0.00000000000E+00 0.  1.
</event>
<event>
 7    1  0.1749439E-013  0.7246155E+02  0.7816164E-02  0.1226708E+00
        -11   -1    0    0    0    0  0.00000000000E+00  0.00000000000E+00  0.45593999997E+02  0.45594000000E+02  0.51100000000E-03 0.  1.
         11   -1    0    0    0    0 -0.00000000000E+00 -0.00000000000E+00 -0.45593999997E+02  0.45594000000E+02  0.51100000000E-03 0. -1.
    9900012    2    1    2    0    0  0.15890190536E+01  0.17991706488E+02 -0.49450442047E+01  0.72461549560E+02  0.69999972990E+02 0.  0.
        -12    1    1    2    0    0 -0.15890190536E+01 -0.17991706488E+02  0.49450442047E+01  0.18726450440E+02  0.00000000000E+00 0.  1.
         11    1    3    3    0    0  0.20062098297E+02 -0.73577273757E+00 -0.14243989813E+01  0.20126054316E+02  0.51100000000E-03 0.  1.
        -11    1    3    3    0    0  0.37758417823E+01  0.24262536750E+02 -0.12693517220E+02  0.27641509554E+02  0.51100000000E-03 0. -1.
        -12    1    3    3    0    0 -0.22248921026E+02 -0.55350575251E+01  0.91728719967E+01  0.24693985691E+02  0.00000000000E+00 0.  1.
</event>
<event>
 7    1  0.1749439E-013  0.7246160E+02  0.7816164E-02  0.1226708E+00
        -11   -1    0    0    0    0  0.00000000000E+00  0.00000000000E+00  0.45593999997E+02  0.45594000000E+02  0.51100000000E-03 0.  1.
         11   -1    0    0    0    0 -0.00000000000E+00 -0.00000000000E+00 -0.45593999997E+02  0.45594000000E+02  0.51100000000E-03 0. -1.
    9900012    2    1    2    0    0 -0.13291659403E+02  0.40296492325E-02 -0.13191274330E+02  0.72461603006E+02  0.70000042613E+02 0.  0.
        -12    1    1    2    0    0  0.13291659403E+02 -0.40296492325E-02  0.13191274330E+02  0.18726396994E+02  0.00000000000E+00 0.  1.
         11    1    3    3    0    0  0.79867852921E+00 -0.10897635665E+02  0.51459200426E+01  0.12077948660E+02  0.51100000000E-03 0.  1.
        -11    1    3    3    0    0  0.20455882952E+02  0.76254867271E+01 -0.12615387234E+02  0.25213869011E+02  0.51100000000E-03 0. -1.
        -12    1    3    3    0    0 -0.34546220885E+02  0.32761785874E+01 -0.57218071387E+01  0.35169785335E+02  0.00000000000E+00 0.  1.
</event>
<event>
 7    1  0.1749439E-013  0.7246152E+02  0.7816164E-02  0.1226708E+00
        -11   -1    0    0    0    0  0.00000000000E+00  0.00000000000E+00  0.45593999997E+02  0.45594000000E+02  0.51100000000E-03 0.  1.
         11   -1    0    0    0    0 -0.00000000000E+00 -0.00000000000E+00 -0.45593999997E+02  0.45594000000E+02  0.51100000000E-03 0. -1.
    9900012    2    1    2    0    0 -0.11784728304E+02 -0.85881632126E+01 -0.11749239885E+02  0.72461521248E+02  0.69999936108E+02 0.  0.
        -12    1    1    2    0    0  0.11784728304E+02  0.85881632126E+01  0.11749239885E+02  0.18726478752E+02  0.00000000000E+00 0.  1.
         11    1    3    3    0    0 -0.25266167069E+02 -0.61502495708E+01 -0.17484508689E+02  0.31335488069E+02  0.51100000000E-03 0. -1.
        -11    1    3    3    0    0  0.17357546435E+02 -0.14138133538E+01 -0.13148589777E+02  0.21821290058E+02  0.51100000000E-03 0.  1.
        -12    1    3    3    0    0 -0.38761076700E+01 -0.10241002879E+01  0.18883858581E+02  0.19304743121E+02  0.00000000000E+00 0.  1.
</event>
<event>
 7    1  0.1749439E-013  0.7246153E+02  0.7816164E-02  0.1226708E+00
        -11   -1    0    0    0    0  0.00000000000E+00  0.00000000000E+00  0.45593999997E+02  0.45594000000E+02  0.51100000000E-03 0.  1.
         11   -1    0    0    0    0 -0.00000000000E+00 -0.00000000000E+00 -0.45593999997E+02  0.45594000000E+02  0.51100000000E-03 0. -1.
    9900012    2    1    2    0    0 -0.11249995960E+02  0.14968361432E+02 -0.25742236254E+00  0.72461534254E+02  0.69999953051E+02 0.  0.
        -12    1    1    2    0    0  0.11249995960E+02 -0.14968361432E+02  0.25742236254E+00  0.18726465746E+02  0.00000000000E+00 0.  1.
         11    1    3    3    0    0  0.43932118210E+01  0.74932475922E+00 -0.68590951926E+00  0.45091318265E+01  0.51100000000E-03 0. -1.
        -11    1    3    3    0    0 -0.86276333740E+01  0.26030990302E+02  0.26719624653E+02  0.38288207788E+02  0.51100000000E-03 0.  1.
         12    1    3    3    0    0 -0.70155744072E+01 -0.11811953630E+02 -0.26291137496E+02  0.29664194640E+02  0.00000000000E+00 0. -1.
</event>
<event>
 7    1  0.1749439E-013  0.7246158E+02  0.7816164E-02  0.1226708E+00
        -11   -1    0    0    0    0  0.00000000000E+00  0.00000000000E+00  0.45593999997E+02  0.45594000000E+02  0.51100000000E-03 0. -1.
         11   -1    0    0    0    0 -0.00000000000E+00 -0.00000000000E+00 -0.45593999997E+02  0.45594000000E+02  0.51100000000E-03 0.  1.
    9900012    2    1    2    0    0 -0.16699875223E+02  0.84049830141E+01 -0.10719623622E+01  0.72461583492E+02  0.70000017192E+02 0.  0.
        -12    1    1    2    0    0  0.16699875223E+02 -0.84049830141E+01  0.10719623622E+01  0.18726416508E+02  0.00000000000E+00 0.  1.
         11    1    3    3    0    0 -0.10750831248E+02  0.55228294167E+01  0.26502003699E+02  0.29127962812E+02  0.51100000000E-03 0. -1.
        -11    1    3    3    0    0 -0.15139842899E+02  0.10988159310E+02 -0.24267039866E+02  0.30640556655E+02  0.51100000000E-03 0.  1.
        -12    1    3    3    0    0  0.91907989238E+01 -0.81060057128E+01 -0.33069261949E+01  0.12693064025E+02  0.00000000000E+00 0.  1.
</event>
<event>
 7    1  0.1749439E-013  0.7246172E+02  0.7816164E-02  0.1226708E+00
        -11   -1    0    0    0    0  0.00000000000E+00  0.00000000000E+00  0.45593999997E+02  0.45594000000E+02  0.51100000000E-03 0. -1.
         11   -1    0    0    0    0 -0.00000000000E+00 -0.00000000000E+00 -0.45593999997E+02  0.45594000000E+02  0.51100000000E-03 0.  1.
    9900012    2    1    2    0    0  0.10748893788E+02  0.14488301779E+02  0.50223621329E+01  0.72461715598E+02  0.70000189285E+02 0.  0.
        -12    1    1    2    0    0 -0.10748893788E+02 -0.14488301779E+02 -0.50223621329E+01  0.18726284402E+02  0.00000000000E+00 0.  1.
         11    1    3    3    0    0  0.17868651902E+01 -0.96074509374E+01 -0.94113553969E+01  0.13567225633E+02  0.51100000000E-03 0. -1.
        -11    1    3    3    0    0  0.19312483460E+01 -0.15957388475E+02  0.71038550587E+01  0.17573637190E+02  0.51100000000E-03 0.  1.
         12    1    3    3    0    0  0.70307802516E+01  0.40053141191E+02  0.73298624711E+01  0.41320852775E+02  0.00000000000E+00 0. -1.
</event>
<event>
 7    1  0.1749439E-013  0.7246157E+02  0.7816164E-02  0.1226708E+00
        -11   -1    0    0    0    0  0.00000000000E+00  0.00000000000E+00  0.45593999997E+02  0.45594000000E+02  0.51100000000E-03 0.  1.
         11   -1    0    0    0    0 -0.00000000000E+00 -0.00000000000E+00 -0.45593999997E+02  0.45594000000E+02  0.51100000000E-03 0. -1.
    9900012    2    1    2    0    0 -0.32248752723E+00 -0.10984468009E+01 -0.18691401862E+02  0.72461572493E+02  0.70000002865E+02 0.  0.
        -12    1    1    2    0    0  0.32248752723E+00  0.10984468009E+01  0.18691401862E+02  0.18726427507E+02  0.00000000000E+00 0.  1.
         11    1    3    3    0    0 -0.87147600129E+00  0.22407873813E+01  0.61004620341E+00  0.24804747812E+01  0.51100000000E-03 0. -1.
        -11    1    3    3    0    0  0.18801627827E+01 -0.72815830196E+01  0.24681479405E+02  0.25801780738E+02  0.51100000000E-03 0.  1.
         12    1    3    3    0    0 -0.13311743086E+01  0.39423488374E+01 -0.43982927471E+02  0.44179316974E+02  0.00000000000E+00 0. -1.
</event>
<event>
 7    1  0.1749439E-013  0.7246157E+02  0.7816164E-02  0.1226708E+00
        -11   -1    0    0    0    0  0.00000000000E+00  0.00000000000E+00  0.45593999997E+02  0.45594000000E+02  0.51100000000E-03 0.  1.
         11   -1    0    0    0    0 -0.00000000000E+00 -0.00000000000E+00 -0.45593999997E+02  0.45594000000E+02  0.51100000000E-03 0. -1.
    9900012    2    1    2    0    0 -0.11881784715E+02 -0.11790853951E+02 -0.83951331769E+01  0.72461566652E+02  0.69999995255E+02 0.  0.
        -12    1    1    2    0    0  0.11881784715E+02  0.11790853951E+02  0.83951331769E+01  0.18726433348E+02  0.00000000000E+00 0.  1.
         11    1    3    3    0    0 -0.77621025220E+01  0.29177778115E+01 -0.11936534618E+01  0.83778560365E+01  0.51100000000E-03 0. -1.
        -11    1    3    3    0    0  0.99002558220E+01  0.11922605380E+02 -0.24782238987E+02  0.29228803497E+02  0.51100000000E-03 0.  1.
        -12    1    3    3    0    0 -0.14019938015E+02 -0.26631237142E+02  0.17580759272E+02  0.34854907118E+02  0.00000000000E+00 0.  1.
</event>
<event>
 7    1  0.1749439E-013  0.7246159E+02  0.7816164E-02  0.1226708E+00
        -11   -1    0    0    0    0  0.00000000000E+00  0.00000000000E+00  0.45593999997E+02  0.45594000000E+02  0.51100000000E-03 0.  1.
         11   -1    0    0    0    0 -0.00000000000E+00 -0.00000000000E+00 -0.45593999997E+02  0.45594000000E+02  0.51100000000E-03 0. -1.
    9900012    2    1    2    0    0 -0.11596314025E+01 -0.17637762590E+02 -0.61840989926E+01  0.72461588317E+02  0.70000023478E+02 0.  0.
        -12    1    1    2    0    0  0.11596314025E+01  0.17637762590E+02  0.61840989926E+01  0.18726411683E+02  0.00000000000E+00 0.  1.
         11    1    3    3    0    0 -0.15013600130E+02 -0.17346071079E+02 -0.47014446284E+01  0.23417898125E+02  0.51100000000E-03 0. -1.
        -11    1    3    3    0    0 -0.34685936068E+01 -0.20638276235E+02 -0.63761919666E+01  0.21877509269E+02  0.51100000000E-03 0.  1.
        -12    1    3    3    0    0  0.17322562334E+02  0.20346584723E+02  0.48935376025E+01  0.27166180924E+02  0.00000000000E+00 0.  1.
</event>
<event>
 7    1  0.1749439E-013  0.7246155E+02  0.7816164E-02  0.1226708E+00
        -11   -1    0    0    0    0  0.00000000000E+00  0.00000000000E+00  0.45593999997E+02  0.45594000000E+02  0.51100000000E-03 0.  1.
         11   -1    0    0    0    0 -0.00000000000E+00 -0.00000000000E+00 -0.45593999997E+02  0.45594000000E+02  0.51100000000E-03 0. -1.
    9900012    2    1    2    0    0  0.16863719066E+02  0.52924348525E+01 -0.61874890677E+01  0.72461550567E+02  0.69999974302E+02 0.  0.
        -12    1    1    2    0    0 -0.16863719066E+02 -0.52924348525E+01  0.61874890677E+01  0.18726449433E+02  0.00000000000E+00 0.  1.
         11    1    3    3    0    0  0.24325100796E+01  0.51342306132E+00  0.21281553188E+01  0.32725760266E+01  0.51100000000E-03 0. -1.
        -11    1    3    3    0    0  0.23892187518E+02 -0.67659849297E+01  0.23410336854E+02  0.34127101377E+02  0.51100000000E-03 0.  1.
         12    1    3    3    0    0 -0.94609785321E+01  0.11544996721E+02 -0.31725981241E+02  0.35061873164E+02  0.00000000000E+00 0. -1.
</event>
<event>
 7    1  0.1749439E-013  0.7246176E+02  0.7816164E-02  0.1226708E+00
        -11   -1    0    0    0    0  0.00000000000E+00  0.00000000000E+00  0.45593999997E+02  0.45594000000E+02  0.51100000000E-03 0. -1.
         11   -1    0    0    0    0 -0.00000000000E+00 -0.00000000000E+00 -0.45593999997E+02  0.45594000000E+02  0.51100000000E-03 0.  1.
    9900012    2    1    2    0    0 -0.17716293791E+02 -0.48439084549E+01  0.36526280174E+01  0.72461756216E+02  0.70000242197E+02 0.  0.
        -12    1    1    2    0    0  0.17716293791E+02  0.48439084549E+01 -0.36526280174E+01  0.18726243784E+02  0.00000000000E+00 0.  1.
         11    1    3    3    0    0 -0.34524661588E+02 -0.21822041895E+02  0.39308635664E+01  0.41031761587E+02  0.51100000000E-03 0. -1.
        -11    1    3    3    0    0 -0.18207707561E+01  0.79813706174E+01  0.56056124072E+01  0.99217122413E+01  0.51100000000E-03 0.  1.
        -12    1    3    3    0    0  0.18629138553E+02  0.89967628231E+01 -0.58838479562E+01  0.21508282388E+02  0.00000000000E+00 0.  1.
</event>
<event>
 7    1  0.1749439E-013  0.7246156E+02  0.7816164E-02  0.1226708E+00
        -11   -1    0    0    0    0  0.00000000000E+00  0.00000000000E+00  0.45593999997E+02  0.45594000000E+02  0.51100000000E-03 0.  1.
         11   -1    0    0    0    0 -0.00000000000E+00 -0.00000000000E+00 -0.45593999997E+02  0.45594000000E+02  0.51100000000E-03 0. -1.
    9900012    2    1    2    0    0  0.61662368842E+01  0.40984448871E+01 -0.17200574708E+02  0.72461561521E+02  0.69999988571E+02 0.  0.
        -12    1    1    2    0    0 -0.61662368842E+01 -0.40984448871E+01  0.17200574708E+02  0.18726438479E+02  0.00000000000E+00 0.  1.
         11    1    3    3    0    0 -0.25328402427E+02  0.31105583242E+01 -0.19040146619E+02  0.31839138275E+02  0.51100000000E-03 0. -1.
        -11    1    3    3    0    0  0.79799942831E+01  0.48993650563E+01 -0.10259166588E+02  0.13890089490E+02  0.51100000000E-03 0.  1.
        -12    1    3    3    0    0  0.23514645028E+02 -0.39114784935E+01  0.12098738498E+02  0.26732333756E+02  0.00000000000E+00 0.  1.
</event>
<event>
 7    1  0.1749439E-013  0.7246174E+02  0.7816164E-02  0.1226708E+00
        -11   -1    0    0    0    0  0.00000000000E+00  0.00000000000E+00  0.45593999997E+02  0.45594000000E+02  0.51100000000E-03 0.  1.
         11   -1    0    0    0    0 -0.00000000000E+00 -0.00000000000E+00 -0.45593999997E+02  0.45594000000E+02  0.51100000000E-03 0. -1.
    9900012    2    1    2    0    0 -0.69706042608E+01  0.24847697355E+01 -0.17202014990E+02  0.72461742389E+02  0.70000224184E+02 0.  0.
        -12    1    1    2    0    0  0.69706042608E+01 -0.24847697355E+01  0.17202014990E+02  0.18726257611E+02  0.00000000000E+00 0.  1.
         11    1    3    3    0    0 -0.11045236867E+02 -0.12354801396E+02 -0.17258856984E+00  0.16573115642E+02  0.51100000000E-03 0. -1.
        -11    1    3    3    0    0  0.45540707773E+01  0.11696844586E+02  0.17321250952E+02  0.21391153983E+02  0.51100000000E-03 0.  1.
        -12    1    3    3    0    0 -0.47943817076E+00  0.31427265456E+01 -0.34350677373E+02  0.34497472764E+02  0.00000000000E+00 0.  1.
</event>
<event>
 7    1  0.1749439E-013  0.7246157E+02  0.7816164E-02  0.1226708E+00
        -11   -1    0    0    0    0  0.00000000000E+00  0.00000000000E+00  0.45593999997E+02  0.45594000000E+02  0.51100000000E-03 0.  1.
         11   -1    0    0    0    0 -0.00000000000E+00 -0.00000000000E+00 -0.45593999997E+02  0.45594000000E+02  0.51100000000E-03 0. -1.
    9900012    2    1    2    0    0  0.27953763147E+01 -0.20792811556E+01 -0.18399501030E+02  0.72461570094E+02  0.69999999739E+02 0.  0.
        -12    1    1    2    0    0 -0.27953763147E+01  0.20792811556E+01  0.18399501030E+02  0.18726429906E+02  0.00000000000E+00 0.  1.
         11    1    3    3    0    0  0.15169077759E+02  0.61241746175E+01 -0.22963790140E+01  0.16519073571E+02  0.51100000000E-03 0. -1.
        -11    1    3    3    0    0  0.14472309995E+02 -0.13083921164E+02  0.64435695489E+01  0.20546443449E+02  0.51100000000E-03 0.  1.
         12    1    3    3    0    0 -0.26846011440E+02  0.48804653910E+01 -0.22546691565E+02  0.35396053074E+02  0.00000000000E+00 0. -1.
</event>
<event>
 7    1  0.1749439E-013  0.7246160E+02  0.7816164E-02  0.1226708E+00
        -11   -1    0    0    0    0  0.00000000000E+00  0.00000000000E+00  0.45593999997E+02  0.45594000000E+02  0.51100000000E-03 0.  1.
         11   -1    0    0    0    0 -0.00000000000E+00 -0.00000000000E+00 -0.45593999997E+02  0.45594000000E+02  0.51100000000E-03 0. -1.
    9900012    2    1    2    0    0 -0.92286476012E+01  0.69437300869E+01  0.14740923300E+02  0.72461597681E+02  0.70000035677E+02 0.  0.
        -12    1    1    2    0    0  0.92286476012E+01 -0.69437300869E+01 -0.14740923300E+02  0.18726402319E+02  0.00000000000E+00 0.  1.
         11    1    3    3    0    0 -0.20526567066E+02  0.55815107120E+01  0.72321644325E+01  0.22467697256E+02  0.51100000000E-03 0. -1.
        -11    1    3    3    0    0 -0.15906762413E+02 -0.86962277741E+00  0.14796099002E+02  0.21741800297E+02  0.51100000000E-03 0.  1.
        -12    1    3    3    0    0  0.27204681877E+02  0.22318421523E+01 -0.72873401342E+01  0.28252100129E+02  0.00000000000E+00 0.  1.
</event>
<event>
 7    1  0.1749439E-013  0.7246162E+02  0.7816164E-02  0.1226708E+00
        -11   -1    0    0    0    0  0.00000000000E+00  0.00000000000E+00  0.45593999997E+02  0.45594000000E+02  0.51100000000E-03 0.  1.
         11   -1    0    0    0    0 -0.00000000000E+00 -0.00000000000E+00 -0.45593999997E+02  0.45594000000E+02  0.51100000000E-03 0. -1.
    9900012    2    1    2    0    0  0.55720825799E+01  0.27996945860E+01 -0.17657603331E+02  0.72461618890E+02  0.70000063305E+02 0.  0.
        -12    1    1    2    0    0 -0.55720825799E+01 -0.27996945860E+01  0.17657603331E+02  0.18726381110E+02  0.00000000000E+00 0.  1.
         11    1    3    3    0    0 -0.52007274586E+01 -0.79295221783E+01 -0.14301912334E+01  0.95901165426E+01  0.51100000000E-03 0. -1.
        -11    1    3    3    0    0 -0.95459375757E+01 -0.13721630462E+02  0.11823125979E+02  0.20474236857E+02  0.51100000000E-03 0.  1.
        -12    1    3    3    0    0  0.20318747614E+02  0.24450847226E+02 -0.28050538077E+02  0.42397265490E+02  0.00000000000E+00 0.  1.
</event>
<event>
 7    1  0.1749439E-013  0.7246132E+02  0.7816164E-02  0.1226709E+00
        -11   -1    0    0    0    0  0.00000000000E+00  0.00000000000E+00  0.45593999997E+02  0.45594000000E+02  0.51100000000E-03 0.  1.
         11   -1    0    0    0    0 -0.00000000000E+00 -0.00000000000E+00 -0.45593999997E+02  0.45594000000E+02  0.51100000000E-03 0. -1.
    9900012    2    1    2    0    0 -0.15498805827E+02 -0.66599193840E+01 -0.81314769271E+01  0.72461323165E+02  0.69999678067E+02 0.  0.
        -12    1    1    2    0    0  0.15498805827E+02  0.66599193840E+01  0.81314769271E+01  0.18726676835E+02  0.00000000000E+00 0.  1.
         11    1    3    3    0    0  0.12863295656E+02 -0.33542836771E+01  0.12339743012E+02  0.18137939574E+02  0.51100000000E-03 0.  1.
        -11    1    3    3    0    0 -0.27852320477E+01 -0.18210132934E+02 -0.15969892611E+02  0.24380400516E+02  0.51100000000E-03 0. -1.
        -12    1    3    3    0    0 -0.25576869436E+02  0.14904497227E+02 -0.45013273282E+01  0.29942983075E+02  0.00000000000E+00 0.  1.
</event>
<event>
 7    1  0.1749439E-013  0.7246160E+02  0.7816164E-02  0.1226708E+00
        -11   -1    0    0    0    0  0.00000000000E+00  0.00000000000E+00  0.45593999997E+02  0.45594000000E+02  0.51100000000E-03 0.  1.
         11   -1    0    0    0    0 -0.00000000000E+00 -0.00000000000E+00 -0.45593999997E+02  0.45594000000E+02  0.51100000000E-03 0. -1.
    9900012    2    1    2    0    0  0.17673272698E+01  0.16274263165E+02 -0.90941186829E+01  0.72461599335E+02  0.70000037831E+02 0.  0.
        -12    1    1    2    0    0 -0.17673272698E+01 -0.16274263165E+02  0.90941186829E+01  0.18726400665E+02  0.00000000000E+00 0.  1.
         11    1    3    3    0    0  0.11382072798E+02  0.35269932491E+02 -0.17636456501E+02  0.41043444267E+02  0.51100000000E-03 0. -1.
        -11    1    3    3    0    0 -0.12075049482E+02 -0.11964961997E+01  0.48891897399E+01  0.13082148131E+02  0.51100000000E-03 0.  1.
        -12    1    3    3    0    0  0.24603039537E+01 -0.17799173126E+02  0.36531480784E+01  0.18336006937E+02  0.00000000000E+00 0.  1.
</event>
<event>
 7    1  0.1749439E-013  0.7246153E+02  0.7816164E-02  0.1226708E+00
        -11   -1    0    0    0    0  0.00000000000E+00  0.00000000000E+00  0.45593999997E+02  0.45594000000E+02  0.51100000000E-03 0.  1.
         11   -1    0    0    0    0 -0.00000000000E+00 -0.00000000000E+00 -0.45593999997E+02  0.45594000000E+02  0.51100000000E-03 0. -1.
    9900012    2    1    2    0    0 -0.33091077425E+01  0.11747654890E+02 -0.14202930382E+02  0.72461526202E+02  0.69999942562E+02 0.  0.
        -12    1    1    2    0    0  0.33091077425E+01 -0.11747654890E+02  0.14202930382E+02  0.18726473798E+02  0.00000000000E+00 0.  1.
         11    1    3    3    0    0 -0.11575108069E+02  0.13739507611E+01 -0.10141619171E+02  0.15450673357E+02  0.51100000000E-03 0. -1.
        -11    1    3    3    0    0 -0.20973193533E+02 -0.30523871043E+01  0.79947418057E+01  0.22651883162E+02  0.51100000000E-03 0.  1.
        -12    1    3    3    0    0  0.29239193859E+02  0.13426091233E+02 -0.12056053016E+02  0.34358969683E+02  0.00000000000E+00 0.  1.
</event>
<event>
 7    1  0.1749439E-013  0.7246157E+02  0.7816164E-02  0.1226708E+00
        -11   -1    0    0    0    0  0.00000000000E+00  0.00000000000E+00  0.45593999997E+02  0.45594000000E+02  0.51100000000E-03 0.  1.
         11   -1    0    0    0    0 -0.00000000000E+00 -0.00000000000E+00 -0.45593999997E+02  0.45594000000E+02  0.51100000000E-03 0. -1.
    9900012    2    1    2    0    0 -0.45078253254E+01  0.18172849802E+02 -0.32577174170E+00  0.72461572516E+02  0.70000002893E+02 0.  0.
        -12    1    1    2    0    0  0.45078253254E+01 -0.18172849802E+02  0.32577174170E+00  0.18726427484E+02  0.00000000000E+00 0.  1.
         11    1    3    3    0    0  0.66174454542E+01 -0.16472810782E+02 -0.18671711178E+02  0.25763867683E+02  0.51100000000E-03 0. -1.
        -11    1    3    3    0    0 -0.78714922430E+01  0.93354154981E+01  0.17277145161E+02  0.21156798383E+02  0.51100000000E-03 0.  1.
         12    1    3    3    0    0 -0.32537785366E+01  0.25310245086E+02  0.10687942756E+01  0.25540906450E+02  0.00000000000E+00 0. -1.
</event>
<event>
 7    1  0.1749439E-013  0.7246162E+02  0.7816164E-02  0.1226708E+00
        -11   -1    0    0    0    0  0.00000000000E+00  0.00000000000E+00  0.45593999997E+02  0.45594000000E+02  0.51100000000E-03 0. -1.
         11   -1    0    0    0    0 -0.00000000000E+00 -0.00000000000E+00 -0.45593999997E+02  0.45594000000E+02  0.51100000000E-03 0.  1.
    9900012    2    1    2    0    0  0.27223555998E+01 -0.73614255398E+01  0.17002220859E+02  0.72461619673E+02  0.70000064325E+02 0.  0.
        -12    1    1    2    0    0 -0.27223555998E+01  0.73614255398E+01 -0.17002220859E+02  0.18726380327E+02  0.00000000000E+00 0.  1.
         11    1    3    3    0    0 -0.27382911207E+01  0.93168792907E+01  0.13339863930E+02  0.16500134784E+02  0.51100000000E-03 0. -1.
        -11    1    3    3    0    0 -0.19736613810E+02 -0.13986343357E+02  0.14716446780E+02  0.28314758188E+02  0.51100000000E-03 0.  1.
         12    1    3    3    0    0  0.25197260531E+02 -0.26919614739E+01 -0.11054089850E+02  0.27646726701E+02  0.00000000000E+00 0. -1.
</event>
<event>
 7    1  0.1749439E-013  0.7246159E+02  0.7816164E-02  0.1226708E+00
        -11   -1    0    0    0    0  0.00000000000E+00  0.00000000000E+00  0.45593999997E+02  0.45594000000E+02  0.51100000000E-03 0. -1.
         11   -1    0    0    0    0 -0.00000000000E+00 -0.00000000000E+00 -0.45593999997E+02  0.45594000000E+02  0.51100000000E-03 0.  1.
    9900012    2    1    2    0    0 -0.59278942053E+01 -0.57795531484E+01  0.16796881893E+02  0.72461590690E+02  0.70000026570E+02 0.  0.
        -12    1    1    2    0    0  0.59278942053E+01  0.57795531484E+01 -0.16796881893E+02  0.18726409310E+02  0.00000000000E+00 0.  1.
         11    1    3    3    0    0 -0.18324005545E+02  0.36334768780E+01  0.99271069977E+00  0.18707132550E+02  0.51100000000E-03 0. -1.
        -11    1    3    3    0    0 -0.10253107919E+02 -0.19247094501E+01 -0.12797255573E+02  0.16510617158E+02  0.51100000000E-03 0.  1.
         12    1    3    3    0    0  0.22649219259E+02 -0.74883205762E+01  0.28601426766E+02  0.37243840983E+02  0.00000000000E+00 0. -1.
</event>
<event>
 7    1  0.1749439E-013  0.7246157E+02  0.7816164E-02  0.1226708E+00
        -11   -1    0    0    0    0  0.00000000000E+00  0.00000000000E+00  0.45593999997E+02  0.45594000000E+02  0.51100000000E-03 0.  1.
         11   -1    0    0    0    0 -0.00000000000E+00 -0.00000000000E+00 -0.45593999997E+02  0.45594000000E+02  0.51100000000E-03 0. -1.
    9900012    2    1    2    0    0  0.53414078954E+01  0.25852586996E+01 -0.17761334771E+02  0.72461569115E+02  0.69999998464E+02 0.  0.
        -12    1    1    2    0    0 -0.53414078954E+01 -0.25852586996E+01  0.17761334771E+02  0.18726430885E+02  0.00000000000E+00 0.  1.
         11    1    3    3    0    0 -0.10897798738E+02  0.19825308635E+02 -0.65804903755E+01  0.23560724387E+02  0.51100000000E-03 0. -1.
        -11    1    3    3    0    0  0.10315726632E+02  0.54066621771E+00  0.14070045399E+02  0.17454876502E+02  0.51100000000E-03 0.  1.
        -12    1    3    3    0    0  0.59234800020E+01 -0.17780716153E+02 -0.25250889795E+02  0.31445968226E+02  0.00000000000E+00 0.  1.
</event>
<event>
 7    1  0.1749439E-013  0.7246166E+02  0.7816164E-02  0.1226708E+00
        -11   -1    0    0    0    0  0.00000000000E+00  0.00000000000E+00  0.45593999997E+02  0.45594000000E+02  0.51100000000E-03 0.  1.
         11   -1    0    0    0    0 -0.00000000000E+00 -0.00000000000E+00 -0.45593999997E+02  0.45594000000E+02  0.51100000000E-03 0. -1.
    9900012    2    1    2    0    0 -0.67272740825E+01 -0.95859257317E+01 -0.14612651959E+02  0.72461660635E+02  0.70000117686E+02 0.  0.
        -12    1    1    2    0    0  0.67272740825E+01  0.95859257317E+01  0.14612651959E+02  0.18726339365E+02  0.00000000000E+00 0.  1.
         11    1    3    3    0    0  0.11056741079E+02 -0.25167267422E+02 -0.70613033849E+01  0.28381417838E+02  0.51100000000E-03 0. -1.
        -11    1    3    3    0    0  0.70334424517E+01 -0.60186101160E+01  0.26592432099E+01  0.96314357788E+01  0.51100000000E-03 0.  1.
        -12    1    3    3    0    0 -0.24817457613E+02  0.21599951806E+02 -0.10210591784E+02  0.34448807018E+02  0.00000000000E+00 0.  1.
</event>
<event>
 7    1  0.1749439E-013  0.7246172E+02  0.7816164E-02  0.1226708E+00
        -11   -1    0    0    0    0  0.00000000000E+00  0.00000000000E+00  0.45593999997E+02  0.45594000000E+02  0.51100000000E-03 0.  1.
         11   -1    0    0    0    0 -0.00000000000E+00 -0.00000000000E+00 -0.45593999997E+02  0.45594000000E+02  0.51100000000E-03 0. -1.
    9900012    2    1    2    0    0  0.15604397826E+02 -0.52846970868E+00  0.10339098640E+02  0.72461722409E+02  0.70000198157E+02 0.  0.
        -12    1    1    2    0    0 -0.15604397826E+02  0.52846970868E+00 -0.10339098640E+02  0.18726277591E+02  0.00000000000E+00 0.  1.
         11    1    3    3    0    0  0.10959798500E+02 -0.16368657360E+01 -0.12680048131E+02  0.16839837691E+02  0.51100000000E-03 0. -1.
        -11    1    3    3    0    0 -0.27544391682E+00  0.15426737762E+02 -0.10621236991E+02  0.18731545126E+02  0.51100000000E-03 0.  1.
        -12    1    3    3    0    0  0.49200432428E+01 -0.14318341734E+02  0.33640383762E+02  0.36890339592E+02  0.00000000000E+00 0.  1.
</event>
<event>
 7    1  0.1749439E-013  0.7246154E+02  0.7816164E-02  0.1226708E+00
        -11   -1    0    0    0    0  0.00000000000E+00  0.00000000000E+00  0.45593999997E+02  0.45594000000E+02  0.51100000000E-03 0.  1.
         11   -1    0    0    0    0 -0.00000000000E+00 -0.00000000000E+00 -0.45593999997E+02  0.45594000000E+02  0.51100000000E-03 0. -1.
    9900012    2    1    2    0    0  0.14100656818E+01 -0.95804861477E+01 -0.16028296330E+02  0.72461540556E+02  0.69999961260E+02 0.  0.
        -12    1    1    2    0    0 -0.14100656818E+01  0.95804861477E+01  0.16028296330E+02  0.18726459444E+02  0.00000000000E+00 0.  1.
         11    1    3    3    0    0  0.21878817770E+02  0.11225017556E+02  0.43860365612E+01  0.24978410740E+02  0.51100000000E-03 0. -1.
        -11    1    3    3    0    0 -0.98236251146E+01 -0.22068885328E+01  0.73099591228E+01  0.12442245377E+02  0.51100000000E-03 0.  1.
         12    1    3    3    0    0 -0.10645126973E+02 -0.18598615171E+02 -0.27724292014E+02  0.35040884439E+02  0.00000000000E+00 0. -1.
</event>
<event>
 7    1  0.1749439E-013  0.7246156E+02  0.7816164E-02  0.1226708E+00
        -11   -1    0    0    0    0  0.00000000000E+00  0.00000000000E+00  0.45593999997E+02  0.45594000000E+02  0.51100000000E-03 0.  1.
         11   -1    0    0    0    0 -0.00000000000E+00 -0.00000000000E+00 -0.45593999997E+02  0.45594000000E+02  0.51100000000E-03 0. -1.
    9900012    2    1    2    0    0 -0.17591884182E+02 -0.52926519632E+01  0.36321979219E+01  0.72461563723E+02  0.69999991440E+02 0.  0.
        -12    1    1    2    0    0  0.17591884182E+02  0.52926519632E+01 -0.36321979219E+01  0.18726436277E+02  0.00000000000E+00 0.  1.
         11    1    3    3    0    0  0.84831036418E+01  0.18163993942E+02  0.13123172073E+02  0.23960621212E+02  0.51100000000E-03 0. -1.
        -11    1    3    3    0    0  0.14615319737E+01  0.61492816375E+01 -0.45063660304E+01  0.77625431032E+01  0.51100000000E-03 0.  1.
        -12    1    3    3    0    0 -0.27536519798E+02 -0.29605927543E+02 -0.49846081202E+01  0.40738399409E+02  0.00000000000E+00 0.  1.
</event>
<event>
 7    1  0.1749439E-013  0.7246162E+02  0.7816164E-02  0.1226708E+00
        -11   -1    0    0    0    0  0.00000000000E+00  0.00000000000E+00  0.45593999997E+02  0.45594000000E+02  0.51100000000E-03 0.  1.
         11   -1    0    0    0    0 -0.00000000000E+00 -0.00000000000E+00 -0.45593999997E+02  0.45594000000E+02  0.51100000000E-03 0. -1.
    9900012    2    1    2    0    0 -0.15527705110E+02  0.42100610190E+01 -0.95834707501E+01  0.72461624179E+02  0.70000070195E+02 0.  0.
        -12    1    1    2    0    0  0.15527705110E+02 -0.42100610190E+01  0.95834707501E+01  0.18726375821E+02  0.00000000000E+00 0.  1.
         11    1    3    3    0    0 -0.97341845879E+01  0.16800316539E+02 -0.74484843083E+01  0.20796271400E+02  0.51100000000E-03 0. -1.
        -11    1    3    3    0    0 -0.18491053208E+02  0.48829538769E+01  0.14829058463E+02  0.24200480624E+02  0.51100000000E-03 0.  1.
         12    1    3    3    0    0  0.12697532685E+02 -0.17473209397E+02 -0.16964044905E+02  0.27464872154E+02  0.00000000000E+00 0. -1.
</event>
<event>
 7    1  0.1749439E-013  0.7246162E+02  0.7816164E-02  0.1226708E+00
        -11   -1    0    0    0    0  0.00000000000E+00  0.00000000000E+00  0.45593999997E+02  0.45594000000E+02  0.51100000000E-03 0.  1.
         11   -1    0    0    0    0 -0.00000000000E+00 -0.00000000000E+00 -0.45593999997E+02  0.45594000000E+02  0.51100000000E-03 0. -1.
    9900012    2    1    2    0    0  0.10008415106E+02 -0.83374600057E+01 -0.13453462267E+02  0.72461621299E+02  0.70000066443E+02 0.  0.
        -12    1    1    2    0    0 -0.10008415106E+02  0.83374600057E+01  0.13453462267E+02  0.18726378701E+02  0.00000000000E+00 0.  1.
         11    1    3    3    0    0  0.50342629057E+01 -0.19008724293E+02 -0.21322348193E+02  0.29005481120E+02  0.51100000000E-03 0. -1.
        -11    1    3    3    0    0  0.21934821284E+02  0.46064122242E+01  0.11329991479E+02  0.25114221579E+02  0.51100000000E-03 0.  1.
        -12    1    3    3    0    0 -0.16960669084E+02  0.60648520629E+01 -0.34611055525E+01  0.18341918601E+02  0.00000000000E+00 0.  1.
</event>
<event>
 7    1  0.1823650E-013  0.7246157E+02  0.7816164E-02  0.1226708E+00
        -11   -1    0    0    0    0  0.00000000000E+00  0.00000000000E+00  0.45593999997E+02  0.45594000000E+02  0.51100000000E-03 0. -1.
         11   -1    0    0    0    0 -0.00000000000E+00 -0.00000000000E+00 -0.45593999997E+02  0.45594000000E+02  0.51100000000E-03 0.  1.
    9900012    2    1    2    0    0  0.10122779672E+02 -0.57580901673E+01  0.14664680446E+02  0.72461571530E+02  0.70000001610E+02 0.  0.
        -12    1    1    2    0    0 -0.10122779672E+02  0.57580901673E+01 -0.14664680446E+02  0.18726428470E+02  0.00000000000E+00 0.  1.
         11    1    3    3    0    0 -0.62182359425E+01 -0.27518347376E+02  0.18687320272E+02  0.33839944441E+02  0.51100000000E-03 0. -1.
        -11    1    3    3    0    0  0.61830890685E+01  0.43492390533E+01 -0.14165250494E+02  0.16056176151E+02  0.51100000000E-03 0.  1.
        -12    1    3    3    0    0  0.10157926546E+02  0.17411018156E+02  0.10142610668E+02  0.22565450939E+02  0.00000000000E+00 0.  1.
</event>
<event>
 7    1  0.1749439E-013  0.7246153E+02  0.7816164E-02  0.1226708E+00
        -11   -1    0    0    0    0  0.00000000000E+00  0.00000000000E+00  0.45593999997E+02  0.45594000000E+02  0.51100000000E-03 0.  1.
         11   -1    0    0    0    0 -0.00000000000E+00 -0.00000000000E+00 -0.45593999997E+02  0.45594000000E+02  0.51100000000E-03 0. -1.
    9900012    2    1    2    0    0  0.17408402433E+02 -0.65912114794E+01 -0.20454756275E+01  0.72461534381E+02  0.69999953216E+02 0.  0.
        -12    1    1    2    0    0 -0.17408402433E+02  0.65912114794E+01  0.20454756275E+01  0.18726465619E+02  0.00000000000E+00 0.  1.
         11    1    3    3    0    0  0.11920868006E+02  0.14434256554E+02 -0.29499392525E+02  0.34938074016E+02  0.51100000000E-03 0. -1.
        -11    1    3    3    0    0  0.24541409398E+01  0.69390710150E+00  0.22337364870E+00  0.25601193070E+01  0.51100000000E-03 0.  1.
        -12    1    3    3    0    0  0.30333934870E+01 -0.21719375135E+02  0.27230543249E+02  0.34963341058E+02  0.00000000000E+00 0.  1.
</event>
<event>
 7    1  0.1749439E-013  0.7246154E+02  0.7816164E-02  0.1226708E+00
        -11   -1    0    0    0    0  0.00000000000E+00  0.00000000000E+00  0.45593999997E+02  0.45594000000E+02  0.51100000000E-03 0. -1.
         11   -1    0    0    0    0 -0.00000000000E+00 -0.00000000000E+00 -0.45593999997E+02  0.45594000000E+02  0.51100000000E-03 0.  1.
    9900012    2    1    2    0    0 -0.46730047043E+01 -0.18043534535E+02  0.18094455136E+01  0.72461542658E+02  0.69999963999E+02 0.  0.
        -12    1    1    2    0    0  0.46730047043E+01  0.18043534535E+02 -0.18094455136E+01  0.18726457342E+02  0.00000000000E+00 0.  1.
         11    1    3    3    0    0 -0.10612936796E+02 -0.14217280078E+02  0.27728765496E+02  0.32918838322E+02  0.51100000000E-03 0. -1.
        -11    1    3    3    0    0 -0.10027652022E-01 -0.10734015864E+02  0.13230606057E+01  0.10815252505E+02  0.51100000000E-03 0.  1.
        -12    1    3    3    0    0  0.59499597434E+01  0.69077614068E+01 -0.27242380588E+02  0.28727451831E+02  0.00000000000E+00 0.  1.
</event>
<event>
 7    1  0.1749439E-013  0.7246157E+02  0.7816164E-02  0.1226708E+00
        -11   -1    0    0    0    0  0.00000000000E+00  0.00000000000E+00  0.45593999997E+02  0.45594000000E+02  0.51100000000E-03 0.  1.
         11   -1    0    0    0    0 -0.00000000000E+00 -0.00000000000E+00 -0.45593999997E+02  0.45594000000E+02  0.51100000000E-03 0. -1.
    9900012    2    1    2    0    0  0.13895353462E+02 -0.98522453982E+01 -0.77802018701E+01  0.72461571393E+02  0.70000001432E+02 0.  0.
        -12    1    1    2    0    0 -0.13895353462E+02  0.98522453982E+01  0.77802018701E+01  0.18726428607E+02  0.00000000000E+00 0.  1.
         11    1    3    3    0    0  0.21872238508E+02 -0.86333280535E+01 -0.22276830404E+02  0.32391146070E+02  0.51100000000E-03 0. -1.
        -11    1    3    3    0    0 -0.52360207317E+01 -0.17216467236E+00 -0.12166436669E+02  0.13246423490E+02  0.51100000000E-03 0.  1.
        -12    1    3    3    0    0 -0.27408643141E+01 -0.10467526723E+01  0.26663065203E+02  0.26824001834E+02  0.00000000000E+00 0.  1.
</event>
<event>
 7    1  0.1749439E-013  0.7246158E+02  0.7816164E-02  0.1226708E+00
        -11   -1    0    0    0    0  0.00000000000E+00  0.00000000000E+00  0.45593999997E+02  0.45594000000E+02  0.51100000000E-03 0.  1.
         11   -1    0    0    0    0 -0.00000000000E+00 -0.00000000000E+00 -0.45593999997E+02  0.45594000000E+02  0.51100000000E-03 0. -1.
    9900012    2    1    2    0    0 -0.12454275469E+02  0.42723303587E+01  0.13316041910E+02  0.72461581327E+02  0.70000014372E+02 0.  0.
        -12    1    1    2    0    0  0.12454275469E+02 -0.42723303587E+01 -0.13316041910E+02  0.18726418673E+02  0.00000000000E+00 0.  1.
         11    1    3    3    0    0 -0.23890162773E+02  0.27485675129E+01 -0.16740390469E+02  0.29300770877E+02  0.51100000000E-03 0. -1.
        -11    1    3    3    0    0  0.83168686518E+01  0.13330407051E+02  0.72788871303E+01  0.17316242504E+02  0.51100000000E-03 0.  1.
        -12    1    3    3    0    0  0.31190186516E+01 -0.11806644205E+02  0.22777545249E+02  0.25844567946E+02  0.00000000000E+00 0.  1.
</event>
<event>
 7    1  0.1749439E-013  0.7246156E+02  0.7816164E-02  0.1226708E+00
        -11   -1    0    0    0    0  0.00000000000E+00  0.00000000000E+00  0.45593999997E+02  0.45594000000E+02  0.51100000000E-03 0.  1.
         11   -1    0    0    0    0 -0.00000000000E+00 -0.00000000000E+00 -0.45593999997E+02  0.45594000000E+02  0.51100000000E-03 0. -1.
    9900012    2    1    2    0    0  0.76488616810E+01  0.11936678654E+02  0.12234791626E+02  0.72461561245E+02  0.69999988212E+02 0.  0.
        -12    1    1    2    0    0 -0.76488616810E+01 -0.11936678654E+02 -0.12234791626E+02  0.18726438755E+02  0.00000000000E+00 0.  1.
         11    1    3    3    0    0  0.46178807934E+01  0.86468300767E+01  0.11977922236E+02  0.15477826551E+02  0.51100000000E-03 0. -1.
        -11    1    3    3    0    0  0.26056347797E+02 -0.12349032174E+02 -0.28577404049E+01  0.28975826764E+02  0.51100000000E-03 0.  1.
         12    1    3    3    0    0 -0.23025366909E+02  0.15638880752E+02  0.31146097950E+01  0.28007907931E+02  0.00000000000E+00 0. -1.
</event>
<event>
 7    1  0.1749439E-013  0.7246158E+02  0.7816164E-02  0.1226708E+00
        -11   -1    0    0    0    0  0.00000000000E+00  0.00000000000E+00  0.45593999997E+02  0.45594000000E+02  0.51100000000E-03 0.  1.
         11   -1    0    0    0    0 -0.00000000000E+00 -0.00000000000E+00 -0.45593999997E+02  0.45594000000E+02  0.51100000000E-03 0. -1.
    9900012    2    1    2    0    0  0.14336952306E+02 -0.11480372275E+02 -0.36512745729E+01  0.72461576022E+02  0.70000007461E+02 0.  0.
        -12    1    1    2    0    0 -0.14336952306E+02  0.11480372275E+02  0.36512745729E+01  0.18726423978E+02  0.00000000000E+00 0.  1.
         11    1    3    3    0    0  0.28989762821E+02  0.30166073775E+01  0.19941086376E+01  0.29214426881E+02  0.51100000000E-03 0. -1.
        -11    1    3    3    0    0  0.85327320193E+01  0.46640590986E+01  0.54979274893E+01  0.11170862542E+02  0.51100000000E-03 0.  1.
        -12    1    3    3    0    0 -0.23185542534E+02 -0.19161038751E+02 -0.11143310700E+02  0.32076286599E+02  0.00000000000E+00 0.  1.
</event>
<event>
 7    1  0.1749439E-013  0.7246155E+02  0.7816164E-02  0.1226708E+00
        -11   -1    0    0    0    0  0.00000000000E+00  0.00000000000E+00  0.45593999997E+02  0.45594000000E+02  0.51100000000E-03 0.  1.
         11   -1    0    0    0    0 -0.00000000000E+00 -0.00000000000E+00 -0.45593999997E+02  0.45594000000E+02  0.51100000000E-03 0. -1.
    9900012    2    1    2    0    0 -0.18551437831E+01 -0.14197868265E+02 -0.12068929214E+02  0.72461546142E+02  0.69999968537E+02 0.  0.
        -12    1    1    2    0    0  0.18551437831E+01  0.14197868265E+02  0.12068929214E+02  0.18726453858E+02  0.00000000000E+00 0.  1.
         11    1    3    3    0    0 -0.87190816217E+00 -0.26444254033E+02 -0.26105164866E+02  0.37169052021E+02  0.51100000000E-03 0. -1.
        -11    1    3    3    0    0  0.79750858760E+01 -0.71450607009E+01  0.24206636081E+01  0.10977864078E+02  0.51100000000E-03 0.  1.
        -12    1    3    3    0    0 -0.89583214969E+01  0.19391446469E+02  0.11615572044E+02  0.24314630043E+02  0.00000000000E+00 0.  1.
</event>
<event>
 7    1  0.1749439E-013  0.7246135E+02  0.7816164E-02  0.1226709E+00
        -11   -1    0    0    0    0  0.00000000000E+00  0.00000000000E+00  0.45593999997E+02  0.45594000000E+02  0.51100000000E-03 0.  1.
         11   -1    0    0    0    0 -0.00000000000E+00 -0.00000000000E+00 -0.45593999997E+02  0.45594000000E+02  0.51100000000E-03 0. -1.
    9900012    2    1    2    0    0  0.10833857758E+02  0.46095270578E+01 -0.14562531938E+02  0.72461346534E+02  0.69999708509E+02 0.  0.
        -12    1    1    2    0    0 -0.10833857758E+02 -0.46095270578E+01  0.14562531938E+02  0.18726653466E+02  0.00000000000E+00 0.  1.
         11    1    3    3    0    0  0.46082018211E+01 -0.12520687617E+02 -0.38500432010E+00  0.13347335727E+02  0.51100000000E-03 0. -1.
        -11    1    3    3    0    0 -0.23899580069E+01 -0.15958557125E+02  0.83489681807E+01  0.18168453834E+02  0.51100000000E-03 0.  1.
         12    1    3    3    0    0  0.86156139437E+01  0.33088771799E+02 -0.22526495798E+02  0.40945556972E+02  0.00000000000E+00 0. -1.
</event>
<event>
 7    1  0.1749439E-013  0.7246156E+02  0.7816164E-02  0.1226708E+00
        -11   -1    0    0    0    0  0.00000000000E+00  0.00000000000E+00  0.45593999997E+02  0.45594000000E+02  0.51100000000E-03 0.  1.
         11   -1    0    0    0    0 -0.00000000000E+00 -0.00000000000E+00 -0.45593999997E+02  0.45594000000E+02  0.51100000000E-03 0. -1.
    9900012    2    1    2    0    0  0.19769692896E+00 -0.43928161087E+01 -0.18202842374E+02  0.72461564463E+02  0.69999992404E+02 0.  0.
        -12    1    1    2    0    0 -0.19769692896E+00  0.43928161087E+01  0.18202842374E+02  0.18726435537E+02  0.00000000000E+00 0.  1.
         11    1    3    3    0    0  0.48145093909E+01 -0.73778291441E+01 -0.20637345942E+02  0.22439071089E+02  0.51100000000E-03 0. -1.
        -11    1    3    3    0    0 -0.23825790458E+02 -0.61901705246E+01 -0.85607328186E+01  0.26062859565E+02  0.51100000000E-03 0.  1.
        -12    1    3    3    0    0  0.19208977996E+02  0.91751835600E+01  0.10995236387E+02  0.23959633808E+02  0.00000000000E+00 0.  1.
</event>
<event>
 7    1  0.1749439E-013  0.7246158E+02  0.7816164E-02  0.1226708E+00
        -11   -1    0    0    0    0  0.00000000000E+00  0.00000000000E+00  0.45593999997E+02  0.45594000000E+02  0.51100000000E-03 0.  1.
         11   -1    0    0    0    0 -0.00000000000E+00 -0.00000000000E+00 -0.45593999997E+02  0.45594000000E+02  0.51100000000E-03 0. -1.
    9900012    2    1    2    0    0  0.18222467441E+01 -0.74608555071E+01 -0.17079051348E+02  0.72461576342E+02  0.70000007878E+02 0.  0.
        -12    1    1    2    0    0 -0.18222467441E+01  0.74608555071E+01  0.17079051348E+02  0.18726423658E+02  0.00000000000E+00 0.  1.
         11    1    3    3    0    0 -0.39212166262E+00  0.60081926113E+01 -0.14308369529E+02  0.15523581310E+02  0.51100000000E-03 0. -1.
        -11    1    3    3    0    0 -0.88228850355E+01  0.16982421407E+02 -0.12808416571E+02  0.23028275500E+02  0.51100000000E-03 0.  1.
         12    1    3    3    0    0  0.11037253442E+02 -0.30451469525E+02  0.10037734752E+02  0.33909719532E+02  0.00000000000E+00 0. -1.
</event>
<event>
 7    1  0.1749439E-013  0.7246161E+02  0.7816164E-02  0.1226708E+00
        -11   -1    0    0    0    0  0.00000000000E+00  0.00000000000E+00  0.45593999997E+02  0.45594000000E+02  0.51100000000E-03 0.  1.
         11   -1    0    0    0    0 -0.00000000000E+00 -0.00000000000E+00 -0.45593999997E+02  0.45594000000E+02  0.51100000000E-03 0. -1.
    9900012    2    1    2    0    0  0.11077713282E+02 -0.12981572928E+02 -0.77097730546E+01  0.72461613060E+02  0.70000055711E+02 0.  0.
        -12    1    1    2    0    0 -0.11077713282E+02  0.12981572928E+02  0.77097730546E+01  0.18726386940E+02  0.00000000000E+00 0.  1.
         11    1    3    3    0    0  0.29552650966E+02 -0.10921176169E+02  0.18874085251E+02  0.36726861591E+02  0.51100000000E-03 0. -1.
        -11    1    3    3    0    0 -0.43584552952E+00  0.98986691483E+00  0.17205965075E+01  0.20323017585E+01  0.51100000000E-03 0.  1.
        -12    1    3    3    0    0 -0.18039092154E+02 -0.30502636743E+01 -0.28304454813E+02  0.33702449711E+02  0.00000000000E+00 0.  1.
</event>
<event>
 7    1  0.1749439E-013  0.7246160E+02  0.7816164E-02  0.1226708E+00
        -11   -1    0    0    0    0  0.00000000000E+00  0.00000000000E+00  0.45593999997E+02  0.45594000000E+02  0.51100000000E-03 0.  1.
         11   -1    0    0    0    0 -0.00000000000E+00 -0.00000000000E+00 -0.45593999997E+02  0.45594000000E+02  0.51100000000E-03 0. -1.
    9900012    2    1    2    0    0  0.13010730035E+02 -0.10756353400E+02 -0.81055334315E+01  0.72461604011E+02  0.70000043923E+02 0.  0.
        -12    1    1    2    0    0 -0.13010730035E+02  0.10756353400E+02  0.81055334315E+01  0.18726395989E+02  0.00000000000E+00 0.  1.
         11    1    3    3    0    0  0.41309931934E+00 -0.80206543939E+01 -0.92344135359E+01  0.12238298148E+02  0.51100000000E-03 0. -1.
        -11    1    3    3    0    0  0.64348422719E+01  0.10210735743E+02  0.27597103769E+02  0.30120864134E+02  0.51100000000E-03 0.  1.
         12    1    3    3    0    0  0.61627884440E+01 -0.12946434749E+02 -0.26468223664E+02  0.30102441729E+02  0.00000000000E+00 0. -1.
</event>
<event>
 7    1  0.1749439E-013  0.7246152E+02  0.7816164E-02  0.1226708E+00
        -11   -1    0    0    0    0  0.00000000000E+00  0.00000000000E+00  0.45593999997E+02  0.45594000000E+02  0.51100000000E-03 0. -1.
         11   -1    0    0    0    0 -0.00000000000E+00 -0.00000000000E+00 -0.45593999997E+02  0.45594000000E+02  0.51100000000E-03 0.  1.
    9900012    2    1    2    0    0  0.11735102445E+02  0.35585635421E+01  0.14152918812E+02  0.72461518355E+02  0.69999932340E+02 0.  0.
        -12    1    1    2    0    0 -0.11735102445E+02 -0.35585635421E+01 -0.14152918812E+02  0.18726481645E+02  0.00000000000E+00 0.  1.
         11    1    3    3    0    0  0.15529102327E+02  0.18196988082E+02  0.23131231551E+02  0.33276677533E+02  0.51100000000E-03 0. -1.
        -11    1    3    3    0    0  0.13439451331E+01  0.73833732164E+01 -0.14123596848E+02  0.15993635507E+02  0.51100000000E-03 0.  1.
        -12    1    3    3    0    0 -0.51379450151E+01 -0.22021797756E+02  0.51452841093E+01  0.23191205315E+02  0.00000000000E+00 0.  1.
</event>
<event>
 7    1  0.1749439E-013  0.7246142E+02  0.7816164E-02  0.1226708E+00
        -11   -1    0    0    0    0  0.00000000000E+00  0.00000000000E+00  0.45593999997E+02  0.45594000000E+02  0.51100000000E-03 0. -1.
         11   -1    0    0    0    0 -0.00000000000E+00 -0.00000000000E+00 -0.45593999997E+02  0.45594000000E+02  0.51100000000E-03 0.  1.
    9900012    2    1    2    0    0 -0.22760276545E+01 -0.68534208562E+01  0.17278167450E+02  0.72461421301E+02  0.69999805909E+02 0.  0.
        -12    1    1    2    0    0  0.22760276545E+01  0.68534208562E+01 -0.17278167450E+02  0.18726578699E+02  0.00000000000E+00 0.  1.
         11    1    3    3    0    0  0.77261158959E+01 -0.12146289713E+02  0.19726904802E+01  0.14529856455E+02  0.51100000000E-03 0. -1.
        -11    1    3    3    0    0 -0.56250897368E+01 -0.21516524131E+02 -0.64202310707E+01  0.23147825221E+02  0.51100000000E-03 0.  1.
         12    1    3    3    0    0 -0.43770538136E+01  0.26809392987E+02  0.21725708041E+02  0.34783739625E+02  0.00000000000E+00 0. -1.
</event>
<event>
 7    1  0.1749439E-013  0.7246170E+02  0.7816164E-02  0.1226708E+00
        -11   -1    0    0    0    0  0.00000000000E+00  0.00000000000E+00  0.45593999997E+02  0.45594000000E+02  0.51100000000E-03 0.  1.
         11   -1    0    0    0    0 -0.00000000000E+00 -0.00000000000E+00 -0.45593999997E+02  0.45594000000E+02  0.51100000000E-03 0. -1.
    9900012    2    1    2    0    0 -0.11700880647E+02 -0.52629039802E+01 -0.13640583168E+02  0.72461700969E+02  0.70000170228E+02 0.  0.
        -12    1    1    2    0    0  0.11700880647E+02  0.52629039802E+01  0.13640583168E+02  0.18726299031E+02  0.00000000000E+00 0.  1.
         11    1    3    3    0    0  0.23046105864E+01  0.14317391183E+02 -0.27158297710E+02  0.30787530837E+02  0.51100000000E-03 0. -1.
        -11    1    3    3    0    0 -0.11382655016E+02  0.25728960596E+01 -0.49865283364E+01  0.12690551385E+02  0.51100000000E-03 0.  1.
        -12    1    3    3    0    0 -0.26228362173E+01 -0.22153191222E+02  0.18504242879E+02  0.28983618747E+02  0.00000000000E+00 0.  1.
</event>
<event>
 7    1  0.1749439E-013  0.7246119E+02  0.7816164E-02  0.1226709E+00
        -11   -1    0    0    0    0  0.00000000000E+00  0.00000000000E+00  0.45593999997E+02  0.45594000000E+02  0.51100000000E-03 0.  1.
         11   -1    0    0    0    0 -0.00000000000E+00 -0.00000000000E+00 -0.45593999997E+02  0.45594000000E+02  0.51100000000E-03 0. -1.
    9900012    2    1    2    0    0 -0.12540562743E+02 -0.95585620877E+01 -0.10102553238E+02  0.72461190207E+02  0.69999504864E+02 0.  0.
        -12    1    1    2    0    0  0.12540562743E+02  0.95585620877E+01  0.10102553238E+02  0.18726809793E+02  0.00000000000E+00 0.  1.
         11    1    3    3    0    0 -0.14516949343E+02 -0.26477557787E+01 -0.23863013843E+02  0.28057010868E+02  0.51100000000E-03 0. -1.
        -11    1    3    3    0    0  0.75996869324E+01  0.15714987489E+02  0.24920353675E+00  0.17457897236E+02  0.51100000000E-03 0.  1.
         12    1    3    3    0    0 -0.56233003324E+01 -0.22625793798E+02  0.13511257068E+02  0.26946282103E+02  0.00000000000E+00 0. -1.
</event>
<event>
 7    1  0.1749439E-013  0.7246154E+02  0.7816164E-02  0.1226708E+00
        -11   -1    0    0    0    0  0.00000000000E+00  0.00000000000E+00  0.45593999997E+02  0.45594000000E+02  0.51100000000E-03 0.  1.
         11   -1    0    0    0    0 -0.00000000000E+00 -0.00000000000E+00 -0.45593999997E+02  0.45594000000E+02  0.51100000000E-03 0. -1.
    9900012    2    1    2    0    0 -0.58664212022E+01 -0.66206363929E+01 -0.16505532408E+02  0.72461539468E+02  0.69999959843E+02 0.  0.
        -12    1    1    2    0    0  0.58664212022E+01  0.66206363929E+01  0.16505532408E+02  0.18726460532E+02  0.00000000000E+00 0.  1.
         11    1    3    3    0    0 -0.21059530853E+02 -0.12151129171E+02 -0.32951918523E+02  0.40950979408E+02  0.51100000000E-03 0. -1.
        -11    1    3    3    0    0 -0.18749409050E+01 -0.59749828620E+01  0.31964131431E+01  0.70308520708E+01  0.51100000000E-03 0.  1.
        -12    1    3    3    0    0  0.17068050556E+02  0.11505475640E+02  0.13249972972E+02  0.24479707989E+02  0.00000000000E+00 0.  1.
</event>
<event>
 7    1  0.1749439E-013  0.7246158E+02  0.7816164E-02  0.1226708E+00
        -11   -1    0    0    0    0  0.00000000000E+00  0.00000000000E+00  0.45593999997E+02  0.45594000000E+02  0.51100000000E-03 0.  1.
         11   -1    0    0    0    0 -0.00000000000E+00 -0.00000000000E+00 -0.45593999997E+02  0.45594000000E+02  0.51100000000E-03 0. -1.
    9900012    2    1    2    0    0  0.12866804870E+02  0.49305178412E+01 -0.12681249616E+02  0.72461581080E+02  0.70000014050E+02 0.  0.
        -12    1    1    2    0    0 -0.12866804870E+02 -0.49305178412E+01  0.12681249616E+02  0.18726418920E+02  0.00000000000E+00 0.  1.
         11    1    3    3    0    0 -0.41867788033E+01 -0.71619430695E+01  0.30577944304E+01  0.88415299761E+01  0.51100000000E-03 0. -1.
        -11    1    3    3    0    0  0.22565008844E+02 -0.48839934132E+01  0.15383107605E+02  0.27742981376E+02  0.51100000000E-03 0.  1.
         12    1    3    3    0    0 -0.55114251706E+01  0.16976454324E+02 -0.31122151652E+02  0.35877069728E+02  0.00000000000E+00 0. -1.
</event>
<event>
 7    1  0.1749439E-013  0.7246161E+02  0.7816164E-02  0.1226708E+00
        -11   -1    0    0    0    0  0.00000000000E+00  0.00000000000E+00  0.45593999997E+02  0.45594000000E+02  0.51100000000E-03 0.  1.
         11   -1    0    0    0    0 -0.00000000000E+00 -0.00000000000E+00 -0.45593999997E+02  0.45594000000E+02  0.51100000000E-03 0. -1.
    9900012    2    1    2    0    0 -0.16052029996E+02  0.82141808692E+01 -0.50534294904E+01  0.72461612629E+02  0.70000055149E+02 0.  0.
        -12    1    1    2    0    0  0.16052029996E+02 -0.82141808692E+01  0.50534294904E+01  0.18726387371E+02  0.00000000000E+00 0.  1.
         11    1    3    3    0    0  0.77870547058E+01 -0.76026610596E+01 -0.12924415735E+02  0.16896129691E+02  0.51100000000E-03 0. -1.
        -11    1    3    3    0    0 -0.34313773642E+01 -0.11808246386E+02 -0.10893733818E+02  0.16428100014E+02  0.51100000000E-03 0.  1.
        -12    1    3    3    0    0 -0.20407707338E+02  0.27625088315E+02  0.18764720062E+02  0.39137382924E+02  0.00000000000E+00 0.  1.
</event>
<event>
 7    1  0.1749439E-013  0.7246155E+02  0.7816164E-02  0.1226708E+00
        -11   -1    0    0    0    0  0.00000000000E+00  0.00000000000E+00  0.45593999997E+02  0.45594000000E+02  0.51100000000E-03 0.  1.
         11   -1    0    0    0    0 -0.00000000000E+00 -0.00000000000E+00 -0.45593999997E+02  0.45594000000E+02  0.51100000000E-03 0. -1.
    9900012    2    1    2    0    0 -0.77411667305E+01 -0.82601687982E+01 -0.14917233801E+02  0.72461550385E+02  0.69999974064E+02 0.  0.
        -12    1    1    2    0    0  0.77411667305E+01  0.82601687982E+01  0.14917233801E+02  0.18726449615E+02  0.00000000000E+00 0.  1.
         11    1    3    3    0    0  0.15327673051E+02 -0.14450826313E+02 -0.24262315246E+02  0.32131353592E+02  0.51100000000E-03 0. -1.
        -11    1    3    3    0    0 -0.88447367758E+01  0.11041140456E+02  0.18072814082E+02  0.22951312823E+02  0.51100000000E-03 0.  1.
        -12    1    3    3    0    0 -0.14224103005E+02 -0.48504829412E+01 -0.87277326367E+01  0.17378883970E+02  0.00000000000E+00 0.  1.
</event>
<event>
 7    1  0.1749439E-013  0.7246155E+02  0.7816164E-02  0.1226708E+00
        -11   -1    0    0    0    0  0.00000000000E+00  0.00000000000E+00  0.45593999997E+02  0.45594000000E+02  0.51100000000E-03 0. -1.
         11   -1    0    0    0    0 -0.00000000000E+00 -0.00000000000E+00 -0.45593999997E+02  0.45594000000E+02  0.51100000000E-03 0.  1.
    9900012    2    1    2    0    0  0.17275361139E+01 -0.40780564751E+01  0.18195187057E+02  0.72461554591E+02  0.69999979543E+02 0.  0.
        -12    1    1    2    0    0 -0.17275361139E+01  0.40780564751E+01 -0.18195187057E+02  0.18726445409E+02  0.00000000000E+00 0.  1.
         11    1    3    3    0    0  0.17486970708E+02 -0.60589140616E+00 -0.71633332895E+01  0.18906998519E+02  0.51100000000E-03 0. -1.
        -11    1    3    3    0    0  0.97333927004E+01  0.11713281537E+02  0.11747054931E+01  0.15274810345E+02  0.51100000000E-03 0.  1.
         12    1    3    3    0    0 -0.25492827294E+02 -0.15185446606E+02  0.24183814853E+02  0.38279745727E+02  0.00000000000E+00 0. -1.
</event>
<event>
 7    1  0.1749439E-013  0.7246152E+02  0.7816164E-02  0.1226708E+00
        -11   -1    0    0    0    0  0.00000000000E+00  0.00000000000E+00  0.45593999997E+02  0.45594000000E+02  0.51100000000E-03 0.  1.
         11   -1    0    0    0    0 -0.00000000000E+00 -0.00000000000E+00 -0.45593999997E+02  0.45594000000E+02  0.51100000000E-03 0. -1.
    9900012    2    1    2    0    0 -0.25432035967E+01  0.99609642821E+01 -0.15652227963E+02  0.72461523178E+02  0.69999938622E+02 0.  0.
        -12    1    1    2    0    0  0.25432035967E+01 -0.99609642821E+01  0.15652227963E+02  0.18726476822E+02  0.00000000000E+00 0.  1.
         11    1    3    3    0    0 -0.35318708106E+01 -0.25735765506E+01  0.62506502705E+00  0.44145344300E+01  0.51100000000E-03 0. -1.
        -11    1    3    3    0    0 -0.27195135220E+02 -0.81545333432E+01  0.22474205153E+01  0.28480215815E+02  0.51100000000E-03 0.  1.
         12    1    3    3    0    0  0.28183802433E+02  0.20689074176E+02 -0.18524713505E+02  0.39566772933E+02  0.00000000000E+00 0. -1.
</event>
<event>
 7    1  0.1749439E-013  0.7246154E+02  0.7816164E-02  0.1226708E+00
        -11   -1    0    0    0    0  0.00000000000E+00  0.00000000000E+00  0.45593999997E+02  0.45594000000E+02  0.51100000000E-03 0.  1.
         11   -1    0    0    0    0 -0.00000000000E+00 -0.00000000000E+00 -0.45593999997E+02  0.45594000000E+02  0.51100000000E-03 0. -1.
    9900012    2    1    2    0    0 -0.16581904217E+02  0.33574572667E+01 -0.80279621846E+01  0.72461541616E+02  0.69999962642E+02 0.  0.
        -12    1    1    2    0    0  0.16581904217E+02 -0.33574572667E+01  0.80279621846E+01  0.18726458384E+02  0.00000000000E+00 0.  1.
         11    1    3    3    0    0  0.16039392468E+02 -0.20985476561E+01 -0.78870114247E+01  0.17996415268E+02  0.51100000000E-03 0. -1.
        -11    1    3    3    0    0  0.10269552421E+02  0.16393302848E+01 -0.41962513488E+01  0.11214260401E+02  0.51100000000E-03 0.  1.
        -12    1    3    3    0    0 -0.42890849106E+02  0.38166746381E+01  0.40553005889E+01  0.43250865947E+02  0.00000000000E+00 0.  1.
</event>
<event>
 7    1  0.1749439E-013  0.7246160E+02  0.7816164E-02  0.1226708E+00
        -11   -1    0    0    0    0  0.00000000000E+00  0.00000000000E+00  0.45593999997E+02  0.45594000000E+02  0.51100000000E-03 0.  1.
         11   -1    0    0    0    0 -0.00000000000E+00 -0.00000000000E+00 -0.45593999997E+02  0.45594000000E+02  0.51100000000E-03 0. -1.
    9900012    2    1    2    0    0 -0.35980897698E+01  0.54779129430E+01 -0.17542068827E+02  0.72461602617E+02  0.70000042106E+02 0.  0.
        -12    1    1    2    0    0  0.35980897698E+01 -0.54779129430E+01  0.17542068827E+02  0.18726397383E+02  0.00000000000E+00 0.  1.
         11    1    3    3    0    0 -0.60954479442E+01 -0.29066099668E+01 -0.74965873561E+01  0.10089682323E+02  0.51100000000E-03 0. -1.
        -11    1    3    3    0    0 -0.25272423312E+02 -0.60504802329E+01  0.67551112246E+01  0.26850236853E+02  0.51100000000E-03 0.  1.
         12    1    3    3    0    0  0.27769781487E+02  0.14435003143E+02 -0.16800592696E+02  0.35521683441E+02  0.00000000000E+00 0. -1.
</event>
<event>
 7    1  0.1749439E-013  0.7246126E+02  0.7816164E-02  0.1226709E+00
        -11   -1    0    0    0    0  0.00000000000E+00  0.00000000000E+00  0.45593999997E+02  0.45594000000E+02  0.51100000000E-03 0.  1.
         11   -1    0    0    0    0 -0.00000000000E+00 -0.00000000000E+00 -0.45593999997E+02  0.45594000000E+02  0.51100000000E-03 0. -1.
    9900012    2    1    2    0    0  0.17177092908E+02  0.72417103497E+01 -0.17877213038E+01  0.72461258772E+02  0.69999594183E+02 0.  0.
        -12    1    1    2    0    0 -0.17177092908E+02 -0.72417103497E+01  0.17877213038E+01  0.18726741228E+02  0.00000000000E+00 0.  1.
         11    1    3    3    0    0 -0.56257078734E+01 -0.14141208996E+00  0.23992467655E+01  0.61175952595E+01  0.51100000000E-03 0. -1.
        -11    1    3    3    0    0 -0.13938373179E+02  0.20944475855E+02  0.60255057148E+01  0.25869983284E+02  0.51100000000E-03 0.  1.
         12    1    3    3    0    0  0.36741173961E+02 -0.13561353415E+02 -0.10212473784E+02  0.40473680229E+02  0.00000000000E+00 0. -1.
</event>
<event>
 7    1  0.1749439E-013  0.7246154E+02  0.7816164E-02  0.1226708E+00
        -11   -1    0    0    0    0  0.00000000000E+00  0.00000000000E+00  0.45593999997E+02  0.45594000000E+02  0.51100000000E-03 0.  1.
         11   -1    0    0    0    0 -0.00000000000E+00 -0.00000000000E+00 -0.45593999997E+02  0.45594000000E+02  0.51100000000E-03 0. -1.
    9900012    2    1    2    0    0 -0.11013989521E+02  0.11883635180E+02 -0.93889045153E+01  0.72461540691E+02  0.69999961436E+02 0.  0.
        -12    1    1    2    0    0  0.11013989521E+02 -0.11883635180E+02  0.93889045153E+01  0.18726459309E+02  0.00000000000E+00 0.  1.
         11    1    3    3    0    0 -0.13156290670E+02  0.25823239690E+02  0.57222194301E+01  0.29541013655E+02  0.51100000000E-03 0. -1.
        -11    1    3    3    0    0  0.44999638216E+01  0.72097161260E+01  0.78819039535E+01  0.11591121223E+02  0.51100000000E-03 0.  1.
        -12    1    3    3    0    0 -0.23576626727E+01 -0.21149320636E+02 -0.22993027899E+02  0.31329405813E+02  0.00000000000E+00 0.  1.
</event>
<event>
 7    1  0.1749439E-013  0.7246155E+02  0.7816164E-02  0.1226708E+00
        -11   -1    0    0    0    0  0.00000000000E+00  0.00000000000E+00  0.45593999997E+02  0.45594000000E+02  0.51100000000E-03 0. -1.
         11   -1    0    0    0    0 -0.00000000000E+00 -0.00000000000E+00 -0.45593999997E+02  0.45594000000E+02  0.51100000000E-03 0.  1.
    9900012    2    1    2    0    0  0.17077749170E+02  0.60665379582E+01 -0.47145989158E+01  0.72461552327E+02  0.69999976594E+02 0.  0.
        -12    1    1    2    0    0 -0.17077749170E+02 -0.60665379582E+01  0.47145989158E+01  0.18726447673E+02  0.00000000000E+00 0.  1.
         11    1    3    3    0    0  0.91229302978E+01 -0.17154233187E+01 -0.11348811354E+02  0.14661720697E+02  0.51100000000E-03 0.  1.
        -11    1    3    3    0    0  0.21262576840E+01  0.18906522573E+02 -0.20458400578E+02  0.27937854642E+02  0.51100000000E-03 0. -1.
         12    1    3    3    0    0  0.58285611885E+01 -0.11124561296E+02  0.27092613016E+02  0.29861976988E+02  0.00000000000E+00 0. -1.
</event>
<event>
 7    1  0.1749439E-013  0.7246160E+02  0.7816164E-02  0.1226708E+00
        -11   -1    0    0    0    0  0.00000000000E+00  0.00000000000E+00  0.45593999997E+02  0.45594000000E+02  0.51100000000E-03 0. -1.
         11   -1    0    0    0    0 -0.00000000000E+00 -0.00000000000E+00 -0.45593999997E+02  0.45594000000E+02  0.51100000000E-03 0.  1.
    9900012    2    1    2    0    0 -0.13926481834E+02  0.12078253793E+02 -0.32934892831E+01  0.72461596645E+02  0.70000034327E+02 0.  0.
        -12    1    1    2    0    0  0.13926481834E+02 -0.12078253793E+02  0.32934892831E+01  0.18726403355E+02  0.00000000000E+00 0.  1.
         11    1    3    3    0    0  0.39048522812E+01 -0.27319388887E+00  0.89330039618E+01  0.97530029366E+01  0.51100000000E-03 0. -1.
        -11    1    3    3    0    0  0.19741198340E+02 -0.16613659599E+01 -0.10842985221E+02  0.22584184234E+02  0.51100000000E-03 0.  1.
         12    1    3    3    0    0 -0.37572532455E+02  0.14012813642E+02 -0.13835080235E+01  0.40124409474E+02  0.00000000000E+00 0. -1.
</event>
<event>
 7    1  0.1749439E-013  0.7246163E+02  0.7816164E-02  0.1226708E+00
        -11   -1    0    0    0    0  0.00000000000E+00  0.00000000000E+00  0.45593999997E+02  0.45594000000E+02  0.51100000000E-03 0.  1.
         11   -1    0    0    0    0 -0.00000000000E+00 -0.00000000000E+00 -0.45593999997E+02  0.45594000000E+02  0.51100000000E-03 0. -1.
    9900012    2    1    2    0    0  0.58891637032E+01 -0.22061065057E+00 -0.17774875066E+02  0.72461625503E+02  0.70000071920E+02 0.  0.
        -12    1    1    2    0    0 -0.58891637032E+01  0.22061065057E+00  0.17774875066E+02  0.18726374497E+02  0.00000000000E+00 0.  1.
         11    1    3    3    0    0  0.26108443935E+01  0.20897809053E+02  0.71407191683E+00  0.21072371262E+02  0.51100000000E-03 0. -1.
        -11    1    3    3    0    0 -0.15363448508E+02  0.66418239481E+00 -0.16642409610E+02  0.22659357586E+02  0.51100000000E-03 0.  1.
        -12    1    3    3    0    0  0.18641767818E+02 -0.21782602098E+02 -0.18465373724E+01  0.28729896655E+02  0.00000000000E+00 0.  1.
</event>
<event>
 7    1  0.1749439E-013  0.7246156E+02  0.7816164E-02  0.1226708E+00
        -11   -1    0    0    0    0  0.00000000000E+00  0.00000000000E+00  0.45593999997E+02  0.45594000000E+02  0.51100000000E-03 0. -1.
         11   -1    0    0    0    0 -0.00000000000E+00 -0.00000000000E+00 -0.45593999997E+02  0.45594000000E+02  0.51100000000E-03 0.  1.
    9900012    2    1    2    0    0  0.61882338117E+01  0.14818381936E+02  0.96333284574E+01  0.72461556182E+02  0.69999981616E+02 0.  0.
        -12    1    1    2    0    0 -0.61882338117E+01 -0.14818381936E+02 -0.96333284574E+01  0.18726443818E+02  0.00000000000E+00 0.  1.
         11    1    3    3    0    0  0.24922062127E+02  0.14270736821E+02 -0.18932025632E+01  0.28781023718E+02  0.51100000000E-03 0. -1.
        -11    1    3    3    0    0  0.70932325560E+01  0.77118627267E+01  0.13167972058E+02  0.16828020181E+02  0.51100000000E-03 0.  1.
        -12    1    3    3    0    0 -0.25827060871E+02 -0.71642176118E+01 -0.16414410377E+01  0.26852512283E+02  0.00000000000E+00 0.  1.
</event>
<event>
 7    1  0.1749439E-013  0.7246156E+02  0.7816164E-02  0.1226708E+00
        -11   -1    0    0    0    0  0.00000000000E+00  0.00000000000E+00  0.45593999997E+02  0.45594000000E+02  0.51100000000E-03 0. -1.
         11   -1    0    0    0    0 -0.00000000000E+00 -0.00000000000E+00 -0.45593999997E+02  0.45594000000E+02  0.51100000000E-03 0.  1.
    9900012    2    1    2    0    0  0.97101800483E+01 -0.14999440768E+02 -0.56043421468E+01  0.72461562250E+02  0.69999989521E+02 0.  0.
        -12    1    1    2    0    0 -0.97101800483E+01  0.14999440768E+02  0.56043421468E+01  0.18726437750E+02  0.00000000000E+00 0.  1.
         11    1    3    3    0    0 -0.13381815914E+02 -0.19034076658E+02  0.73074406229E+01  0.24387860917E+02  0.51100000000E-03 0. -1.
        -11    1    3    3    0    0  0.10996937254E+02 -0.16301793868E+02 -0.14388684736E+02  0.24366275074E+02  0.51100000000E-03 0.  1.
         12    1    3    3    0    0  0.12095058708E+02  0.20336429758E+02  0.14769019663E+01  0.23707426260E+02  0.00000000000E+00 0. -1.
</event>
<event>
 7    1  0.1749439E-013  0.7246112E+02  0.7816164E-02  0.1226709E+00
        -11   -1    0    0    0    0  0.00000000000E+00  0.00000000000E+00  0.45593999997E+02  0.45594000000E+02  0.51100000000E-03 0. -1.
         11   -1    0    0    0    0 -0.00000000000E+00 -0.00000000000E+00 -0.45593999997E+02  0.45594000000E+02  0.51100000000E-03 0.  1.
    9900012    2    1    2    0    0 -0.30393069437E+01 -0.14196834953E+01  0.18423978689E+02  0.72461124162E+02  0.69999418827E+02 0.  0.
        -12    1    1    2    0    0  0.30393069437E+01  0.14196834953E+01 -0.18423978689E+02  0.18726875838E+02  0.00000000000E+00 0.  1.
         11    1    3    3    0    0  0.58452643621E+01 -0.21972115482E+01  0.29222844533E+02  0.29882595217E+02  0.51100000000E-03 0. -1.
        -11    1    3    3    0    0  0.15540656830E+02  0.16708459489E+01  0.52976903252E+00  0.15639194237E+02  0.51100000000E-03 0.  1.
        -12    1    3    3    0    0 -0.24425228135E+02 -0.89331789602E+00 -0.11328634877E+02  0.26939334708E+02  0.00000000000E+00 0.  1.
</event>
<event>
 7    1  0.1749439E-013  0.7246159E+02  0.7816164E-02  0.1226708E+00
        -11   -1    0    0    0    0  0.00000000000E+00  0.00000000000E+00  0.45593999997E+02  0.45594000000E+02  0.51100000000E-03 0. -1.
         11   -1    0    0    0    0 -0.00000000000E+00 -0.00000000000E+00 -0.45593999997E+02  0.45594000000E+02  0.51100000000E-03 0.  1.
    9900012    2    1    2    0    0  0.46741429724E+01  0.89726834834E+01  0.15758225056E+02  0.72461593021E+02  0.70000029606E+02 0.  0.
        -12    1    1    2    0    0 -0.46741429724E+01 -0.89726834834E+01 -0.15758225056E+02  0.18726406979E+02  0.00000000000E+00 0.  1.
         11    1    3    3    0    0  0.10215214266E+02  0.20878444917E+02  0.21858572539E+02  0.31907009549E+02  0.51100000000E-03 0. -1.
        -11    1    3    3    0    0 -0.68100827941E+01  0.83264617417E+01  0.99845527364E+01  0.14676460282E+02  0.51100000000E-03 0.  1.
        -12    1    3    3    0    0  0.12690115007E+01 -0.20232223175E+02 -0.16084900219E+02  0.25878123190E+02  0.00000000000E+00 0.  1.
</event>
<event>
 7    1  0.1749439E-013  0.7246155E+02  0.7816164E-02  0.1226708E+00
        -11   -1    0    0    0    0  0.00000000000E+00  0.00000000000E+00  0.45593999997E+02  0.45594000000E+02  0.51100000000E-03 0.  1.
         11   -1    0    0    0    0 -0.00000000000E+00 -0.00000000000E+00 -0.45593999997E+02  0.45594000000E+02  0.51100000000E-03 0. -1.
    9900012    2    1    2    0    0 -0.35898091603E+00 -0.14912453101E+02 -0.11321214887E+02  0.72461547284E+02  0.69999970025E+02 0.  0.
        -12    1    1    2    0    0  0.35898091603E+00  0.14912453101E+02  0.11321214887E+02  0.18726452716E+02  0.00000000000E+00 0.  1.
         11    1    3    3    0    0  0.20422295517E+02 -0.29880236514E+02 -0.17596625158E+02  0.40243507620E+02  0.51100000000E-03 0. -1.
        -11    1    3    3    0    0 -0.82238333944E+00 -0.59964592088E+00 -0.45688104293E+01  0.46808031990E+01  0.51100000000E-03 0.  1.
        -12    1    3    3    0    0 -0.19958893093E+02  0.15567429334E+02  0.10844220700E+02  0.27537236465E+02  0.00000000000E+00 0.  1.
</event>
<event>
 7    1  0.1749439E-013  0.7246154E+02  0.7816164E-02  0.1226708E+00
        -11   -1    0    0    0    0  0.00000000000E+00  0.00000000000E+00  0.45593999997E+02  0.45594000000E+02  0.51100000000E-03 0. -1.
         11   -1    0    0    0    0 -0.00000000000E+00 -0.00000000000E+00 -0.45593999997E+02  0.45594000000E+02  0.51100000000E-03 0.  1.
    9900012    2    1    2    0    0  0.17051954908E+02  0.49636407187E+01  0.59391538214E+01  0.72461536280E+02  0.69999955689E+02 0.  0.
        -12    1    1    2    0    0 -0.17051954908E+02 -0.49636407187E+01 -0.59391538214E+01  0.18726463720E+02  0.00000000000E+00 0.  1.
         11    1    3    3    0    0  0.12991815083E+02 -0.14919626747E+02 -0.64473197484E+01  0.20807461489E+02  0.51100000000E-03 0. -1.
        -11    1    3    3    0    0 -0.60510335068E+01 -0.11293778501E+02 -0.59181009369E+01  0.14113410583E+02  0.51100000000E-03 0.  1.
         12    1    3    3    0    0  0.10111173332E+02  0.31177045966E+02  0.18304574507E+02  0.37540664208E+02  0.00000000000E+00 0. -1.
</event>
<event>
 7    1  0.1749439E-013  0.7246159E+02  0.7816164E-02  0.1226708E+00
        -11   -1    0    0    0    0  0.00000000000E+00  0.00000000000E+00  0.45593999997E+02  0.45594000000E+02  0.51100000000E-03 0.  1.
         11   -1    0    0    0    0 -0.00000000000E+00 -0.00000000000E+00 -0.45593999997E+02  0.45594000000E+02  0.51100000000E-03 0. -1.
    9900012    2    1    2    0    0  0.12499411834E+02 -0.12715151399E+02 -0.57243444422E+01  0.72461588422E+02  0.70000023614E+02 0.  0.
        -12    1    1    2    0    0 -0.12499411834E+02  0.12715151399E+02  0.57243444422E+01  0.18726411578E+02  0.00000000000E+00 0.  1.
         11    1    3    3    0    0  0.13108993748E+01  0.54263333886E+01  0.21855681641E+02  0.22557357369E+02  0.51100000000E-03 0. -1.
        -11    1    3    3    0    0  0.11670981334E+02 -0.16513749042E+02  0.19591132776E+01  0.20316344105E+02  0.51100000000E-03 0.  1.
         12    1    3    3    0    0 -0.48246887446E+00 -0.16277357460E+01 -0.29539139360E+02  0.29587886948E+02  0.00000000000E+00 0. -1.
</event>
<event>
 7    1  0.1749439E-013  0.7246156E+02  0.7816164E-02  0.1226708E+00
        -11   -1    0    0    0    0  0.00000000000E+00  0.00000000000E+00  0.45593999997E+02  0.45594000000E+02  0.51100000000E-03 0.  1.
         11   -1    0    0    0    0 -0.00000000000E+00 -0.00000000000E+00 -0.45593999997E+02  0.45594000000E+02  0.51100000000E-03 0. -1.
    9900012    2    1    2    0    0 -0.54996971144E+01  0.10495137849E+02  0.14501203118E+02  0.72461562040E+02  0.69999989247E+02 0.  0.
        -12    1    1    2    0    0  0.54996971144E+01 -0.10495137849E+02 -0.14501203118E+02  0.18726437960E+02  0.00000000000E+00 0.  1.
         11    1    3    3    0    0  0.12411306229E+02 -0.79721494809E+01  0.49013473278E+01  0.15544095199E+02  0.51100000000E-03 0. -1.
        -11    1    3    3    0    0  0.16520950831E+02  0.74962841544E+01 -0.35041408171E+01  0.18477421238E+02  0.51100000000E-03 0.  1.
        -12    1    3    3    0    0 -0.34431954174E+02  0.10971003176E+02  0.13103996607E+02  0.38440045603E+02  0.00000000000E+00 0.  1.
</event>
<event>
 7    1  0.1749439E-013  0.7246160E+02  0.7816164E-02  0.1226708E+00
        -11   -1    0    0    0    0  0.00000000000E+00  0.00000000000E+00  0.45593999997E+02  0.45594000000E+02  0.51100000000E-03 0.  1.
         11   -1    0    0    0    0 -0.00000000000E+00 -0.00000000000E+00 -0.45593999997E+02  0.45594000000E+02  0.51100000000E-03 0. -1.
    9900012    2    1    2    0    0 -0.64778162445E+00  0.11718122272E+02  0.14592602818E+02  0.72461599716E+02  0.70000038327E+02 0.  0.
        -12    1    1    2    0    0  0.64778162445E+00 -0.11718122272E+02 -0.14592602818E+02  0.18726400284E+02  0.00000000000E+00 0.  1.
         11    1    3    3    0    0 -0.75590473237E+01  0.11348860978E+02  0.15016793889E+01  0.13718268229E+02  0.51100000000E-03 0. -1.
        -11    1    3    3    0    0  0.14320614592E+02  0.19793859887E+02 -0.11110206483E+02  0.26838658310E+02  0.51100000000E-03 0.  1.
         12    1    3    3    0    0 -0.74093488932E+01 -0.19424598593E+02  0.24201129911E+02  0.31904673177E+02  0.00000000000E+00 0. -1.
</event>
<event>
 7    1  0.1749439E-013  0.7246158E+02  0.7816164E-02  0.1226708E+00
        -11   -1    0    0    0    0  0.00000000000E+00  0.00000000000E+00  0.45593999997E+02  0.45594000000E+02  0.51100000000E-03 0.  1.
         11   -1    0    0    0    0 -0.00000000000E+00 -0.00000000000E+00 -0.45593999997E+02  0.45594000000E+02  0.51100000000E-03 0. -1.
    9900012    2    1    2    0    0 -0.36309408239E+01  0.16757493369E+02  0.75287024802E+01  0.72461583463E+02  0.70000017155E+02 0.  0.
        -12    1    1    2    0    0  0.36309408239E+01 -0.16757493369E+02 -0.75287024802E+01  0.18726416537E+02  0.00000000000E+00 0.  1.
         11    1    3    3    0    0  0.12318197833E+02 -0.69140974004E+01 -0.15568633020E+02  0.21022014058E+02  0.51100000000E-03 0.  1.
        -11    1    3    3    0    0 -0.15940269082E+01  0.17910705128E+02 -0.56048545094E+01  0.18834773009E+02  0.51100000000E-03 0. -1.
         12    1    3    3    0    0 -0.14355111748E+02  0.57608856411E+01  0.28702190009E+02  0.32604796396E+02  0.00000000000E+00 0. -1.
</event>
<event>
 7    1  0.1749439E-013  0.7246155E+02  0.7816164E-02  0.1226708E+00
        -11   -1    0    0    0    0  0.00000000000E+00  0.00000000000E+00  0.45593999997E+02  0.45594000000E+02  0.51100000000E-03 0.  1.
         11   -1    0    0    0    0 -0.00000000000E+00 -0.00000000000E+00 -0.45593999997E+02  0.45594000000E+02  0.51100000000E-03 0. -1.
    9900012    2    1    2    0    0 -0.18051897387E+02  0.24150502647E+01 -0.43561898870E+01  0.72461551928E+02  0.69999976075E+02 0.  0.
        -12    1    1    2    0    0  0.18051897387E+02 -0.24150502647E+01  0.43561898870E+01  0.18726448072E+02  0.00000000000E+00 0.  1.
         11    1    3    3    0    0 -0.24914186017E+02 -0.47920731349E+01 -0.27423281792E+02  0.37359296224E+02  0.51100000000E-03 0. -1.
        -11    1    3    3    0    0  0.45315085268E+01  0.11570759760E+01 -0.46748983186E+01  0.66127202340E+01  0.51100000000E-03 0.  1.
        -12    1    3    3    0    0  0.23307801032E+01  0.60500474236E+01  0.27741990224E+02  0.28489535470E+02  0.00000000000E+00 0.  1.
</event>
<event>
 7    1  0.1749439E-013  0.7246154E+02  0.7816164E-02  0.1226708E+00
        -11   -1    0    0    0    0  0.00000000000E+00  0.00000000000E+00  0.45593999997E+02  0.45594000000E+02  0.51100000000E-03 0.  1.
         11   -1    0    0    0    0 -0.00000000000E+00 -0.00000000000E+00 -0.45593999997E+02  0.45594000000E+02  0.51100000000E-03 0. -1.
    9900012    2    1    2    0    0  0.61155302422E+01  0.16524602489E+02  0.63417686735E+01  0.72461542047E+02  0.69999963203E+02 0.  0.
        -12    1    1    2    0    0 -0.61155302422E+01 -0.16524602489E+02 -0.63417686735E+01  0.18726457953E+02  0.00000000000E+00 0.  1.
         11    1    3    3    0    0  0.41734344638E+01  0.13056580030E+02 -0.35291298587E+01  0.14154384308E+02  0.51100000000E-03 0. -1.
        -11    1    3    3    0    0  0.22267678784E+02  0.67078889502E+01 -0.13718538283E+02  0.27000807127E+02  0.51100000000E-03 0.  1.
        -12    1    3    3    0    0 -0.20325583006E+02 -0.32398664915E+01  0.23589436815E+02  0.31306350613E+02  0.00000000000E+00 0.  1.
</event>
<event>
 7    1  0.1749439E-013  0.7246157E+02  0.7816164E-02  0.1226708E+00
        -11   -1    0    0    0    0  0.00000000000E+00  0.00000000000E+00  0.45593999997E+02  0.45594000000E+02  0.51100000000E-03 0.  1.
         11   -1    0    0    0    0 -0.00000000000E+00 -0.00000000000E+00 -0.45593999997E+02  0.45594000000E+02  0.51100000000E-03 0. -1.
    9900012    2    1    2    0    0  0.24485156151E+01 -0.15983312429E+02 -0.94455087929E+01  0.72461571048E+02  0.70000000982E+02 0.  0.
        -12    1    1    2    0    0 -0.24485156151E+01  0.15983312429E+02  0.94455087929E+01  0.18726428952E+02  0.00000000000E+00 0.  1.
         11    1    3    3    0    0 -0.14240246452E+02 -0.87848186544E+01 -0.15323887842E+02  0.22688746036E+02  0.51100000000E-03 0. -1.
        -11    1    3    3    0    0 -0.12360310684E+02 -0.14457142997E+02  0.56050976930E+01  0.19829356627E+02  0.51100000000E-03 0.  1.
        -12    1    3    3    0    0  0.29049072751E+02  0.72586492220E+01  0.27328135615E+00  0.29943468385E+02  0.00000000000E+00 0.  1.
</event>
<event>
 7    1  0.1749439E-013  0.7246148E+02  0.7816164E-02  0.1226708E+00
        -11   -1    0    0    0    0  0.00000000000E+00  0.00000000000E+00  0.45593999997E+02  0.45594000000E+02  0.51100000000E-03 0.  1.
         11   -1    0    0    0    0 -0.00000000000E+00 -0.00000000000E+00 -0.45593999997E+02  0.45594000000E+02  0.51100000000E-03 0. -1.
    9900012    2    1    2    0    0 -0.94340514747E+01 -0.14367724366E+02 -0.74330107877E+01  0.72461481902E+02  0.69999884853E+02 0.  0.
        -12    1    1    2    0    0  0.94340514747E+01  0.14367724366E+02  0.74330107877E+01  0.18726518098E+02  0.00000000000E+00 0.  1.
         11    1    3    3    0    0 -0.33647825464E+01 -0.12560394053E+01 -0.10767161194E+02  0.11350381360E+02  0.51100000000E-03 0. -1.
        -11    1    3    3    0    0  0.15507313373E+02 -0.15825212044E+02 -0.19545411071E+02  0.29545510631E+02  0.51100000000E-03 0.  1.
         12    1    3    3    0    0 -0.21576582301E+02  0.27135270832E+01  0.22879561477E+02  0.31565589911E+02  0.00000000000E+00 0. -1.
</event>
<event>
 7    1  0.1749439E-013  0.7246157E+02  0.7816164E-02  0.1226708E+00
        -11   -1    0    0    0    0  0.00000000000E+00  0.00000000000E+00  0.45593999997E+02  0.45594000000E+02  0.51100000000E-03 0.  1.
         11   -1    0    0    0    0 -0.00000000000E+00 -0.00000000000E+00 -0.45593999997E+02  0.45594000000E+02  0.51100000000E-03 0. -1.
    9900012    2    1    2    0    0 -0.14629011286E+02 -0.42202960056E+01 -0.10902315014E+02  0.72461565682E+02  0.69999993992E+02 0.  0.
        -12    1    1    2    0    0  0.14629011286E+02  0.42202960056E+01  0.10902315014E+02  0.18726434318E+02  0.00000000000E+00 0.  1.
         11    1    3    3    0    0  0.47701431603E+01 -0.89568534132E+01 -0.94713031229E+01  0.13881104853E+02  0.51100000000E-03 0. -1.
        -11    1    3    3    0    0 -0.18740627450E+01 -0.32100334023E+01  0.25340083507E+02  0.25611252566E+02  0.51100000000E-03 0.  1.
         12    1    3    3    0    0 -0.17525091702E+02  0.79465908100E+01 -0.26771095398E+02  0.32969208263E+02  0.00000000000E+00 0. -1.
</event>
<event>
 7    1  0.1749439E-013  0.7246159E+02  0.7816164E-02  0.1226708E+00
        -11   -1    0    0    0    0  0.00000000000E+00  0.00000000000E+00  0.45593999997E+02  0.45594000000E+02  0.51100000000E-03 0. -1.
         11   -1    0    0    0    0 -0.00000000000E+00 -0.00000000000E+00 -0.45593999997E+02  0.45594000000E+02  0.51100000000E-03 0.  1.
    9900012    2    1    2    0    0 -0.10492283730E+02  0.15413415162E+02  0.17370170716E+01  0.72461585150E+02  0.70000019352E+02 0.  0.
        -12    1    1    2    0    0  0.10492283730E+02 -0.15413415162E+02 -0.17370170716E+01  0.18726414850E+02  0.00000000000E+00 0.  1.
         11    1    3    3    0    0 -0.33798377807E-01  0.15042216222E+02  0.23069448560E+02  0.27540313512E+02  0.51100000000E-03 0. -1.
        -11    1    3    3    0    0  0.64346487678E+01 -0.13293334768E+02 -0.43536892148E+00  0.14775215747E+02  0.51100000000E-03 0.  1.
         12    1    3    3    0    0 -0.16893134120E+02  0.13664533708E+02 -0.20897062567E+02  0.30146055891E+02  0.00000000000E+00 0. -1.
</event>
<event>
 7    1  0.1749439E-013  0.7246155E+02  0.7816164E-02  0.1226708E+00
        -11   -1    0    0    0    0  0.00000000000E+00  0.00000000000E+00  0.45593999997E+02  0.45594000000E+02  0.51100000000E-03 0. -1.
         11   -1    0    0    0    0 -0.00000000000E+00 -0.00000000000E+00 -0.45593999997E+02  0.45594000000E+02  0.51100000000E-03 0.  1.
    9900012    2    1    2    0    0 -0.11566655150E+02 -0.95849443489E+01  0.11181292795E+02  0.72461548705E+02  0.69999971876E+02 0.  0.
        -12    1    1    2    0    0  0.11566655150E+02  0.95849443489E+01 -0.11181292795E+02  0.18726451295E+02  0.00000000000E+00 0.  1.
         11    1    3    3    0    0 -0.18807371263E+02  0.40208828223E+01 -0.28355980879E+01  0.19440301676E+02  0.51100000000E-03 0. -1.
        -11    1    3    3    0    0 -0.11414605969E+02 -0.14764521835E+02 -0.11099110948E+02  0.21713465835E+02  0.51100000000E-03 0.  1.
         12    1    3    3    0    0  0.18655322082E+02  0.11586946642E+01  0.25116001831E+02  0.31307781194E+02  0.00000000000E+00 0. -1.
</event>
<event>
 7    1  0.1749439E-013  0.7246152E+02  0.7816164E-02  0.1226708E+00
        -11   -1    0    0    0    0  0.00000000000E+00  0.00000000000E+00  0.45593999997E+02  0.45594000000E+02  0.51100000000E-03 0.  1.
         11   -1    0    0    0    0 -0.00000000000E+00 -0.00000000000E+00 -0.45593999997E+02  0.45594000000E+02  0.51100000000E-03 0. -1.
    9900012    2    1    2    0    0 -0.58346517926E+01  0.15005845641E+02 -0.95636012211E+01  0.72461520532E+02  0.69999935175E+02 0.  0.
        -12    1    1    2    0    0  0.58346517926E+01 -0.15005845641E+02  0.95636012211E+01  0.18726479468E+02  0.00000000000E+00 0.  1.
         11    1    3    3    0    0 -0.33823689827E+01  0.27233967875E+01  0.14920705334E+01  0.45916864805E+01  0.51100000000E-03 0. -1.
        -11    1    3    3    0    0 -0.33073916599E+02  0.52656588658E+00 -0.11633027130E+02  0.35064063531E+02  0.51100000000E-03 0.  1.
         12    1    3    3    0    0  0.30621633789E+02  0.11755882967E+02  0.57735537513E+00  0.32805770521E+02  0.00000000000E+00 0. -1.
</event>
<event>
 7    1  0.1749439E-013  0.7246157E+02  0.7816164E-02  0.1226708E+00
        -11   -1    0    0    0    0  0.00000000000E+00  0.00000000000E+00  0.45593999997E+02  0.45594000000E+02  0.51100000000E-03 0. -1.
         11   -1    0    0    0    0 -0.00000000000E+00 -0.00000000000E+00 -0.45593999997E+02  0.45594000000E+02  0.51100000000E-03 0.  1.
    9900012    2    1    2    0    0  0.17372752132E+00  0.18379239696E+02  0.35850375358E+01  0.72461571425E+02  0.70000001473E+02 0.  0.
        -12    1    1    2    0    0 -0.17372752132E+00 -0.18379239696E+02 -0.35850375358E+01  0.18726428575E+02  0.00000000000E+00 0.  1.
         11    1    3    3    0    0  0.19549579548E+02  0.14565244118E+02  0.24927243705E+02  0.34866887956E+02  0.51100000000E-03 0. -1.
        -11    1    3    3    0    0 -0.21172726952E+01 -0.15136221550E+01  0.50105147849E+01  0.56461628001E+01  0.51100000000E-03 0.  1.
        -12    1    3    3    0    0 -0.17258579331E+02  0.53276177322E+01 -0.26352720955E+02  0.31948520669E+02  0.00000000000E+00 0.  1.
</event>
<event>
 7    1  0.1749439E-013  0.7246149E+02  0.7816164E-02  0.1226708E+00
        -11   -1    0    0    0    0  0.00000000000E+00  0.00000000000E+00  0.45593999997E+02  0.45594000000E+02  0.51100000000E-03 0.  1.
         11   -1    0    0    0    0 -0.00000000000E+00 -0.00000000000E+00 -0.45593999997E+02  0.45594000000E+02  0.51100000000E-03 0. -1.
    9900012    2    1    2    0    0  0.52684511525E+01  0.38131340596E+01 -0.17560915720E+02  0.72461485914E+02  0.69999890078E+02 0.  0.
        -12    1    1    2    0    0 -0.52684511525E+01 -0.38131340596E+01  0.17560915720E+02  0.18726514086E+02  0.00000000000E+00 0.  1.
         11    1    3    3    0    0 -0.21420336855E+02  0.16603220099E+01 -0.67472685505E+01  0.22519172571E+02  0.51100000000E-03 0. -1.
        -11    1    3    3    0    0  0.31898748728E+01  0.19058572214E+02 -0.90385679570E+00  0.19344803796E+02  0.51100000000E-03 0.  1.
        -12    1    3    3    0    0  0.23498913134E+02 -0.16905760164E+02 -0.99097903738E+01  0.30597509547E+02  0.00000000000E+00 0.  1.
</event>
<event>
 7    1  0.1749439E-013  0.7246162E+02  0.7816164E-02  0.1226708E+00
        -11   -1    0    0    0    0  0.00000000000E+00  0.00000000000E+00  0.45593999997E+02  0.45594000000E+02  0.51100000000E-03 0.  1.
         11   -1    0    0    0    0 -0.00000000000E+00 -0.00000000000E+00 -0.45593999997E+02  0.45594000000E+02  0.51100000000E-03 0. -1.
    9900012    2    1    2    0    0 -0.80483227776E+01 -0.10639180344E+02 -0.13141906251E+02  0.72461618667E+02  0.70000063014E+02 0.  0.
        -12    1    1    2    0    0  0.80483227776E+01  0.10639180344E+02  0.13141906251E+02  0.18726381333E+02  0.00000000000E+00 0.  1.
         11    1    3    3    0    0  0.84468704462E+01 -0.26082746739E+01 -0.44889359813E+01  0.99148002307E+01  0.51100000000E-03 0. -1.
        -11    1    3    3    0    0 -0.46620462287E+01 -0.27496238496E+02  0.13311399264E+02  0.30902607609E+02  0.51100000000E-03 0.  1.
        -12    1    3    3    0    0 -0.11833146995E+02  0.19465332826E+02 -0.21964369534E+02  0.31644210827E+02  0.00000000000E+00 0.  1.
</event>
<event>
 7    1  0.1749439E-013  0.7246172E+02  0.7816164E-02  0.1226708E+00
        -11   -1    0    0    0    0  0.00000000000E+00  0.00000000000E+00  0.45593999997E+02  0.45594000000E+02  0.51100000000E-03 0.  1.
         11   -1    0    0    0    0 -0.00000000000E+00 -0.00000000000E+00 -0.45593999997E+02  0.45594000000E+02  0.51100000000E-03 0. -1.
    9900012    2    1    2    0    0 -0.69940612320E+01 -0.21557962225E+00 -0.17369804097E+02  0.72461722701E+02  0.70000198538E+02 0.  0.
        -12    1    1    2    0    0  0.69940612320E+01  0.21557962225E+00  0.17369804097E+02  0.18726277299E+02  0.00000000000E+00 0.  1.
         11    1    3    3    0    0  0.24474628252E+02  0.98868156235E+01 -0.42964630771E+01  0.26743525319E+02  0.51100000000E-03 0. -1.
        -11    1    3    3    0    0 -0.29947894159E+01 -0.55132730487E+01  0.78772945614E+01  0.10070586538E+02  0.51100000000E-03 0.  1.
        -12    1    3    3    0    0 -0.28473900068E+02 -0.45891221970E+01 -0.20950635581E+02  0.35647610844E+02  0.00000000000E+00 0.  1.
</event>
<event>
 7    1  0.1749439E-013  0.7246157E+02  0.7816164E-02  0.1226708E+00
        -11   -1    0    0    0    0  0.00000000000E+00  0.00000000000E+00  0.45593999997E+02  0.45594000000E+02  0.51100000000E-03 0.  1.
         11   -1    0    0    0    0 -0.00000000000E+00 -0.00000000000E+00 -0.45593999997E+02  0.45594000000E+02  0.51100000000E-03 0. -1.
    9900012    2    1    2    0    0 -0.10481853827E+01  0.63236243961E+01 -0.17595230368E+02  0.72461573490E+02  0.70000004164E+02 0.  0.
        -12    1    1    2    0    0  0.10481853827E+01 -0.63236243961E+01  0.17595230368E+02  0.18726426510E+02  0.00000000000E+00 0.  1.
         11    1    3    3    0    0  0.18146609461E+01  0.24220324757E+01 -0.51160821518E+01  0.59442015871E+01  0.51100000000E-03 0. -1.
        -11    1    3    3    0    0  0.28717314113E+02  0.14177149493E+02 -0.79683982538E+01  0.33002591847E+02  0.51100000000E-03 0.  1.
         12    1    3    3    0    0 -0.31580160442E+02 -0.10275557573E+02 -0.45107499628E+01  0.33514780056E+02  0.00000000000E+00 0. -1.
</event>
<event>
 7    1  0.1749439E-013  0.7246155E+02  0.7816164E-02  0.1226708E+00
        -11   -1    0    0    0    0  0.00000000000E+00  0.00000000000E+00  0.45593999997E+02  0.45594000000E+02  0.51100000000E-03 0.  1.
         11   -1    0    0    0    0 -0.00000000000E+00 -0.00000000000E+00 -0.45593999997E+02  0.45594000000E+02  0.51100000000E-03 0. -1.
    9900012    2    1    2    0    0  0.18436990179E+02 -0.19028305155E+01  0.26714331192E+01  0.72461550103E+02  0.69999973697E+02 0.  0.
        -12    1    1    2    0    0 -0.18436990179E+02  0.19028305155E+01 -0.26714331192E+01  0.18726449897E+02  0.00000000000E+00 0.  1.
         11    1    3    3    0    0  0.22822467245E-01 -0.36858586646E+01  0.17590729665E+01  0.40841661233E+01  0.51100000000E-03 0. -1.
        -11    1    3    3    0    0 -0.21049840194E+02  0.15337186163E+02 -0.40459248863E+01  0.26357059017E+02  0.51100000000E-03 0.  1.
         12    1    3    3    0    0  0.39464007906E+02 -0.13554158014E+02  0.49582850390E+01  0.42020324963E+02  0.00000000000E+00 0. -1.
</event>
<event>
 7    1  0.1749439E-013  0.7246158E+02  0.7816164E-02  0.1226708E+00
        -11   -1    0    0    0    0  0.00000000000E+00  0.00000000000E+00  0.45593999997E+02  0.45594000000E+02  0.51100000000E-03 0.  1.
         11   -1    0    0    0    0 -0.00000000000E+00 -0.00000000000E+00 -0.45593999997E+02  0.45594000000E+02  0.51100000000E-03 0. -1.
    9900012    2    1    2    0    0  0.25420125569E+01  0.22300754430E+01 -0.18418570522E+02  0.72461580043E+02  0.70000012699E+02 0.  0.
        -12    1    1    2    0    0 -0.25420125569E+01 -0.22300754430E+01  0.18418570522E+02  0.18726419957E+02  0.00000000000E+00 0.  1.
         11    1    3    3    0    0 -0.73601759353E+01 -0.11015373276E+02 -0.12504187490E+02  0.18217171659E+02  0.51100000000E-03 0. -1.
        -11    1    3    3    0    0  0.32851620273E+01 -0.52702259205E+01 -0.25646763888E+02  0.26387953103E+02  0.51100000000E-03 0.  1.
        -12    1    3    3    0    0  0.66170264649E+01  0.18515674639E+02  0.19732380856E+02  0.27856455281E+02  0.00000000000E+00 0.  1.
</event>
<event>
 7    1  0.1749439E-013  0.7246158E+02  0.7816164E-02  0.1226708E+00
        -11   -1    0    0    0    0  0.00000000000E+00  0.00000000000E+00  0.45593999997E+02  0.45594000000E+02  0.51100000000E-03 0.  1.
         11   -1    0    0    0    0 -0.00000000000E+00 -0.00000000000E+00 -0.45593999997E+02  0.45594000000E+02  0.51100000000E-03 0. -1.
    9900012    2    1    2    0    0  0.11627725702E+02 -0.13681238444E+02 -0.53196468792E+01  0.72461576602E+02  0.70000008217E+02 0.  0.
        -12    1    1    2    0    0 -0.11627725702E+02  0.13681238444E+02  0.53196468792E+01  0.18726423398E+02  0.00000000000E+00 0.  1.
         11    1    3    3    0    0 -0.14376429828E+02  0.77204671775E+01  0.13483072451E+02  0.21167914187E+02  0.51100000000E-03 0. -1.
        -11    1    3    3    0    0  0.26227637874E+02 -0.36747227671E+01 -0.15080480670E+01  0.26526718325E+02  0.51100000000E-03 0.  1.
        -12    1    3    3    0    0 -0.22348234417E+00 -0.17726982854E+02 -0.17294671263E+02  0.24766944090E+02  0.00000000000E+00 0.  1.
</event>
<event>
 7    1  0.1749439E-013  0.7246158E+02  0.7816164E-02  0.1226708E+00
        -11   -1    0    0    0    0  0.00000000000E+00  0.00000000000E+00  0.45593999997E+02  0.45594000000E+02  0.51100000000E-03 0.  1.
         11   -1    0    0    0    0 -0.00000000000E+00 -0.00000000000E+00 -0.45593999997E+02  0.45594000000E+02  0.51100000000E-03 0. -1.
    9900012    2    1    2    0    0  0.79625184469E+01 -0.12614100763E+02 -0.11320847777E+02  0.72461579294E+02  0.70000011724E+02 0.  0.
        -12    1    1    2    0    0 -0.79625184469E+01  0.12614100763E+02  0.11320847777E+02  0.18726420706E+02  0.00000000000E+00 0.  1.
         11    1    3    3    0    0 -0.45712445132E+01 -0.28419714898E+01  0.17121027272E+02  0.17947218544E+02  0.51100000000E-03 0. -1.
        -11    1    3    3    0    0  0.60930013708E+01  0.41513991754E+01  0.10402507926E+02  0.12750331456E+02  0.51100000000E-03 0.  1.
         12    1    3    3    0    0  0.64407615894E+01 -0.13923528448E+02 -0.38844382974E+02  0.41764029295E+02  0.00000000000E+00 0. -1.
</event>
<event>
 7    1  0.1749439E-013  0.7246135E+02  0.7816164E-02  0.1226709E+00
        -11   -1    0    0    0    0  0.00000000000E+00  0.00000000000E+00  0.45593999997E+02  0.45594000000E+02  0.51100000000E-03 0. -1.
         11   -1    0    0    0    0 -0.00000000000E+00 -0.00000000000E+00 -0.45593999997E+02  0.45594000000E+02  0.51100000000E-03 0.  1.
    9900012    2    1    2    0    0  0.82070097079E+01 -0.81923912807E+01  0.14704320055E+02  0.72461352903E+02  0.69999716806E+02 0.  0.
        -12    1    1    2    0    0 -0.82070097079E+01  0.81923912807E+01 -0.14704320055E+02  0.18726647097E+02  0.00000000000E+00 0.  1.
         11    1    3    3    0    0  0.58539985045E+01  0.40760382977E+01  0.72005564766E+01  0.10135649981E+02  0.51100000000E-03 0. -1.
        -11    1    3    3    0    0 -0.38347100383E-02  0.23458018317E+02 -0.57410598433E+01  0.24150329324E+02  0.51100000000E-03 0.  1.
         12    1    3    3    0    0  0.23568459135E+01 -0.35726447895E+02  0.13244823421E+02  0.38175373598E+02  0.00000000000E+00 0. -1.
</event>
<event>
 7    1  0.1749439E-013  0.7246156E+02  0.7816164E-02  0.1226708E+00
        -11   -1    0    0    0    0  0.00000000000E+00  0.00000000000E+00  0.45593999997E+02  0.45594000000E+02  0.51100000000E-03 0. -1.
         11   -1    0    0    0    0 -0.00000000000E+00 -0.00000000000E+00 -0.45593999997E+02  0.45594000000E+02  0.51100000000E-03 0.  1.
    9900012    2    1    2    0    0 -0.99287127268E+01  0.13829109536E+02  0.78010197626E+01  0.72461561035E+02  0.69999987938E+02 0.  0.
        -12    1    1    2    0    0  0.99287127268E+01 -0.13829109536E+02 -0.78010197626E+01  0.18726438965E+02  0.00000000000E+00 0.  1.
         11    1    3    3    0    0  0.17062001472E+02 -0.75271460901E+01  0.71585721454E+01  0.19975359269E+02  0.51100000000E-03 0. -1.
        -11    1    3    3    0    0 -0.13263854777E+02  0.19670706627E+01  0.18441912338E+02  0.22801389025E+02  0.51100000000E-03 0.  1.
        -12    1    3    3    0    0 -0.13726859422E+02  0.19389184963E+02 -0.17799464721E+02  0.29684812741E+02  0.00000000000E+00 0.  1.
</event>
<event>
 7    1  0.1749439E-013  0.7246158E+02  0.7816164E-02  0.1226708E+00
        -11   -1    0    0    0    0  0.00000000000E+00  0.00000000000E+00  0.45593999997E+02  0.45594000000E+02  0.51100000000E-03 0.  1.
         11   -1    0    0    0    0 -0.00000000000E+00 -0.00000000000E+00 -0.45593999997E+02  0.45594000000E+02  0.51100000000E-03 0. -1.
    9900012    2    1    2    0    0 -0.14551150277E+02  0.51371151485E+01 -0.10609101903E+02  0.72461575631E+02  0.70000006952E+02 0.  0.
        -12    1    1    2    0    0  0.14551150277E+02 -0.51371151485E+01  0.10609101903E+02  0.18726424369E+02  0.00000000000E+00 0.  1.
         11    1    3    3    0    0 -0.28835578200E+02 -0.50354215667E+01 -0.10774173698E+02  0.31191807572E+02  0.51100000000E-03 0. -1.
        -11    1    3    3    0    0 -0.60767846355E+01 -0.10309601049E+02 -0.26340282683E+01  0.12253705173E+02  0.51100000000E-03 0.  1.
         12    1    3    3    0    0  0.20361212558E+02  0.20482137764E+02  0.27991000629E+01  0.29016062886E+02  0.00000000000E+00 0. -1.
</event>
<event>
 7    1  0.1749439E-013  0.7246163E+02  0.7816164E-02  0.1226708E+00
        -11   -1    0    0    0    0  0.00000000000E+00  0.00000000000E+00  0.45593999997E+02  0.45594000000E+02  0.51100000000E-03 0. -1.
         11   -1    0    0    0    0 -0.00000000000E+00 -0.00000000000E+00 -0.45593999997E+02  0.45594000000E+02  0.51100000000E-03 0.  1.
    9900012    2    1    2    0    0 -0.13643651418E+02  0.11619438818E+02  0.54328989589E+01  0.72461628927E+02  0.70000076380E+02 0.  0.
        -12    1    1    2    0    0  0.13643651418E+02 -0.11619438818E+02 -0.54328989589E+01  0.18726371073E+02  0.00000000000E+00 0.  1.
         11    1    3    3    0    0  0.91888162960E+01 -0.11686090172E+01  0.17765340210E+02  0.20035151733E+02  0.51100000000E-03 0. -1.
        -11    1    3    3    0    0  0.77716416464E+01  0.18152913878E+02 -0.66792364152E+01  0.20845596549E+02  0.51100000000E-03 0.  1.
        -12    1    3    3    0    0 -0.30604109360E+02 -0.53648660427E+01 -0.56532048356E+01  0.31580880645E+02  0.00000000000E+00 0.  1.
</event>
<event>
 7    1  0.1749439E-013  0.7246127E+02  0.7816164E-02  0.1226709E+00
        -11   -1    0    0    0    0  0.00000000000E+00  0.00000000000E+00  0.45593999997E+02  0.45594000000E+02  0.51100000000E-03 0. -1.
         11   -1    0    0    0    0 -0.00000000000E+00 -0.00000000000E+00 -0.45593999997E+02  0.45594000000E+02  0.51100000000E-03 0.  1.
    9900012    2    1    2    0    0  0.11411345111E+02  0.10534282486E+02 -0.10464243158E+02  0.72461273388E+02  0.69999613223E+02 0.  0.
        -12    1    1    2    0    0 -0.11411345111E+02 -0.10534282486E+02  0.10464243158E+02  0.18726726612E+02  0.00000000000E+00 0.  1.
         11    1    3    3    0    0 -0.99780776673E+01  0.33133047287E+02 -0.52818366853E+01  0.35003694883E+02  0.51100000000E-03 0. -1.
        -11    1    3    3    0    0  0.94200595238E+01  0.15118451797E+01 -0.44552577849E+01  0.10529602057E+02  0.51100000000E-03 0.  1.
        -12    1    3    3    0    0  0.11969363254E+02 -0.24110609981E+02 -0.72714868798E+00  0.26927976448E+02  0.00000000000E+00 0.  1.
</event>
<event>
 7    1  0.1749439E-013  0.7246159E+02  0.7816164E-02  0.1226708E+00
        -11   -1    0    0    0    0  0.00000000000E+00  0.00000000000E+00  0.45593999997E+02  0.45594000000E+02  0.51100000000E-03 0.  1.
         11   -1    0    0    0    0 -0.00000000000E+00 -0.00000000000E+00 -0.45593999997E+02  0.45594000000E+02  0.51100000000E-03 0. -1.
    9900012    2    1    2    0    0  0.15516042212E+02  0.16625382869E-01 -0.10484773454E+02  0.72461593064E+02  0.70000029662E+02 0.  0.
        -12    1    1    2    0    0 -0.15516042212E+02 -0.16625382869E-01  0.10484773454E+02  0.18726406936E+02  0.00000000000E+00 0.  1.
         11    1    3    3    0    0  0.18128871406E+02  0.92240512715E+01 -0.55324370249E+00  0.20348100136E+02  0.51100000000E-03 0. -1.
        -11    1    3    3    0    0  0.12625650992E+02  0.90249655194E+01  0.12123456181E+02  0.19693533346E+02  0.51100000000E-03 0.  1.
        -12    1    3    3    0    0 -0.15238480186E+02 -0.18232391408E+02 -0.22054985933E+02  0.32419959583E+02  0.00000000000E+00 0.  1.
</event>
<event>
 7    1  0.1749439E-013  0.7246151E+02  0.7816164E-02  0.1226708E+00
        -11   -1    0    0    0    0  0.00000000000E+00  0.00000000000E+00  0.45593999997E+02  0.45594000000E+02  0.51100000000E-03 0.  1.
         11   -1    0    0    0    0 -0.00000000000E+00 -0.00000000000E+00 -0.45593999997E+02  0.45594000000E+02  0.51100000000E-03 0. -1.
    9900012    2    1    2    0    0  0.88124664560E+01  0.16324266284E+02  0.25573444565E+01  0.72461514868E+02  0.69999927797E+02 0.  0.
        -12    1    1    2    0    0 -0.88124664560E+01 -0.16324266284E+02 -0.25573444565E+01  0.18726485132E+02  0.00000000000E+00 0.  1.
         11    1    3    3    0    0  0.15786698469E+02 -0.95838964112E+01 -0.13205842833E+02  0.22703858795E+02  0.51100000000E-03 0. -1.
        -11    1    3    3    0    0  0.33215614012E+01 -0.27727563474E+01 -0.93289139588E+01  0.10283461665E+02  0.51100000000E-03 0.  1.
        -12    1    3    3    0    0 -0.10295793414E+02  0.28680919042E+02  0.25092101248E+02  0.39474194408E+02  0.00000000000E+00 0.  1.
</event>
<event>
 7    1  0.1749439E-013  0.7246119E+02  0.7816164E-02  0.1226709E+00
        -11   -1    0    0    0    0  0.00000000000E+00  0.00000000000E+00  0.45593999997E+02  0.45594000000E+02  0.51100000000E-03 0.  1.
         11   -1    0    0    0    0 -0.00000000000E+00 -0.00000000000E+00 -0.45593999997E+02  0.45594000000E+02  0.51100000000E-03 0. -1.
    9900012    2    1    2    0    0 -0.10898895964E+02  0.14997581220E+02 -0.26419561671E+01  0.72461192796E+02  0.69999508236E+02 0.  0.
        -12    1    1    2    0    0  0.10898895964E+02 -0.14997581220E+02  0.26419561671E+01  0.18726807204E+02  0.00000000000E+00 0.  1.
         11    1    3    3    0    0 -0.73116009303E+01  0.16637473500E+02 -0.12136409045E+02  0.21853088051E+02  0.51100000000E-03 0. -1.
        -11    1    3    3    0    0 -0.86146754791E+01  0.80689758475E+01 -0.17713334706E+02  0.21285751843E+02  0.51100000000E-03 0.  1.
        -12    1    3    3    0    0  0.50273804452E+01 -0.97088681274E+01  0.27207787584E+02  0.29322352901E+02  0.00000000000E+00 0.  1.
</event>
<event>
 7    1  0.1749439E-013  0.7246163E+02  0.7816164E-02  0.1226708E+00
        -11   -1    0    0    0    0  0.00000000000E+00  0.00000000000E+00  0.45593999997E+02  0.45594000000E+02  0.51100000000E-03 0. -1.
         11   -1    0    0    0    0 -0.00000000000E+00 -0.00000000000E+00 -0.45593999997E+02  0.45594000000E+02  0.51100000000E-03 0.  1.
    9900012    2    1    2    0    0  0.15402434609E+02  0.30180180381E+01 -0.10214376794E+02  0.72461630409E+02  0.70000078310E+02 0.  0.
        -12    1    1    2    0    0 -0.15402434609E+02 -0.30180180381E+01  0.10214376794E+02  0.18726369591E+02  0.00000000000E+00 0.  1.
         11    1    3    3    0    0  0.25730201091E+02  0.22293400915E+02  0.13596154851E+01  0.34071799586E+02  0.51100000000E-03 0. -1.
        -11    1    3    3    0    0  0.93439365708E+01 -0.12170125795E+02 -0.23173633276E+01  0.15517451001E+02  0.51100000000E-03 0.  1.
        -12    1    3    3    0    0 -0.19671703052E+02 -0.71052570815E+01 -0.92566289512E+01  0.22872379822E+02  0.00000000000E+00 0.  1.
</event>
<event>
 7    1  0.1749439E-013  0.7246158E+02  0.7816164E-02  0.1226708E+00
        -11   -1    0    0    0    0  0.00000000000E+00  0.00000000000E+00  0.45593999997E+02  0.45594000000E+02  0.51100000000E-03 0.  1.
         11   -1    0    0    0    0 -0.00000000000E+00 -0.00000000000E+00 -0.45593999997E+02  0.45594000000E+02  0.51100000000E-03 0. -1.
    9900012    2    1    2    0    0  0.21250993626E+01  0.27847141552E+01 -0.18395873476E+02  0.72461579061E+02  0.70000011420E+02 0.  0.
        -12    1    1    2    0    0 -0.21250993626E+01 -0.27847141552E+01  0.18395873476E+02  0.18726420939E+02  0.00000000000E+00 0.  1.
         11    1    3    3    0    0 -0.97048027254E+01  0.18378971224E+02  0.23851472165E+01  0.20920294135E+02  0.51100000000E-03 0. -1.
        -11    1    3    3    0    0  0.59846544662E+00  0.98647468083E+01  0.70855380527E+01  0.12160437502E+02  0.51100000000E-03 0.  1.
        -12    1    3    3    0    0  0.11231436641E+02 -0.25459003878E+02 -0.27866558746E+02  0.39380847423E+02  0.00000000000E+00 0.  1.
</event>
<event>
 7    1  0.1749439E-013  0.7246157E+02  0.7816164E-02  0.1226708E+00
        -11   -1    0    0    0    0  0.00000000000E+00  0.00000000000E+00  0.45593999997E+02  0.45594000000E+02  0.51100000000E-03 0.  1.
         11   -1    0    0    0    0 -0.00000000000E+00 -0.00000000000E+00 -0.45593999997E+02  0.45594000000E+02  0.51100000000E-03 0. -1.
    9900012    2    1    2    0    0 -0.13916313096E+01 -0.14419023441E+02 -0.11867363772E+02  0.72461569545E+02  0.69999999024E+02 0.  0.
        -12    1    1    2    0    0  0.13916313096E+01  0.14419023441E+02  0.11867363772E+02  0.18726430455E+02  0.00000000000E+00 0.  1.
         11    1    3    3    0    0  0.69257538162E+01 -0.31802049596E+02  0.37118576091E+01  0.32758423521E+02  0.51100000000E-03 0. -1.
        -11    1    3    3    0    0  0.96409490209E+01  0.82318741071E+01  0.21517715231E+01  0.12858529087E+02  0.51100000000E-03 0.  1.
        -12    1    3    3    0    0 -0.17958334147E+02  0.91511520480E+01 -0.17730992904E+02  0.26844616937E+02  0.00000000000E+00 0.  1.
</event>
<event>
 7    1  0.1749439E-013  0.7246162E+02  0.7816164E-02  0.1226708E+00
        -11   -1    0    0    0    0  0.00000000000E+00  0.00000000000E+00  0.45593999997E+02  0.45594000000E+02  0.51100000000E-03 0. -1.
         11   -1    0    0    0    0 -0.00000000000E+00 -0.00000000000E+00 -0.45593999997E+02  0.45594000000E+02  0.51100000000E-03 0.  1.
    9900012    2    1    2    0    0 -0.82496535357E+01 -0.17220723508E+01  0.16722887889E+02  0.72461620318E+02  0.70000065165E+02 0.  0.
        -12    1    1    2    0    0  0.82496535357E+01  0.17220723508E+01 -0.16722887889E+02  0.18726379682E+02  0.00000000000E+00 0.  1.
         11    1    3    3    0    0 -0.15712930540E+02  0.21232445282E+02  0.16046000985E+02  0.30906100800E+02  0.51100000000E-03 0. -1.
        -11    1    3    3    0    0 -0.12197136558E+02 -0.17128971886E+02  0.93322820170E+00  0.21048580313E+02  0.51100000000E-03 0.  1.
        -12    1    3    3    0    0  0.19660413562E+02 -0.58255457471E+01 -0.25634129706E+00  0.20506939204E+02  0.00000000000E+00 0.  1.
</event>
<event>
 7    1  0.1749439E-013  0.7246148E+02  0.7816164E-02  0.1226708E+00
        -11   -1    0    0    0    0  0.00000000000E+00  0.00000000000E+00  0.45593999997E+02  0.45594000000E+02  0.51100000000E-03 0. -1.
         11   -1    0    0    0    0 -0.00000000000E+00 -0.00000000000E+00 -0.45593999997E+02  0.45594000000E+02  0.51100000000E-03 0.  1.
    9900012    2    1    2    0    0 -0.10627409431E+02 -0.44059511310E+01  0.14775932295E+02  0.72461483726E+02  0.69999887228E+02 0.  0.
        -12    1    1    2    0    0  0.10627409431E+02  0.44059511310E+01 -0.14775932295E+02  0.18726516274E+02  0.00000000000E+00 0.  1.
         11    1    3    3    0    0 -0.17091400494E+02  0.16478299564E+01 -0.10732537668E+01  0.17204161947E+02  0.51100000000E-03 0. -1.
        -11    1    3    3    0    0  0.10716633517E+02  0.50169582084E+01 -0.16784111043E+02  0.20535882921E+02  0.51100000000E-03 0.  1.
         12    1    3    3    0    0 -0.42526424543E+01 -0.11070739296E+02  0.32633297105E+02  0.34721438857E+02  0.00000000000E+00 0. -1.
</event>
<event>
 7    1  0.1749439E-013  0.7246146E+02  0.7816164E-02  0.1226708E+00
        -11   -1    0    0    0    0  0.00000000000E+00  0.00000000000E+00  0.45593999997E+02  0.45594000000E+02  0.51100000000E-03 0.  1.
         11   -1    0    0    0    0 -0.00000000000E+00 -0.00000000000E+00 -0.45593999997E+02  0.45594000000E+02  0.51100000000E-03 0. -1.
    9900012    2    1    2    0    0  0.64202607168E+01  0.16942651964E+02  0.47339139701E+01  0.72461464156E+02  0.69999861735E+02 0.  0.
        -12    1    1    2    0    0 -0.64202607168E+01 -0.16942651964E+02 -0.47339139701E+01  0.18726535844E+02  0.00000000000E+00 0.  1.
         11    1    3    3    0    0 -0.48168752814E+01  0.24306013724E+02 -0.16245475310E+02  0.29629378308E+02  0.51100000000E-03 0. -1.
        -11    1    3    3    0    0  0.35118996032E+01 -0.14405615289E+01 -0.98215244224E+01  0.10529529837E+02  0.51100000000E-03 0.  1.
        -12    1    3    3    0    0  0.77252363950E+01 -0.59228002313E+01  0.30800913702E+02  0.32302556011E+02  0.00000000000E+00 0.  1.
</event>
<event>
 7    1  0.1749439E-013  0.7246156E+02  0.7816164E-02  0.1226708E+00
        -11   -1    0    0    0    0  0.00000000000E+00  0.00000000000E+00  0.45593999997E+02  0.45594000000E+02  0.51100000000E-03 0. -1.
         11   -1    0    0    0    0 -0.00000000000E+00 -0.00000000000E+00 -0.45593999997E+02  0.45594000000E+02  0.51100000000E-03 0.  1.
    9900012    2    1    2    0    0  0.64403268836E+01 -0.13853931056E+02  0.10829139946E+02  0.72461561790E+02  0.69999988922E+02 0.  0.
        -12    1    1    2    0    0 -0.64403268836E+01  0.13853931056E+02 -0.10829139946E+02  0.18726438210E+02  0.00000000000E+00 0.  1.
         11    1    3    3    0    0  0.22830274928E+02 -0.65473595602E+01  0.14324206870E+02  0.27735758025E+02  0.51100000000E-03 0. -1.
        -11    1    3    3    0    0  0.74140554468E+01 -0.15879038685E+02  0.46773917419E+01  0.18138083732E+02  0.51100000000E-03 0.  1.
        -12    1    3    3    0    0 -0.23804003491E+02  0.85724671893E+01 -0.81724586664E+01  0.26587720033E+02  0.00000000000E+00 0.  1.
</event>
<event>
 7    1  0.1749439E-013  0.7246162E+02  0.7816164E-02  0.1226708E+00
        -11   -1    0    0    0    0  0.00000000000E+00  0.00000000000E+00  0.45593999997E+02  0.45594000000E+02  0.51100000000E-03 0.  1.
         11   -1    0    0    0    0 -0.00000000000E+00 -0.00000000000E+00 -0.45593999997E+02  0.45594000000E+02  0.51100000000E-03 0. -1.
    9900012    2    1    2    0    0 -0.47601025184E+01 -0.17960704713E+02  0.23306383845E+01  0.72461618474E+02  0.70000062763E+02 0.  0.
        -12    1    1    2    0    0  0.47601025184E+01  0.17960704713E+02 -0.23306383845E+01  0.18726381526E+02  0.00000000000E+00 0.  1.
         11    1    3    3    0    0 -0.81128890099E+01 -0.33109820279E+01  0.22351600646E+02  0.24007824178E+02  0.51100000000E-03 0. -1.
        -11    1    3    3    0    0  0.16325677583E+02  0.46751640544E+01  0.11086150266E+01  0.17018047333E+02  0.51100000000E-03 0.  1.
         12    1    3    3    0    0 -0.12972891092E+02 -0.19324886740E+02 -0.21129577288E+02  0.31435746963E+02  0.00000000000E+00 0. -1.
</event>
<event>
 7    1  0.1749439E-013  0.7246172E+02  0.7816164E-02  0.1226708E+00
        -11   -1    0    0    0    0  0.00000000000E+00  0.00000000000E+00  0.45593999997E+02  0.45594000000E+02  0.51100000000E-03 0.  1.
         11   -1    0    0    0    0 -0.00000000000E+00 -0.00000000000E+00 -0.45593999997E+02  0.45594000000E+02  0.51100000000E-03 0. -1.
    9900012    2    1    2    0    0  0.54814391952E+01  0.14213463671E+02 -0.10890584066E+02  0.72461720432E+02  0.70000195582E+02 0.  0.
        -12    1    1    2    0    0 -0.54814391952E+01 -0.14213463671E+02  0.10890584066E+02  0.18726279568E+02  0.00000000000E+00 0.  1.
         11    1    3    3    0    0 -0.39526713614E+01  0.26391534315E+02  0.78971363288E+01  0.27829866275E+02  0.51100000000E-03 0. -1.
        -11    1    3    3    0    0 -0.10527111994E+02  0.70696000298E+01 -0.46503138969E+01  0.13506470713E+02  0.51100000000E-03 0.  1.
         12    1    3    3    0    0  0.19961222550E+02 -0.19247670675E+02 -0.14137406498E+02  0.31125383445E+02  0.00000000000E+00 0. -1.
</event>
<event>
 7    1  0.1749439E-013  0.7246156E+02  0.7816164E-02  0.1226708E+00
        -11   -1    0    0    0    0  0.00000000000E+00  0.00000000000E+00  0.45593999997E+02  0.45594000000E+02  0.51100000000E-03 0.  1.
         11   -1    0    0    0    0 -0.00000000000E+00 -0.00000000000E+00 -0.45593999997E+02  0.45594000000E+02  0.51100000000E-03 0. -1.
    9900012    2    1    2    0    0 -0.18474824155E+01  0.14558592306E+02 -0.11632449976E+02  0.72461556300E+02  0.69999981770E+02 0.  0.
        -12    1    1    2    0    0  0.18474824155E+01 -0.14558592306E+02  0.11632449976E+02  0.18726443700E+02  0.00000000000E+00 0.  1.
         11    1    3    3    0    0  0.89240257988E+01 -0.91093381222E+01 -0.88003502948E+01  0.15494013136E+02  0.51100000000E-03 0. -1.
        -11    1    3    3    0    0  0.12401933566E+02  0.14762948213E+02  0.16599061369E+02  0.25441726252E+02  0.51100000000E-03 0.  1.
         12    1    3    3    0    0 -0.23173441781E+02  0.89049822151E+01 -0.19431161050E+02  0.31525816912E+02  0.00000000000E+00 0. -1.
</event>
<event>
 7    1  0.1749439E-013  0.7246157E+02  0.7816164E-02  0.1226708E+00
        -11   -1    0    0    0    0  0.00000000000E+00  0.00000000000E+00  0.45593999997E+02  0.45594000000E+02  0.51100000000E-03 0. -1.
         11   -1    0    0    0    0 -0.00000000000E+00 -0.00000000000E+00 -0.45593999997E+02  0.45594000000E+02  0.51100000000E-03 0.  1.
    9900012    2    1    2    0    0 -0.12675739517E+02  0.94306352567E+01  0.10053250901E+02  0.72461571955E+02  0.70000002163E+02 0.  0.
        -12    1    1    2    0    0  0.12675739517E+02 -0.94306352567E+01 -0.10053250901E+02  0.18726428045E+02  0.00000000000E+00 0.  1.
         11    1    3    3    0    0 -0.27091412591E+01  0.17143396939E+01 -0.15644498337E+00  0.32098103125E+01  0.51100000000E-03 0. -1.
        -11    1    3    3    0    0 -0.28341994779E+02  0.26684134343E+02 -0.42245303055E+01  0.39155566019E+02  0.51100000000E-03 0.  1.
         12    1    3    3    0    0  0.18375396521E+02 -0.18967838780E+02  0.14434226190E+02  0.30096195623E+02  0.00000000000E+00 0. -1.
</event>
<event>
 7    1  0.1749439E-013  0.7246157E+02  0.7816164E-02  0.1226708E+00
        -11   -1    0    0    0    0  0.00000000000E+00  0.00000000000E+00  0.45593999997E+02  0.45594000000E+02  0.51100000000E-03 0.  1.
         11   -1    0    0    0    0 -0.00000000000E+00 -0.00000000000E+00 -0.45593999997E+02  0.45594000000E+02  0.51100000000E-03 0. -1.
    9900012    2    1    2    0    0  0.51883741350E+01  0.18945175957E+01 -0.17893314631E+02  0.72461571307E+02  0.70000001320E+02 0.  0.
        -12    1    1    2    0    0 -0.51883741350E+01 -0.18945175957E+01  0.17893314631E+02  0.18726428693E+02  0.00000000000E+00 0.  1.
         11    1    3    3    0    0  0.10809828094E+02 -0.15767345888E+01  0.11549727608E+01  0.10985100715E+02  0.51100000000E-03 0. -1.
        -11    1    3    3    0    0  0.12332466093E+02  0.23385604779E+02  0.32054441309E+01  0.26631768682E+02  0.51100000000E-03 0.  1.
         12    1    3    3    0    0 -0.17953920052E+02 -0.19914352594E+02 -0.22253731523E+02  0.34844701910E+02  0.00000000000E+00 0. -1.
</event>
<event>
 7    1  0.1749439E-013  0.7246156E+02  0.7816164E-02  0.1226708E+00
        -11   -1    0    0    0    0  0.00000000000E+00  0.00000000000E+00  0.45593999997E+02  0.45594000000E+02  0.51100000000E-03 0. -1.
         11   -1    0    0    0    0 -0.00000000000E+00 -0.00000000000E+00 -0.45593999997E+02  0.45594000000E+02  0.51100000000E-03 0.  1.
    9900012    2    1    2    0    0  0.63980912760E+01  0.16603202346E+02  0.58375950176E+01  0.72461563721E+02  0.69999991437E+02 0.  0.
        -12    1    1    2    0    0 -0.63980912760E+01 -0.16603202346E+02 -0.58375950176E+01  0.18726436279E+02  0.00000000000E+00 0.  1.
         11    1    3    3    0    0  0.88245285614E+01  0.27864309826E+01  0.26266063997E+02  0.27848565854E+02  0.51100000000E-03 0. -1.
        -11    1    3    3    0    0 -0.51510072069E+01 -0.11068516703E+02 -0.14370975298E+02  0.18856560358E+02  0.51100000000E-03 0.  1.
         12    1    3    3    0    0  0.27245699214E+01  0.24885288067E+02 -0.60574936814E+01  0.25756437509E+02  0.00000000000E+00 0. -1.
</event>
<event>
 7    1  0.1749439E-013  0.7246152E+02  0.7816164E-02  0.1226708E+00
        -11   -1    0    0    0    0  0.00000000000E+00  0.00000000000E+00  0.45593999997E+02  0.45594000000E+02  0.51100000000E-03 0. -1.
         11   -1    0    0    0    0 -0.00000000000E+00 -0.00000000000E+00 -0.45593999997E+02  0.45594000000E+02  0.51100000000E-03 0.  1.
    9900012    2    1    2    0    0  0.16675713601E+02  0.20557590251E+01 -0.82689370841E+01  0.72461524363E+02  0.69999940166E+02 0.  0.
        -12    1    1    2    0    0 -0.16675713601E+02 -0.20557590251E+01  0.82689370841E+01  0.18726475637E+02  0.00000000000E+00 0.  1.
         11    1    3    3    0    0 -0.10438995043E+02  0.18133838171E+02  0.13079848378E+02  0.24675719608E+02  0.51100000000E-03 0. -1.
        -11    1    3    3    0    0 -0.55642985414E+01 -0.63277673319E+01 -0.62451270680E+01  0.10488263442E+02  0.51100000000E-03 0.  1.
        -12    1    3    3    0    0  0.32679007186E+02 -0.97503118143E+01 -0.15103658394E+02  0.37297541313E+02  0.00000000000E+00 0.  1.
</event>
<event>
 7    1  0.1749439E-013  0.7246165E+02  0.7816164E-02  0.1226708E+00
        -11   -1    0    0    0    0  0.00000000000E+00  0.00000000000E+00  0.45593999997E+02  0.45594000000E+02  0.51100000000E-03 0.  1.
         11   -1    0    0    0    0 -0.00000000000E+00 -0.00000000000E+00 -0.45593999997E+02  0.45594000000E+02  0.51100000000E-03 0. -1.
    9900012    2    1    2    0    0 -0.10043227384E+02  0.13818311925E+02 -0.76722955864E+01  0.72461647437E+02  0.70000100493E+02 0.  0.
        -12    1    1    2    0    0  0.10043227384E+02 -0.13818311925E+02  0.76722955864E+01  0.18726352563E+02  0.00000000000E+00 0.  1.
         11    1    3    3    0    0  0.14511474986E+02  0.72986119391E+01  0.14512715608E+01  0.16308244292E+02  0.51100000000E-03 0. -1.
        -11    1    3    3    0    0  0.74447291074E+01 -0.14591989977E+02  0.12778479704E+01  0.16431161209E+02  0.51100000000E-03 0.  1.
         12    1    3    3    0    0 -0.31999431477E+02  0.21111689963E+02 -0.10401415118E+02  0.39722241936E+02  0.00000000000E+00 0. -1.
</event>
<event>
 7    1  0.1749439E-013  0.7246158E+02  0.7816164E-02  0.1226708E+00
        -11   -1    0    0    0    0  0.00000000000E+00  0.00000000000E+00  0.45593999997E+02  0.45594000000E+02  0.51100000000E-03 0.  1.
         11   -1    0    0    0    0 -0.00000000000E+00 -0.00000000000E+00 -0.45593999997E+02  0.45594000000E+02  0.51100000000E-03 0. -1.
    9900012    2    1    2    0    0 -0.49899183807E+01 -0.13399947468E+02 -0.12092184442E+02  0.72461580103E+02  0.70000012777E+02 0.  0.
        -12    1    1    2    0    0  0.49899183807E+01  0.13399947468E+02  0.12092184442E+02  0.18726419897E+02  0.00000000000E+00 0.  1.
         11    1    3    3    0    0 -0.21129865068E+02 -0.19266580092E+02 -0.82344986147E+01  0.29757003780E+02  0.51100000000E-03 0. -1.
        -11    1    3    3    0    0 -0.24508689321E+01 -0.87380842012E+01 -0.14238258352E+02  0.16884575067E+02  0.51100000000E-03 0.  1.
        -12    1    3    3    0    0  0.18590815620E+02  0.14604716825E+02  0.10380572524E+02  0.25820001257E+02  0.00000000000E+00 0.  1.
</event>
<event>
 7    1  0.1749439E-013  0.7246154E+02  0.7816164E-02  0.1226708E+00
        -11   -1    0    0    0    0  0.00000000000E+00  0.00000000000E+00  0.45593999997E+02  0.45594000000E+02  0.51100000000E-03 0. -1.
         11   -1    0    0    0    0 -0.00000000000E+00 -0.00000000000E+00 -0.45593999997E+02  0.45594000000E+02  0.51100000000E-03 0.  1.
    9900012    2    1    2    0    0  0.23146729448E+01  0.19950748310E+01  0.18475446497E+02  0.72461543911E+02  0.69999965630E+02 0.  0.
        -12    1    1    2    0    0 -0.23146729448E+01 -0.19950748310E+01 -0.18475446497E+02  0.18726456089E+02  0.00000000000E+00 0.  1.
         11    1    3    3    0    0  0.25006069621E+02 -0.31381457796E+01  0.23158323443E+02  0.34226589397E+02  0.51100000000E-03 0. -1.
        -11    1    3    3    0    0 -0.34396402531E+00  0.22501294874E+01 -0.13756826331E+02  0.13943875535E+02  0.51100000000E-03 0.  1.
        -12    1    3    3    0    0 -0.22347432651E+02  0.28830911232E+01  0.90739493855E+01  0.24291078979E+02  0.00000000000E+00 0.  1.
</event>
<event>
 7    1  0.1749439E-013  0.7246156E+02  0.7816164E-02  0.1226708E+00
        -11   -1    0    0    0    0  0.00000000000E+00  0.00000000000E+00  0.45593999997E+02  0.45594000000E+02  0.51100000000E-03 0.  1.
         11   -1    0    0    0    0 -0.00000000000E+00 -0.00000000000E+00 -0.45593999997E+02  0.45594000000E+02  0.51100000000E-03 0. -1.
    9900012    2    1    2    0    0 -0.14275921036E+01  0.14101563175E+02  0.12238765634E+02  0.72461561806E+02  0.69999988943E+02 0.  0.
        -12    1    1    2    0    0  0.14275921036E+01 -0.14101563175E+02 -0.12238765634E+02  0.18726438194E+02  0.00000000000E+00 0.  1.
         11    1    3    3    0    0 -0.27453924151E+02  0.22761003105E+02  0.26821479772E+01  0.35762761801E+02  0.51100000000E-03 0.  1.
        -11    1    3    3    0    0 -0.79154088135E+00 -0.13352986651E+00 -0.49669600439E+01  0.50314073112E+01  0.51100000000E-03 0. -1.
        -12    1    3    3    0    0  0.26817872928E+02 -0.85259100638E+01  0.14523577700E+02  0.31667392694E+02  0.00000000000E+00 0.  1.
</event>
<event>
 7    1  0.1749439E-013  0.7246167E+02  0.7816164E-02  0.1226708E+00
        -11   -1    0    0    0    0  0.00000000000E+00  0.00000000000E+00  0.45593999997E+02  0.45594000000E+02  0.51100000000E-03 0. -1.
         11   -1    0    0    0    0 -0.00000000000E+00 -0.00000000000E+00 -0.45593999997E+02  0.45594000000E+02  0.51100000000E-03 0.  1.
    9900012    2    1    2    0    0  0.66476224991E+01  0.16099846073E+02  0.68760003077E+01  0.72461673379E+02  0.70000134287E+02 0.  0.
        -12    1    1    2    0    0 -0.66476224991E+01 -0.16099846073E+02 -0.68760003077E+01  0.18726326621E+02  0.00000000000E+00 0.  1.
         11    1    3    3    0    0 -0.59545336629E+01 -0.36948819787E+01 -0.67320992244E+01  0.97174988658E+01  0.51100000000E-03 0.  1.
        -11    1    3    3    0    0  0.22663143914E+02  0.11829055160E+02 -0.16217827028E+02  0.30274784092E+02  0.51100000000E-03 0. -1.
         12    1    3    3    0    0 -0.10060987752E+02  0.79656728922E+01  0.29825926560E+02  0.32469390422E+02  0.00000000000E+00 0. -1.
</event>
<event>
 7    1  0.1749439E-013  0.7246153E+02  0.7816164E-02  0.1226708E+00
        -11   -1    0    0    0    0  0.00000000000E+00  0.00000000000E+00  0.45593999997E+02  0.45594000000E+02  0.51100000000E-03 0.  1.
         11   -1    0    0    0    0 -0.00000000000E+00 -0.00000000000E+00 -0.45593999997E+02  0.45594000000E+02  0.51100000000E-03 0. -1.
    9900012    2    1    2    0    0  0.30954956798E+01  0.14091945552E+02 -0.11937995568E+02  0.72461527798E+02  0.69999944641E+02 0.  0.
        -12    1    1    2    0    0 -0.30954956798E+01 -0.14091945552E+02  0.11937995568E+02  0.18726472202E+02  0.00000000000E+00 0.  1.
         11    1    3    3    0    0  0.66517365194E+01 -0.26685558862E+02 -0.88982629057E+01  0.28905773359E+02  0.51100000000E-03 0. -1.
        -11    1    3    3    0    0  0.96435895612E-01  0.13342271578E+01 -0.37039819507E+01  0.39381397312E+01  0.51100000000E-03 0.  1.
        -12    1    3    3    0    0 -0.36526767352E+01  0.39443277256E+02  0.66424928818E+00  0.39617614708E+02  0.00000000000E+00 0.  1.
</event>
<event>
 7    1  0.1749439E-013  0.7246137E+02  0.7816164E-02  0.1226709E+00
        -11   -1    0    0    0    0  0.00000000000E+00  0.00000000000E+00  0.45593999997E+02  0.45594000000E+02  0.51100000000E-03 0.  1.
         11   -1    0    0    0    0 -0.00000000000E+00 -0.00000000000E+00 -0.45593999997E+02  0.45594000000E+02  0.51100000000E-03 0. -1.
    9900012    2    1    2    0    0  0.39021815546E+01  0.16761528719E+02 -0.73831516274E+01  0.72461366725E+02  0.69999734812E+02 0.  0.
        -12    1    1    2    0    0 -0.39021815546E+01 -0.16761528719E+02  0.73831516274E+01  0.18726633275E+02  0.00000000000E+00 0.  1.
         11    1    3    3    0    0 -0.28149988244E+00  0.41917835358E+01 -0.23538668861E+01  0.48157015038E+01  0.51100000000E-03 0. -1.
        -11    1    3    3    0    0 -0.11998427647E+02 -0.24328029389E+02 -0.85025985201E+00  0.27139237684E+02  0.51100000000E-03 0.  1.
         12    1    3    3    0    0  0.16182109084E+02  0.36897774572E+02 -0.41790248893E+01  0.40506427537E+02  0.00000000000E+00 0. -1.
</event>
<event>
 7    1  0.1749439E-013  0.7246158E+02  0.7816164E-02  0.1226708E+00
        -11   -1    0    0    0    0  0.00000000000E+00  0.00000000000E+00  0.45593999997E+02  0.45594000000E+02  0.51100000000E-03 0.  1.
         11   -1    0    0    0    0 -0.00000000000E+00 -0.00000000000E+00 -0.45593999997E+02  0.45594000000E+02  0.51100000000E-03 0. -1.
    9900012    2    1    2    0    0 -0.14238819541E+02 -0.96031884250E+01  0.74641527850E+01  0.72461580517E+02  0.70000013317E+02 0.  0.
        -12    1    1    2    0    0  0.14238819541E+02  0.96031884250E+01 -0.74641527850E+01  0.18726419483E+02  0.00000000000E+00 0.  1.
         11    1    3    3    0    0  0.16844004185E+02 -0.77960820342E+01 -0.15812541024E+02  0.24383105339E+02  0.51100000000E-03 0. -1.
        -11    1    3    3    0    0  0.44066925053E+01 -0.21566472843E+01  0.81184157293E+01  0.94857124434E+01  0.51100000000E-03 0.  1.
        -12    1    3    3    0    0 -0.35489516231E+02  0.34954089343E+00  0.15158278080E+02  0.38592762735E+02  0.00000000000E+00 0.  1.
</event>
<event>
 7    1  0.1749439E-013  0.7246161E+02  0.7816164E-02  0.1226708E+00
        -11   -1    0    0    0    0  0.00000000000E+00  0.00000000000E+00  0.45593999997E+02  0.45594000000E+02  0.51100000000E-03 0.  1.
         11   -1    0    0    0    0 -0.00000000000E+00 -0.00000000000E+00 -0.45593999997E+02  0.45594000000E+02  0.51100000000E-03 0. -1.
    9900012    2    1    2    0    0 -0.10381361677E+02 -0.11243324324E+02 -0.10793176656E+02  0.72461610212E+02  0.70000052001E+02 0.  0.
        -12    1    1    2    0    0  0.10381361677E+02  0.11243324324E+02  0.10793176656E+02  0.18726389788E+02  0.00000000000E+00 0.  1.
         11    1    3    3    0    0 -0.25328538608E+02 -0.14830151773E+02 -0.10224342478E+02  0.31080628195E+02  0.51100000000E-03 0. -1.
        -11    1    3    3    0    0  0.78326547163E+01 -0.12920443072E+02  0.12127301917E+02  0.19374204013E+02  0.51100000000E-03 0.  1.
         12    1    3    3    0    0  0.71145222142E+01  0.16507270521E+02 -0.12696136095E+02  0.22006778004E+02  0.00000000000E+00 0. -1.
</event>
<event>
 7    1  0.1749439E-013  0.7246158E+02  0.7816164E-02  0.1226708E+00
        -11   -1    0    0    0    0  0.00000000000E+00  0.00000000000E+00  0.45593999997E+02  0.45594000000E+02  0.51100000000E-03 0. -1.
         11   -1    0    0    0    0 -0.00000000000E+00 -0.00000000000E+00 -0.45593999997E+02  0.45594000000E+02  0.51100000000E-03 0.  1.
    9900012    2    1    2    0    0 -0.44475179518E+01  0.21617643737E+01  0.18061702429E+02  0.72461581876E+02  0.70000015087E+02 0.  0.
        -12    1    1    2    0    0  0.44475179518E+01 -0.21617643737E+01 -0.18061702429E+02  0.18726418124E+02  0.00000000000E+00 0.  1.
         11    1    3    3    0    0  0.10634204283E+02 -0.28769846590E+02  0.19043911168E+02  0.36103475268E+02  0.51100000000E-03 0. -1.
        -11    1    3    3    0    0  0.11044472129E+01 -0.26206115974E+00  0.35573809017E+00  0.11895501450E+01  0.51100000000E-03 0.  1.
        -12    1    3    3    0    0 -0.16186169448E+02  0.31193672124E+02 -0.13379468288E+01  0.35168556463E+02  0.00000000000E+00 0.  1.
</event>
<event>
 7    1  0.1749439E-013  0.7246157E+02  0.7816164E-02  0.1226708E+00
        -11   -1    0    0    0    0  0.00000000000E+00  0.00000000000E+00  0.45593999997E+02  0.45594000000E+02  0.51100000000E-03 0. -1.
         11   -1    0    0    0    0 -0.00000000000E+00 -0.00000000000E+00 -0.45593999997E+02  0.45594000000E+02  0.51100000000E-03 0.  1.
    9900012    2    1    2    0    0 -0.14255223276E+02  0.77652505837E+01 -0.93364229200E+01  0.72461566804E+02  0.69999995454E+02 0.  0.
        -12    1    1    2    0    0  0.14255223276E+02 -0.77652505837E+01  0.93364229200E+01  0.18726433196E+02  0.00000000000E+00 0.  1.
         11    1    3    3    0    0 -0.23582057295E+02  0.18302659209E+02  0.45435785934E+01  0.30195113298E+02  0.51100000000E-03 0. -1.
        -11    1    3    3    0    0 -0.70026479797E+01  0.34147129071E+01  0.83053890240E+01  0.11387573493E+02  0.51100000000E-03 0.  1.
        -12    1    3    3    0    0  0.16329481998E+02 -0.13952121532E+02 -0.22185390537E+02  0.30878880013E+02  0.00000000000E+00 0.  1.
</event>
<event>
 7    1  0.1749439E-013  0.7246156E+02  0.7816164E-02  0.1226708E+00
        -11   -1    0    0    0    0  0.00000000000E+00  0.00000000000E+00  0.45593999997E+02  0.45594000000E+02  0.51100000000E-03 0.  1.
         11   -1    0    0    0    0 -0.00000000000E+00 -0.00000000000E+00 -0.45593999997E+02  0.45594000000E+02  0.51100000000E-03 0. -1.
    9900012    2    1    2    0    0 -0.17302366319E+02  0.68616487005E+01  0.20555678268E+01  0.72461562480E+02  0.69999989820E+02 0.  0.
        -12    1    1    2    0    0  0.17302366319E+02 -0.68616487005E+01 -0.20555678268E+01  0.18726437520E+02  0.00000000000E+00 0.  1.
         11    1    3    3    0    0 -0.14443208431E+02  0.85289212037E+01 -0.42173328812E+01  0.17295509925E+02  0.51100000000E-03 0. -1.
        -11    1    3    3    0    0  0.11978369986E+02  0.12028516237E+02  0.23248316670E+02  0.28786294979E+02  0.51100000000E-03 0.  1.
         12    1    3    3    0    0 -0.14837527873E+02 -0.13695788740E+02 -0.16975415962E+02  0.26379757575E+02  0.00000000000E+00 0. -1.
</event>
<event>
 7    1  0.1749439E-013  0.7246160E+02  0.7816164E-02  0.1226708E+00
        -11   -1    0    0    0    0  0.00000000000E+00  0.00000000000E+00  0.45593999997E+02  0.45594000000E+02  0.51100000000E-03 0.  1.
         11   -1    0    0    0    0 -0.00000000000E+00 -0.00000000000E+00 -0.45593999997E+02  0.45594000000E+02  0.51100000000E-03 0. -1.
    9900012    2    1    2    0    0  0.69145918459E+01 -0.10609573910E+02 -0.13795047969E+02  0.72461601857E+02  0.70000041116E+02 0.  0.
        -12    1    1    2    0    0 -0.69145918459E+01  0.10609573910E+02  0.13795047969E+02  0.18726398143E+02  0.00000000000E+00 0.  1.
         11    1    3    3    0    0  0.54543954800E+01  0.11583741873E+02 -0.12322155932E+02  0.17769891190E+02  0.51100000000E-03 0. -1.
        -11    1    3    3    0    0  0.15831358126E+02  0.10200414989E+02  0.26332705393E+01  0.19016163653E+02  0.51100000000E-03 0.  1.
         12    1    3    3    0    0 -0.14371161760E+02 -0.32393730772E+02 -0.41061625761E+01  0.35675547014E+02  0.00000000000E+00 0. -1.
</event>
<event>
 7    1  0.1749439E-013  0.7246166E+02  0.7816164E-02  0.1226708E+00
        -11   -1    0    0    0    0  0.00000000000E+00  0.00000000000E+00  0.45593999997E+02  0.45594000000E+02  0.51100000000E-03 0.  1.
         11   -1    0    0    0    0 -0.00000000000E+00 -0.00000000000E+00 -0.45593999997E+02  0.45594000000E+02  0.51100000000E-03 0. -1.
    9900012    2    1    2    0    0  0.48051955265E+01  0.18073037619E+02  0.97539705640E+00  0.72461655129E+02  0.70000110513E+02 0.  0.
        -12    1    1    2    0    0 -0.48051955265E+01 -0.18073037619E+02 -0.97539705640E+00  0.18726344871E+02  0.00000000000E+00 0.  1.
         11    1    3    3    0    0  0.36624714234E+00  0.11244747189E+02  0.47112468644E+01  0.12197308047E+02  0.51100000000E-03 0. -1.
        -11    1    3    3    0    0  0.16354398850E+02  0.11072067480E+02  0.23223135629E+02  0.30485587886E+02  0.51100000000E-03 0.  1.
         12    1    3    3    0    0 -0.11915450466E+02 -0.42437770508E+01 -0.26958985437E+02  0.29778759196E+02  0.00000000000E+00 0. -1.
</event>
<event>
 7    1  0.1749439E-013  0.7246157E+02  0.7816164E-02  0.1226708E+00
        -11   -1    0    0    0    0  0.00000000000E+00  0.00000000000E+00  0.45593999997E+02  0.45594000000E+02  0.51100000000E-03 0. -1.
         11   -1    0    0    0    0 -0.00000000000E+00 -0.00000000000E+00 -0.45593999997E+02  0.45594000000E+02  0.51100000000E-03 0.  1.
    9900012    2    1    2    0    0  0.61854061692E+01  0.42496323119E+01  0.17156940518E+02  0.72461568620E+02  0.69999997819E+02 0.  0.
        -12    1    1    2    0    0 -0.61854061692E+01 -0.42496323119E+01 -0.17156940518E+02  0.18726431380E+02  0.00000000000E+00 0.  1.
         11    1    3    3    0    0  0.57236697770E-01  0.13488546479E+01 -0.71579331651E+01  0.72841397816E+01  0.51100000000E-03 0. -1.
        -11    1    3    3    0    0  0.20971913674E+02 -0.22599873694E+02  0.14595075472E+02  0.34111459694E+02  0.51100000000E-03 0.  1.
         12    1    3    3    0    0 -0.14843744203E+02  0.25500651358E+02  0.97197982119E+01  0.31065969145E+02  0.00000000000E+00 0. -1.
</event>
<event>
 7    1  0.1749439E-013  0.7246160E+02  0.7816164E-02  0.1226708E+00
        -11   -1    0    0    0    0  0.00000000000E+00  0.00000000000E+00  0.45593999997E+02  0.45594000000E+02  0.51100000000E-03 0. -1.
         11   -1    0    0    0    0 -0.00000000000E+00 -0.00000000000E+00 -0.45593999997E+02  0.45594000000E+02  0.51100000000E-03 0.  1.
    9900012    2    1    2    0    0 -0.13561779823E+01 -0.11823210925E+02  0.14458574766E+02  0.72461603669E+02  0.70000043477E+02 0.  0.
        -12    1    1    2    0    0  0.13561779823E+01  0.11823210925E+02 -0.14458574766E+02  0.18726396331E+02  0.00000000000E+00 0.  1.
         11    1    3    3    0    0  0.38120245426E+01 -0.12394156723E+02  0.32494222720E+01  0.13368073808E+02  0.51100000000E-03 0. -1.
        -11    1    3    3    0    0  0.26786276415E+01  0.25735940461E+02 -0.72990905347E+01  0.26884761489E+02  0.51100000000E-03 0.  1.
         12    1    3    3    0    0 -0.78468301663E+01 -0.25164994663E+02  0.18508243028E+02  0.32208768372E+02  0.00000000000E+00 0. -1.
</event>
<event>
 7    1  0.1749439E-013  0.7246157E+02  0.7816164E-02  0.1226708E+00
        -11   -1    0    0    0    0  0.00000000000E+00  0.00000000000E+00  0.45593999997E+02  0.45594000000E+02  0.51100000000E-03 0. -1.
         11   -1    0    0    0    0 -0.00000000000E+00 -0.00000000000E+00 -0.45593999997E+02  0.45594000000E+02  0.51100000000E-03 0.  1.
    9900012    2    1    2    0    0 -0.10582473168E+02 -0.76166122420E+00  0.15430829049E+02  0.72461565441E+02  0.69999993677E+02 0.  0.
        -12    1    1    2    0    0  0.10582473168E+02  0.76166122420E+00 -0.15430829049E+02  0.18726434559E+02  0.00000000000E+00 0.  1.
         11    1    3    3    0    0 -0.29165144555E+00 -0.32301227294E+02  0.19642704705E+02  0.37805954473E+02  0.51100000000E-03 0. -1.
        -11    1    3    3    0    0  0.35126028736E+00  0.64375117475E-01  0.96513942565E+00  0.10290880999E+01  0.51100000000E-03 0.  1.
        -12    1    3    3    0    0 -0.10642082010E+02  0.31475190952E+02 -0.51770150815E+01  0.33626522867E+02  0.00000000000E+00 0.  1.
</event>
<event>
 7    1  0.1749439E-013  0.7246154E+02  0.7816164E-02  0.1226708E+00
        -11   -1    0    0    0    0  0.00000000000E+00  0.00000000000E+00  0.45593999997E+02  0.45594000000E+02  0.51100000000E-03 0. -1.
         11   -1    0    0    0    0 -0.00000000000E+00 -0.00000000000E+00 -0.45593999997E+02  0.45594000000E+02  0.51100000000E-03 0.  1.
    9900012    2    1    2    0    0  0.54174832230E+01 -0.12981258537E+02  0.12361958342E+02  0.72461542467E+02  0.69999963750E+02 0.  0.
        -12    1    1    2    0    0 -0.54174832230E+01  0.12981258537E+02 -0.12361958342E+02  0.18726457533E+02  0.00000000000E+00 0.  1.
         11    1    3    3    0    0  0.16185163756E+02  0.13876994522E+02  0.43746389579E+01  0.21763914378E+02  0.51100000000E-03 0. -1.
        -11    1    3    3    0    0 -0.21526655829E+02 -0.73600354694E+01 -0.70606182920E+01  0.23820565993E+02  0.51100000000E-03 0.  1.
        -12    1    3    3    0    0  0.10758975296E+02 -0.19498217590E+02  0.15047937676E+02  0.26877062096E+02  0.00000000000E+00 0.  1.
</event>
<event>
 7    1  0.1749439E-013  0.7246158E+02  0.7816164E-02  0.1226708E+00
        -11   -1    0    0    0    0  0.00000000000E+00  0.00000000000E+00  0.45593999997E+02  0.45594000000E+02  0.51100000000E-03 0.  1.
         11   -1    0    0    0    0 -0.00000000000E+00 -0.00000000000E+00 -0.45593999997E+02  0.45594000000E+02  0.51100000000E-03 0. -1.
    9900012    2    1    2    0    0 -0.17849315347E+02 -0.30235864561E+01 -0.47894497066E+01  0.72461575838E+02  0.70000007222E+02 0.  0.
        -12    1    1    2    0    0  0.17849315347E+02  0.30235864561E+01  0.47894497066E+01  0.18726424162E+02  0.00000000000E+00 0.  1.
         11    1    3    3    0    0  0.82154813643E+01  0.97369848864E+01 -0.20086429070E+02  0.23785870633E+02  0.51100000000E-03 0. -1.
        -11    1    3    3    0    0 -0.47932199113E+01  0.61179997157E+01 -0.85541125807E+01  0.11557582790E+02  0.51100000000E-03 0.  1.
        -12    1    3    3    0    0 -0.21271576800E+02 -0.18878571058E+02  0.23851091944E+02  0.37118122416E+02  0.00000000000E+00 0.  1.
</event>
<event>
 7    1  0.1749439E-013  0.7246156E+02  0.7816164E-02  0.1226708E+00
        -11   -1    0    0    0    0  0.00000000000E+00  0.00000000000E+00  0.45593999997E+02  0.45594000000E+02  0.51100000000E-03 0. -1.
         11   -1    0    0    0    0 -0.00000000000E+00 -0.00000000000E+00 -0.45593999997E+02  0.45594000000E+02  0.51100000000E-03 0.  1.
    9900012    2    1    2    0    0  0.18291153510E+02 -0.96046058692E+00 -0.38975283806E+01  0.72461561237E+02  0.69999988202E+02 0.  0.
        -12    1    1    2    0    0 -0.18291153510E+02  0.96046058692E+00  0.38975283806E+01  0.18726438763E+02  0.00000000000E+00 0.  1.
         11    1    3    3    0    0  0.20376915752E+01 -0.15219550856E+01  0.92905170757E+00  0.27077059616E+01  0.51100000000E-03 0. -1.
        -11    1    3    3    0    0  0.24336068267E+02 -0.26992530390E+01 -0.32528040179E+02  0.40713678093E+02  0.51100000000E-03 0.  1.
         12    1    3    3    0    0 -0.80826063325E+01  0.32607475377E+01  0.27701460091E+02  0.29040177183E+02  0.00000000000E+00 0. -1.
</event>
<event>
 7    1  0.1749439E-013  0.7246153E+02  0.7816164E-02  0.1226708E+00
        -11   -1    0    0    0    0  0.00000000000E+00  0.00000000000E+00  0.45593999997E+02  0.45594000000E+02  0.51100000000E-03 0.  1.
         11   -1    0    0    0    0 -0.00000000000E+00 -0.00000000000E+00 -0.45593999997E+02  0.45594000000E+02  0.51100000000E-03 0. -1.
    9900012    2    1    2    0    0 -0.70308560330E+01  0.35623603423E+01 -0.16986977604E+02  0.72461527938E+02  0.69999944823E+02 0.  0.
        -12    1    1    2    0    0  0.70308560330E+01 -0.35623603423E+01  0.16986977604E+02  0.18726472062E+02  0.00000000000E+00 0.  1.
         11    1    3    3    0    0  0.26879427478E+02  0.15800611279E+02 -0.47511922259E+01  0.31539447778E+02  0.51100000000E-03 0. -1.
        -11    1    3    3    0    0 -0.26431210926E+01 -0.41379853743E+01  0.23955368090E+01  0.54632965262E+01  0.51100000000E-03 0.  1.
        -12    1    3    3    0    0 -0.31267162418E+02 -0.81002655620E+01 -0.14631322187E+02  0.35458783634E+02  0.00000000000E+00 0.  1.
</event>
<event>
 7    1  0.1749439E-013  0.7246158E+02  0.7816164E-02  0.1226708E+00
        -11   -1    0    0    0    0  0.00000000000E+00  0.00000000000E+00  0.45593999997E+02  0.45594000000E+02  0.51100000000E-03 0.  1.
         11   -1    0    0    0    0 -0.00000000000E+00 -0.00000000000E+00 -0.45593999997E+02  0.45594000000E+02  0.51100000000E-03 0. -1.
    9900012    2    1    2    0    0 -0.16436620413E+02  0.30553444413E+00 -0.89678922636E+01  0.72461576595E+02  0.70000008208E+02 0.  0.
        -12    1    1    2    0    0  0.16436620413E+02 -0.30553444413E+00  0.89678922636E+01  0.18726423405E+02  0.00000000000E+00 0.  1.
         11    1    3    3    0    0 -0.20186818281E+02  0.24293972285E+01 -0.22240401674E+02  0.30133786189E+02  0.51100000000E-03 0. -1.
        -11    1    3    3    0    0 -0.68116162091E+00 -0.12322197394E+02 -0.10422593708E+02  0.16153358463E+02  0.51100000000E-03 0.  1.
        -12    1    3    3    0    0  0.44313594893E+01  0.10198334610E+02  0.23695103119E+02  0.26174431943E+02  0.00000000000E+00 0.  1.
</event>
<event>
 7    1  0.1749439E-013  0.7246160E+02  0.7816164E-02  0.1226708E+00
        -11   -1    0    0    0    0  0.00000000000E+00  0.00000000000E+00  0.45593999997E+02  0.45594000000E+02  0.51100000000E-03 0.  1.
         11   -1    0    0    0    0 -0.00000000000E+00 -0.00000000000E+00 -0.45593999997E+02  0.45594000000E+02  0.51100000000E-03 0. -1.
    9900012    2    1    2    0    0 -0.14862362704E+00 -0.89937200078E+00 -0.18704197841E+02  0.72461602165E+02  0.70000041518E+02 0.  0.
        -12    1    1    2    0    0  0.14862362704E+00  0.89937200078E+00  0.18704197841E+02  0.18726397835E+02  0.00000000000E+00 0.  1.
         11    1    3    3    0    0 -0.37996553147E+01  0.66678282507E+01 -0.19576834632E+02  0.21027357622E+02  0.51100000000E-03 0. -1.
        -11    1    3    3    0    0 -0.15227657677E+02  0.13832194177E+02  0.79138257594E+01  0.22041773805E+02  0.51100000000E-03 0.  1.
         12    1    3    3    0    0  0.18878689365E+02 -0.21399394428E+02 -0.70411889688E+01  0.29392470738E+02  0.00000000000E+00 0. -1.
</event>
<event>
 7    1  0.1749439E-013  0.7246159E+02  0.7816164E-02  0.1226708E+00
        -11   -1    0    0    0    0  0.00000000000E+00  0.00000000000E+00  0.45593999997E+02  0.45594000000E+02  0.51100000000E-03 0. -1.
         11   -1    0    0    0    0 -0.00000000000E+00 -0.00000000000E+00 -0.45593999997E+02  0.45594000000E+02  0.51100000000E-03 0.  1.
    9900012    2    1    2    0    0  0.11245285633E+02  0.14951589644E+02  0.81965693820E+00  0.72461592994E+02  0.70000029571E+02 0.  0.
        -12    1    1    2    0    0 -0.11245285633E+02 -0.14951589644E+02 -0.81965693820E+00  0.18726407006E+02  0.00000000000E+00 0.  1.
         11    1    3    3    0    0 -0.28988876128E+01  0.78368108763E+01 -0.11213253350E+02  0.13984141198E+02  0.51100000000E-03 0.  1.
        -11    1    3    3    0    0 -0.44739881171E+01  0.17746023317E+02  0.26793950596E+02  0.32447707192E+02  0.51100000000E-03 0. -1.
        -12    1    3    3    0    0  0.18618161363E+02 -0.10631244549E+02 -0.14761040308E+02  0.26029744604E+02  0.00000000000E+00 0.  1.
</event>
<event>
 7    1  0.1749439E-013  0.7246143E+02  0.7816164E-02  0.1226708E+00
        -11   -1    0    0    0    0  0.00000000000E+00  0.00000000000E+00  0.45593999997E+02  0.45594000000E+02  0.51100000000E-03 0.  1.
         11   -1    0    0    0    0 -0.00000000000E+00 -0.00000000000E+00 -0.45593999997E+02  0.45594000000E+02  0.51100000000E-03 0. -1.
    9900012    2    1    2    0    0  0.75925057788E+01  0.17050790542E+02 -0.15194297182E+01  0.72461434143E+02  0.69999822638E+02 0.  0.
        -12    1    1    2    0    0 -0.75925057788E+01 -0.17050790542E+02  0.15194297182E+01  0.18726565857E+02  0.00000000000E+00 0.  1.
         11    1    3    3    0    0  0.28562855100E+02  0.18206656509E+02 -0.12313486517E+02  0.36040823841E+02  0.51100000000E-03 0. -1.
        -11    1    3    3    0    0  0.13137372998E+01  0.80345693184E+01 -0.29661222463E+01  0.86647614662E+01  0.51100000000E-03 0.  1.
        -12    1    3    3    0    0 -0.22284086621E+02 -0.91904352852E+01  0.13760179045E+02  0.27755848836E+02  0.00000000000E+00 0.  1.
</event>
<event>
 7    1  0.1749439E-013  0.7246147E+02  0.7816164E-02  0.1226708E+00
        -11   -1    0    0    0    0  0.00000000000E+00  0.00000000000E+00  0.45593999997E+02  0.45594000000E+02  0.51100000000E-03 0.  1.
         11   -1    0    0    0    0 -0.00000000000E+00 -0.00000000000E+00 -0.45593999997E+02  0.45594000000E+02  0.51100000000E-03 0. -1.
    9900012    2    1    2    0    0 -0.15970499885E+02 -0.86118150580E+01 -0.46327731317E+01  0.72461473038E+02  0.69999873305E+02 0.  0.
        -12    1    1    2    0    0  0.15970499885E+02  0.86118150580E+01  0.46327731317E+01  0.18726526962E+02  0.00000000000E+00 0.  1.
         11    1    3    3    0    0  0.90013439892E+01 -0.12343851602E+02  0.62502376699E+01  0.16506372623E+02  0.51100000000E-03 0. -1.
        -11    1    3    3    0    0  0.10301772372E+02 -0.14970113032E+01  0.10163145022E+02  0.14548438880E+02  0.51100000000E-03 0.  1.
         12    1    3    3    0    0 -0.35273616246E+02  0.52290478473E+01 -0.21046155824E+02  0.41406661535E+02  0.00000000000E+00 0. -1.
</event>
<event>
 7    1  0.1749439E-013  0.7246156E+02  0.7816164E-02  0.1226708E+00
        -11   -1    0    0    0    0  0.00000000000E+00  0.00000000000E+00  0.45593999997E+02  0.45594000000E+02  0.51100000000E-03 0.  1.
         11   -1    0    0    0    0 -0.00000000000E+00 -0.00000000000E+00 -0.45593999997E+02  0.45594000000E+02  0.51100000000E-03 0. -1.
    9900012    2    1    2    0    0  0.42872400364E+01 -0.46475640445E+01 -0.17626658512E+02  0.72461564969E+02  0.69999993063E+02 0.  0.
        -12    1    1    2    0    0 -0.42872400364E+01  0.46475640445E+01  0.17626658512E+02  0.18726435031E+02  0.00000000000E+00 0.  1.
         11    1    3    3    0    0  0.62544026147E+01  0.30759613338E+02  0.70988060405E+00  0.31397058708E+02  0.51100000000E-03 0. -1.
        -11    1    3    3    0    0  0.23298720776E+01 -0.20855215319E+01 -0.12028054597E+01  0.33502903147E+01  0.51100000000E-03 0.  1.
        -12    1    3    3    0    0 -0.42970346559E+01 -0.33321655851E+02 -0.17133733656E+02  0.37714215946E+02  0.00000000000E+00 0.  1.
</event>
<event>
 7    1  0.1749439E-013  0.7246159E+02  0.7816164E-02  0.1226708E+00
        -11   -1    0    0    0    0  0.00000000000E+00  0.00000000000E+00  0.45593999997E+02  0.45594000000E+02  0.51100000000E-03 0.  1.
         11   -1    0    0    0    0 -0.00000000000E+00 -0.00000000000E+00 -0.45593999997E+02  0.45594000000E+02  0.51100000000E-03 0. -1.
    9900012    2    1    2    0    0 -0.39829000454E+00  0.58044784401E+01 -0.17799656014E+02  0.72461591933E+02  0.70000028188E+02 0.  0.
        -12    1    1    2    0    0  0.39829000454E+00 -0.58044784401E+01  0.17799656014E+02  0.18726408067E+02  0.00000000000E+00 0.  1.
         11    1    3    3    0    0 -0.24249972260E+01 -0.17725342647E+02  0.25608665004E+01  0.18072808885E+02  0.51100000000E-03 0. -1.
        -11    1    3    3    0    0  0.96626481931E+01  0.65559163452E+01  0.12197816021E+02  0.16885897228E+02  0.51100000000E-03 0.  1.
         12    1    3    3    0    0 -0.76359409717E+01  0.16973904742E+02 -0.32558338535E+02  0.37502885821E+02  0.00000000000E+00 0. -1.
</event>
<event>
 7    1  0.1749439E-013  0.7246160E+02  0.7816164E-02  0.1226708E+00
        -11   -1    0    0    0    0  0.00000000000E+00  0.00000000000E+00  0.45593999997E+02  0.45594000000E+02  0.51100000000E-03 0.  1.
         11   -1    0    0    0    0 -0.00000000000E+00 -0.00000000000E+00 -0.45593999997E+02  0.45594000000E+02  0.51100000000E-03 0. -1.
    9900012    2    1    2    0    0  0.83079772889E+01 -0.89545107936E+00 -0.16758689764E+02  0.72461601471E+02  0.70000040613E+02 0.  0.
        -12    1    1    2    0    0 -0.83079772889E+01  0.89545107936E+00  0.16758689764E+02  0.18726398529E+02  0.00000000000E+00 0.  1.
         11    1    3    3    0    0 -0.17487507307E+02 -0.10615619368E+02 -0.13898044716E+02  0.24731759613E+02  0.51100000000E-03 0. -1.
        -11    1    3    3    0    0 -0.86230301725E+01  0.37519318155E+01  0.66601345153E+01  0.11523499196E+02  0.51100000000E-03 0.  1.
         12    1    3    3    0    0  0.34418514768E+02  0.59682364729E+01 -0.95207795626E+01  0.36206342662E+02  0.00000000000E+00 0. -1.
</event>
<event>
 7    1  0.1749439E-013  0.7246159E+02  0.7816164E-02  0.1226708E+00
        -11   -1    0    0    0    0  0.00000000000E+00  0.00000000000E+00  0.45593999997E+02  0.45594000000E+02  0.51100000000E-03 0. -1.
         11   -1    0    0    0    0 -0.00000000000E+00 -0.00000000000E+00 -0.45593999997E+02  0.45594000000E+02  0.51100000000E-03 0.  1.
    9900012    2    1    2    0    0  0.60059820777E+01 -0.19281125602E+01  0.17632043428E+02  0.72461590995E+02  0.70000026967E+02 0.  0.
        -12    1    1    2    0    0 -0.60059820777E+01  0.19281125602E+01 -0.17632043428E+02  0.18726409005E+02  0.00000000000E+00 0.  1.
         11    1    3    3    0    0 -0.35916757288E+00  0.57218301783E+01  0.37667325629E+02  0.38101125472E+02  0.51100000000E-03 0. -1.
        -11    1    3    3    0    0  0.73471520602E+00 -0.86042489910E+00  0.63965131818E+01  0.64958077702E+01  0.51100000000E-03 0.  1.
        -12    1    3    3    0    0  0.56304344446E+01 -0.67895178395E+01 -0.26431795383E+02  0.27864657753E+02  0.00000000000E+00 0.  1.
</event>
<event>
 7    1  0.1749439E-013  0.7246155E+02  0.7816164E-02  0.1226708E+00
        -11   -1    0    0    0    0  0.00000000000E+00  0.00000000000E+00  0.45593999997E+02  0.45594000000E+02  0.51100000000E-03 0.  1.
         11   -1    0    0    0    0 -0.00000000000E+00 -0.00000000000E+00 -0.45593999997E+02  0.45594000000E+02  0.51100000000E-03 0. -1.
    9900012    2    1    2    0    0 -0.97086866498E+01  0.15976643483E+02 -0.10808172814E+01  0.72461550805E+02  0.69999974612E+02 0.  0.
        -12    1    1    2    0    0  0.97086866498E+01 -0.15976643483E+02  0.10808172814E+01  0.18726449195E+02  0.00000000000E+00 0.  1.
         11    1    3    3    0    0 -0.16308927294E+02 -0.13202417140E+02  0.10896001828E+02  0.23643345446E+02  0.51100000000E-03 0. -1.
        -11    1    3    3    0    0  0.25446588844E+01 -0.87411016490E+01 -0.11608497450E+01  0.91776750470E+01  0.51100000000E-03 0.  1.
        -12    1    3    3    0    0  0.40555817597E+01  0.37920162272E+02 -0.10815969364E+02  0.39640530312E+02  0.00000000000E+00 0.  1.
</event>
<event>
 7    1  0.1749439E-013  0.7246156E+02  0.7816164E-02  0.1226708E+00
        -11   -1    0    0    0    0  0.00000000000E+00  0.00000000000E+00  0.45593999997E+02  0.45594000000E+02  0.51100000000E-03 0.  1.
         11   -1    0    0    0    0 -0.00000000000E+00 -0.00000000000E+00 -0.45593999997E+02  0.45594000000E+02  0.51100000000E-03 0. -1.
    9900012    2    1    2    0    0  0.18625205096E+02  0.59228326719E+00  0.18521264613E+01  0.72461563159E+02  0.69999990705E+02 0.  0.
        -12    1    1    2    0    0 -0.18625205096E+02 -0.59228326719E+00 -0.18521264613E+01  0.18726436841E+02  0.00000000000E+00 0.  1.
         11    1    3    3    0    0  0.20295479401E+02 -0.10963579179E+02 -0.26088733209E+02  0.34824252371E+02  0.51100000000E-03 0. -1.
        -11    1    3    3    0    0  0.40877822823E+01 -0.36805827388E+01  0.24400525742E+00  0.55060141764E+01  0.51100000000E-03 0.  1.
        -12    1    3    3    0    0 -0.57580565870E+01  0.15236445185E+02  0.27696854413E+02  0.32131296611E+02  0.00000000000E+00 0.  1.
</event>
<event>
 7    1  0.1749439E-013  0.7246159E+02  0.7816164E-02  0.1226708E+00
        -11   -1    0    0    0    0  0.00000000000E+00  0.00000000000E+00  0.45593999997E+02  0.45594000000E+02  0.51100000000E-03 0.  1.
         11   -1    0    0    0    0 -0.00000000000E+00 -0.00000000000E+00 -0.45593999997E+02  0.45594000000E+02  0.51100000000E-03 0. -1.
    9900012    2    1    2    0    0  0.93191296442E+01  0.12276000316E+02 -0.10636351207E+02  0.72461592761E+02  0.70000029267E+02 0.  0.
        -12    1    1    2    0    0 -0.93191296442E+01 -0.12276000316E+02  0.10636351207E+02  0.18726407239E+02  0.00000000000E+00 0.  1.
         11    1    3    3    0    0  0.12410693392E+02 -0.12110263671E+02 -0.12532420799E+02  0.21394984646E+02  0.51100000000E-03 0. -1.
        -11    1    3    3    0    0  0.33412434824E+01 -0.12518507516E+02 -0.29640107763E+01  0.13291437040E+02  0.51100000000E-03 0.  1.
        -12    1    3    3    0    0 -0.64328072298E+01  0.36904771503E+02  0.48600803680E+01  0.37775171075E+02  0.00000000000E+00 0.  1.
</event>
<event>
 7    1  0.1749439E-013  0.7246158E+02  0.7816164E-02  0.1226708E+00
        -11   -1    0    0    0    0  0.00000000000E+00  0.00000000000E+00  0.45593999997E+02  0.45594000000E+02  0.51100000000E-03 0. -1.
         11   -1    0    0    0    0 -0.00000000000E+00 -0.00000000000E+00 -0.45593999997E+02  0.45594000000E+02  0.51100000000E-03 0.  1.
    9900012    2    1    2    0    0 -0.38278073088E+01  0.16209100941E+02  0.85610559117E+01  0.72461581751E+02  0.70000014925E+02 0.  0.
        -12    1    1    2    0    0  0.38278073088E+01 -0.16209100941E+02 -0.85610559117E+01  0.18726418249E+02  0.00000000000E+00 0.  1.
         11    1    3    3    0    0  0.24031996972E+02  0.21684493861E+01 -0.79062051789E+01  0.25391871373E+02  0.51100000000E-03 0. -1.
        -11    1    3    3    0    0 -0.82288871629E+00 -0.33862863677E+01 -0.66159983594E+01  0.74776678019E+01  0.51100000000E-03 0.  1.
        -12    1    3    3    0    0 -0.27036915565E+02  0.17426937922E+02  0.23083259450E+02  0.39592042577E+02  0.00000000000E+00 0.  1.
</event>
<event>
 7    1  0.1749439E-013  0.7246160E+02  0.7816164E-02  0.1226708E+00
        -11   -1    0    0    0    0  0.00000000000E+00  0.00000000000E+00  0.45593999997E+02  0.45594000000E+02  0.51100000000E-03 0. -1.
         11   -1    0    0    0    0 -0.00000000000E+00 -0.00000000000E+00 -0.45593999997E+02  0.45594000000E+02  0.51100000000E-03 0.  1.
    9900012    2    1    2    0    0 -0.17906384758E+02 -0.53944207296E+01 -0.96945862371E+00  0.72461595109E+02  0.70000032326E+02 0.  0.
        -12    1    1    2    0    0  0.17906384758E+02  0.53944207296E+01  0.96945862371E+00  0.18726404891E+02  0.00000000000E+00 0.  1.
         11    1    3    3    0    0  0.12440508280E+02 -0.20330511591E+02 -0.18269515939E+01  0.23904679463E+02  0.51100000000E-03 0. -1.
        -11    1    3    3    0    0 -0.12089765719E+02  0.24566689311E+02 -0.30469968036E+01  0.27549389261E+02  0.51100000000E-03 0.  1.
         12    1    3    3    0    0 -0.18257127319E+02 -0.96305984500E+01  0.39044897738E+01  0.21007526386E+02  0.00000000000E+00 0. -1.
</event>
<event>
 7    1  0.1749439E-013  0.7246144E+02  0.7816164E-02  0.1226708E+00
        -11   -1    0    0    0    0  0.00000000000E+00  0.00000000000E+00  0.45593999997E+02  0.45594000000E+02  0.51100000000E-03 0. -1.
         11   -1    0    0    0    0 -0.00000000000E+00 -0.00000000000E+00 -0.45593999997E+02  0.45594000000E+02  0.51100000000E-03 0.  1.
    9900012    2    1    2    0    0  0.13348631056E+02  0.12347548451E+02  0.44761856784E+01  0.72461437528E+02  0.69999827046E+02 0.  0.
        -12    1    1    2    0    0 -0.13348631056E+02 -0.12347548451E+02 -0.44761856784E+01  0.18726562472E+02  0.00000000000E+00 0.  1.
         11    1    3    3    0    0  0.26382132244E+02  0.64611562414E+01 -0.77171100186E+01  0.28236806282E+02  0.51100000000E-03 0. -1.
        -11    1    3    3    0    0 -0.22754158631E+01 -0.50430309123E+01 -0.13338866926E+02  0.14440742684E+02  0.51100000000E-03 0.  1.
        -12    1    3    3    0    0 -0.10758085325E+02  0.10929423122E+02  0.25532162623E+02  0.29783888562E+02  0.00000000000E+00 0.  1.
</event>
<event>
 7    1  0.1749439E-013  0.7246157E+02  0.7816164E-02  0.1226708E+00
        -11   -1    0    0    0    0  0.00000000000E+00  0.00000000000E+00  0.45593999997E+02  0.45594000000E+02  0.51100000000E-03 0.  1.
         11   -1    0    0    0    0 -0.00000000000E+00 -0.00000000000E+00 -0.45593999997E+02  0.45594000000E+02  0.51100000000E-03 0. -1.
    9900012    2    1    2    0    0 -0.66365191239E+01 -0.14089107964E+02 -0.10398700241E+02  0.72461566383E+02  0.69999994905E+02 0.  0.
        -12    1    1    2    0    0  0.66365191239E+01  0.14089107964E+02  0.10398700241E+02  0.18726433617E+02  0.00000000000E+00 0.  1.
         11    1    3    3    0    0  0.66975184014E+01 -0.11761686719E+02 -0.19700707266E+02  0.23902131583E+02  0.51100000000E-03 0. -1.
        -11    1    3    3    0    0 -0.23081253690E+02 -0.11884306780E+02 -0.73937354726E+01  0.26993487067E+02  0.51100000000E-03 0.  1.
        -12    1    3    3    0    0  0.97472161649E+01  0.95568855342E+01  0.16695742498E+02  0.21565947733E+02  0.00000000000E+00 0.  1.
</event>
<event>
 7    1  0.1749439E-013  0.7246155E+02  0.7816164E-02  0.1226708E+00
        -11   -1    0    0    0    0  0.00000000000E+00  0.00000000000E+00  0.45593999997E+02  0.45594000000E+02  0.51100000000E-03 0.  1.
         11   -1    0    0    0    0 -0.00000000000E+00 -0.00000000000E+00 -0.45593999997E+02  0.45594000000E+02  0.51100000000E-03 0. -1.
    9900012    2    1    2    0    0 -0.90931271587E+01  0.10163042750E+02 -0.12833848662E+02  0.72461546226E+02  0.69999968647E+02 0.  0.
        -12    1    1    2    0    0  0.90931271587E+01 -0.10163042750E+02  0.12833848662E+02  0.18726453774E+02  0.00000000000E+00 0.  1.
         11    1    3    3    0    0 -0.50720440075E+01  0.11276936377E+02 -0.10400317520E+02  0.16157398592E+02  0.51100000000E-03 0. -1.
        -11    1    3    3    0    0 -0.25879748965E+02  0.98996404719E+01  0.92102898457E+01  0.29199207648E+02  0.51100000000E-03 0.  1.
        -12    1    3    3    0    0  0.21858665813E+02 -0.11013534099E+02 -0.11643820987E+02  0.27104939987E+02  0.00000000000E+00 0.  1.
</event>
<event>
 7    1  0.1749439E-013  0.7246156E+02  0.7816164E-02  0.1226708E+00
        -11   -1    0    0    0    0  0.00000000000E+00  0.00000000000E+00  0.45593999997E+02  0.45594000000E+02  0.51100000000E-03 0.  1.
         11   -1    0    0    0    0 -0.00000000000E+00 -0.00000000000E+00 -0.45593999997E+02  0.45594000000E+02  0.51100000000E-03 0. -1.
    9900012    2    1    2    0    0  0.12948913796E+01 -0.71737278683E+01 -0.17249356639E+02  0.72461563615E+02  0.69999991299E+02 0.  0.
        -12    1    1    2    0    0 -0.12948913796E+01  0.71737278683E+01  0.17249356639E+02  0.18726436385E+02  0.00000000000E+00 0.  1.
         11    1    3    3    0    0 -0.58237296943E+01  0.60417044014E+01  0.34627985485E+01  0.90779399467E+01  0.51100000000E-03 0. -1.
        -11    1    3    3    0    0 -0.88843362885E+01 -0.19157230299E+02  0.13559718751E+02  0.25095754160E+02  0.51100000000E-03 0.  1.
         12    1    3    3    0    0  0.16002957362E+02  0.59417980292E+01 -0.34271873939E+02  0.38287869508E+02  0.00000000000E+00 0. -1.
</event>
<event>
 7    1  0.1749439E-013  0.7246154E+02  0.7816164E-02  0.1226708E+00
        -11   -1    0    0    0    0  0.00000000000E+00  0.00000000000E+00  0.45593999997E+02  0.45594000000E+02  0.51100000000E-03 0.  1.
         11   -1    0    0    0    0 -0.00000000000E+00 -0.00000000000E+00 -0.45593999997E+02  0.45594000000E+02  0.51100000000E-03 0. -1.
    9900012    2    1    2    0    0 -0.95795406901E+00  0.72288127883E+01 -0.17248393386E+02  0.72461535178E+02  0.69999954255E+02 0.  0.
        -12    1    1    2    0    0  0.95795406901E+00 -0.72288127883E+01  0.17248393386E+02  0.18726464822E+02  0.00000000000E+00 0.  1.
         11    1    3    3    0    0 -0.19488532434E+01  0.30160121517E+01 -0.96145943755E+01  0.10263273529E+02  0.51100000000E-03 0. -1.
        -11    1    3    3    0    0 -0.26802006756E+02 -0.57863331589E+01  0.82862044919E+01  0.28644203650E+02  0.51100000000E-03 0.  1.
         12    1    3    3    0    0  0.27792905931E+02  0.99991337954E+01 -0.15920003502E+02  0.33554058000E+02  0.00000000000E+00 0. -1.
</event>
<event>
 7    1  0.1749439E-013  0.7246169E+02  0.7816164E-02  0.1226708E+00
        -11   -1    0    0    0    0  0.00000000000E+00  0.00000000000E+00  0.45593999997E+02  0.45594000000E+02  0.51100000000E-03 0.  1.
         11   -1    0    0    0    0 -0.00000000000E+00 -0.00000000000E+00 -0.45593999997E+02  0.45594000000E+02  0.51100000000E-03 0. -1.
    9900012    2    1    2    0    0 -0.12655703664E+02  0.12963843161E+02 -0.47378027054E+01  0.72461685915E+02  0.70000150618E+02 0.  0.
        -12    1    1    2    0    0  0.12655703664E+02 -0.12963843161E+02  0.47378027054E+01  0.18726314085E+02  0.00000000000E+00 0.  1.
         11    1    3    3    0    0 -0.32514577459E+01  0.10831163666E+01  0.22125600874E+01  0.40792819146E+01  0.51100000000E-03 0. -1.
        -11    1    3    3    0    0  0.19691991703E+02  0.28180387305E+02 -0.32750673661E+00  0.34380459957E+02  0.51100000000E-03 0.  1.
         12    1    3    3    0    0 -0.29096237621E+02 -0.16299660511E+02 -0.66228560562E+01  0.34001944044E+02  0.00000000000E+00 0. -1.
</event>
<event>
 7    1  0.1749439E-013  0.7246131E+02  0.7816164E-02  0.1226709E+00
        -11   -1    0    0    0    0  0.00000000000E+00  0.00000000000E+00  0.45593999997E+02  0.45594000000E+02  0.51100000000E-03 0.  1.
         11   -1    0    0    0    0 -0.00000000000E+00 -0.00000000000E+00 -0.45593999997E+02  0.45594000000E+02  0.51100000000E-03 0. -1.
    9900012    2    1    2    0    0  0.10737276189E+02  0.32439748774E+01 -0.14995881666E+02  0.72461309425E+02  0.69999660168E+02 0.  0.
        -12    1    1    2    0    0 -0.10737276189E+02 -0.32439748774E+01  0.14995881666E+02  0.18726690575E+02  0.00000000000E+00 0.  1.
         11    1    3    3    0    0  0.16505518157E+02  0.13118147522E+02 -0.91147896058E+01  0.22969486582E+02  0.51100000000E-03 0.  1.
        -11    1    3    3    0    0  0.17877320903E+02  0.43923737468E+01  0.60935927922E+01  0.19391323399E+02  0.51100000000E-03 0. -1.
         12    1    3    3    0    0 -0.23645562871E+02 -0.14266546392E+02 -0.11974684853E+02  0.30100499443E+02  0.00000000000E+00 0. -1.
</event>
<event>
 7    1  0.1749439E-013  0.7246159E+02  0.7816164E-02  0.1226708E+00
        -11   -1    0    0    0    0  0.00000000000E+00  0.00000000000E+00  0.45593999997E+02  0.45594000000E+02  0.51100000000E-03 0.  1.
         11   -1    0    0    0    0 -0.00000000000E+00 -0.00000000000E+00 -0.45593999997E+02  0.45594000000E+02  0.51100000000E-03 0. -1.
    9900012    2    1    2    0    0  0.16130416053E+02  0.73413745971E+01 -0.60491565252E+01  0.72461590902E+02  0.70000026846E+02 0.  0.
        -12    1    1    2    0    0 -0.16130416053E+02 -0.73413745971E+01  0.60491565252E+01  0.18726409098E+02  0.00000000000E+00 0.  1.
         11    1    3    3    0    0  0.13694789853E+02 -0.13575171532E+02 -0.17814922996E+02  0.26252695725E+02  0.51100000000E-03 0. -1.
        -11    1    3    3    0    0  0.92509946465E+00  0.11476463977E+02 -0.14350147267E+02  0.18398145593E+02  0.51100000000E-03 0.  1.
        -12    1    3    3    0    0  0.15105267360E+01  0.94400821528E+01  0.26115913737E+02  0.27810749584E+02  0.00000000000E+00 0.  1.
</event>
<event>
 7    1  0.1749439E-013  0.7246157E+02  0.7816164E-02  0.1226708E+00
        -11   -1    0    0    0    0  0.00000000000E+00  0.00000000000E+00  0.45593999997E+02  0.45594000000E+02  0.51100000000E-03 0. -1.
         11   -1    0    0    0    0 -0.00000000000E+00 -0.00000000000E+00 -0.45593999997E+02  0.45594000000E+02  0.51100000000E-03 0.  1.
    9900012    2    1    2    0    0 -0.98087597865E+01  0.50962816607E+01  0.15116059102E+02  0.72461572201E+02  0.70000002484E+02 0.  0.
        -12    1    1    2    0    0  0.98087597865E+01 -0.50962816607E+01 -0.15116059102E+02  0.18726427799E+02  0.00000000000E+00 0.  1.
         11    1    3    3    0    0 -0.17193929208E+02 -0.74908325968E+01 -0.11630985225E+01  0.18790864084E+02  0.51100000000E-03 0. -1.
        -11    1    3    3    0    0  0.13356406155E+02  0.19728854708E+02 -0.99646791855E+01  0.25824719262E+02  0.51100000000E-03 0.  1.
         12    1    3    3    0    0 -0.59712367334E+01 -0.71417404500E+01  0.26243836810E+02  0.27845988855E+02  0.00000000000E+00 0. -1.
</event>
<event>
 7    1  0.1749439E-013  0.7246142E+02  0.7816164E-02  0.1226708E+00
        -11   -1    0    0    0    0  0.00000000000E+00  0.00000000000E+00  0.45593999997E+02  0.45594000000E+02  0.51100000000E-03 0. -1.
         11   -1    0    0    0    0 -0.00000000000E+00 -0.00000000000E+00 -0.45593999997E+02  0.45594000000E+02  0.51100000000E-03 0.  1.
    9900012    2    1    2    0    0 -0.56617636361E+01 -0.97963707402E+01  0.14921810303E+02  0.72461418094E+02  0.69999801731E+02 0.  0.
        -12    1    1    2    0    0  0.56617636361E+01  0.97963707402E+01 -0.14921810303E+02  0.18726581906E+02  0.00000000000E+00 0.  1.
         11    1    3    3    0    0 -0.22565128768E+02 -0.14177825736E+02  0.88939108653E+01  0.28094437700E+02  0.51100000000E-03 0. -1.
        -11    1    3    3    0    0  0.84570533883E+01  0.40410886618E+01  0.23312429421E+02  0.25126112221E+02  0.51100000000E-03 0.  1.
        -12    1    3    3    0    0  0.84463117440E+01  0.34036633376E+00 -0.17284529983E+02  0.19240868173E+02  0.00000000000E+00 0.  1.
</event>
<event>
 7    1  0.1749439E-013  0.7246158E+02  0.7816164E-02  0.1226708E+00
        -11   -1    0    0    0    0  0.00000000000E+00  0.00000000000E+00  0.45593999997E+02  0.45594000000E+02  0.51100000000E-03 0.  1.
         11   -1    0    0    0    0 -0.00000000000E+00 -0.00000000000E+00 -0.45593999997E+02  0.45594000000E+02  0.51100000000E-03 0. -1.
    9900012    2    1    2    0    0 -0.41616273463E+01  0.11811974527E+02 -0.13922535427E+02  0.72461578102E+02  0.70000010171E+02 0.  0.
        -12    1    1    2    0    0  0.41616273463E+01 -0.11811974527E+02  0.13922535427E+02  0.18726421898E+02  0.00000000000E+00 0.  1.
         11    1    3    3    0    0  0.63020908215E+01  0.11166321932E+02 -0.18432901986E+02  0.22453840876E+02  0.51100000000E-03 0. -1.
        -11    1    3    3    0    0 -0.13905148847E+02  0.22001345980E+02  0.96772637798E+01  0.27767999999E+02  0.51100000000E-03 0.  1.
         12    1    3    3    0    0  0.34414306792E+01 -0.21355693385E+02 -0.51668972208E+01  0.22239737227E+02  0.00000000000E+00 0. -1.
</event>
<event>
 7    1  0.1749439E-013  0.7246156E+02  0.7816164E-02  0.1226708E+00
        -11   -1    0    0    0    0  0.00000000000E+00  0.00000000000E+00  0.45593999997E+02  0.45594000000E+02  0.51100000000E-03 0.  1.
         11   -1    0    0    0    0 -0.00000000000E+00 -0.00000000000E+00 -0.45593999997E+02  0.45594000000E+02  0.51100000000E-03 0. -1.
    9900012    2    1    2    0    0  0.16355664929E+01  0.16402039108E+01 -0.18582629880E+02  0.72461562008E+02  0.69999989205E+02 0.  0.
        -12    1    1    2    0    0 -0.16355664929E+01 -0.16402039108E+01  0.18582629880E+02  0.18726437992E+02  0.00000000000E+00 0.  1.
         11    1    3    3    0    0  0.92446156714E+01  0.81290713205E+01 -0.21678689421E+01  0.12499775016E+02  0.51100000000E-03 0. -1.
        -11    1    3    3    0    0  0.24012359895E+02 -0.19170742194E+01 -0.10394215454E+00  0.24088989301E+02  0.51100000000E-03 0.  1.
         12    1    3    3    0    0 -0.31621409074E+02 -0.45717931903E+01 -0.16310818783E+02  0.35872797691E+02  0.00000000000E+00 0. -1.
</event>
<event>
 7    1  0.1749439E-013  0.7246157E+02  0.7816164E-02  0.1226708E+00
        -11   -1    0    0    0    0  0.00000000000E+00  0.00000000000E+00  0.45593999997E+02  0.45594000000E+02  0.51100000000E-03 0.  1.
         11   -1    0    0    0    0 -0.00000000000E+00 -0.00000000000E+00 -0.45593999997E+02  0.45594000000E+02  0.51100000000E-03 0. -1.
    9900012    2    1    2    0    0  0.35879062403E+01  0.15086018354E+02 -0.10498481835E+02  0.72461571035E+02  0.70000000965E+02 0.  0.
        -12    1    1    2    0    0 -0.35879062403E+01 -0.15086018354E+02  0.10498481835E+02  0.18726428965E+02  0.00000000000E+00 0.  1.
         11    1    3    3    0    0  0.53216461816E+01 -0.21877015360E+02 -0.89722691126E+00  0.22532836828E+02  0.51100000000E-03 0. -1.
        -11    1    3    3    0    0 -0.24598705188E+01  0.99977453959E+01  0.11679673949E+02  0.15569863833E+02  0.51100000000E-03 0.  1.
         12    1    3    3    0    0  0.72613057753E+00  0.26965288317E+02 -0.21280928873E+02  0.34358870373E+02  0.00000000000E+00 0. -1.
</event>
<event>
 7    1  0.1749439E-013  0.7246172E+02  0.7816164E-02  0.1226708E+00
        -11   -1    0    0    0    0  0.00000000000E+00  0.00000000000E+00  0.45593999997E+02  0.45594000000E+02  0.51100000000E-03 0.  1.
         11   -1    0    0    0    0 -0.00000000000E+00 -0.00000000000E+00 -0.45593999997E+02  0.45594000000E+02  0.51100000000E-03 0. -1.
    9900012    2    1    2    0    0 -0.17496326794E+02 -0.49838269696E+01 -0.44399870292E+01  0.72461722544E+02  0.70000198333E+02 0.  0.
        -12    1    1    2    0    0  0.17496326794E+02  0.49838269696E+01  0.44399870292E+01  0.18726277456E+02  0.00000000000E+00 0.  1.
         11    1    3    3    0    0  0.13823616567E+02 -0.87431039013E+01 -0.19236579376E+02  0.25250351031E+02  0.51100000000E-03 0. -1.
        -11    1    3    3    0    0 -0.17548140335E+01  0.12657350257E+02 -0.43026737680E+00  0.12785656733E+02  0.51100000000E-03 0.  1.
         12    1    3    3    0    0 -0.29565129328E+02 -0.88980733252E+01  0.15226859724E+02  0.34425714780E+02  0.00000000000E+00 0. -1.
</event>
<event>
 7    1  0.1749439E-013  0.7246150E+02  0.7816164E-02  0.1226708E+00
        -11   -1    0    0    0    0  0.00000000000E+00  0.00000000000E+00  0.45593999997E+02  0.45594000000E+02  0.51100000000E-03 0.  1.
         11   -1    0    0    0    0 -0.00000000000E+00 -0.00000000000E+00 -0.45593999997E+02  0.45594000000E+02  0.51100000000E-03 0. -1.
    9900012    2    1    2    0    0 -0.84380008848E+00  0.14944310540E+02 -0.11253326685E+02  0.72461500658E+02  0.69999909286E+02 0.  0.
        -12    1    1    2    0    0  0.84380008848E+00 -0.14944310540E+02  0.11253326685E+02  0.18726499342E+02  0.00000000000E+00 0.  1.
         11    1    3    3    0    0  0.30596461891E+02 -0.28919671685E+01 -0.55617120626E+01  0.31232028363E+02  0.51100000000E-03 0. -1.
        -11    1    3    3    0    0  0.79551658988E+00 -0.19072770991E+01  0.17434352181E+01  0.27037232104E+01  0.51100000000E-03 0.  1.
        -12    1    3    3    0    0 -0.32235778569E+02  0.19743554808E+02 -0.74350498407E+01  0.38525749085E+02  0.00000000000E+00 0.  1.
</event>
<event>
 7    1  0.1749439E-013  0.7246162E+02  0.7816164E-02  0.1226708E+00
        -11   -1    0    0    0    0  0.00000000000E+00  0.00000000000E+00  0.45593999997E+02  0.45594000000E+02  0.51100000000E-03 0.  1.
         11   -1    0    0    0    0 -0.00000000000E+00 -0.00000000000E+00 -0.45593999997E+02  0.45594000000E+02  0.51100000000E-03 0. -1.
    9900012    2    1    2    0    0  0.71746076838E+01 -0.15852930993E+02 -0.69200460204E+01  0.72461616115E+02  0.70000059689E+02 0.  0.
        -12    1    1    2    0    0 -0.71746076838E+01  0.15852930993E+02  0.69200460204E+01  0.18726383885E+02  0.00000000000E+00 0.  1.
         11    1    3    3    0    0  0.11177210932E+02  0.66590486939E+01 -0.25262649225E+02  0.28416094381E+02  0.51100000000E-03 0.  1.
        -11    1    3    3    0    0  0.89057318399E+01 -0.23250749328E+02  0.48648958312E+01  0.25368811869E+02  0.51100000000E-03 0. -1.
        -12    1    3    3    0    0 -0.12908335089E+02  0.73876964090E+00  0.13477707373E+02  0.18676709865E+02  0.00000000000E+00 0.  1.
</event>
<event>
 7    1  0.1749439E-013  0.7246160E+02  0.7816164E-02  0.1226708E+00
        -11   -1    0    0    0    0  0.00000000000E+00  0.00000000000E+00  0.45593999997E+02  0.45594000000E+02  0.51100000000E-03 0.  1.
         11   -1    0    0    0    0 -0.00000000000E+00 -0.00000000000E+00 -0.45593999997E+02  0.45594000000E+02  0.51100000000E-03 0. -1.
    9900012    2    1    2    0    0 -0.80738535860E+01 -0.16244412916E+02 -0.46486469767E+01  0.72461602017E+02  0.70000041324E+02 0.  0.
        -12    1    1    2    0    0  0.80738535860E+01  0.16244412916E+02  0.46486469767E+01  0.18726397983E+02  0.00000000000E+00 0.  1.
         11    1    3    3    0    0  0.14982778895E+02 -0.25949515296E+01 -0.27124688934E+02  0.31096079928E+02  0.51100000000E-03 0. -1.
        -11    1    3    3    0    0  0.35332569520E+01  0.17152843638E+01  0.16508249008E+01  0.42604375657E+01  0.51100000000E-03 0.  1.
         12    1    3    3    0    0 -0.26589889433E+02 -0.15364745750E+02  0.20825217056E+02  0.37105084523E+02  0.00000000000E+00 0. -1.
</event>
<event>
 7    1  0.1749439E-013  0.7246161E+02  0.7816164E-02  0.1226708E+00
        -11   -1    0    0    0    0  0.00000000000E+00  0.00000000000E+00  0.45593999997E+02  0.45594000000E+02  0.51100000000E-03 0.  1.
         11   -1    0    0    0    0 -0.00000000000E+00 -0.00000000000E+00 -0.45593999997E+02  0.45594000000E+02  0.51100000000E-03 0. -1.
    9900012    2    1    2    0    0  0.15919161482E+02 -0.82357500607E+01 -0.54249700149E+01  0.72461612708E+02  0.70000055251E+02 0.  0.
        -12    1    1    2    0    0 -0.15919161482E+02  0.82357500607E+01  0.54249700149E+01  0.18726387292E+02  0.00000000000E+00 0.  1.
         11    1    3    3    0    0 -0.13527358683E+02  0.20111561013E+02 -0.68429182011E+01  0.25185111655E+02  0.51100000000E-03 0. -1.
        -11    1    3    3    0    0  0.43563194408E+01  0.26079733860E+01  0.51792239664E+01  0.72528205140E+01  0.51100000000E-03 0.  1.
         12    1    3    3    0    0  0.25090200724E+02 -0.30955284460E+02 -0.37612757802E+01  0.40023680539E+02  0.00000000000E+00 0. -1.
</event>
<event>
 7    1  0.1749439E-013  0.7246085E+02  0.7816164E-02  0.1226710E+00
        -11   -1    0    0    0    0  0.00000000000E+00  0.00000000000E+00  0.45593999997E+02  0.45594000000E+02  0.51100000000E-03 0.  1.
         11   -1    0    0    0    0 -0.00000000000E+00 -0.00000000000E+00 -0.45593999997E+02  0.45594000000E+02  0.51100000000E-03 0. -1.
    9900012    2    1    2    0    0  0.12388105606E+02 -0.48232579275E+01 -0.13190046772E+02  0.72460845614E+02  0.69999055963E+02 0.  0.
        -12    1    1    2    0    0 -0.12388105606E+02  0.48232579275E+01  0.13190046772E+02  0.18727154386E+02  0.00000000000E+00 0.  1.
         11    1    3    3    0    0  0.10534464428E+01 -0.58024900529E+01 -0.20332706819E+01  0.62380149205E+01  0.51100000000E-03 0. -1.
        -11    1    3    3    0    0  0.29912939047E+02 -0.15962769497E+02  0.77305807375E+01  0.34775793467E+02  0.51100000000E-03 0.  1.
         12    1    3    3    0    0 -0.18578279883E+02  0.16942001623E+02 -0.18887356828E+02  0.31447037227E+02  0.00000000000E+00 0. -1.
</event>
<event>
 7    1  0.1749439E-013  0.7246157E+02  0.7816164E-02  0.1226708E+00
        -11   -1    0    0    0    0  0.00000000000E+00  0.00000000000E+00  0.45593999997E+02  0.45594000000E+02  0.51100000000E-03 0.  1.
         11   -1    0    0    0    0 -0.00000000000E+00 -0.00000000000E+00 -0.45593999997E+02  0.45594000000E+02  0.51100000000E-03 0. -1.
    9900012    2    1    2    0    0 -0.24682455822E+01 -0.96822816786E+01 -0.15837940276E+02  0.72461570363E+02  0.70000000090E+02 0.  0.
        -12    1    1    2    0    0  0.24682455822E+01  0.96822816786E+01  0.15837940276E+02  0.18726429637E+02  0.00000000000E+00 0.  1.
         11    1    3    3    0    0 -0.22702741300E+02 -0.60064255872E-01 -0.10599126923E+02  0.25055130453E+02  0.51100000000E-03 0. -1.
        -11    1    3    3    0    0 -0.32432057593E+01 -0.20477443388E+02 -0.58201972584E+01  0.21534130298E+02  0.51100000000E-03 0.  1.
        -12    1    3    3    0    0  0.23477701477E+02  0.10855225965E+02  0.58138390549E+00  0.25872309612E+02  0.00000000000E+00 0.  1.
</event>
<event>
 7    1  0.1749439E-013  0.7246155E+02  0.7816164E-02  0.1226708E+00
        -11   -1    0    0    0    0  0.00000000000E+00  0.00000000000E+00  0.45593999997E+02  0.45594000000E+02  0.51100000000E-03 0.  1.
         11   -1    0    0    0    0 -0.00000000000E+00 -0.00000000000E+00 -0.45593999997E+02  0.45594000000E+02  0.51100000000E-03 0. -1.
    9900012    2    1    2    0    0 -0.48939531645E+01 -0.14809209201E+02 -0.10364196159E+02  0.72461547673E+02  0.69999970532E+02 0.  0.
        -12    1    1    2    0    0  0.48939531645E+01  0.14809209201E+02  0.10364196159E+02  0.18726452327E+02  0.00000000000E+00 0.  1.
         11    1    3    3    0    0  0.82651382849E+00 -0.35216800984E+02 -0.20408980273E+02  0.40711579099E+02  0.51100000000E-03 0. -1.
        -11    1    3    3    0    0  0.26349206519E+01 -0.35927295086E+01  0.30244874178E+01  0.53849825037E+01  0.51100000000E-03 0.  1.
        -12    1    3    3    0    0 -0.83553876449E+01  0.24000321292E+02  0.70202966969E+01  0.26364986071E+02  0.00000000000E+00 0.  1.
</event>
<event>
 7    1  0.1749439E-013  0.7246154E+02  0.7816164E-02  0.1226708E+00
        -11   -1    0    0    0    0  0.00000000000E+00  0.00000000000E+00  0.45593999997E+02  0.45594000000E+02  0.51100000000E-03 0.  1.
         11   -1    0    0    0    0 -0.00000000000E+00 -0.00000000000E+00 -0.45593999997E+02  0.45594000000E+02  0.51100000000E-03 0. -1.
    9900012    2    1    2    0    0  0.12594675864E+02 -0.41224434333E+01 -0.13231021924E+02  0.72461539012E+02  0.69999959249E+02 0.  0.
        -12    1    1    2    0    0 -0.12594675864E+02  0.41224434333E+01  0.13231021924E+02  0.18726460988E+02  0.00000000000E+00 0.  1.
         11    1    3    3    0    0 -0.16175330633E+02 -0.29736516733E+01 -0.75160827043E+01  0.18082461803E+02  0.51100000000E-03 0. -1.
        -11    1    3    3    0    0  0.20098856896E+02 -0.17232148761E+02 -0.18307548612E+02  0.32188155211E+02  0.51100000000E-03 0.  1.
        -12    1    3    3    0    0  0.86711496013E+01  0.16083357001E+02  0.12592609392E+02  0.22190921998E+02  0.00000000000E+00 0.  1.
</event>
<event>
 7    1  0.1749439E-013  0.7246158E+02  0.7816164E-02  0.1226708E+00
        -11   -1    0    0    0    0  0.00000000000E+00  0.00000000000E+00  0.45593999997E+02  0.45594000000E+02  0.51100000000E-03 0.  1.
         11   -1    0    0    0    0 -0.00000000000E+00 -0.00000000000E+00 -0.45593999997E+02  0.45594000000E+02  0.51100000000E-03 0. -1.
    9900012    2    1    2    0    0 -0.15432412338E+02  0.73011636985E+01  0.76949567884E+01  0.72461582780E+02  0.70000016265E+02 0.  0.
        -12    1    1    2    0    0  0.15432412338E+02 -0.73011636985E+01 -0.76949567884E+01  0.18726417220E+02  0.00000000000E+00 0.  1.
         11    1    3    3    0    0 -0.15893020700E+02  0.43519017250E+01 -0.21454806934E+02  0.27052465626E+02  0.51100000000E-03 0. -1.
        -11    1    3    3    0    0  0.28878684436E+01  0.16761659099E+02  0.54311747442E+01  0.17854709722E+02  0.51100000000E-03 0.  1.
        -12    1    3    3    0    0 -0.24272600811E+01 -0.13812397126E+02  0.23718588978E+02  0.27554407432E+02  0.00000000000E+00 0.  1.
</event>
<event>
 7    1  0.1749439E-013  0.7246160E+02  0.7816164E-02  0.1226708E+00
        -11   -1    0    0    0    0  0.00000000000E+00  0.00000000000E+00  0.45593999997E+02  0.45594000000E+02  0.51100000000E-03 0. -1.
         11   -1    0    0    0    0 -0.00000000000E+00 -0.00000000000E+00 -0.45593999997E+02  0.45594000000E+02  0.51100000000E-03 0.  1.
    9900012    2    1    2    0    0  0.26865418011E+01  0.71697728480E+01  0.17089609545E+02  0.72461604085E+02  0.70000044019E+02 0.  0.
        -12    1    1    2    0    0 -0.26865418011E+01 -0.71697728480E+01 -0.17089609545E+02  0.18726395915E+02  0.00000000000E+00 0.  1.
         11    1    3    3    0    0 -0.13729420182E+02  0.14430241779E+02  0.17123448973E+02  0.26266734881E+02  0.51100000000E-03 0. -1.
        -11    1    3    3    0    0  0.20522644593E+02  0.11514677963E+02 -0.87307740648E+01  0.25099664653E+02  0.51100000000E-03 0.  1.
         12    1    3    3    0    0 -0.41066826095E+01 -0.18775146894E+02  0.86969346373E+01  0.21095204551E+02  0.00000000000E+00 0. -1.
</event>
<event>
 7    1  0.1749439E-013  0.7246155E+02  0.7816164E-02  0.1226708E+00
        -11   -1    0    0    0    0  0.00000000000E+00  0.00000000000E+00  0.45593999997E+02  0.45594000000E+02  0.51100000000E-03 0.  1.
         11   -1    0    0    0    0 -0.00000000000E+00 -0.00000000000E+00 -0.45593999997E+02  0.45594000000E+02  0.51100000000E-03 0. -1.
    9900012    2    1    2    0    0 -0.78464779391E+01 -0.13710806828E+02 -0.10056168074E+02  0.72461549288E+02  0.69999972636E+02 0.  0.
        -12    1    1    2    0    0  0.78464779391E+01  0.13710806828E+02  0.10056168074E+02  0.18726450712E+02  0.00000000000E+00 0.  1.
         11    1    3    3    0    0  0.24659674875E+01 -0.22317724564E+01 -0.30235896322E+02  0.30418271329E+02  0.51100000000E-03 0. -1.
        -11    1    3    3    0    0 -0.13200793711E+02 -0.64420139645E+01 -0.55230461016E+01  0.15692818008E+02  0.51100000000E-03 0.  1.
        -12    1    3    3    0    0  0.28883482845E+01 -0.50370204069E+01  0.25702774350E+02  0.26350459952E+02  0.00000000000E+00 0.  1.
</event>
<event>
 7    1  0.1749439E-013  0.7246148E+02  0.7816164E-02  0.1226708E+00
        -11   -1    0    0    0    0  0.00000000000E+00  0.00000000000E+00  0.45593999997E+02  0.45594000000E+02  0.51100000000E-03 0.  1.
         11   -1    0    0    0    0 -0.00000000000E+00 -0.00000000000E+00 -0.45593999997E+02  0.45594000000E+02  0.51100000000E-03 0. -1.
    9900012    2    1    2    0    0  0.18632676003E+02 -0.18662581657E+01 -0.15175673702E+00  0.72461479643E+02  0.69999881909E+02 0.  0.
        -12    1    1    2    0    0 -0.18632676003E+02  0.18662581657E+01  0.15175673702E+00  0.18726520357E+02  0.00000000000E+00 0.  1.
         11    1    3    3    0    0  0.19540133599E+02 -0.12961853384E+02 -0.20732943124E+02  0.31299862541E+02  0.51100000000E-03 0. -1.
        -11    1    3    3    0    0  0.10214983722E+01  0.17159527493E+02 -0.23628284480E+01  0.17351535990E+02  0.51100000000E-03 0.  1.
        -12    1    3    3    0    0 -0.19289559683E+01 -0.60639322738E+01  0.22944014835E+02  0.23810081111E+02  0.00000000000E+00 0.  1.
</event>
<event>
 7    1  0.1749439E-013  0.7246156E+02  0.7816164E-02  0.1226708E+00
        -11   -1    0    0    0    0  0.00000000000E+00  0.00000000000E+00  0.45593999997E+02  0.45594000000E+02  0.51100000000E-03 0.  1.
         11   -1    0    0    0    0 -0.00000000000E+00 -0.00000000000E+00 -0.45593999997E+02  0.45594000000E+02  0.51100000000E-03 0. -1.
    9900012    2    1    2    0    0  0.16275088562E+02  0.75256964934E+01 -0.54004456466E+01  0.72461563377E+02  0.69999990989E+02 0.  0.
        -12    1    1    2    0    0 -0.16275088562E+02 -0.75256964934E+01  0.54004456466E+01  0.18726436623E+02  0.00000000000E+00 0.  1.
         11    1    3    3    0    0  0.96795010007E+01 -0.12711203857E+02  0.15129830742E+02  0.22004072842E+02  0.51100000000E-03 0. -1.
        -11    1    3    3    0    0 -0.58716971485E+01 -0.10931416208E+02 -0.71399463320E+01  0.14316128024E+02  0.51100000000E-03 0.  1.
         12    1    3    3    0    0  0.12467284710E+02  0.31168316558E+02 -0.13390330056E+02  0.36141362511E+02  0.00000000000E+00 0. -1.
</event>
<event>
 7    1  0.1749439E-013  0.7246155E+02  0.7816164E-02  0.1226708E+00
        -11   -1    0    0    0    0  0.00000000000E+00  0.00000000000E+00  0.45593999997E+02  0.45594000000E+02  0.51100000000E-03 0.  1.
         11   -1    0    0    0    0 -0.00000000000E+00 -0.00000000000E+00 -0.45593999997E+02  0.45594000000E+02  0.51100000000E-03 0. -1.
    9900012    2    1    2    0    0 -0.18877128880E+00 -0.14767505191E+02 -0.11513698690E+02  0.72461545405E+02  0.69999967577E+02 0.  0.
        -12    1    1    2    0    0  0.18877128880E+00  0.14767505191E+02  0.11513698690E+02  0.18726454595E+02  0.00000000000E+00 0.  1.
         11    1    3    3    0    0 -0.96744431132E+01 -0.27022644246E+02 -0.28756297063E+02  0.40629333893E+02  0.51100000000E-03 0. -1.
        -11    1    3    3    0    0  0.97878123157E+01 -0.23867169877E+00 -0.86689127409E+00  0.98290251220E+01  0.51100000000E-03 0.  1.
        -12    1    3    3    0    0 -0.30214049126E+00  0.12493810753E+02  0.18109489647E+02  0.22003186389E+02  0.00000000000E+00 0.  1.
</event>
<event>
 7    1  0.1749439E-013  0.7246162E+02  0.7816164E-02  0.1226708E+00
        -11   -1    0    0    0    0  0.00000000000E+00  0.00000000000E+00  0.45593999997E+02  0.45594000000E+02  0.51100000000E-03 0. -1.
         11   -1    0    0    0    0 -0.00000000000E+00 -0.00000000000E+00 -0.45593999997E+02  0.45594000000E+02  0.51100000000E-03 0.  1.
    9900012    2    1    2    0    0  0.10364301596E+02  0.81663407740E+01  0.13287938957E+02  0.72461623123E+02  0.70000068819E+02 0.  0.
        -12    1    1    2    0    0 -0.10364301596E+02 -0.81663407740E+01 -0.13287938957E+02  0.18726376877E+02  0.00000000000E+00 0.  1.
         11    1    3    3    0    0  0.39839601795E+01  0.23728282104E+02  0.24823422139E+02  0.34570299352E+02  0.51100000000E-03 0. -1.
        -11    1    3    3    0    0 -0.95842652072E+01  0.40516041371E+01 -0.86013209704E+00  0.10440951256E+02  0.51100000000E-03 0.  1.
        -12    1    3    3    0    0  0.15964606624E+02 -0.19613545467E+02 -0.10675351085E+02  0.27450372515E+02  0.00000000000E+00 0.  1.
</event>
<event>
 7    1  0.1749439E-013  0.7246156E+02  0.7816164E-02  0.1226708E+00
        -11   -1    0    0    0    0  0.00000000000E+00  0.00000000000E+00  0.45593999997E+02  0.45594000000E+02  0.51100000000E-03 0. -1.
         11   -1    0    0    0    0 -0.00000000000E+00 -0.00000000000E+00 -0.45593999997E+02  0.45594000000E+02  0.51100000000E-03 0.  1.
    9900012    2    1    2    0    0  0.15684657626E+02 -0.77497816846E+01  0.66792296587E+01  0.72461555868E+02  0.69999981206E+02 0.  0.
        -12    1    1    2    0    0 -0.15684657626E+02  0.77497816846E+01 -0.66792296587E+01  0.18726444132E+02  0.00000000000E+00 0.  1.
         11    1    3    3    0    0  0.12550555735E+02 -0.29591430138E+02  0.85176633386E+01  0.33252364967E+02  0.51100000000E-03 0. -1.
        -11    1    3    3    0    0 -0.26708028289E+01 -0.62676865609E+01 -0.73069490426E+01  0.99904247732E+01  0.51100000000E-03 0.  1.
        -12    1    3    3    0    0  0.58049047202E+01  0.28109335014E+02  0.54685153626E+01  0.29218766128E+02  0.00000000000E+00 0.  1.
</event>
<event>
 7    1  0.1749439E-013  0.7246157E+02  0.7816164E-02  0.1226708E+00
        -11   -1    0    0    0    0  0.00000000000E+00  0.00000000000E+00  0.45593999997E+02  0.45594000000E+02  0.51100000000E-03 0.  1.
         11   -1    0    0    0    0 -0.00000000000E+00 -0.00000000000E+00 -0.45593999997E+02  0.45594000000E+02  0.51100000000E-03 0. -1.
    9900012    2    1    2    0    0 -0.66484459354E+00 -0.14485339770E+02  0.11849559315E+02  0.72461571014E+02  0.70000000938E+02 0.  0.
        -12    1    1    2    0    0  0.66484459354E+00  0.14485339770E+02 -0.11849559315E+02  0.18726428986E+02  0.00000000000E+00 0.  1.
         11    1    3    3    0    0  0.80245375301E+01 -0.35534250124E+02 -0.90178375413E-02  0.36429057304E+02  0.51100000000E-03 0. -1.
        -11    1    3    3    0    0 -0.46499994220E+00  0.10007158860E+02  0.18276513889E+02  0.20842034776E+02  0.51100000000E-03 0.  1.
        -12    1    3    3    0    0 -0.82243821815E+01  0.11041751494E+02 -0.64179367358E+01  0.15190478935E+02  0.00000000000E+00 0.  1.
</event>
<event>
 7    1  0.1749439E-013  0.7246156E+02  0.7816164E-02  0.1226708E+00
        -11   -1    0    0    0    0  0.00000000000E+00  0.00000000000E+00  0.45593999997E+02  0.45594000000E+02  0.51100000000E-03 0. -1.
         11   -1    0    0    0    0 -0.00000000000E+00 -0.00000000000E+00 -0.45593999997E+02  0.45594000000E+02  0.51100000000E-03 0.  1.
    9900012    2    1    2    0    0 -0.13092377813E+02  0.56679071551E+01  0.12130299702E+02  0.72461556152E+02  0.69999981577E+02 0.  0.
        -12    1    1    2    0    0  0.13092377813E+02 -0.56679071551E+01 -0.12130299702E+02  0.18726443848E+02  0.00000000000E+00 0.  1.
         11    1    3    3    0    0 -0.64952199054E+01 -0.25268953305E+02  0.56668562670E+00  0.26096532636E+02  0.51100000000E-03 0. -1.
        -11    1    3    3    0    0 -0.12409417922E+01 -0.45199126158E+01 -0.50103581727E+01  0.68609937958E+01  0.51100000000E-03 0.  1.
         12    1    3    3    0    0 -0.53562161158E+01  0.35456773076E+02  0.16573972248E+02  0.39504029720E+02  0.00000000000E+00 0. -1.
</event>
<event>
 7    1  0.1749439E-013  0.7246155E+02  0.7816164E-02  0.1226708E+00
        -11   -1    0    0    0    0  0.00000000000E+00  0.00000000000E+00  0.45593999997E+02  0.45594000000E+02  0.51100000000E-03 0.  1.
         11   -1    0    0    0    0 -0.00000000000E+00 -0.00000000000E+00 -0.45593999997E+02  0.45594000000E+02  0.51100000000E-03 0. -1.
    9900012    2    1    2    0    0 -0.93177131104E+01  0.15138669990E+02  0.58890292631E+01  0.72461554199E+02  0.69999979033E+02 0.  0.
        -12    1    1    2    0    0  0.93177131104E+01 -0.15138669990E+02 -0.58890292631E+01  0.18726445801E+02  0.00000000000E+00 0.  1.
         11    1    3    3    0    0 -0.82655746945E+01 -0.13935322925E+02 -0.20611914149E+02  0.26217626803E+02  0.51100000000E-03 0. -1.
        -11    1    3    3    0    0  0.38825914980E+01 -0.33122276105E+01  0.42562476016E+01  0.66453752634E+01  0.51100000000E-03 0.  1.
        -12    1    3    3    0    0 -0.49347299139E+01  0.32386220526E+02  0.22244695810E+02  0.39598552132E+02  0.00000000000E+00 0.  1.
</event>
<event>
 7    1  0.1749439E-013  0.7246156E+02  0.7816164E-02  0.1226708E+00
        -11   -1    0    0    0    0  0.00000000000E+00  0.00000000000E+00  0.45593999997E+02  0.45594000000E+02  0.51100000000E-03 0.  1.
         11   -1    0    0    0    0 -0.00000000000E+00 -0.00000000000E+00 -0.45593999997E+02  0.45594000000E+02  0.51100000000E-03 0. -1.
    9900012    2    1    2    0    0 -0.54475762615E+01  0.81722768132E+01 -0.15944191636E+02  0.72461563009E+02  0.69999990510E+02 0.  0.
        -12    1    1    2    0    0  0.54475762615E+01 -0.81722768132E+01  0.15944191636E+02  0.18726436991E+02  0.00000000000E+00 0.  1.
         11    1    3    3    0    0 -0.12999854077E+02  0.14874399804E+02 -0.11803853148E+02  0.23012494975E+02  0.51100000000E-03 0. -1.
        -11    1    3    3    0    0  0.27532264579E+02 -0.92342816854E+01 -0.39608772011E+01  0.29308464640E+02  0.51100000000E-03 0.  1.
         12    1    3    3    0    0 -0.19979986763E+02  0.25321586942E+01 -0.17946128713E+00  0.20140603394E+02  0.00000000000E+00 0. -1.
</event>
<event>
 7    1  0.1749439E-013  0.7246149E+02  0.7816164E-02  0.1226708E+00
        -11   -1    0    0    0    0  0.00000000000E+00  0.00000000000E+00  0.45593999997E+02  0.45594000000E+02  0.51100000000E-03 0. -1.
         11   -1    0    0    0    0 -0.00000000000E+00 -0.00000000000E+00 -0.45593999997E+02  0.45594000000E+02  0.51100000000E-03 0.  1.
    9900012    2    1    2    0    0 -0.14414427454E+02  0.17650844794E+01  0.11823314676E+02  0.72461494400E+02  0.69999901133E+02 0.  0.
        -12    1    1    2    0    0  0.14414427454E+02 -0.17650844794E+01 -0.11823314676E+02  0.18726505600E+02  0.00000000000E+00 0.  1.
         11    1    3    3    0    0 -0.21853058421E+02 -0.22900904545E+02  0.90811368283E+01  0.32931362524E+02  0.51100000000E-03 0. -1.
        -11    1    3    3    0    0  0.79558343088E+00 -0.44434090408E+01 -0.68199603598E+01  0.81785510006E+01  0.51100000000E-03 0.  1.
        -12    1    3    3    0    0  0.66430475355E+01  0.29109398065E+02  0.95621382080E+01  0.31351580876E+02  0.00000000000E+00 0.  1.
</event>
<event>
 7    1  0.1749439E-013  0.7246169E+02  0.7816164E-02  0.1226708E+00
        -11   -1    0    0    0    0  0.00000000000E+00  0.00000000000E+00  0.45593999997E+02  0.45594000000E+02  0.51100000000E-03 0.  1.
         11   -1    0    0    0    0 -0.00000000000E+00 -0.00000000000E+00 -0.45593999997E+02  0.45594000000E+02  0.51100000000E-03 0. -1.
    9900012    2    1    2    0    0  0.14645539124E+02 -0.11049733389E+02 -0.37531565168E+01  0.72461692087E+02  0.70000158657E+02 0.  0.
        -12    1    1    2    0    0 -0.14645539124E+02  0.11049733389E+02  0.37531565168E+01  0.18726307913E+02  0.00000000000E+00 0.  1.
         11    1    3    3    0    0  0.79403754047E+00 -0.14359145505E+01  0.11200394312E+02  0.11319946078E+02  0.51100000000E-03 0. -1.
        -11    1    3    3    0    0  0.45079220487E+01 -0.30069668034E+02  0.53153474055E+01  0.30866797941E+02  0.51100000000E-03 0.  1.
         12    1    3    3    0    0  0.93435795353E+01  0.20455849195E+02 -0.20268898234E+02  0.30274948067E+02  0.00000000000E+00 0. -1.
</event>
<event>
 7    1  0.1749439E-013  0.7246158E+02  0.7816164E-02  0.1226708E+00
        -11   -1    0    0    0    0  0.00000000000E+00  0.00000000000E+00  0.45593999997E+02  0.45594000000E+02  0.51100000000E-03 0.  1.
         11   -1    0    0    0    0 -0.00000000000E+00 -0.00000000000E+00 -0.45593999997E+02  0.45594000000E+02  0.51100000000E-03 0. -1.
    9900012    2    1    2    0    0  0.36596333582E+01  0.73564506458E+01 -0.16827617300E+02  0.72461575184E+02  0.70000006369E+02 0.  0.
        -12    1    1    2    0    0 -0.36596333582E+01 -0.73564506458E+01  0.16827617300E+02  0.18726424816E+02  0.00000000000E+00 0.  1.
         11    1    3    3    0    0 -0.10028803151E+02  0.24516373591E+00  0.26778252833E+01  0.10383050920E+02  0.51100000000E-03 0. -1.
        -11    1    3    3    0    0  0.69365713057E+01  0.12496249471E+02  0.18344980729E+02  0.23255334668E+02  0.51100000000E-03 0.  1.
         12    1    3    3    0    0  0.67518652035E+01 -0.53849625612E+01 -0.37850423312E+02  0.38823189596E+02  0.00000000000E+00 0. -1.
</event>
<event>
 7    1  0.1749439E-013  0.7246158E+02  0.7816164E-02  0.1226708E+00
        -11   -1    0    0    0    0  0.00000000000E+00  0.00000000000E+00  0.45593999997E+02  0.45594000000E+02  0.51100000000E-03 0.  1.
         11   -1    0    0    0    0 -0.00000000000E+00 -0.00000000000E+00 -0.45593999997E+02  0.45594000000E+02  0.51100000000E-03 0. -1.
    9900012    2    1    2    0    0 -0.10288968738E+02  0.53516228337E+01 -0.14702930167E+02  0.72461577487E+02  0.70000009370E+02 0.  0.
        -12    1    1    2    0    0  0.10288968738E+02 -0.53516228337E+01  0.14702930167E+02  0.18726422513E+02  0.00000000000E+00 0.  1.
         11    1    3    3    0    0 -0.11131854706E+02  0.24432649012E+02  0.25661117699E+01  0.26971419258E+02  0.51100000000E-03 0. -1.
        -11    1    3    3    0    0 -0.19897060950E+01 -0.43634891826E+01  0.11826175821E+02  0.12761559583E+02  0.51100000000E-03 0.  1.
        -12    1    3    3    0    0  0.28325920631E+01 -0.14717536995E+02 -0.29095217757E+02  0.32728598646E+02  0.00000000000E+00 0.  1.
</event>
<event>
 7    1  0.1749439E-013  0.7246155E+02  0.7816164E-02  0.1226708E+00
        -11   -1    0    0    0    0  0.00000000000E+00  0.00000000000E+00  0.45593999997E+02  0.45594000000E+02  0.51100000000E-03 0. -1.
         11   -1    0    0    0    0 -0.00000000000E+00 -0.00000000000E+00 -0.45593999997E+02  0.45594000000E+02  0.51100000000E-03 0.  1.
    9900012    2    1    2    0    0  0.15498432777E+02 -0.93886989905E+01  0.47255554688E+01  0.72461549141E+02  0.69999972444E+02 0.  0.
        -12    1    1    2    0    0 -0.15498432777E+02  0.93886989905E+01 -0.47255554688E+01  0.18726450859E+02  0.00000000000E+00 0.  1.
         11    1    3    3    0    0  0.79812031890E+01 -0.79349841363E+01  0.14960889388E+02  0.18721425937E+02  0.51100000000E-03 0. -1.
        -11    1    3    3    0    0  0.24500159342E+02 -0.15216710235E+02  0.15940336711E+01  0.28885065722E+02  0.51100000000E-03 0.  1.
         12    1    3    3    0    0 -0.16982929754E+02  0.13762995381E+02 -0.11829367590E+02  0.24855057482E+02  0.00000000000E+00 0. -1.
</event>
<event>
 7    1  0.1749439E-013  0.7246160E+02  0.7816164E-02  0.1226708E+00
        -11   -1    0    0    0    0  0.00000000000E+00  0.00000000000E+00  0.45593999997E+02  0.45594000000E+02  0.51100000000E-03 0.  1.
         11   -1    0    0    0    0 -0.00000000000E+00 -0.00000000000E+00 -0.45593999997E+02  0.45594000000E+02  0.51100000000E-03 0. -1.
    9900012    2    1    2    0    0  0.24733298231E+00  0.64388041061E+01 -0.17582905424E+02  0.72461603254E+02  0.70000042936E+02 0.  0.
        -12    1    1    2    0    0 -0.24733298231E+00 -0.64388041061E+01  0.17582905424E+02  0.18726396746E+02  0.00000000000E+00 0.  1.
         11    1    3    3    0    0 -0.78495192397E+00  0.17962034701E+02 -0.27544451591E+00  0.17981287775E+02  0.51100000000E-03 0. -1.
        -11    1    3    3    0    0 -0.18844461893E+02 -0.41611263511E+01  0.84971435172E+01  0.21086255352E+02  0.51100000000E-03 0.  1.
        -12    1    3    3    0    0  0.19876746799E+02 -0.73621042436E+01 -0.25804604426E+02  0.33394060127E+02  0.00000000000E+00 0.  1.
</event>
<event>
 7    1  0.1749439E-013  0.7246158E+02  0.7816164E-02  0.1226708E+00
        -11   -1    0    0    0    0  0.00000000000E+00  0.00000000000E+00  0.45593999997E+02  0.45594000000E+02  0.51100000000E-03 0.  1.
         11   -1    0    0    0    0 -0.00000000000E+00 -0.00000000000E+00 -0.45593999997E+02  0.45594000000E+02  0.51100000000E-03 0. -1.
    9900012    2    1    2    0    0 -0.93500006173E+01  0.11273705889E+02 -0.11668748976E+02  0.72461583934E+02  0.70000017768E+02 0.  0.
        -12    1    1    2    0    0  0.93500006173E+01 -0.11273705889E+02  0.11668748976E+02  0.18726416066E+02  0.00000000000E+00 0.  1.
         11    1    3    3    0    0 -0.29734485113E+01  0.72595756348E+01 -0.88864550943E+01  0.11853772347E+02  0.51100000000E-03 0. -1.
        -11    1    3    3    0    0 -0.27391494683E+01  0.30258597893E+02 -0.11838791594E+02  0.32607402119E+02  0.51100000000E-03 0.  1.
         12    1    3    3    0    0 -0.36374026377E+01 -0.26244467638E+02  0.90564977125E+01  0.28000409468E+02  0.00000000000E+00 0. -1.
</event>
<event>
 7    1  0.1749439E-013  0.7246156E+02  0.7816164E-02  0.1226708E+00
        -11   -1    0    0    0    0  0.00000000000E+00  0.00000000000E+00  0.45593999997E+02  0.45594000000E+02  0.51100000000E-03 0.  1.
         11   -1    0    0    0    0 -0.00000000000E+00 -0.00000000000E+00 -0.45593999997E+02  0.45594000000E+02  0.51100000000E-03 0. -1.
    9900012    2    1    2    0    0 -0.71104608270E+00  0.18023472420E+01 -0.18625933955E+02  0.72461562597E+02  0.69999989973E+02 0.  0.
        -12    1    1    2    0    0  0.71104608270E+00 -0.18023472420E+01  0.18625933955E+02  0.18726437403E+02  0.00000000000E+00 0.  1.
         11    1    3    3    0    0 -0.54345820491E+01 -0.11817058550E+02  0.31824730556E+01  0.13390507453E+02  0.51100000000E-03 0. -1.
        -11    1    3    3    0    0 -0.16951324913E+02  0.25038788065E+02 -0.14293538123E+02  0.33445381690E+02  0.51100000000E-03 0.  1.
         12    1    3    3    0    0  0.21674860879E+02 -0.11419382273E+02 -0.75148688875E+01  0.25625673455E+02  0.00000000000E+00 0. -1.
</event>
<event>
 7    1  0.1749439E-013  0.7246149E+02  0.7816164E-02  0.1226708E+00
        -11   -1    0    0    0    0  0.00000000000E+00  0.00000000000E+00  0.45593999997E+02  0.45594000000E+02  0.51100000000E-03 0.  1.
         11   -1    0    0    0    0 -0.00000000000E+00 -0.00000000000E+00 -0.45593999997E+02  0.45594000000E+02  0.51100000000E-03 0. -1.
    9900012    2    1    2    0    0 -0.15993614679E+02 -0.37832466891E+01 -0.89762744810E+01  0.72461490193E+02  0.69999895653E+02 0.  0.
        -12    1    1    2    0    0  0.15993614679E+02  0.37832466891E+01  0.89762744810E+01  0.18726509807E+02  0.00000000000E+00 0.  1.
         11    1    3    3    0    0 -0.99870136965E+00  0.74394195843E+01 -0.37104523763E+01  0.83731610085E+01  0.51100000000E-03 0. -1.
        -11    1    3    3    0    0 -0.20476132084E+02  0.11859149108E+02 -0.24117097171E+02  0.33786769288E+02  0.51100000000E-03 0.  1.
        -12    1    3    3    0    0  0.54812187751E+01 -0.23081815381E+02  0.18851275066E+02  0.30301559897E+02  0.00000000000E+00 0.  1.
</event>
<event>
 7    1  0.1749439E-013  0.7246154E+02  0.7816164E-02  0.1226708E+00
        -11   -1    0    0    0    0  0.00000000000E+00  0.00000000000E+00  0.45593999997E+02  0.45594000000E+02  0.51100000000E-03 0. -1.
         11   -1    0    0    0    0 -0.00000000000E+00 -0.00000000000E+00 -0.45593999997E+02  0.45594000000E+02  0.51100000000E-03 0.  1.
    9900012    2    1    2    0    0 -0.27218053941E+01  0.18521682971E+02 -0.46848595976E+00  0.72461536271E+02  0.69999955679E+02 0.  0.
        -12    1    1    2    0    0  0.27218053941E+01 -0.18521682971E+02  0.46848595976E+00  0.18726463729E+02  0.00000000000E+00 0.  1.
         11    1    3    3    0    0 -0.22545824197E+01 -0.59972544454E+01  0.17144645294E+02  0.18302706502E+02  0.51100000000E-03 0. -1.
        -11    1    3    3    0    0  0.29815461084E+01  0.97207520213E+01  0.15033659521E+02  0.18149202625E+02  0.51100000000E-03 0.  1.
        -12    1    3    3    0    0 -0.34487690828E+01  0.14798185395E+02 -0.32646790775E+02  0.36009627145E+02  0.00000000000E+00 0.  1.
</event>
<event>
 7    1  0.1749439E-013  0.7246157E+02  0.7816164E-02  0.1226708E+00
        -11   -1    0    0    0    0  0.00000000000E+00  0.00000000000E+00  0.45593999997E+02  0.45594000000E+02  0.51100000000E-03 0. -1.
         11   -1    0    0    0    0 -0.00000000000E+00 -0.00000000000E+00 -0.45593999997E+02  0.45594000000E+02  0.51100000000E-03 0.  1.
    9900012    2    1    2    0    0  0.14131726032E+01 -0.24868336101E+01  0.18506700643E+02  0.72461565024E+02  0.69999993134E+02 0.  0.
        -12    1    1    2    0    0 -0.14131726032E+01  0.24868336101E+01 -0.18506700643E+02  0.18726434976E+02  0.00000000000E+00 0.  1.
         11    1    3    3    0    0  0.19237833364E+00  0.66462895811E+01  0.37598996241E+01  0.76385221125E+01  0.51100000000E-03 0. -1.
        -11    1    3    3    0    0 -0.12679110776E+02 -0.26839363200E+01  0.36205376450E+02  0.38455073117E+02  0.51100000000E-03 0.  1.
        -12    1    3    3    0    0  0.13899905046E+02 -0.64491868713E+01 -0.21458575431E+02  0.26367969795E+02  0.00000000000E+00 0.  1.
</event>
<event>
 7    1  0.1749439E-013  0.7246149E+02  0.7816164E-02  0.1226708E+00
        -11   -1    0    0    0    0  0.00000000000E+00  0.00000000000E+00  0.45593999997E+02  0.45594000000E+02  0.51100000000E-03 0.  1.
         11   -1    0    0    0    0 -0.00000000000E+00 -0.00000000000E+00 -0.45593999997E+02  0.45594000000E+02  0.51100000000E-03 0. -1.
    9900012    2    1    2    0    0  0.44863733336E+01 -0.20522745181E+01 -0.18064960963E+02  0.72461489621E+02  0.69999894908E+02 0.  0.
        -12    1    1    2    0    0 -0.44863733336E+01  0.20522745181E+01  0.18064960963E+02  0.18726510379E+02  0.00000000000E+00 0.  1.
         11    1    3    3    0    0 -0.15201424317E+01 -0.99065717613E+01  0.13403909268E+02  0.16736659792E+02  0.51100000000E-03 0. -1.
        -11    1    3    3    0    0 -0.19428849339E+02  0.68618009246E+00 -0.11348824089E+02  0.22511038142E+02  0.51100000000E-03 0.  1.
        -12    1    3    3    0    0  0.25435365104E+02  0.71681171507E+01 -0.20120046142E+02  0.33213791687E+02  0.00000000000E+00 0.  1.
</event>
<event>
 7    1  0.1749439E-013  0.7246169E+02  0.7816164E-02  0.1226708E+00
        -11   -1    0    0    0    0  0.00000000000E+00  0.00000000000E+00  0.45593999997E+02  0.45594000000E+02  0.51100000000E-03 0. -1.
         11   -1    0    0    0    0 -0.00000000000E+00 -0.00000000000E+00 -0.45593999997E+02  0.45594000000E+02  0.51100000000E-03 0.  1.
    9900012    2    1    2    0    0  0.52449815779E+00  0.18497555827E+02  0.28705337241E+01  0.72461691401E+02  0.70000157764E+02 0.  0.
        -12    1    1    2    0    0 -0.52449815779E+00 -0.18497555827E+02 -0.28705337241E+01  0.18726308599E+02  0.00000000000E+00 0.  1.
         11    1    3    3    0    0 -0.17009561154E+02 -0.36350161334E+01 -0.84826233563E+01  0.19351832270E+02  0.51100000000E-03 0. -1.
        -11    1    3    3    0    0  0.64426814818E+01 -0.63452981682E+01 -0.11729696238E+02  0.14810696392E+02  0.51100000000E-03 0.  1.
         12    1    3    3    0    0  0.11091377830E+02  0.28477870129E+02  0.23082853318E+02  0.38299162739E+02  0.00000000000E+00 0. -1.
</event>
<event>
 7    1  0.1749439E-013  0.7246158E+02  0.7816164E-02  0.1226708E+00
        -11   -1    0    0    0    0  0.00000000000E+00  0.00000000000E+00  0.45593999997E+02  0.45594000000E+02  0.51100000000E-03 0.  1.
         11   -1    0    0    0    0 -0.00000000000E+00 -0.00000000000E+00 -0.45593999997E+02  0.45594000000E+02  0.51100000000E-03 0. -1.
    9900012    2    1    2    0    0  0.29732179408E+01 -0.48907529226E+01 -0.17830291609E+02  0.72461580483E+02  0.70000013273E+02 0.  0.
        -12    1    1    2    0    0 -0.29732179408E+01  0.48907529226E+01  0.17830291609E+02  0.18726419517E+02  0.00000000000E+00 0.  1.
         11    1    3    3    0    0 -0.57972009680E+01 -0.10808086302E+01 -0.13196634905E+01  0.60429461646E+01  0.51100000000E-03 0. -1.
        -11    1    3    3    0    0  0.14158125156E+02 -0.54840146782E+00  0.22670824231E+02  0.26734238790E+02  0.51100000000E-03 0.  1.
         12    1    3    3    0    0 -0.53877062472E+01 -0.32615428246E+01 -0.39181452350E+02  0.39684395528E+02  0.00000000000E+00 0. -1.
</event>
<event>
 7    1  0.1749439E-013  0.7246120E+02  0.7816164E-02  0.1226709E+00
        -11   -1    0    0    0    0  0.00000000000E+00  0.00000000000E+00  0.45593999997E+02  0.45594000000E+02  0.51100000000E-03 0.  1.
         11   -1    0    0    0    0 -0.00000000000E+00 -0.00000000000E+00 -0.45593999997E+02  0.45594000000E+02  0.51100000000E-03 0. -1.
    9900012    2    1    2    0    0  0.17578631744E+01 -0.11217143782E+01 -0.18610342415E+02  0.72461196458E+02  0.69999513007E+02 0.  0.
        -12    1    1    2    0    0 -0.17578631744E+01  0.11217143782E+01  0.18610342415E+02  0.18726803542E+02  0.00000000000E+00 0.  1.
         11    1    3    3    0    0 -0.56185179299E+01 -0.22266883120E+02 -0.69736949139E+01  0.24000296845E+02  0.51100000000E-03 0. -1.
        -11    1    3    3    0    0 -0.67053671710E+01 -0.52492661201E+01 -0.16100478774E+02  0.18213790399E+02  0.51100000000E-03 0.  1.
        -12    1    3    3    0    0  0.14081748275E+02  0.26394434862E+02  0.44638312725E+01  0.30247109214E+02  0.00000000000E+00 0.  1.
</event>
<event>
 7    1  0.1749439E-013  0.7246156E+02  0.7816164E-02  0.1226708E+00
        -11   -1    0    0    0    0  0.00000000000E+00  0.00000000000E+00  0.45593999997E+02  0.45594000000E+02  0.51100000000E-03 0.  1.
         11   -1    0    0    0    0 -0.00000000000E+00 -0.00000000000E+00 -0.45593999997E+02  0.45594000000E+02  0.51100000000E-03 0. -1.
    9900012    2    1    2    0    0 -0.30521070986E+01 -0.17607122103E+02  0.55994126655E+01  0.72461560704E+02  0.69999987507E+02 0.  0.
        -12    1    1    2    0    0  0.30521070986E+01  0.17607122103E+02 -0.55994126655E+01  0.18726439296E+02  0.00000000000E+00 0.  1.
         11    1    3    3    0    0  0.13516472948E+02 -0.98963391291E+01  0.13543378027E+01  0.16806748653E+02  0.51100000000E-03 0. -1.
        -11    1    3    3    0    0 -0.50211144126E+01 -0.28897866042E+02 -0.51148083725E+01  0.29773470014E+02  0.51100000000E-03 0.  1.
        -12    1    3    3    0    0 -0.11547465634E+02  0.21187083068E+02  0.93598832353E+01  0.25881342038E+02  0.00000000000E+00 0.  1.
</event>
<event>
 7    1  0.1749439E-013  0.7246154E+02  0.7816164E-02  0.1226708E+00
        -11   -1    0    0    0    0  0.00000000000E+00  0.00000000000E+00  0.45593999997E+02  0.45594000000E+02  0.51100000000E-03 0. -1.
         11   -1    0    0    0    0 -0.00000000000E+00 -0.00000000000E+00 -0.45593999997E+02  0.45594000000E+02  0.51100000000E-03 0.  1.
    9900012    2    1    2    0    0 -0.16362758775E+02 -0.85589983642E+01  0.31118841786E+01  0.72461544092E+02  0.69999965867E+02 0.  0.
        -12    1    1    2    0    0  0.16362758775E+02  0.85589983642E+01 -0.31118841786E+01  0.18726455908E+02  0.00000000000E+00 0.  1.
         11    1    3    3    0    0 -0.22827209303E+01 -0.57996995659E+01  0.19206685919E+02  0.20192674765E+02  0.51100000000E-03 0. -1.
        -11    1    3    3    0    0 -0.15593042952E+02 -0.21842514904E+02  0.63616094969E+00  0.26844797389E+02  0.51100000000E-03 0.  1.
         12    1    3    3    0    0  0.15130051079E+01  0.19083216106E+02 -0.16730962690E+02  0.25424071939E+02  0.00000000000E+00 0. -1.
</event>
<event>
 7    1  0.1749439E-013  0.7246160E+02  0.7816164E-02  0.1226708E+00
        -11   -1    0    0    0    0  0.00000000000E+00  0.00000000000E+00  0.45593999997E+02  0.45594000000E+02  0.51100000000E-03 0. -1.
         11   -1    0    0    0    0 -0.00000000000E+00 -0.00000000000E+00 -0.45593999997E+02  0.45594000000E+02  0.51100000000E-03 0.  1.
    9900012    2    1    2    0    0 -0.12913025822E+02 -0.85246596560E+01  0.10548075668E+02  0.72461602631E+02  0.70000042124E+02 0.  0.
        -12    1    1    2    0    0  0.12913025822E+02  0.85246596560E+01 -0.10548075668E+02  0.18726397369E+02  0.00000000000E+00 0.  1.
         11    1    3    3    0    0  0.59283268874E+01  0.14561086646E+02  0.25589860475E+02  0.30033502350E+02  0.51100000000E-03 0. -1.
        -11    1    3    3    0    0 -0.20998384277E+02 -0.16750244748E+02 -0.10074831779E+01  0.26879692409E+02  0.51100000000E-03 0.  1.
        -12    1    3    3    0    0  0.21570315676E+01 -0.63355015536E+01 -0.14034301630E+02  0.15548407872E+02  0.00000000000E+00 0.  1.
</event>
<event>
 7    1  0.1749439E-013  0.7246155E+02  0.7816164E-02  0.1226708E+00
        -11   -1    0    0    0    0  0.00000000000E+00  0.00000000000E+00  0.45593999997E+02  0.45594000000E+02  0.51100000000E-03 0. -1.
         11   -1    0    0    0    0 -0.00000000000E+00 -0.00000000000E+00 -0.45593999997E+02  0.45594000000E+02  0.51100000000E-03 0.  1.
    9900012    2    1    2    0    0 -0.69278468293E+01 -0.24114484736E+01  0.17229909354E+02  0.72461550209E+02  0.69999973835E+02 0.  0.
        -12    1    1    2    0    0  0.69278468293E+01  0.24114484736E+01 -0.17229909354E+02  0.18726449791E+02  0.00000000000E+00 0.  1.
         11    1    3    3    0    0  0.11625222073E+02  0.33080334013E+01 -0.55232964936E+01  0.13288930643E+02  0.51100000000E-03 0. -1.
        -11    1    3    3    0    0  0.16452295986E+02  0.23380118835E+01  0.15083325237E+02  0.22442171090E+02  0.51100000000E-03 0.  1.
        -12    1    3    3    0    0 -0.35005364888E+02 -0.80574937585E+01  0.76698806113E+01  0.36730448475E+02  0.00000000000E+00 0.  1.
</event>
<event>
 7    1  0.1749439E-013  0.7246144E+02  0.7816164E-02  0.1226708E+00
        -11   -1    0    0    0    0  0.00000000000E+00  0.00000000000E+00  0.45593999997E+02  0.45594000000E+02  0.51100000000E-03 0.  1.
         11   -1    0    0    0    0 -0.00000000000E+00 -0.00000000000E+00 -0.45593999997E+02  0.45594000000E+02  0.51100000000E-03 0. -1.
    9900012    2    1    2    0    0  0.10509757097E+02  0.12159177485E+02 -0.96116296574E+01  0.72461440892E+02  0.69999831430E+02 0.  0.
        -12    1    1    2    0    0 -0.10509757097E+02 -0.12159177485E+02  0.96116296574E+01  0.18726559108E+02  0.00000000000E+00 0.  1.
         11    1    3    3    0    0  0.22420648115E+02 -0.16190892990E+02  0.12833637510E+02  0.30488239203E+02  0.51100000000E-03 0. -1.
        -11    1    3    3    0    0 -0.19380158227E+01  0.15121536831E+01  0.28535746194E+01  0.37663513458E+01  0.51100000000E-03 0.  1.
        -12    1    3    3    0    0 -0.99728751960E+01  0.26837916792E+02 -0.25298841786E+02  0.38206850343E+02  0.00000000000E+00 0.  1.
</event>
<event>
 7    1  0.1749439E-013  0.7246158E+02  0.7816164E-02  0.1226708E+00
        -11   -1    0    0    0    0  0.00000000000E+00  0.00000000000E+00  0.45593999997E+02  0.45594000000E+02  0.51100000000E-03 0. -1.
         11   -1    0    0    0    0 -0.00000000000E+00 -0.00000000000E+00 -0.45593999997E+02  0.45594000000E+02  0.51100000000E-03 0.  1.
    9900012    2    1    2    0    0  0.10357139757E+02 -0.15569219764E+02  0.10039977825E+01  0.72461575901E+02  0.70000007303E+02 0.  0.
        -12    1    1    2    0    0 -0.10357139757E+02  0.15569219764E+02 -0.10039977825E+01  0.18726424099E+02  0.00000000000E+00 0.  1.
         11    1    3    3    0    0  0.17553635202E+02 -0.26105527353E+01  0.26172904604E+02  0.31622239486E+02  0.51100000000E-03 0. -1.
        -11    1    3    3    0    0  0.18224435328E+01  0.81119520426E+01 -0.26959202851E+01  0.87403119405E+01  0.51100000000E-03 0.  1.
        -12    1    3    3    0    0 -0.90189389786E+01 -0.21070619071E+02 -0.22472986537E+02  0.32099024475E+02  0.00000000000E+00 0.  1.
</event>
<event>
 7    1  0.1749439E-013  0.7246156E+02  0.7816164E-02  0.1226708E+00
        -11   -1    0    0    0    0  0.00000000000E+00  0.00000000000E+00  0.45593999997E+02  0.45594000000E+02  0.51100000000E-03 0.  1.
         11   -1    0    0    0    0 -0.00000000000E+00 -0.00000000000E+00 -0.45593999997E+02  0.45594000000E+02  0.51100000000E-03 0. -1.
    9900012    2    1    2    0    0  0.71179471241E+01  0.17277671181E+02  0.12232886703E+01  0.72461560726E+02  0.69999987536E+02 0.  0.
        -12    1    1    2    0    0 -0.71179471241E+01 -0.17277671181E+02 -0.12232886703E+01  0.18726439274E+02  0.00000000000E+00 0.  1.
         11    1    3    3    0    0 -0.97250225634E+01  0.17027983391E+02  0.33134560596E+01  0.19887364671E+02  0.51100000000E-03 0. -1.
        -11    1    3    3    0    0  0.27395215198E+02  0.17357683677E+02 -0.11509019544E+01  0.32451680603E+02  0.51100000000E-03 0.  1.
        -12    1    3    3    0    0 -0.10552245511E+02 -0.17107995887E+02 -0.93926543489E+00  0.20122515452E+02  0.00000000000E+00 0.  1.
</event>
<event>
 7    1  0.1749439E-013  0.7246158E+02  0.7816164E-02  0.1226708E+00
        -11   -1    0    0    0    0  0.00000000000E+00  0.00000000000E+00  0.45593999997E+02  0.45594000000E+02  0.51100000000E-03 0.  1.
         11   -1    0    0    0    0 -0.00000000000E+00 -0.00000000000E+00 -0.45593999997E+02  0.45594000000E+02  0.51100000000E-03 0. -1.
    9900012    2    1    2    0    0  0.10796803840E+02 -0.93796693521E+00 -0.15271803481E+02  0.72461581851E+02  0.70000015055E+02 0.  0.
        -12    1    1    2    0    0 -0.10796803840E+02  0.93796693521E+00  0.15271803481E+02  0.18726418149E+02  0.00000000000E+00 0.  1.
         11    1    3    3    0    0  0.14710221437E+02  0.13232652619E+01 -0.21113924506E+02  0.25767022606E+02  0.51100000000E-03 0. -1.
        -11    1    3    3    0    0  0.18251047534E+01  0.19504601260E+02 -0.69715697621E+01  0.20793346601E+02  0.51100000000E-03 0.  1.
        -12    1    3    3    0    0 -0.57385223501E+01 -0.21765833457E+02  0.12813690787E+02  0.25901212644E+02  0.00000000000E+00 0.  1.
</event>
<event>
 7    1  0.1749439E-013  0.7246157E+02  0.7816164E-02  0.1226708E+00
        -11   -1    0    0    0    0  0.00000000000E+00  0.00000000000E+00  0.45593999997E+02  0.45594000000E+02  0.51100000000E-03 0.  1.
         11   -1    0    0    0    0 -0.00000000000E+00 -0.00000000000E+00 -0.45593999997E+02  0.45594000000E+02  0.51100000000E-03 0. -1.
    9900012    2    1    2    0    0  0.13112153933E+02  0.13047935221E+02  0.29158381311E+01  0.72461566642E+02  0.69999995242E+02 0.  0.
        -12    1    1    2    0    0 -0.13112153933E+02 -0.13047935221E+02 -0.29158381311E+01  0.18726433358E+02  0.00000000000E+00 0.  1.
         11    1    3    3    0    0  0.50458649752E+01 -0.41182516910E+01  0.12074891716E+02  0.13719466482E+02  0.51100000000E-03 0.  1.
        -11    1    3    3    0    0  0.19428145521E+02  0.25479299619E+02  0.11240836247E+02  0.33955911816E+02  0.51100000000E-03 0. -1.
         12    1    3    3    0    0 -0.11361856563E+02 -0.83131127067E+01 -0.20399889832E+02  0.24786188343E+02  0.00000000000E+00 0. -1.
</event>
<event>
 7    1  0.1749439E-013  0.7246156E+02  0.7816164E-02  0.1226708E+00
        -11   -1    0    0    0    0  0.00000000000E+00  0.00000000000E+00  0.45593999997E+02  0.45594000000E+02  0.51100000000E-03 0.  1.
         11   -1    0    0    0    0 -0.00000000000E+00 -0.00000000000E+00 -0.45593999997E+02  0.45594000000E+02  0.51100000000E-03 0. -1.
    9900012    2    1    2    0    0 -0.28089214240E+01  0.79982786215E+01 -0.16697813828E+02  0.72461561815E+02  0.69999988954E+02 0.  0.
        -12    1    1    2    0    0  0.28089214240E+01 -0.79982786215E+01  0.16697813828E+02  0.18726438185E+02  0.00000000000E+00 0.  1.
         11    1    3    3    0    0  0.27625364364E+02  0.81995303344E+01  0.46699966692E+01  0.29192497719E+02  0.51100000000E-03 0. -1.
        -11    1    3    3    0    0 -0.16518058578E+02 -0.99872073646E+01 -0.56635821613E+01  0.20116330015E+02  0.51100000000E-03 0.  1.
        -12    1    3    3    0    0 -0.13916227210E+02  0.97859556517E+01 -0.15704228336E+02  0.23152734080E+02  0.00000000000E+00 0.  1.
</event>
<event>
 7    1  0.1749439E-013  0.7246156E+02  0.7816164E-02  0.1226708E+00
        -11   -1    0    0    0    0  0.00000000000E+00  0.00000000000E+00  0.45593999997E+02  0.45594000000E+02  0.51100000000E-03 0.  1.
         11   -1    0    0    0    0 -0.00000000000E+00 -0.00000000000E+00 -0.45593999997E+02  0.45594000000E+02  0.51100000000E-03 0. -1.
    9900012    2    1    2    0    0  0.12695940229E+02  0.72880260660E+01 -0.11678066591E+02  0.72461562497E+02  0.69999989843E+02 0.  0.
        -12    1    1    2    0    0 -0.12695940229E+02 -0.72880260660E+01  0.11678066591E+02  0.18726437503E+02  0.00000000000E+00 0.  1.
         11    1    3    3    0    0  0.45531209825E+01  0.87829397739E+01  0.25332843202E+01  0.10212172710E+02  0.51100000000E-03 0. -1.
        -11    1    3    3    0    0 -0.53989567753E+01  0.94071811224E+01  0.20632263597E+02  0.23309527930E+02  0.51100000000E-03 0.  1.
         12    1    3    3    0    0  0.13541776022E+02 -0.10902094830E+02 -0.34843614508E+02  0.38939861857E+02  0.00000000000E+00 0. -1.
</event>
<event>
 7    1  0.1749439E-013  0.7246157E+02  0.7816164E-02  0.1226708E+00
        -11   -1    0    0    0    0  0.00000000000E+00  0.00000000000E+00  0.45593999997E+02  0.45594000000E+02  0.51100000000E-03 0. -1.
         11   -1    0    0    0    0 -0.00000000000E+00 -0.00000000000E+00 -0.45593999997E+02  0.45594000000E+02  0.51100000000E-03 0.  1.
    9900012    2    1    2    0    0  0.71062861284E+01  0.14524750838E+02  0.94451899374E+01  0.72461566746E+02  0.69999995378E+02 0.  0.
        -12    1    1    2    0    0 -0.71062861284E+01 -0.14524750838E+02 -0.94451899374E+01  0.18726433254E+02  0.00000000000E+00 0.  1.
         11    1    3    3    0    0 -0.86487745065E+01  0.64729850192E+01  0.48820171766E+01  0.11854742827E+02  0.51100000000E-03 0. -1.
        -11    1    3    3    0    0 -0.21926857928E+02  0.12031956949E+00  0.16751021456E+01  0.21991078710E+02  0.51100000000E-03 0.  1.
         12    1    3    3    0    0  0.37681918563E+02  0.79314462497E+01  0.28880706151E+01  0.38615745209E+02  0.00000000000E+00 0. -1.
</event>
<event>
 7    1  0.1749439E-013  0.7246157E+02  0.7816164E-02  0.1226708E+00
        -11   -1    0    0    0    0  0.00000000000E+00  0.00000000000E+00  0.45593999997E+02  0.45594000000E+02  0.51100000000E-03 0. -1.
         11   -1    0    0    0    0 -0.00000000000E+00 -0.00000000000E+00 -0.45593999997E+02  0.45594000000E+02  0.51100000000E-03 0.  1.
    9900012    2    1    2    0    0 -0.98140585103E+01 -0.11661614835E+02 -0.10879801679E+02  0.72461572429E+02  0.70000002780E+02 0.  0.
        -12    1    1    2    0    0  0.98140585103E+01  0.11661614835E+02  0.10879801679E+02  0.18726427571E+02  0.00000000000E+00 0.  1.
         11    1    3    3    0    0 -0.13293345596E+02 -0.14955448036E+02  0.59051686382E+01  0.20862633582E+02  0.51100000000E-03 0. -1.
        -11    1    3    3    0    0 -0.75789281687E+01 -0.16027481484E+02 -0.22470441739E+02  0.28622387516E+02  0.51100000000E-03 0.  1.
         12    1    3    3    0    0  0.11058215254E+02  0.19321314685E+02  0.56854714215E+01  0.22976551331E+02  0.00000000000E+00 0. -1.
</event>
<event>
 7    1  0.1749439E-013  0.7246158E+02  0.7816164E-02  0.1226708E+00
        -11   -1    0    0    0    0  0.00000000000E+00  0.00000000000E+00  0.45593999997E+02  0.45594000000E+02  0.51100000000E-03 0. -1.
         11   -1    0    0    0    0 -0.00000000000E+00 -0.00000000000E+00 -0.45593999997E+02  0.45594000000E+02  0.51100000000E-03 0.  1.
    9900012    2    1    2    0    0  0.10150089158E+02  0.80893370669E+01  0.13498784692E+02  0.72461578231E+02  0.70000010339E+02 0.  0.
        -12    1    1    2    0    0 -0.10150089158E+02 -0.80893370669E+01 -0.13498784692E+02  0.18726421769E+02  0.00000000000E+00 0.  1.
         11    1    3    3    0    0  0.88076458961E+01  0.56259589644E+01 -0.81004932959E+01  0.13222860220E+02  0.51100000000E-03 0. -1.
        -11    1    3    3    0    0 -0.11174216156E+01  0.16367866527E+02 -0.13601796785E+02  0.21311137035E+02  0.51100000000E-03 0.  1.
        -12    1    3    3    0    0  0.24598648775E+01 -0.13904488424E+02  0.35201074773E+02  0.37927580976E+02  0.00000000000E+00 0.  1.
</event>
<event>
 7    1  0.1749439E-013  0.7246153E+02  0.7816164E-02  0.1226708E+00
        -11   -1    0    0    0    0  0.00000000000E+00  0.00000000000E+00  0.45593999997E+02  0.45594000000E+02  0.51100000000E-03 0.  1.
         11   -1    0    0    0    0 -0.00000000000E+00 -0.00000000000E+00 -0.45593999997E+02  0.45594000000E+02  0.51100000000E-03 0. -1.
    9900012    2    1    2    0    0 -0.65898053363E+01  0.13262853606E+02 -0.11460876046E+02  0.72461534773E+02  0.69999953727E+02 0.  0.
        -12    1    1    2    0    0  0.65898053363E+01 -0.13262853606E+02  0.11460876046E+02  0.18726465227E+02  0.00000000000E+00 0.  1.
         11    1    3    3    0    0  0.85170159643E+01  0.72829144961E+01  0.32601658030E+00  0.11211007607E+02  0.51100000000E-03 0. -1.
        -11    1    3    3    0    0 -0.29334821202E+01  0.21316004014E+02  0.16312935885E+02  0.27001652207E+02  0.51100000000E-03 0.  1.
         12    1    3    3    0    0 -0.12173339180E+02 -0.15336064904E+02 -0.28099828512E+02  0.34248874959E+02  0.00000000000E+00 0. -1.
</event>
<event>
 7    1  0.1749439E-013  0.7246157E+02  0.7816164E-02  0.1226708E+00
        -11   -1    0    0    0    0  0.00000000000E+00  0.00000000000E+00  0.45593999997E+02  0.45594000000E+02  0.51100000000E-03 0.  1.
         11   -1    0    0    0    0 -0.00000000000E+00 -0.00000000000E+00 -0.45593999997E+02  0.45594000000E+02  0.51100000000E-03 0. -1.
    9900012    2    1    2    0    0 -0.17607207317E+02 -0.61916085617E+01 -0.15261963193E+01  0.72461573718E+02  0.70000004461E+02 0.  0.
        -12    1    1    2    0    0  0.17607207317E+02  0.61916085617E+01  0.15261963193E+01  0.18726426282E+02  0.00000000000E+00 0.  1.
         11    1    3    3    0    0 -0.15674525620E+02 -0.17282096803E+02 -0.10625335507E+02  0.25637070391E+02  0.51100000000E-03 0. -1.
        -11    1    3    3    0    0  0.12657179912E+02 -0.65222155182E+01  0.17409457198E+02  0.22490724728E+02  0.51100000000E-03 0.  1.
         12    1    3    3    0    0 -0.14589861609E+02  0.17612703760E+02 -0.83103180104E+01  0.24333778600E+02  0.00000000000E+00 0. -1.
</event>
<event>
 7    1  0.1749439E-013  0.7246159E+02  0.7816164E-02  0.1226708E+00
        -11   -1    0    0    0    0  0.00000000000E+00  0.00000000000E+00  0.45593999997E+02  0.45594000000E+02  0.51100000000E-03 0.  1.
         11   -1    0    0    0    0 -0.00000000000E+00 -0.00000000000E+00 -0.45593999997E+02  0.45594000000E+02  0.51100000000E-03 0. -1.
    9900012    2    1    2    0    0  0.39119284524E+01 -0.16978804778E+02 -0.68626018050E+01  0.72461593526E+02  0.70000030263E+02 0.  0.
        -12    1    1    2    0    0 -0.39119284524E+01  0.16978804778E+02  0.68626018050E+01  0.18726406474E+02  0.00000000000E+00 0.  1.
         11    1    3    3    0    0 -0.34214218414E+01 -0.23708107737E+00 -0.28167643247E+01  0.44380734982E+01  0.51100000000E-03 0. -1.
        -11    1    3    3    0    0 -0.11882308080E+02 -0.16859713635E+02  0.25488111177E+02  0.32788458347E+02  0.51100000000E-03 0.  1.
         12    1    3    3    0    0  0.19215658373E+02  0.11798993372E+00 -0.29533948657E+02  0.35235061681E+02  0.00000000000E+00 0. -1.
</event>
<event>
 7    1  0.1749439E-013  0.7246161E+02  0.7816164E-02  0.1226708E+00
        -11   -1    0    0    0    0  0.00000000000E+00  0.00000000000E+00  0.45593999997E+02  0.45594000000E+02  0.51100000000E-03 0.  1.
         11   -1    0    0    0    0 -0.00000000000E+00 -0.00000000000E+00 -0.45593999997E+02  0.45594000000E+02  0.51100000000E-03 0. -1.
    9900012    2    1    2    0    0 -0.24178592583E+01 -0.45488933457E+01 -0.18003861697E+02  0.72461614602E+02  0.70000057719E+02 0.  0.
        -12    1    1    2    0    0  0.24178592583E+01  0.45488933457E+01  0.18003861697E+02  0.18726385398E+02  0.00000000000E+00 0.  1.
         11    1    3    3    0    0  0.98842413636E+00 -0.28436707568E+01  0.40077962628E+01  0.50125718740E+01  0.51100000000E-03 0. -1.
        -11    1    3    3    0    0  0.23787473889E+00 -0.30365918186E+02  0.11966642436E+01  0.30390419169E+02  0.51100000000E-03 0.  1.
         12    1    3    3    0    0 -0.36441581336E+01  0.28660695597E+02 -0.23208322203E+02  0.37058623559E+02  0.00000000000E+00 0. -1.
</event>
<event>
 7    1  0.1749439E-013  0.7246158E+02  0.7816164E-02  0.1226708E+00
        -11   -1    0    0    0    0  0.00000000000E+00  0.00000000000E+00  0.45593999997E+02  0.45594000000E+02  0.51100000000E-03 0.  1.
         11   -1    0    0    0    0 -0.00000000000E+00 -0.00000000000E+00 -0.45593999997E+02  0.45594000000E+02  0.51100000000E-03 0. -1.
    9900012    2    1    2    0    0  0.69492639167E+00  0.18620925386E+02  0.18593568773E+01  0.72461575010E+02  0.70000006143E+02 0.  0.
        -12    1    1    2    0    0 -0.69492639167E+00 -0.18620925386E+02 -0.18593568773E+01  0.18726424990E+02  0.00000000000E+00 0.  1.
         11    1    3    3    0    0  0.51063602459E+01  0.39216550379E+01 -0.22787474136E+02  0.23679596089E+02  0.51100000000E-03 0. -1.
        -11    1    3    3    0    0  0.45537875096E+01 -0.53265860090E+01 -0.72397287290E+01  0.10075870758E+02  0.51100000000E-03 0.  1.
        -12    1    3    3    0    0 -0.89652213638E+01  0.20025856357E+02  0.31886559742E+02  0.38706108163E+02  0.00000000000E+00 0.  1.
</event>
<event>
 7    1  0.1749439E-013  0.7246154E+02  0.7816164E-02  0.1226708E+00
        -11   -1    0    0    0    0  0.00000000000E+00  0.00000000000E+00  0.45593999997E+02  0.45594000000E+02  0.51100000000E-03 0.  1.
         11   -1    0    0    0    0 -0.00000000000E+00 -0.00000000000E+00 -0.45593999997E+02  0.45594000000E+02  0.51100000000E-03 0. -1.
    9900012    2    1    2    0    0  0.45415855805E+01  0.17280839644E+02 -0.56059611119E+01  0.72461542290E+02  0.69999963519E+02 0.  0.
        -12    1    1    2    0    0 -0.45415855805E+01 -0.17280839644E+02  0.56059611119E+01  0.18726457710E+02  0.00000000000E+00 0.  1.
         11    1    3    3    0    0 -0.55044998931E+01  0.33870845352E+01  0.12464394584E+02  0.14040405740E+02  0.51100000000E-03 0. -1.
        -11    1    3    3    0    0  0.20449518673E+02 -0.14479734404E+02 -0.11109303940E+02  0.27409161911E+02  0.51100000000E-03 0.  1.
         12    1    3    3    0    0 -0.10403433200E+02  0.28373489512E+02 -0.69610517563E+01  0.31011974639E+02  0.00000000000E+00 0. -1.
</event>
<event>
 7    1  0.1749439E-013  0.7246138E+02  0.7816164E-02  0.1226709E+00
        -11   -1    0    0    0    0  0.00000000000E+00  0.00000000000E+00  0.45593999997E+02  0.45594000000E+02  0.51100000000E-03 0. -1.
         11   -1    0    0    0    0 -0.00000000000E+00 -0.00000000000E+00 -0.45593999997E+02  0.45594000000E+02  0.51100000000E-03 0.  1.
    9900012    2    1    2    0    0 -0.14504883386E+01 -0.13183528201E+02  0.13220328140E+02  0.72461377017E+02  0.69999748219E+02 0.  0.
        -12    1    1    2    0    0  0.14504883386E+01  0.13183528201E+02 -0.13220328140E+02  0.18726622983E+02  0.00000000000E+00 0.  1.
         11    1    3    3    0    0 -0.22714819560E+02 -0.13170141813E+02  0.12420062092E+02  0.29046060071E+02  0.51100000000E-03 0. -1.
        -11    1    3    3    0    0  0.10228628770E+02  0.11218333423E+02  0.15627135549E+02  0.21787226006E+02  0.51100000000E-03 0.  1.
        -12    1    3    3    0    0  0.11035702451E+02 -0.11231719811E+02 -0.14826869501E+02  0.21628090940E+02  0.00000000000E+00 0.  1.
</event>
<event>
 7    1  0.1749439E-013  0.7246154E+02  0.7816164E-02  0.1226708E+00
        -11   -1    0    0    0    0  0.00000000000E+00  0.00000000000E+00  0.45593999997E+02  0.45594000000E+02  0.51100000000E-03 0.  1.
         11   -1    0    0    0    0 -0.00000000000E+00 -0.00000000000E+00 -0.45593999997E+02  0.45594000000E+02  0.51100000000E-03 0. -1.
    9900012    2    1    2    0    0 -0.48290529615E+01 -0.17480696785E+02  0.46675075890E+01  0.72461544391E+02  0.69999966256E+02 0.  0.
        -12    1    1    2    0    0  0.48290529615E+01  0.17480696785E+02 -0.46675075890E+01  0.18726455609E+02  0.00000000000E+00 0.  1.
         11    1    3    3    0    0  0.11435113532E+02  0.11182335638E+02  0.11933348248E+02  0.19955231206E+02  0.51100000000E-03 0. -1.
        -11    1    3    3    0    0 -0.14071329130E+02  0.63002291341E+01  0.35920199923E+01  0.15830281062E+02  0.51100000000E-03 0.  1.
         12    1    3    3    0    0 -0.21928373632E+01 -0.34963261556E+02 -0.10857860652E+02  0.36676032123E+02  0.00000000000E+00 0. -1.
</event>
<event>
 7    1  0.1749439E-013  0.7246156E+02  0.7816164E-02  0.1226708E+00
        -11   -1    0    0    0    0  0.00000000000E+00  0.00000000000E+00  0.45593999997E+02  0.45594000000E+02  0.51100000000E-03 0. -1.
         11   -1    0    0    0    0 -0.00000000000E+00 -0.00000000000E+00 -0.45593999997E+02  0.45594000000E+02  0.51100000000E-03 0.  1.
    9900012    2    1    2    0    0 -0.90677847110E+01  0.27101808566E+01  0.16158895058E+02  0.72461556415E+02  0.69999981919E+02 0.  0.
        -12    1    1    2    0    0  0.90677847110E+01 -0.27101808566E+01 -0.16158895058E+02  0.18726443585E+02  0.00000000000E+00 0.  1.
         11    1    3    3    0    0 -0.52415111453E+01  0.72347660662E+01  0.24512088075E+02  0.26089418184E+02  0.51100000000E-03 0. -1.
        -11    1    3    3    0    0  0.60218266655E+01  0.18574117106E+02  0.10616124098E+01  0.19554724335E+02  0.51100000000E-03 0.  1.
        -12    1    3    3    0    0 -0.98481002312E+01 -0.23098702316E+02 -0.94148054262E+01  0.26817413896E+02  0.00000000000E+00 0.  1.
</event>
<event>
 7    1  0.1749439E-013  0.7246157E+02  0.7816164E-02  0.1226708E+00
        -11   -1    0    0    0    0  0.00000000000E+00  0.00000000000E+00  0.45593999997E+02  0.45594000000E+02  0.51100000000E-03 0.  1.
         11   -1    0    0    0    0 -0.00000000000E+00 -0.00000000000E+00 -0.45593999997E+02  0.45594000000E+02  0.51100000000E-03 0. -1.
    9900012    2    1    2    0    0 -0.10462706741E+02 -0.15028011249E+02 -0.39204427397E+01  0.72461568794E+02  0.69999998045E+02 0.  0.
        -12    1    1    2    0    0  0.10462706741E+02  0.15028011249E+02  0.39204427397E+01  0.18726431206E+02  0.00000000000E+00 0.  1.
         11    1    3    3    0    0 -0.94047576145E+01 -0.22473950194E+02 -0.20873568766E+02  0.32081673529E+02  0.51100000000E-03 0. -1.
        -11    1    3    3    0    0 -0.97288713692E+01 -0.59321280911E+01  0.21035229100E+02  0.23923251145E+02  0.51100000000E-03 0.  1.
        -12    1    3    3    0    0  0.86709222429E+01  0.13378067036E+02 -0.40821030736E+01  0.16456644119E+02  0.00000000000E+00 0.  1.
</event>
<event>
 7    1  0.1749439E-013  0.7246152E+02  0.7816164E-02  0.1226708E+00
        -11   -1    0    0    0    0  0.00000000000E+00  0.00000000000E+00  0.45593999997E+02  0.45594000000E+02  0.51100000000E-03 0.  1.
         11   -1    0    0    0    0 -0.00000000000E+00 -0.00000000000E+00 -0.45593999997E+02  0.45594000000E+02  0.51100000000E-03 0. -1.
    9900012    2    1    2    0    0  0.34191592704E+01 -0.10629173513E+02 -0.15033669112E+02  0.72461516437E+02  0.69999929841E+02 0.  0.
        -12    1    1    2    0    0 -0.34191592704E+01  0.10629173513E+02  0.15033669112E+02  0.18726483563E+02  0.00000000000E+00 0.  1.
         11    1    3    3    0    0  0.97773627563E+01  0.17958347969E+02 -0.32311258175E+01  0.20701189786E+02  0.51100000000E-03 0. -1.
        -11    1    3    3    0    0 -0.95760825666E+01  0.59789286472E+01  0.59579978828E+01  0.12765057153E+02  0.51100000000E-03 0.  1.
         12    1    3    3    0    0  0.32178790807E+01 -0.34566450129E+02 -0.17760541177E+02  0.38995269498E+02  0.00000000000E+00 0. -1.
</event>
<event>
 7    1  0.1749439E-013  0.7246160E+02  0.7816164E-02  0.1226708E+00
        -11   -1    0    0    0    0  0.00000000000E+00  0.00000000000E+00  0.45593999997E+02  0.45594000000E+02  0.51100000000E-03 0.  1.
         11   -1    0    0    0    0 -0.00000000000E+00 -0.00000000000E+00 -0.45593999997E+02  0.45594000000E+02  0.51100000000E-03 0. -1.
    9900012    2    1    2    0    0 -0.17610771526E+02 -0.60953532181E+01  0.18399099035E+01  0.72461604910E+02  0.70000045094E+02 0.  0.
        -12    1    1    2    0    0  0.17610771526E+02  0.60953532181E+01 -0.18399099035E+01  0.18726395090E+02  0.00000000000E+00 0.  1.
         11    1    3    3    0    0 -0.35270878685E+01 -0.18086298339E+02 -0.20744105590E+01  0.18543400871E+02  0.51100000000E-03 0. -1.
        -11    1    3    3    0    0  0.16057147795E+02  0.74564012659E+01 -0.10087278939E+02  0.20376042594E+02  0.51100000000E-03 0.  1.
        -12    1    3    3    0    0 -0.30140831453E+02  0.45345438549E+01  0.14001599401E+02  0.33542161445E+02  0.00000000000E+00 0.  1.
</event>
<event>
 7    1  0.1749439E-013  0.7246159E+02  0.7816164E-02  0.1226708E+00
        -11   -1    0    0    0    0  0.00000000000E+00  0.00000000000E+00  0.45593999997E+02  0.45594000000E+02  0.51100000000E-03 0.  1.
         11   -1    0    0    0    0 -0.00000000000E+00 -0.00000000000E+00 -0.45593999997E+02  0.45594000000E+02  0.51100000000E-03 0. -1.
    9900012    2    1    2    0    0  0.15585463516E+00  0.16626777669E+02  0.86141905733E+01  0.72461593363E+02  0.70000030051E+02 0.  0.
        -12    1    1    2    0    0 -0.15585463516E+00 -0.16626777669E+02 -0.86141905733E+01  0.18726406637E+02  0.00000000000E+00 0.  1.
         11    1    3    3    0    0  0.26433644410E+02 -0.48935473627E+00  0.58621202678E+01  0.27080278417E+02  0.51100000000E-03 0. -1.
        -11    1    3    3    0    0  0.16548340119E+01  0.82428539295E+00  0.11687547563E+02  0.11832864840E+02  0.51100000000E-03 0.  1.
         12    1    3    3    0    0 -0.27932623787E+02  0.16291847012E+02 -0.89354772576E+01  0.33548450106E+02  0.00000000000E+00 0. -1.
</event>
<event>
 7    1  0.1749439E-013  0.7246161E+02  0.7816164E-02  0.1226708E+00
        -11   -1    0    0    0    0  0.00000000000E+00  0.00000000000E+00  0.45593999997E+02  0.45594000000E+02  0.51100000000E-03 0.  1.
         11   -1    0    0    0    0 -0.00000000000E+00 -0.00000000000E+00 -0.45593999997E+02  0.45594000000E+02  0.51100000000E-03 0. -1.
    9900012    2    1    2    0    0 -0.53566011087E+00 -0.37602144567E+01 -0.18337159862E+02  0.72461612833E+02  0.70000055415E+02 0.  0.
        -12    1    1    2    0    0  0.53566011087E+00  0.37602144567E+01  0.18337159862E+02  0.18726387167E+02  0.00000000000E+00 0.  1.
         11    1    3    3    0    0 -0.49675864111E+01  0.24772231147E+01 -0.30610500071E+02  0.31109745483E+02  0.51100000000E-03 0. -1.
        -11    1    3    3    0    0  0.12273625363E+02 -0.73256514528E+01 -0.10177041755E+02  0.17546487623E+02  0.51100000000E-03 0.  1.
        -12    1    3    3    0    0 -0.78416990631E+01  0.10882138814E+01  0.22450381964E+02  0.23805379727E+02  0.00000000000E+00 0.  1.
</event>
<event>
 7    1  0.1749439E-013  0.7246152E+02  0.7816164E-02  0.1226708E+00
        -11   -1    0    0    0    0  0.00000000000E+00  0.00000000000E+00  0.45593999997E+02  0.45594000000E+02  0.51100000000E-03 0. -1.
         11   -1    0    0    0    0 -0.00000000000E+00 -0.00000000000E+00 -0.45593999997E+02  0.45594000000E+02  0.51100000000E-03 0.  1.
    9900012    2    1    2    0    0  0.42977038796E+01 -0.38518533643E+01  0.17814993663E+02  0.72461520560E+02  0.69999935212E+02 0.  0.
        -12    1    1    2    0    0 -0.42977038796E+01  0.38518533643E+01 -0.17814993663E+02  0.18726479440E+02  0.00000000000E+00 0.  1.
         11    1    3    3    0    0 -0.59009283398E+01  0.12564274293E+02  0.21148785733E+02  0.25297293966E+02  0.51100000000E-03 0. -1.
        -11    1    3    3    0    0 -0.12740292896E+02  0.56945551256E+01  0.39067562152E+01  0.14491575675E+02  0.51100000000E-03 0.  1.
         12    1    3    3    0    0  0.22938925116E+02 -0.22110682783E+02 -0.72405482849E+01  0.32672650919E+02  0.00000000000E+00 0. -1.
</event>
<event>
 7    1  0.1749439E-013  0.7246157E+02  0.7816164E-02  0.1226708E+00
        -11   -1    0    0    0    0  0.00000000000E+00  0.00000000000E+00  0.45593999997E+02  0.45594000000E+02  0.51100000000E-03 0.  1.
         11   -1    0    0    0    0 -0.00000000000E+00 -0.00000000000E+00 -0.45593999997E+02  0.45594000000E+02  0.51100000000E-03 0. -1.
    9900012    2    1    2    0    0  0.24439213677E+01 -0.13704422311E+02 -0.12525784743E+02  0.72461568787E+02  0.69999998037E+02 0.  0.
        -12    1    1    2    0    0 -0.24439213677E+01  0.13704422311E+02  0.12525784743E+02  0.18726431213E+02  0.00000000000E+00 0.  1.
         11    1    3    3    0    0 -0.10890413152E+02 -0.34045702161E+01  0.98684368723E+01  0.15085696654E+02  0.51100000000E-03 0.  1.
        -11    1    3    3    0    0  0.90367017095E+01  0.11287931307E+02 -0.30632152829E+02  0.33873413737E+02  0.51100000000E-03 0. -1.
         12    1    3    3    0    0  0.42976328097E+01 -0.21587783402E+02  0.82379312140E+01  0.23502458396E+02  0.00000000000E+00 0. -1.
</event>
<event>
 7    1  0.1749439E-013  0.7246155E+02  0.7816164E-02  0.1226708E+00
        -11   -1    0    0    0    0  0.00000000000E+00  0.00000000000E+00  0.45593999997E+02  0.45594000000E+02  0.51100000000E-03 0.  1.
         11   -1    0    0    0    0 -0.00000000000E+00 -0.00000000000E+00 -0.45593999997E+02  0.45594000000E+02  0.51100000000E-03 0. -1.
    9900012    2    1    2    0    0  0.28490291689E+01  0.14762949370E+02 -0.11163252632E+02  0.72461552109E+02  0.69999976310E+02 0.  0.
        -12    1    1    2    0    0 -0.28490291689E+01 -0.14762949370E+02  0.11163252632E+02  0.18726447891E+02  0.00000000000E+00 0.  1.
         11    1    3    3    0    0  0.20802020372E+02  0.41611219166E+01 -0.19430420792E+01  0.21302919986E+02  0.51100000000E-03 0. -1.
        -11    1    3    3    0    0  0.32369112357E+01  0.24655381370E+02 -0.37163979469E+01  0.25143131046E+02  0.51100000000E-03 0.  1.
         12    1    3    3    0    0 -0.21189902439E+02 -0.14053553916E+02 -0.55038126056E+01  0.26015501076E+02  0.00000000000E+00 0. -1.
</event>
<event>
 7    1  0.1749439E-013  0.7246159E+02  0.7816164E-02  0.1226708E+00
        -11   -1    0    0    0    0  0.00000000000E+00  0.00000000000E+00  0.45593999997E+02  0.45594000000E+02  0.51100000000E-03 0. -1.
         11   -1    0    0    0    0 -0.00000000000E+00 -0.00000000000E+00 -0.45593999997E+02  0.45594000000E+02  0.51100000000E-03 0.  1.
    9900012    2    1    2    0    0  0.45799472251E+01 -0.17738519790E+02 -0.38790997483E+01  0.72461590419E+02  0.70000026216E+02 0.  0.
        -12    1    1    2    0    0 -0.45799472251E+01  0.17738519790E+02  0.38790997483E+01  0.18726409581E+02  0.00000000000E+00 0.  1.
         11    1    3    3    0    0  0.40784533671E+01 -0.10305792609E+02  0.53178247578E+01  0.12293185250E+02  0.51100000000E-03 0. -1.
        -11    1    3    3    0    0 -0.18049615612E+02 -0.26957078003E+02 -0.34011718502E+01  0.32619635933E+02  0.51100000000E-03 0.  1.
        -12    1    3    3    0    0  0.18551109470E+02  0.19524350822E+02 -0.57957526559E+01  0.27548769236E+02  0.00000000000E+00 0.  1.
</event>
<event>
 7    1  0.1749439E-013  0.7246160E+02  0.7816164E-02  0.1226708E+00
        -11   -1    0    0    0    0  0.00000000000E+00  0.00000000000E+00  0.45593999997E+02  0.45594000000E+02  0.51100000000E-03 0. -1.
         11   -1    0    0    0    0 -0.00000000000E+00 -0.00000000000E+00 -0.45593999997E+02  0.45594000000E+02  0.51100000000E-03 0.  1.
    9900012    2    1    2    0    0  0.81096218849E+01 -0.10105656250E+02  0.13519910560E+02  0.72461595196E+02  0.70000032439E+02 0.  0.
        -12    1    1    2    0    0 -0.81096218849E+01  0.10105656250E+02 -0.13519910560E+02  0.18726404804E+02  0.00000000000E+00 0.  1.
         11    1    3    3    0    0 -0.56699791540E+01 -0.35622023640E+01  0.27475144746E+01  0.72378716028E+01  0.51100000000E-03 0. -1.
        -11    1    3    3    0    0 -0.15166682616E+02 -0.15215653250E+02 -0.14426618806E+02  0.25878015686E+02  0.51100000000E-03 0.  1.
         12    1    3    3    0    0  0.28946283655E+02  0.86721993647E+01  0.25199014891E+02  0.39345707907E+02  0.00000000000E+00 0. -1.
</event>
<event>
 7    1  0.1749439E-013  0.7246138E+02  0.7816164E-02  0.1226709E+00
        -11   -1    0    0    0    0  0.00000000000E+00  0.00000000000E+00  0.45593999997E+02  0.45594000000E+02  0.51100000000E-03 0.  1.
         11   -1    0    0    0    0 -0.00000000000E+00 -0.00000000000E+00 -0.45593999997E+02  0.45594000000E+02  0.51100000000E-03 0. -1.
    9900012    2    1    2    0    0  0.15619804972E+01 -0.43370716710E+01 -0.18150382133E+02  0.72461378700E+02  0.69999750412E+02 0.  0.
        -12    1    1    2    0    0 -0.15619804972E+01  0.43370716710E+01  0.18150382133E+02  0.18726621300E+02  0.00000000000E+00 0.  1.
         11    1    3    3    0    0  0.41419853496E+01 -0.20254391094E+02 -0.29551280173E+00  0.20675679657E+02  0.51100000000E-03 0. -1.
        -11    1    3    3    0    0 -0.19582322797E+02 -0.59799640617E+01 -0.10934706582E+02  0.23211961240E+02  0.51100000000E-03 0.  1.
        -12    1    3    3    0    0  0.17002317945E+02  0.21897283485E+02 -0.69201627494E+01  0.28573737802E+02  0.00000000000E+00 0.  1.
</event>
<event>
 7    1  0.1749439E-013  0.7246161E+02  0.7816164E-02  0.1226708E+00
        -11   -1    0    0    0    0  0.00000000000E+00  0.00000000000E+00  0.45593999997E+02  0.45594000000E+02  0.51100000000E-03 0. -1.
         11   -1    0    0    0    0 -0.00000000000E+00 -0.00000000000E+00 -0.45593999997E+02  0.45594000000E+02  0.51100000000E-03 0.  1.
    9900012    2    1    2    0    0  0.66395036429E+01  0.36090871165E+00  0.17506121702E+02  0.72461613248E+02  0.70000055956E+02 0.  0.
        -12    1    1    2    0    0 -0.66395036429E+01 -0.36090871165E+00 -0.17506121702E+02  0.18726386752E+02  0.00000000000E+00 0.  1.
         11    1    3    3    0    0  0.15272664801E+02  0.11025246446E+02  0.18010694152E+02  0.26061378579E+02  0.51100000000E-03 0. -1.
        -11    1    3    3    0    0  0.12123309195E+02 -0.73852362410E+01  0.14720786795E+02  0.20450376630E+02  0.51100000000E-03 0.  1.
        -12    1    3    3    0    0 -0.20756470354E+02 -0.32791014935E+01 -0.15225359245E+02  0.25949858040E+02  0.00000000000E+00 0.  1.
</event>
<event>
 7    1  0.1749439E-013  0.7246160E+02  0.7816164E-02  0.1226708E+00
        -11   -1    0    0    0    0  0.00000000000E+00  0.00000000000E+00  0.45593999997E+02  0.45594000000E+02  0.51100000000E-03 0. -1.
         11   -1    0    0    0    0 -0.00000000000E+00 -0.00000000000E+00 -0.45593999997E+02  0.45594000000E+02  0.51100000000E-03 0.  1.
    9900012    2    1    2    0    0  0.15461730856E+02  0.79196661745E+01  0.69922793539E+01  0.72461596075E+02  0.70000033584E+02 0.  0.
        -12    1    1    2    0    0 -0.15461730856E+02 -0.79196661745E+01 -0.69922793539E+01  0.18726403925E+02  0.00000000000E+00 0.  1.
         11    1    3    3    0    0  0.48161763285E+01 -0.26073653672E+02  0.27415640389E+01  0.26656090184E+02  0.51100000000E-03 0.  1.
        -11    1    3    3    0    0 -0.47577487532E+01 -0.29343717408E+01  0.26743252635E+00  0.55962693939E+01  0.51100000000E-03 0. -1.
        -12    1    3    3    0    0  0.15403303281E+02  0.36927691588E+02  0.39832827886E+01  0.40209236498E+02  0.00000000000E+00 0.  1.
</event>
<event>
 7    1  0.1749439E-013  0.7246161E+02  0.7816164E-02  0.1226708E+00
        -11   -1    0    0    0    0  0.00000000000E+00  0.00000000000E+00  0.45593999997E+02  0.45594000000E+02  0.51100000000E-03 0.  1.
         11   -1    0    0    0    0 -0.00000000000E+00 -0.00000000000E+00 -0.45593999997E+02  0.45594000000E+02  0.51100000000E-03 0. -1.
    9900012    2    1    2    0    0 -0.28091986086E+01 -0.18412056726E+02 -0.19448204673E+01  0.72461608026E+02  0.70000049153E+02 0.  0.
        -12    1    1    2    0    0  0.28091986086E+01  0.18412056726E+02  0.19448204673E+01  0.18726391974E+02  0.00000000000E+00 0.  1.
         11    1    3    3    0    0 -0.29690023718E+01 -0.43783504127E+01  0.42619226792E+01  0.67932990958E+01  0.51100000000E-03 0. -1.
        -11    1    3    3    0    0 -0.43709951936E+01  0.24512910534E+02  0.47299837957E+01  0.25344844225E+02  0.51100000000E-03 0.  1.
         12    1    3    3    0    0  0.45307989567E+01 -0.38546616848E+02 -0.10936726942E+02  0.40323464705E+02  0.00000000000E+00 0. -1.
</event>
<event>
 7    1  0.1749439E-013  0.7246158E+02  0.7816164E-02  0.1226708E+00
        -11   -1    0    0    0    0  0.00000000000E+00  0.00000000000E+00  0.45593999997E+02  0.45594000000E+02  0.51100000000E-03 0. -1.
         11   -1    0    0    0    0 -0.00000000000E+00 -0.00000000000E+00 -0.45593999997E+02  0.45594000000E+02  0.51100000000E-03 0.  1.
    9900012    2    1    2    0    0 -0.16200438808E+02  0.93413009662E+01  0.98226514358E+00  0.72461575725E+02  0.70000007074E+02 0.  0.
        -12    1    1    2    0    0  0.16200438808E+02 -0.93413009662E+01 -0.98226514358E+00  0.18726424275E+02  0.00000000000E+00 0.  1.
         11    1    3    3    0    0 -0.30828253003E+02  0.30009568981E+02 -0.17169846321E+01  0.43056979110E+02  0.51100000000E-03 0. -1.
        -11    1    3    3    0    0  0.82719292601E-02 -0.42566379237E+01 -0.45790358805E+01  0.62519280781E+01  0.51100000000E-03 0.  1.
        -12    1    3    3    0    0  0.14619542265E+02 -0.16411630091E+02  0.72782856561E+01  0.23152668537E+02  0.00000000000E+00 0.  1.
</event>
<event>
 7    1  0.1749439E-013  0.7246154E+02  0.7816164E-02  0.1226708E+00
        -11   -1    0    0    0    0  0.00000000000E+00  0.00000000000E+00  0.45593999997E+02  0.45594000000E+02  0.51100000000E-03 0.  1.
         11   -1    0    0    0    0 -0.00000000000E+00 -0.00000000000E+00 -0.45593999997E+02  0.45594000000E+02  0.51100000000E-03 0. -1.
    9900012    2    1    2    0    0  0.12193364438E+00  0.79642931112E+01 -0.16948017342E+02  0.72461544799E+02  0.69999966787E+02 0.  0.
        -12    1    1    2    0    0 -0.12193364438E+00 -0.79642931112E+01  0.16948017342E+02  0.18726455201E+02  0.00000000000E+00 0.  1.
         11    1    3    3    0    0  0.50072328089E+01  0.90011485106E+01  0.16096001151E+01  0.10425155524E+02  0.51100000000E-03 0. -1.
        -11    1    3    3    0    0 -0.20063128227E+01  0.20246333214E+02  0.12794065198E+02  0.24033880342E+02  0.51100000000E-03 0.  1.
         12    1    3    3    0    0 -0.28789863418E+01 -0.21283188613E+02 -0.31351682655E+02  0.38002508933E+02  0.00000000000E+00 0. -1.
</event>
<event>
 7    1  0.1749439E-013  0.7246159E+02  0.7816164E-02  0.1226708E+00
        -11   -1    0    0    0    0  0.00000000000E+00  0.00000000000E+00  0.45593999997E+02  0.45594000000E+02  0.51100000000E-03 0. -1.
         11   -1    0    0    0    0 -0.00000000000E+00 -0.00000000000E+00 -0.45593999997E+02  0.45594000000E+02  0.51100000000E-03 0.  1.
    9900012    2    1    2    0    0 -0.12038601777E+01  0.17459025666E+02  0.66641876003E+01  0.72461594768E+02  0.70000031881E+02 0.  0.
        -12    1    1    2    0    0  0.12038601777E+01 -0.17459025666E+02 -0.66641876003E+01  0.18726405232E+02  0.00000000000E+00 0.  1.
         11    1    3    3    0    0 -0.12499067816E+02  0.15624735547E+02  0.11505318241E+02  0.23080974964E+02  0.51100000000E-03 0. -1.
        -11    1    3    3    0    0 -0.15208277845E+02  0.13346584159E+02 -0.25472060230E+01  0.20393903072E+02  0.51100000000E-03 0.  1.
        -12    1    3    3    0    0  0.26503485483E+02 -0.11512294040E+02 -0.22939246179E+01  0.28986716733E+02  0.00000000000E+00 0.  1.
</event>
<event>
 7    1  0.1749439E-013  0.7246153E+02  0.7816164E-02  0.1226708E+00
        -11   -1    0    0    0    0  0.00000000000E+00  0.00000000000E+00  0.45593999997E+02  0.45594000000E+02  0.51100000000E-03 0. -1.
         11   -1    0    0    0    0 -0.00000000000E+00 -0.00000000000E+00 -0.45593999997E+02  0.45594000000E+02  0.51100000000E-03 0.  1.
    9900012    2    1    2    0    0 -0.11399660494E+02  0.99588670555E+01  0.11024948851E+02  0.72461527039E+02  0.69999943651E+02 0.  0.
        -12    1    1    2    0    0  0.11399660494E+02 -0.99588670555E+01 -0.11024948851E+02  0.18726472961E+02  0.00000000000E+00 0.  1.
         11    1    3    3    0    0 -0.35794956299E+01  0.23651855392E+02  0.24885195977E+01  0.24050276142E+02  0.51100000000E-03 0. -1.
        -11    1    3    3    0    0  0.52163517298E+01 -0.50691199659E+01  0.24805611383E+02  0.25850041759E+02  0.51100000000E-03 0.  1.
        -12    1    3    3    0    0 -0.13036516594E+02 -0.86238683703E+01 -0.16269182130E+02  0.22561209138E+02  0.00000000000E+00 0.  1.
</event>
<event>
 7    1  0.1749439E-013  0.7246158E+02  0.7816164E-02  0.1226708E+00
        -11   -1    0    0    0    0  0.00000000000E+00  0.00000000000E+00  0.45593999997E+02  0.45594000000E+02  0.51100000000E-03 0. -1.
         11   -1    0    0    0    0 -0.00000000000E+00 -0.00000000000E+00 -0.45593999997E+02  0.45594000000E+02  0.51100000000E-03 0.  1.
    9900012    2    1    2    0    0  0.91211036160E+01 -0.21142710601E+01  0.16217712447E+02  0.72461578283E+02  0.70000010407E+02 0.  0.
        -12    1    1    2    0    0 -0.91211036160E+01  0.21142710601E+01 -0.16217712447E+02  0.18726421717E+02  0.00000000000E+00 0.  1.
         11    1    3    3    0    0  0.11195469551E+02 -0.20213084510E+02 -0.79737550859E+01  0.24443569590E+02  0.51100000000E-03 0. -1.
        -11    1    3    3    0    0  0.14471562150E+02  0.15028488078E+02  0.31897920605E+01  0.21105836601E+02  0.51100000000E-03 0.  1.
         12    1    3    3    0    0 -0.16545928085E+02  0.30703253715E+01  0.21001675473E+02  0.26912172092E+02  0.00000000000E+00 0. -1.
</event>
<event>
 7    1  0.1749439E-013  0.7246159E+02  0.7816164E-02  0.1226708E+00
        -11   -1    0    0    0    0  0.00000000000E+00  0.00000000000E+00  0.45593999997E+02  0.45594000000E+02  0.51100000000E-03 0. -1.
         11   -1    0    0    0    0 -0.00000000000E+00 -0.00000000000E+00 -0.45593999997E+02  0.45594000000E+02  0.51100000000E-03 0.  1.
    9900012    2    1    2    0    0  0.65546931625E+01 -0.13986943662E+02  0.10586784584E+02  0.72461585413E+02  0.70000019694E+02 0.  0.
        -12    1    1    2    0    0 -0.65546931625E+01  0.13986943662E+02 -0.10586784584E+02  0.18726414587E+02  0.00000000000E+00 0.  1.
         11    1    3    3    0    0  0.54082513806E+01  0.20565176280E+01  0.16546095920E+02  0.17528597725E+02  0.51100000000E-03 0. -1.
        -11    1    3    3    0    0  0.22999740739E+02 -0.21724806788E+02 -0.23415465346E+00  0.31638744171E+02  0.51100000000E-03 0.  1.
         12    1    3    3    0    0 -0.21853298957E+02  0.56813454982E+01 -0.57251566819E+01  0.23294243517E+02  0.00000000000E+00 0. -1.
</event>
<event>
 7    1  0.1749439E-013  0.7246156E+02  0.7816164E-02  0.1226708E+00
        -11   -1    0    0    0    0  0.00000000000E+00  0.00000000000E+00  0.45593999997E+02  0.45594000000E+02  0.51100000000E-03 0. -1.
         11   -1    0    0    0    0 -0.00000000000E+00 -0.00000000000E+00 -0.45593999997E+02  0.45594000000E+02  0.51100000000E-03 0.  1.
    9900012    2    1    2    0    0 -0.16743400262E+02 -0.67257082941E+01 -0.50102796161E+01  0.72461561304E+02  0.69999988288E+02 0.  0.
        -12    1    1    2    0    0  0.16743400262E+02  0.67257082941E+01  0.50102796161E+01  0.18726438696E+02  0.00000000000E+00 0.  1.
         11    1    3    3    0    0 -0.12001969175E+02 -0.10084428614E+02 -0.27018647856E+01  0.15907326555E+02  0.51100000000E-03 0. -1.
        -11    1    3    3    0    0  0.23931737682E+02  0.68177630002E+01 -0.97564977018E+01  0.26728247389E+02  0.51100000000E-03 0.  1.
         12    1    3    3    0    0 -0.28673168770E+02 -0.34590426806E+01  0.74480828713E+01  0.29825987361E+02  0.00000000000E+00 0. -1.
</event>
<event>
 7    1  0.1749439E-013  0.7246156E+02  0.7816164E-02  0.1226708E+00
        -11   -1    0    0    0    0  0.00000000000E+00  0.00000000000E+00  0.45593999997E+02  0.45594000000E+02  0.51100000000E-03 0. -1.
         11   -1    0    0    0    0 -0.00000000000E+00 -0.00000000000E+00 -0.45593999997E+02  0.45594000000E+02  0.51100000000E-03 0.  1.
    9900012    2    1    2    0    0 -0.76753239002E+01  0.15741974261E+02  0.66301687179E+01  0.72461561795E+02  0.69999988928E+02 0.  0.
        -12    1    1    2    0    0  0.76753239002E+01 -0.15741974261E+02 -0.66301687179E+01  0.18726438205E+02  0.00000000000E+00 0.  1.
         11    1    3    3    0    0 -0.21203806180E+01  0.16012220266E+02 -0.66654132117E+00  0.16165750506E+02  0.51100000000E-03 0. -1.
        -11    1    3    3    0    0  0.43437955133E+01 -0.69285818196E+01 -0.22638943796E+02  0.24070637340E+02  0.51100000000E-03 0.  1.
         12    1    3    3    0    0 -0.98987387955E+01  0.66583358149E+01  0.29935653835E+02  0.32225173950E+02  0.00000000000E+00 0. -1.
</event>
<event>
 7    1  0.1749439E-013  0.7246155E+02  0.7816164E-02  0.1226708E+00
        -11   -1    0    0    0    0  0.00000000000E+00  0.00000000000E+00  0.45593999997E+02  0.45594000000E+02  0.51100000000E-03 0. -1.
         11   -1    0    0    0    0 -0.00000000000E+00 -0.00000000000E+00 -0.45593999997E+02  0.45594000000E+02  0.51100000000E-03 0.  1.
    9900012    2    1    2    0    0  0.15519976265E+02  0.92865460576E+01  0.48549115345E+01  0.72461554342E+02  0.69999979220E+02 0.  0.
        -12    1    1    2    0    0 -0.15519976265E+02 -0.92865460576E+01 -0.48549115345E+01  0.18726445658E+02  0.00000000000E+00 0.  1.
         11    1    3    3    0    0  0.12027911283E+01  0.20591950642E+02  0.72152065383E+01  0.21852559195E+02  0.51100000000E-03 0. -1.
        -11    1    3    3    0    0 -0.31943440471E+01  0.13885445912E+02 -0.11810824071E+02  0.18506890813E+02  0.51100000000E-03 0.  1.
        -12    1    3    3    0    0  0.17511529184E+02 -0.25190850495E+02  0.94505290675E+01  0.32102104335E+02  0.00000000000E+00 0.  1.
</event>
<event>
 7    1  0.1749439E-013  0.7246121E+02  0.7816164E-02  0.1226709E+00
        -11   -1    0    0    0    0  0.00000000000E+00  0.00000000000E+00  0.45593999997E+02  0.45594000000E+02  0.51100000000E-03 0.  1.
         11   -1    0    0    0    0 -0.00000000000E+00 -0.00000000000E+00 -0.45593999997E+02  0.45594000000E+02  0.51100000000E-03 0. -1.
    9900012    2    1    2    0    0 -0.10969227201E+01  0.13812383486E+02 -0.12597921364E+02  0.72461206369E+02  0.69999525918E+02 0.  0.
        -12    1    1    2    0    0  0.10969227201E+01 -0.13812383486E+02  0.12597921364E+02  0.18726793631E+02  0.00000000000E+00 0.  1.
         11    1    3    3    0    0 -0.84962401646E+01  0.14017842005E+02 -0.20162389882E+01  0.16515181239E+02  0.51100000000E-03 0. -1.
        -11    1    3    3    0    0  0.16312103645E+02  0.67477442284E+01  0.17999181418E+02  0.25210856976E+02  0.51100000000E-03 0.  1.
         12    1    3    3    0    0 -0.89127862002E+01 -0.69532027479E+01 -0.28580863793E+02  0.30735168154E+02  0.00000000000E+00 0. -1.
</event>
<event>
 7    1  0.1749439E-013  0.7246157E+02  0.7816164E-02  0.1226708E+00
        -11   -1    0    0    0    0  0.00000000000E+00  0.00000000000E+00  0.45593999997E+02  0.45594000000E+02  0.51100000000E-03 0. -1.
         11   -1    0    0    0    0 -0.00000000000E+00 -0.00000000000E+00 -0.45593999997E+02  0.45594000000E+02  0.51100000000E-03 0.  1.
    9900012    2    1    2    0    0  0.99924519420E+01 -0.15085589827E+02  0.48223370137E+01  0.72461573472E+02  0.70000004139E+02 0.  0.
        -12    1    1    2    0    0 -0.99924519420E+01  0.15085589827E+02 -0.48223370137E+01  0.18726426528E+02  0.00000000000E+00 0.  1.
         11    1    3    3    0    0 -0.19306641861E+02 -0.63638263561E+01  0.58501558212E+01  0.21153463765E+02  0.51100000000E-03 0. -1.
        -11    1    3    3    0    0  0.45366764425E+01 -0.15694706932E+02 -0.14873300454E+02  0.22093445306E+02  0.51100000000E-03 0.  1.
        -12    1    3    3    0    0  0.24762417361E+02  0.69729434607E+01  0.13845481647E+02  0.29214664401E+02  0.00000000000E+00 0.  1.
</event>
<event>
 7    1  0.1749439E-013  0.7246159E+02  0.7816164E-02  0.1226708E+00
        -11   -1    0    0    0    0  0.00000000000E+00  0.00000000000E+00  0.45593999997E+02  0.45594000000E+02  0.51100000000E-03 0. -1.
         11   -1    0    0    0    0 -0.00000000000E+00 -0.00000000000E+00 -0.45593999997E+02  0.45594000000E+02  0.51100000000E-03 0.  1.
    9900012    2    1    2    0    0  0.85469162205E+01 -0.11325737497E+02  0.12221136000E+02  0.72461594262E+02  0.70000031223E+02 0.  0.
        -12    1    1    2    0    0 -0.85469162205E+01  0.11325737497E+02 -0.12221136000E+02  0.18726405738E+02  0.00000000000E+00 0.  1.
         11    1    3    3    0    0 -0.92646532889E+01  0.12883658119E+02  0.83056074498E+01  0.17911045822E+02  0.51100000000E-03 0. -1.
        -11    1    3    3    0    0  0.25859995179E+02 -0.53817885745E+00 -0.76923939254E+01  0.26985216540E+02  0.51100000000E-03 0.  1.
         12    1    3    3    0    0 -0.80484256694E+01 -0.23671216758E+02  0.11607922476E+02  0.27565331900E+02  0.00000000000E+00 0. -1.
</event>
<event>
 7    1  0.1749439E-013  0.7246160E+02  0.7816164E-02  0.1226708E+00
        -11   -1    0    0    0    0  0.00000000000E+00  0.00000000000E+00  0.45593999997E+02  0.45594000000E+02  0.51100000000E-03 0. -1.
         11   -1    0    0    0    0 -0.00000000000E+00 -0.00000000000E+00 -0.45593999997E+02  0.45594000000E+02  0.51100000000E-03 0.  1.
    9900012    2    1    2    0    0 -0.17646280411E+01 -0.18509551355E+02  0.22272660231E+01  0.72461598385E+02  0.70000036594E+02 0.  0.
        -12    1    1    2    0    0  0.17646280411E+01  0.18509551355E+02 -0.22272660231E+01  0.18726401615E+02  0.00000000000E+00 0.  1.
         11    1    3    3    0    0 -0.30157114511E+02 -0.51703337810E+01  0.16299918347E+02  0.34668014732E+02  0.51100000000E-03 0. -1.
        -11    1    3    3    0    0  0.66547936623E+01 -0.97259947299E+01 -0.26241023428E+00  0.11787710192E+02  0.51100000000E-03 0.  1.
        -12    1    3    3    0    0  0.21737692808E+02 -0.36132228443E+01 -0.13810242090E+02  0.26005873462E+02  0.00000000000E+00 0.  1.
</event>
<event>
 7    1  0.1749439E-013  0.7246155E+02  0.7816164E-02  0.1226708E+00
        -11   -1    0    0    0    0  0.00000000000E+00  0.00000000000E+00  0.45593999997E+02  0.45594000000E+02  0.51100000000E-03 0.  1.
         11   -1    0    0    0    0 -0.00000000000E+00 -0.00000000000E+00 -0.45593999997E+02  0.45594000000E+02  0.51100000000E-03 0. -1.
    9900012    2    1    2    0    0 -0.10332844253E+02  0.29730307328E+00  0.15614855180E+02  0.72461554481E+02  0.69999979401E+02 0.  0.
        -12    1    1    2    0    0  0.10332844253E+02 -0.29730307328E+00 -0.15614855180E+02  0.18726445519E+02  0.00000000000E+00 0.  1.
         11    1    3    3    0    0 -0.10372898679E+01  0.71226653441E+01 -0.18811808028E+02  0.20141808594E+02  0.51100000000E-03 0. -1.
        -11    1    3    3    0    0  0.11439670050E+01 -0.61272148920E+01 -0.71275604978E+01  0.94685554206E+01  0.51100000000E-03 0.  1.
        -12    1    3    3    0    0 -0.10439521390E+02 -0.69814737882E+00  0.41554223706E+02  0.42851190467E+02  0.00000000000E+00 0.  1.
</event>
<event>
 7    1  0.1749439E-013  0.7246157E+02  0.7816164E-02  0.1226708E+00
        -11   -1    0    0    0    0  0.00000000000E+00  0.00000000000E+00  0.45593999997E+02  0.45594000000E+02  0.51100000000E-03 0. -1.
         11   -1    0    0    0    0 -0.00000000000E+00 -0.00000000000E+00 -0.45593999997E+02  0.45594000000E+02  0.51100000000E-03 0.  1.
    9900012    2    1    2    0    0 -0.87902494689E+01  0.15645887837E+02 -0.53494776422E+01  0.72461569401E+02  0.69999998836E+02 0.  0.
        -12    1    1    2    0    0  0.87902494689E+01 -0.15645887837E+02  0.53494776422E+01  0.18726430599E+02  0.00000000000E+00 0.  1.
         11    1    3    3    0    0  0.63169675089E+01 -0.13068503116E+02  0.26153303546E+01  0.14748891665E+02  0.51100000000E-03 0. -1.
        -11    1    3    3    0    0  0.13460338491E+02 -0.16977264697E+00  0.60222933963E+01  0.14747120161E+02  0.51100000000E-03 0.  1.
         12    1    3    3    0    0 -0.28567555469E+02  0.28884163600E+02 -0.13987101393E+02  0.42965557575E+02  0.00000000000E+00 0. -1.
</event>
<event>
 7    1  0.1749439E-013  0.7246148E+02  0.7816164E-02  0.1226708E+00
        -11   -1    0    0    0    0  0.00000000000E+00  0.00000000000E+00  0.45593999997E+02  0.45594000000E+02  0.51100000000E-03 0.  1.
         11   -1    0    0    0    0 -0.00000000000E+00 -0.00000000000E+00 -0.45593999997E+02  0.45594000000E+02  0.51100000000E-03 0. -1.
    9900012    2    1    2    0    0  0.97984831060E+01 -0.28981319994E+01 -0.15693085667E+02  0.72461484627E+02  0.69999888403E+02 0.  0.
        -12    1    1    2    0    0 -0.97984831060E+01  0.28981319994E+01  0.15693085667E+02  0.18726515373E+02  0.00000000000E+00 0.  1.
         11    1    3    3    0    0 -0.99620407037E+00 -0.91210548663E+01 -0.30964088558E+02  0.32294904318E+02  0.51100000000E-03 0. -1.
        -11    1    3    3    0    0  0.13170333407E+01 -0.45564520700E+01 -0.10020317745E+02  0.11086144517E+02  0.51100000000E-03 0.  1.
        -12    1    3    3    0    0  0.94776538356E+01  0.10779374937E+02  0.25291320637E+02  0.29080435791E+02  0.00000000000E+00 0.  1.
</event>
<event>
 7    1  0.1749439E-013  0.7246148E+02  0.7816164E-02  0.1226708E+00
        -11   -1    0    0    0    0  0.00000000000E+00  0.00000000000E+00  0.45593999997E+02  0.45594000000E+02  0.51100000000E-03 0.  1.
         11   -1    0    0    0    0 -0.00000000000E+00 -0.00000000000E+00 -0.45593999997E+02  0.45594000000E+02  0.51100000000E-03 0. -1.
    9900012    2    1    2    0    0  0.34778259899E+01 -0.19183424835E+00 -0.18399739258E+02  0.72461481937E+02  0.69999884898E+02 0.  0.
        -12    1    1    2    0    0 -0.34778259899E+01  0.19183424835E+00  0.18399739258E+02  0.18726518063E+02  0.00000000000E+00 0.  1.
         11    1    3    3    0    0 -0.14111165311E+01 -0.32736919911E+01 -0.36033738893E+01  0.50687880962E+01  0.51100000000E-03 0. -1.
        -11    1    3    3    0    0  0.20401936135E+02 -0.20888035209E+02 -0.23568528579E+02  0.37523653241E+02  0.51100000000E-03 0.  1.
        -12    1    3    3    0    0 -0.15512993614E+02  0.23969892951E+02  0.87721632098E+01  0.29869040600E+02  0.00000000000E+00 0.  1.
</event>
<event>
 7    1  0.1749439E-013  0.7246173E+02  0.7816164E-02  0.1226708E+00
        -11   -1    0    0    0    0  0.00000000000E+00  0.00000000000E+00  0.45593999997E+02  0.45594000000E+02  0.51100000000E-03 0. -1.
         11   -1    0    0    0    0 -0.00000000000E+00 -0.00000000000E+00 -0.45593999997E+02  0.45594000000E+02  0.51100000000E-03 0.  1.
    9900012    2    1    2    0    0  0.15799623368E+02  0.90616134241E+01  0.43511056336E+01  0.72461733510E+02  0.70000212618E+02 0.  0.
        -12    1    1    2    0    0 -0.15799623368E+02 -0.90616134241E+01 -0.43511056336E+01  0.18726266490E+02  0.00000000000E+00 0.  1.
         11    1    3    3    0    0 -0.15478570850E+02  0.11736348518E+02  0.18360837894E+02  0.26729167599E+02  0.51100000000E-03 0. -1.
        -11    1    3    3    0    0  0.12018494446E+01  0.10336287033E+02 -0.92546126983E+00  0.10446997202E+02  0.51100000000E-03 0.  1.
        -12    1    3    3    0    0  0.30076344774E+02 -0.13011022127E+02 -0.13084270990E+02  0.35285568709E+02  0.00000000000E+00 0.  1.
</event>
<event>
 7    1  0.1749439E-013  0.7246157E+02  0.7816164E-02  0.1226708E+00
        -11   -1    0    0    0    0  0.00000000000E+00  0.00000000000E+00  0.45593999997E+02  0.45594000000E+02  0.51100000000E-03 0. -1.
         11   -1    0    0    0    0 -0.00000000000E+00 -0.00000000000E+00 -0.45593999997E+02  0.45594000000E+02  0.51100000000E-03 0.  1.
    9900012    2    1    2    0    0 -0.11018636104E+02  0.83347736595E+01  0.12641216635E+02  0.72461570773E+02  0.70000000624E+02 0.  0.
        -12    1    1    2    0    0  0.11018636104E+02 -0.83347736595E+01 -0.12641216635E+02  0.18726429227E+02  0.00000000000E+00 0.  1.
         11    1    3    3    0    0  0.14097500266E+02 -0.32014010138E+01  0.35556177147E+01  0.14887273081E+02  0.51100000000E-03 0. -1.
        -11    1    3    3    0    0  0.85251458254E+01 -0.87321816680E+01  0.13327437385E+02  0.18070686084E+02  0.51100000000E-03 0.  1.
         12    1    3    3    0    0 -0.33641282196E+02  0.20268356341E+02 -0.42418384644E+01  0.39503611608E+02  0.00000000000E+00 0. -1.
</event>
<event>
 7    1  0.1749439E-013  0.7246155E+02  0.7816164E-02  0.1226708E+00
        -11   -1    0    0    0    0  0.00000000000E+00  0.00000000000E+00  0.45593999997E+02  0.45594000000E+02  0.51100000000E-03 0.  1.
         11   -1    0    0    0    0 -0.00000000000E+00 -0.00000000000E+00 -0.45593999997E+02  0.45594000000E+02  0.51100000000E-03 0. -1.
    9900012    2    1    2    0    0  0.18699382720E+02 -0.49926326424E+00 -0.87391479462E+00  0.72461550657E+02  0.69999974419E+02 0.  0.
        -12    1    1    2    0    0 -0.18699382720E+02  0.49926326424E+00  0.87391479462E+00  0.18726449343E+02  0.00000000000E+00 0.  1.
         11    1    3    3    0    0 -0.67778127106E+01 -0.98053395251E+01  0.13656737385E+02  0.18127048977E+02  0.51100000000E-03 0. -1.
        -11    1    3    3    0    0  0.16748009824E+02  0.48788764235E+01  0.15135721640E+02  0.23095223273E+02  0.51100000000E-03 0.  1.
         12    1    3    3    0    0  0.87291856070E+01  0.44271998374E+01 -0.29666373820E+02  0.31239278407E+02  0.00000000000E+00 0. -1.
</event>
<event>
 7    1  0.1749439E-013  0.7246158E+02  0.7816164E-02  0.1226708E+00
        -11   -1    0    0    0    0  0.00000000000E+00  0.00000000000E+00  0.45593999997E+02  0.45594000000E+02  0.51100000000E-03 0.  1.
         11   -1    0    0    0    0 -0.00000000000E+00 -0.00000000000E+00 -0.45593999997E+02  0.45594000000E+02  0.51100000000E-03 0. -1.
    9900012    2    1    2    0    0  0.10063916731E+02 -0.20915246756E+01 -0.15653170013E+02  0.72461584783E+02  0.70000018874E+02 0.  0.
        -12    1    1    2    0    0 -0.10063916731E+02  0.20915246756E+01  0.15653170013E+02  0.18726415217E+02  0.00000000000E+00 0.  1.
         11    1    3    3    0    0 -0.10679098088E+01 -0.19273273508E+02 -0.37396450981E+00  0.19306458836E+02  0.51100000000E-03 0. -1.
        -11    1    3    3    0    0  0.15436639422E+02 -0.62952428012E+01  0.91369243386E+01  0.19010610332E+02  0.51100000000E-03 0.  1.
        -12    1    3    3    0    0 -0.43048128820E+01  0.23476991634E+02 -0.24416129841E+02  0.34144515615E+02  0.00000000000E+00 0.  1.
</event>
<event>
 7    1  0.1749439E-013  0.7246159E+02  0.7816164E-02  0.1226708E+00
        -11   -1    0    0    0    0  0.00000000000E+00  0.00000000000E+00  0.45593999997E+02  0.45594000000E+02  0.51100000000E-03 0.  1.
         11   -1    0    0    0    0 -0.00000000000E+00 -0.00000000000E+00 -0.45593999997E+02  0.45594000000E+02  0.51100000000E-03 0. -1.
    9900012    2    1    2    0    0  0.93881838751E+01  0.11805714876E+02 -0.11098003508E+02  0.72461585980E+02  0.70000020433E+02 0.  0.
        -12    1    1    2    0    0 -0.93881838751E+01 -0.11805714876E+02  0.11098003508E+02  0.18726414020E+02  0.00000000000E+00 0.  1.
         11    1    3    3    0    0 -0.10763680526E+02  0.76881021815E+00 -0.36720031650E-01  0.10791164730E+02  0.51100000000E-03 0. -1.
        -11    1    3    3    0    0 -0.17161033532E+01 -0.49129243774E+01  0.19886599725E+02  0.20556232280E+02  0.51100000000E-03 0.  1.
         12    1    3    3    0    0  0.21867967754E+02  0.15949829035E+02 -0.30947883201E+02  0.41114188969E+02  0.00000000000E+00 0. -1.
</event>
<event>
 7    1  0.1749439E-013  0.7246159E+02  0.7816164E-02  0.1226708E+00
        -11   -1    0    0    0    0  0.00000000000E+00  0.00000000000E+00  0.45593999997E+02  0.45594000000E+02  0.51100000000E-03 0.  1.
         11   -1    0    0    0    0 -0.00000000000E+00 -0.00000000000E+00 -0.45593999997E+02  0.45594000000E+02  0.51100000000E-03 0. -1.
    9900012    2    1    2    0    0 -0.96938236191E+01  0.94968256848E+01 -0.12904208822E+02  0.72461587643E+02  0.70000022599E+02 0.  0.
        -12    1    1    2    0    0  0.96938236191E+01 -0.94968256848E+01  0.12904208822E+02  0.18726412357E+02  0.00000000000E+00 0.  1.
         11    1    3    3    0    0 -0.28599013022E+02  0.41374184209E+01 -0.18491145436E+02  0.34306620889E+02  0.51100000000E-03 0. -1.
        -11    1    3    3    0    0 -0.29188207788E+01 -0.19754807887E+01 -0.98323763463E+01  0.10444982717E+02  0.51100000000E-03 0.  1.
        -12    1    3    3    0    0  0.21824010182E+02  0.73348880526E+01  0.15419312960E+02  0.27709984037E+02  0.00000000000E+00 0.  1.
</event>
<event>
 7    1  0.1749439E-013  0.7246162E+02  0.7816164E-02  0.1226708E+00
        -11   -1    0    0    0    0  0.00000000000E+00  0.00000000000E+00  0.45593999997E+02  0.45594000000E+02  0.51100000000E-03 0.  1.
         11   -1    0    0    0    0 -0.00000000000E+00 -0.00000000000E+00 -0.45593999997E+02  0.45594000000E+02  0.51100000000E-03 0. -1.
    9900012    2    1    2    0    0 -0.58262116455E+01  0.66406619848E+01 -0.16511632229E+02  0.72461624680E+02  0.70000070848E+02 0.  0.
        -12    1    1    2    0    0  0.58262116455E+01 -0.66406619848E+01  0.16511632229E+02  0.18726375320E+02  0.00000000000E+00 0.  1.
         11    1    3    3    0    0 -0.32065689012E+02 -0.24095394474E+01 -0.19370004677E+01  0.32214379759E+02  0.51100000000E-03 0. -1.
        -11    1    3    3    0    0  0.16831694301E+01  0.16924315813E+01  0.65870722306E+01  0.70062047372E+01  0.51100000000E-03 0.  1.
        -12    1    3    3    0    0  0.24556307937E+02  0.73577698509E+01 -0.21161703992E+02  0.33241040184E+02  0.00000000000E+00 0.  1.
</event>
<event>
 7    1  0.1749439E-013  0.7246155E+02  0.7816164E-02  0.1226708E+00
        -11   -1    0    0    0    0  0.00000000000E+00  0.00000000000E+00  0.45593999997E+02  0.45594000000E+02  0.51100000000E-03 0. -1.
         11   -1    0    0    0    0 -0.00000000000E+00 -0.00000000000E+00 -0.45593999997E+02  0.45594000000E+02  0.51100000000E-03 0.  1.
    9900012    2    1    2    0    0  0.16027771163E+02  0.44365190511E+01  0.86085780291E+01  0.72461554384E+02  0.69999979273E+02 0.  0.
        -12    1    1    2    0    0 -0.16027771163E+02 -0.44365190511E+01 -0.86085780291E+01  0.18726445616E+02  0.00000000000E+00 0.  1.
         11    1    3    3    0    0 -0.20778589824E+01  0.18182769183E+01  0.17989949598E+02  0.18200602070E+02  0.51100000000E-03 0. -1.
        -11    1    3    3    0    0 -0.15988224155E+02  0.41973056129E+01 -0.11385709025E+02  0.20071747714E+02  0.51100000000E-03 0.  1.
        -12    1    3    3    0    0  0.34093854300E+02 -0.15790634801E+01  0.20043374561E+01  0.34189204599E+02  0.00000000000E+00 0.  1.
</event>
<event>
 7    1  0.1749439E-013  0.7246156E+02  0.7816164E-02  0.1226708E+00
        -11   -1    0    0    0    0  0.00000000000E+00  0.00000000000E+00  0.45593999997E+02  0.45594000000E+02  0.51100000000E-03 0. -1.
         11   -1    0    0    0    0 -0.00000000000E+00 -0.00000000000E+00 -0.45593999997E+02  0.45594000000E+02  0.51100000000E-03 0.  1.
    9900012    2    1    2    0    0  0.92251048080E+01  0.16034642046E+02  0.29098543500E+01  0.72461559959E+02  0.69999986536E+02 0.  0.
        -12    1    1    2    0    0 -0.92251048080E+01 -0.16034642046E+02 -0.29098543500E+01  0.18726440041E+02  0.00000000000E+00 0.  1.
         11    1    3    3    0    0 -0.99069623896E+01  0.77245052542E+01 -0.15512881998E+02  0.19961597966E+02  0.51100000000E-03 0. -1.
        -11    1    3    3    0    0 -0.35561576680E+01 -0.37764520096E+01 -0.11760186858E+02  0.12853398086E+02  0.51100000000E-03 0.  1.
         12    1    3    3    0    0  0.22688224866E+02  0.12086588802E+02  0.30182923206E+02  0.39646563908E+02  0.00000000000E+00 0. -1.
</event>
<event>
 7    1  0.1749439E-013  0.7246161E+02  0.7816164E-02  0.1226708E+00
        -11   -1    0    0    0    0  0.00000000000E+00  0.00000000000E+00  0.45593999997E+02  0.45594000000E+02  0.51100000000E-03 0.  1.
         11   -1    0    0    0    0 -0.00000000000E+00 -0.00000000000E+00 -0.45593999997E+02  0.45594000000E+02  0.51100000000E-03 0. -1.
    9900012    2    1    2    0    0  0.11693754673E+02  0.36948766913E+01 -0.14152096618E+02  0.72461605504E+02  0.70000045868E+02 0.  0.
        -12    1    1    2    0    0 -0.11693754673E+02 -0.36948766913E+01  0.14152096618E+02  0.18726394496E+02  0.00000000000E+00 0.  1.
         11    1    3    3    0    0 -0.14458709896E+02  0.19111378836E+02 -0.16754412588E+02  0.29240544357E+02  0.51100000000E-03 0. -1.
        -11    1    3    3    0    0  0.32898113958E+01  0.72793488574E+01 -0.58671712639E+01  0.99113812211E+01  0.51100000000E-03 0.  1.
        -12    1    3    3    0    0  0.22862653173E+02 -0.22695851002E+02  0.84694872338E+01  0.33309679927E+02  0.00000000000E+00 0.  1.
</event>
<event>
 7    1  0.1749439E-013  0.7246155E+02  0.7816164E-02  0.1226708E+00
        -11   -1    0    0    0    0  0.00000000000E+00  0.00000000000E+00  0.45593999997E+02  0.45594000000E+02  0.51100000000E-03 0. -1.
         11   -1    0    0    0    0 -0.00000000000E+00 -0.00000000000E+00 -0.45593999997E+02  0.45594000000E+02  0.51100000000E-03 0.  1.
    9900012    2    1    2    0    0 -0.33287463180E+01  0.15910493569E+02  0.92981465203E+01  0.72461551154E+02  0.69999975066E+02 0.  0.
        -12    1    1    2    0    0  0.33287463180E+01 -0.15910493569E+02 -0.92981465203E+01  0.18726448846E+02  0.00000000000E+00 0.  1.
         11    1    3    3    0    0 -0.15461764775E+01  0.76219139074E+01  0.90564601277E+01  0.11937491513E+02  0.51100000000E-03 0.  1.
        -11    1    3    3    0    0 -0.25797025832E+02  0.16120500407E+02  0.11950526007E+02  0.32682902980E+02  0.51100000000E-03 0. -1.
        -12    1    3    3    0    0  0.24014455991E+02 -0.78319207452E+01 -0.11708839614E+02  0.27841156661E+02  0.00000000000E+00 0.  1.
</event>
<event>
 7    1  0.1749439E-013  0.7246157E+02  0.7816164E-02  0.1226708E+00
        -11   -1    0    0    0    0  0.00000000000E+00  0.00000000000E+00  0.45593999997E+02  0.45594000000E+02  0.51100000000E-03 0.  1.
         11   -1    0    0    0    0 -0.00000000000E+00 -0.00000000000E+00 -0.45593999997E+02  0.45594000000E+02  0.51100000000E-03 0. -1.
    9900012    2    1    2    0    0 -0.19109993160E+00  0.10359120492E+02 -0.15599083258E+02  0.72461566943E+02  0.69999995634E+02 0.  0.
        -12    1    1    2    0    0  0.19109993160E+00 -0.10359120492E+02  0.15599083258E+02  0.18726433057E+02  0.00000000000E+00 0.  1.
         11    1    3    3    0    0 -0.10107322752E+02  0.51850504931E+01  0.13037175213E+02  0.17291924694E+02  0.51100000000E-03 0. -1.
        -11    1    3    3    0    0  0.94878612185E+01  0.41704976982E+00  0.11406767901E+02  0.14842769122E+02  0.51100000000E-03 0.  1.
         12    1    3    3    0    0  0.42836160197E+00  0.47570202295E+01 -0.40043026372E+02  0.40326873126E+02  0.00000000000E+00 0. -1.
</event>
<event>
 7    1  0.1749439E-013  0.7246160E+02  0.7816164E-02  0.1226708E+00
        -11   -1    0    0    0    0  0.00000000000E+00  0.00000000000E+00  0.45593999997E+02  0.45594000000E+02  0.51100000000E-03 0. -1.
         11   -1    0    0    0    0 -0.00000000000E+00 -0.00000000000E+00 -0.45593999997E+02  0.45594000000E+02  0.51100000000E-03 0.  1.
    9900012    2    1    2    0    0  0.46337143937E+01 -0.10153367809E+02  0.15037153699E+02  0.72461596760E+02  0.70000034476E+02 0.  0.
        -12    1    1    2    0    0 -0.46337143937E+01  0.10153367809E+02 -0.15037153699E+02  0.18726403240E+02  0.00000000000E+00 0.  1.
         11    1    3    3    0    0 -0.21980892603E+01 -0.29520267575E+02  0.20451693197E+02  0.35979849207E+02  0.51100000000E-03 0. -1.
        -11    1    3    3    0    0  0.87849644282E+01 -0.59096585965E+01 -0.14883771532E+00  0.10588759024E+02  0.51100000000E-03 0.  1.
        -12    1    3    3    0    0 -0.19531607743E+01  0.25276558363E+02 -0.52657017825E+01  0.25892988529E+02  0.00000000000E+00 0.  1.
</event>
<event>
 7    1  0.1749439E-013  0.7246159E+02  0.7816164E-02  0.1226708E+00
        -11   -1    0    0    0    0  0.00000000000E+00  0.00000000000E+00  0.45593999997E+02  0.45594000000E+02  0.51100000000E-03 0.  1.
         11   -1    0    0    0    0 -0.00000000000E+00 -0.00000000000E+00 -0.45593999997E+02  0.45594000000E+02  0.51100000000E-03 0. -1.
    9900012    2    1    2    0    0 -0.23065561688E+01 -0.18558605773E+02  0.96766026895E+00  0.72461590414E+02  0.70000026209E+02 0.  0.
        -12    1    1    2    0    0  0.23065561688E+01  0.18558605773E+02 -0.96766026895E+00  0.18726409586E+02  0.00000000000E+00 0.  1.
         11    1    3    3    0    0  0.10175011345E+02 -0.12907212110E+02 -0.97674282024E+01  0.19118829312E+02  0.51100000000E-03 0. -1.
        -11    1    3    3    0    0  0.38825830286E+01  0.19706179544E+02 -0.27780109150E+01  0.20276225193E+02  0.51100000000E-03 0.  1.
         12    1    3    3    0    0 -0.16364150543E+02 -0.25357573207E+02  0.13513099386E+02  0.33066535908E+02  0.00000000000E+00 0. -1.
</event>
<event>
 7    1  0.1749439E-013  0.7246153E+02  0.7816164E-02  0.1226708E+00
        -11   -1    0    0    0    0  0.00000000000E+00  0.00000000000E+00  0.45593999997E+02  0.45594000000E+02  0.51100000000E-03 0.  1.
         11   -1    0    0    0    0 -0.00000000000E+00 -0.00000000000E+00 -0.45593999997E+02  0.45594000000E+02  0.51100000000E-03 0. -1.
    9900012    2    1    2    0    0 -0.14818895968E+02  0.56321086329E+00  0.11435206628E+02  0.72461525831E+02  0.69999942078E+02 0.  0.
        -12    1    1    2    0    0  0.14818895968E+02 -0.56321086329E+00 -0.11435206628E+02  0.18726474169E+02  0.00000000000E+00 0.  1.
         11    1    3    3    0    0  0.13188801472E+02 -0.31533017275E+01 -0.74716337289E+01  0.15482671181E+02  0.51100000000E-03 0. -1.
        -11    1    3    3    0    0 -0.97784823099E+01 -0.20613826839E+02  0.41695708605E+01  0.23193401964E+02  0.51100000000E-03 0.  1.
        -12    1    3    3    0    0 -0.18229215130E+02  0.24330339430E+02  0.14737269497E+02  0.33785452686E+02  0.00000000000E+00 0.  1.
</event>
<event>
 7    1  0.1749439E-013  0.7246161E+02  0.7816164E-02  0.1226708E+00
        -11   -1    0    0    0    0  0.00000000000E+00  0.00000000000E+00  0.45593999997E+02  0.45594000000E+02  0.51100000000E-03 0.  1.
         11   -1    0    0    0    0 -0.00000000000E+00 -0.00000000000E+00 -0.45593999997E+02  0.45594000000E+02  0.51100000000E-03 0. -1.
    9900012    2    1    2    0    0 -0.15534188023E+02 -0.44736015970E+01  0.94527051978E+01  0.72461608347E+02  0.70000049571E+02 0.  0.
        -12    1    1    2    0    0  0.15534188023E+02  0.44736015970E+01 -0.94527051978E+01  0.18726391653E+02  0.00000000000E+00 0.  1.
         11    1    3    3    0    0 -0.28789724852E+00  0.10337396833E+02 -0.14305324226E+02  0.17651825956E+02  0.51100000000E-03 0. -1.
        -11    1    3    3    0    0  0.73308221215E+01 -0.12932402950E+02 -0.71437055921E+01  0.16493044864E+02  0.51100000000E-03 0.  1.
         12    1    3    3    0    0 -0.22577112896E+02 -0.18785954799E+01  0.30901735016E+02  0.38316737527E+02  0.00000000000E+00 0. -1.
</event>
<event>
 7    1  0.1749439E-013  0.7246158E+02  0.7816164E-02  0.1226708E+00
        -11   -1    0    0    0    0  0.00000000000E+00  0.00000000000E+00  0.45593999997E+02  0.45594000000E+02  0.51100000000E-03 0.  1.
         11   -1    0    0    0    0 -0.00000000000E+00 -0.00000000000E+00 -0.45593999997E+02  0.45594000000E+02  0.51100000000E-03 0. -1.
    9900012    2    1    2    0    0  0.94447168809E+01 -0.13532277001E+02 -0.88517497434E+01  0.72461583597E+02  0.70000017329E+02 0.  0.
        -12    1    1    2    0    0 -0.94447168809E+01  0.13532277001E+02  0.88517497434E+01  0.18726416403E+02  0.00000000000E+00 0.  1.
         11    1    3    3    0    0  0.12447920120E+02  0.15558647470E+02 -0.72474808340E+01  0.21202551854E+02  0.51100000000E-03 0. -1.
        -11    1    3    3    0    0 -0.19305406126E+02 -0.29046079910E+01 -0.52017659944E+01  0.20203807141E+02  0.51100000000E-03 0.  1.
        -12    1    3    3    0    0  0.16302202887E+02 -0.26186316481E+02  0.35974970850E+01  0.31055224602E+02  0.00000000000E+00 0.  1.
</event>
<event>
 7    1  0.1749439E-013  0.7246156E+02  0.7816164E-02  0.1226708E+00
        -11   -1    0    0    0    0  0.00000000000E+00  0.00000000000E+00  0.45593999997E+02  0.45594000000E+02  0.51100000000E-03 0. -1.
         11   -1    0    0    0    0 -0.00000000000E+00 -0.00000000000E+00 -0.45593999997E+02  0.45594000000E+02  0.51100000000E-03 0.  1.
    9900012    2    1    2    0    0 -0.15838475965E+02 -0.80197761623E+01  0.59586348815E+01  0.72461562532E+02  0.69999989888E+02 0.  0.
        -12    1    1    2    0    0  0.15838475965E+02  0.80197761623E+01 -0.59586348815E+01  0.18726437468E+02  0.00000000000E+00 0.  1.
         11    1    3    3    0    0  0.25251917695E+01  0.20998515985E+01  0.14319990908E+02  0.14691770147E+02  0.51100000000E-03 0. -1.
        -11    1    3    3    0    0 -0.73004403917E+01  0.13040304028E+02 -0.23589903645E+02  0.27925427719E+02  0.51100000000E-03 0.  1.
         12    1    3    3    0    0 -0.11063227343E+02 -0.23159931789E+02  0.15228547618E+02  0.29844364666E+02  0.00000000000E+00 0. -1.
</event>
<event>
 7    1  0.1749439E-013  0.7246155E+02  0.7816164E-02  0.1226708E+00
        -11   -1    0    0    0    0  0.00000000000E+00  0.00000000000E+00  0.45593999997E+02  0.45594000000E+02  0.51100000000E-03 0.  1.
         11   -1    0    0    0    0 -0.00000000000E+00 -0.00000000000E+00 -0.45593999997E+02  0.45594000000E+02  0.51100000000E-03 0. -1.
    9900012    2    1    2    0    0 -0.56286380904E+01  0.55241867637E+00 -0.17851976336E+02  0.72461553667E+02  0.69999978340E+02 0.  0.
        -12    1    1    2    0    0  0.56286380904E+01 -0.55241867637E+00  0.17851976336E+02  0.18726446333E+02  0.00000000000E+00 0.  1.
         11    1    3    3    0    0 -0.15459171974E+02  0.74531804294E+00 -0.31139816308E+02  0.34773979598E+02  0.51100000000E-03 0.  1.
        -11    1    3    3    0    0  0.58313194573E+01 -0.13985194113E+02 -0.35450515851E+01  0.15561405206E+02  0.51100000000E-03 0. -1.
        -12    1    3    3    0    0  0.39992144267E+01  0.13792294746E+02  0.16832891557E+02  0.22126168863E+02  0.00000000000E+00 0.  1.
</event>
<event>
 7    1  0.1749439E-013  0.7246153E+02  0.7816164E-02  0.1226708E+00
        -11   -1    0    0    0    0  0.00000000000E+00  0.00000000000E+00  0.45593999997E+02  0.45594000000E+02  0.51100000000E-03 0.  1.
         11   -1    0    0    0    0 -0.00000000000E+00 -0.00000000000E+00 -0.45593999997E+02  0.45594000000E+02  0.51100000000E-03 0. -1.
    9900012    2    1    2    0    0 -0.10927565166E+02 -0.91876588112E+01 -0.12118414752E+02  0.72461528603E+02  0.69999945689E+02 0.  0.
        -12    1    1    2    0    0  0.10927565166E+02  0.91876588112E+01  0.12118414752E+02  0.18726471397E+02  0.00000000000E+00 0.  1.
         11    1    3    3    0    0 -0.31562141370E+02 -0.52950279217E+01  0.11628462080E+02  0.34050362981E+02  0.51100000000E-03 0. -1.
        -11    1    3    3    0    0 -0.71076889786E-01  0.38751378100E+01 -0.13486044741E+02  0.14031933152E+02  0.51100000000E-03 0.  1.
        -12    1    3    3    0    0  0.20705653093E+02 -0.77677686995E+01 -0.10260832091E+02  0.24379232469E+02  0.00000000000E+00 0.  1.
</event>
<event>
 7    1  0.1749439E-013  0.7246156E+02  0.7816164E-02  0.1226708E+00
        -11   -1    0    0    0    0  0.00000000000E+00  0.00000000000E+00  0.45593999997E+02  0.45594000000E+02  0.51100000000E-03 0.  1.
         11   -1    0    0    0    0 -0.00000000000E+00 -0.00000000000E+00 -0.45593999997E+02  0.45594000000E+02  0.51100000000E-03 0. -1.
    9900012    2    1    2    0    0 -0.48425700179E+01  0.17103663167E+02 -0.58901269076E+01  0.72461564859E+02  0.69999992919E+02 0.  0.
        -12    1    1    2    0    0  0.48425700179E+01 -0.17103663167E+02  0.58901269076E+01  0.18726435141E+02  0.00000000000E+00 0.  1.
         11    1    3    3    0    0 -0.14861344276E+02  0.21306015508E+02  0.54966149831E+01  0.26552186861E+02  0.51100000000E-03 0. -1.
        -11    1    3    3    0    0  0.90327863043E+01  0.18874495249E+02 -0.86797766299E+01  0.22653395373E+02  0.51100000000E-03 0.  1.
        -12    1    3    3    0    0  0.98598795401E+00 -0.23076847590E+02 -0.27069652608E+01  0.23255982625E+02  0.00000000000E+00 0.  1.
</event>
<event>
 7    1  0.1749439E-013  0.7246141E+02  0.7816164E-02  0.1226708E+00
        -11   -1    0    0    0    0  0.00000000000E+00  0.00000000000E+00  0.45593999997E+02  0.45594000000E+02  0.51100000000E-03 0.  1.
         11   -1    0    0    0    0 -0.00000000000E+00 -0.00000000000E+00 -0.45593999997E+02  0.45594000000E+02  0.51100000000E-03 0. -1.
    9900012    2    1    2    0    0  0.84172498947E+01  0.39477634195E+01 -0.16255776766E+02  0.72461409011E+02  0.69999789898E+02 0.  0.
        -12    1    1    2    0    0 -0.84172498947E+01 -0.39477634195E+01  0.16255776766E+02  0.18726590989E+02  0.00000000000E+00 0.  1.
         11    1    3    3    0    0 -0.21601194363E+01  0.31770285989E+02 -0.80884685102E-01  0.31843739265E+02  0.51100000000E-03 0. -1.
        -11    1    3    3    0    0  0.25214328834E+01 -0.42247462175E+01  0.56418517717E+01  0.74857595515E+01  0.51100000000E-03 0.  1.
        -12    1    3    3    0    0  0.80559364476E+01 -0.23597776352E+02 -0.21816743853E+02  0.33131910194E+02  0.00000000000E+00 0.  1.
</event>
<event>
 7    1  0.1749439E-013  0.7246164E+02  0.7816164E-02  0.1226708E+00
        -11   -1    0    0    0    0  0.00000000000E+00  0.00000000000E+00  0.45593999997E+02  0.45594000000E+02  0.51100000000E-03 0.  1.
         11   -1    0    0    0    0 -0.00000000000E+00 -0.00000000000E+00 -0.45593999997E+02  0.45594000000E+02  0.51100000000E-03 0. -1.
    9900012    2    1    2    0    0  0.13493466924E+02  0.83654140371E+00 -0.12957740572E+02  0.72461641788E+02  0.70000093134E+02 0.  0.
        -12    1    1    2    0    0 -0.13493466924E+02 -0.83654140371E+00  0.12957740572E+02  0.18726358212E+02  0.00000000000E+00 0.  1.
         11    1    3    3    0    0  0.29172830184E+01 -0.10975081158E+02  0.45793519573E+01  0.12244729937E+02  0.51100000000E-03 0. -1.
        -11    1    3    3    0    0  0.29472463331E+02  0.54502010463E+01  0.47129823321E+01  0.30340451364E+02  0.51100000000E-03 0.  1.
         12    1    3    3    0    0 -0.18896279426E+02  0.63614215152E+01 -0.22250074862E+02  0.29876460486E+02  0.00000000000E+00 0. -1.
</event>
<event>
 7    1  0.1749439E-013  0.7246155E+02  0.7816164E-02  0.1226708E+00
        -11   -1    0    0    0    0  0.00000000000E+00  0.00000000000E+00  0.45593999997E+02  0.45594000000E+02  0.51100000000E-03 0.  1.
         11   -1    0    0    0    0 -0.00000000000E+00 -0.00000000000E+00 -0.45593999997E+02  0.45594000000E+02  0.51100000000E-03 0. -1.
    9900012    2    1    2    0    0  0.87398295450E+01  0.10726880928E+02 -0.12618604462E+02  0.72461554168E+02  0.69999978993E+02 0.  0.
        -12    1    1    2    0    0 -0.87398295450E+01 -0.10726880928E+02  0.12618604462E+02  0.18726445832E+02  0.00000000000E+00 0.  1.
         11    1    3    3    0    0 -0.16068252091E+02  0.12317815137E+02 -0.58216447432E+01  0.21066771057E+02  0.51100000000E-03 0. -1.
        -11    1    3    3    0    0 -0.10968363831E+02  0.10380680319E+01 -0.10640257279E+02  0.15316581393E+02  0.51100000000E-03 0.  1.
        -12    1    3    3    0    0  0.35776445467E+02 -0.26290022403E+01  0.38432975600E+01  0.36078201717E+02  0.00000000000E+00 0.  1.
</event>
<event>
 7    1  0.1749439E-013  0.7246156E+02  0.7816164E-02  0.1226708E+00
        -11   -1    0    0    0    0  0.00000000000E+00  0.00000000000E+00  0.45593999997E+02  0.45594000000E+02  0.51100000000E-03 0. -1.
         11   -1    0    0    0    0 -0.00000000000E+00 -0.00000000000E+00 -0.45593999997E+02  0.45594000000E+02  0.51100000000E-03 0.  1.
    9900012    2    1    2    0    0 -0.45606709664E+01  0.18125968374E+02 -0.11528661362E+01  0.72461560149E+02  0.69999986784E+02 0.  0.
        -12    1    1    2    0    0  0.45606709664E+01 -0.18125968374E+02  0.11528661362E+01  0.18726439851E+02  0.00000000000E+00 0.  1.
         11    1    3    3    0    0 -0.54627257367E+01  0.28551227229E+02  0.14551890323E+02  0.32508021487E+02  0.51100000000E-03 0. -1.
        -11    1    3    3    0    0 -0.49012753875E+01  0.11417024683E+01  0.99888211766E+01  0.11184924394E+02  0.51100000000E-03 0.  1.
        -12    1    3    3    0    0  0.58033301579E+01 -0.11566961323E+02 -0.25693577636E+02  0.28768614268E+02  0.00000000000E+00 0.  1.
</event>
<event>
 7    1  0.1749439E-013  0.7246154E+02  0.7816164E-02  0.1226708E+00
        -11   -1    0    0    0    0  0.00000000000E+00  0.00000000000E+00  0.45593999997E+02  0.45594000000E+02  0.51100000000E-03 0.  1.
         11   -1    0    0    0    0 -0.00000000000E+00 -0.00000000000E+00 -0.45593999997E+02  0.45594000000E+02  0.51100000000E-03 0. -1.
    9900012    2    1    2    0    0 -0.15964450164E+01  0.26511044279E+00 -0.18656407334E+02  0.72461535976E+02  0.69999955294E+02 0.  0.
        -12    1    1    2    0    0  0.15964450164E+01 -0.26511044279E+00  0.18656407334E+02  0.18726464024E+02  0.00000000000E+00 0.  1.
         11    1    3    3    0    0 -0.84181662286E+01 -0.10464599126E+02  0.97293236110E+01  0.16584121795E+02  0.51100000000E-03 0. -1.
        -11    1    3    3    0    0  0.26967849775E+01  0.57112347268E+01  0.12751748178E+02  0.14230176850E+02  0.51100000000E-03 0.  1.
         12    1    3    3    0    0  0.41249362348E+01  0.50184748416E+01 -0.41137479123E+02  0.41647237331E+02  0.00000000000E+00 0. -1.
</event>
<event>
 7    1  0.1749439E-013  0.7246158E+02  0.7816164E-02  0.1226708E+00
        -11   -1    0    0    0    0  0.00000000000E+00  0.00000000000E+00  0.45593999997E+02  0.45594000000E+02  0.51100000000E-03 0.  1.
         11   -1    0    0    0    0 -0.00000000000E+00 -0.00000000000E+00 -0.45593999997E+02  0.45594000000E+02  0.51100000000E-03 0. -1.
    9900012    2    1    2    0    0 -0.28544939855E+01  0.88311101749E+01 -0.16264755273E+02  0.72461577306E+02  0.70000009134E+02 0.  0.
        -12    1    1    2    0    0  0.28544939855E+01 -0.88311101749E+01  0.16264755273E+02  0.18726422694E+02  0.00000000000E+00 0.  1.
         11    1    3    3    0    0  0.18879792774E+02 -0.19585334659E+01 -0.16596014110E+02  0.25213292390E+02  0.51100000000E-03 0. -1.
        -11    1    3    3    0    0  0.87761048077E+01 -0.70566337912E+01 -0.32499546556E+01  0.11720849013E+02  0.51100000000E-03 0.  1.
        -12    1    3    3    0    0 -0.30510391567E+02  0.17846277432E+02  0.35812134931E+01  0.35527435903E+02  0.00000000000E+00 0.  1.
</event>
<event>
 7    1  0.1749439E-013  0.7246166E+02  0.7816164E-02  0.1226708E+00
        -11   -1    0    0    0    0  0.00000000000E+00  0.00000000000E+00  0.45593999997E+02  0.45594000000E+02  0.51100000000E-03 0.  1.
         11   -1    0    0    0    0 -0.00000000000E+00 -0.00000000000E+00 -0.45593999997E+02  0.45594000000E+02  0.51100000000E-03 0. -1.
    9900012    2    1    2    0    0  0.41544443461E+01  0.17989039209E+02  0.31322367282E+01  0.72461659022E+02  0.70000115585E+02 0.  0.
        -12    1    1    2    0    0 -0.41544443461E+01 -0.17989039209E+02 -0.31322367282E+01  0.18726340978E+02  0.00000000000E+00 0.  1.
         11    1    3    3    0    0  0.33797986578E+00 -0.13168189299E+02  0.33419188846E+01  0.13589844071E+02  0.51100000000E-03 0. -1.
        -11    1    3    3    0    0 -0.75162387419E+01 -0.12021306581E+02 -0.11174727561E+01  0.14221617431E+02  0.51100000000E-03 0.  1.
        -12    1    3    3    0    0  0.11332703222E+02  0.43178535089E+02  0.90779059972E+00  0.44650197519E+02  0.00000000000E+00 0.  1.
</event>
<event>
 7    1  0.1749439E-013  0.7246143E+02  0.7816164E-02  0.1226708E+00
        -11   -1    0    0    0    0  0.00000000000E+00  0.00000000000E+00  0.45593999997E+02  0.45594000000E+02  0.51100000000E-03 0. -1.
         11   -1    0    0    0    0 -0.00000000000E+00 -0.00000000000E+00 -0.45593999997E+02  0.45594000000E+02  0.51100000000E-03 0.  1.
    9900012    2    1    2    0    0 -0.15334156567E+02  0.22589829539E+01  0.10509282064E+02  0.72461431411E+02  0.69999819078E+02 0.  0.
        -12    1    1    2    0    0  0.15334156567E+02 -0.22589829539E+01 -0.10509282064E+02  0.18726568589E+02  0.00000000000E+00 0.  1.
         11    1    3    3    0    0  0.79319294459E+01  0.30278499593E+01 -0.74735488188E+01  0.11310937729E+02  0.51100000000E-03 0. -1.
        -11    1    3    3    0    0  0.89600816262E+01 -0.18145152920E+02 -0.27406192058E+00  0.20238694311E+02  0.51100000000E-03 0.  1.
        -12    1    3    3    0    0 -0.32226167639E+02  0.17376285914E+02  0.18256892804E+02  0.40911799370E+02  0.00000000000E+00 0.  1.
</event>
<event>
 7    1  0.1749439E-013  0.7246159E+02  0.7816164E-02  0.1226708E+00
        -11   -1    0    0    0    0  0.00000000000E+00  0.00000000000E+00  0.45593999997E+02  0.45594000000E+02  0.51100000000E-03 0. -1.
         11   -1    0    0    0    0 -0.00000000000E+00 -0.00000000000E+00 -0.45593999997E+02  0.45594000000E+02  0.51100000000E-03 0.  1.
    9900012    2    1    2    0    0  0.15611533623E+01 -0.13644978620E+01  0.18611268188E+02  0.72461591967E+02  0.70000028233E+02 0.  0.
        -12    1    1    2    0    0 -0.15611533623E+01  0.13644978620E+01 -0.18611268188E+02  0.18726408033E+02  0.00000000000E+00 0.  1.
         11    1    3    3    0    0 -0.19771148235E+02  0.67093555168E+01  0.14049508368E+02  0.25165500981E+02  0.51100000000E-03 0. -1.
        -11    1    3    3    0    0  0.11890891004E+02  0.14056041034E+02 -0.80930079229E+01  0.20111249487E+02  0.51100000000E-03 0.  1.
        -12    1    3    3    0    0  0.94414105933E+01 -0.22129894413E+02  0.12654767743E+02  0.27184841499E+02  0.00000000000E+00 0.  1.
</event>
<event>
 7    1  0.1749439E-013  0.7246154E+02  0.7816164E-02  0.1226708E+00
        -11   -1    0    0    0    0  0.00000000000E+00  0.00000000000E+00  0.45593999997E+02  0.45594000000E+02  0.51100000000E-03 0. -1.
         11   -1    0    0    0    0 -0.00000000000E+00 -0.00000000000E+00 -0.45593999997E+02  0.45594000000E+02  0.51100000000E-03 0.  1.
    9900012    2    1    2    0    0 -0.17170354821E+02 -0.21305815496E+01  0.71637762180E+01  0.72461544059E+02  0.69999965824E+02 0.  0.
        -12    1    1    2    0    0  0.17170354821E+02  0.21305815496E+01 -0.71637762180E+01  0.18726455941E+02  0.00000000000E+00 0.  1.
         11    1    3    3    0    0 -0.71305826079E+01  0.18455287517E+01 -0.76704544032E+01  0.10634239781E+02  0.51100000000E-03 0. -1.
        -11    1    3    3    0    0 -0.33827029646E+02 -0.68139964342E+01  0.17962700840E+01  0.34553220813E+02  0.51100000000E-03 0.  1.
         12    1    3    3    0    0  0.23787257433E+02  0.28378861329E+01  0.13037960537E+02  0.27274083465E+02  0.00000000000E+00 0. -1.
</event>
<event>
 7    1  0.1749439E-013  0.7246159E+02  0.7816164E-02  0.1226708E+00
        -11   -1    0    0    0    0  0.00000000000E+00  0.00000000000E+00  0.45593999997E+02  0.45594000000E+02  0.51100000000E-03 0.  1.
         11   -1    0    0    0    0 -0.00000000000E+00 -0.00000000000E+00 -0.45593999997E+02  0.45594000000E+02  0.51100000000E-03 0. -1.
    9900012    2    1    2    0    0 -0.10657002305E+02  0.70633663636E+01 -0.13682668925E+02  0.72461594274E+02  0.70000031237E+02 0.  0.
        -12    1    1    2    0    0  0.10657002305E+02 -0.70633663636E+01  0.13682668925E+02  0.18726405726E+02  0.00000000000E+00 0.  1.
         11    1    3    3    0    0 -0.23438909113E+01  0.25353745045E+02  0.52256592620E+01  0.25992570619E+02  0.51100000000E-03 0. -1.
        -11    1    3    3    0    0  0.40106324903E+00 -0.24132530038E+02  0.79247707392E+00  0.24148869082E+02  0.51100000000E-03 0.  1.
         12    1    3    3    0    0 -0.87141746425E+01  0.58421513567E+01 -0.19700805261E+02  0.22320154572E+02  0.00000000000E+00 0. -1.
</event>
<event>
 7    1  0.1749439E-013  0.7246158E+02  0.7816164E-02  0.1226708E+00
        -11   -1    0    0    0    0  0.00000000000E+00  0.00000000000E+00  0.45593999997E+02  0.45594000000E+02  0.51100000000E-03 0.  1.
         11   -1    0    0    0    0 -0.00000000000E+00 -0.00000000000E+00 -0.45593999997E+02  0.45594000000E+02  0.51100000000E-03 0. -1.
    9900012    2    1    2    0    0  0.15182202049E+02 -0.10673315979E+02  0.25019563760E+01  0.72461582330E+02  0.70000015679E+02 0.  0.
        -12    1    1    2    0    0 -0.15182202049E+02  0.10673315979E+02 -0.25019563760E+01  0.18726417670E+02  0.00000000000E+00 0.  1.
         11    1    3    3    0    0 -0.85296537577E+01  0.43154767303E+01 -0.13925040346E+02  0.16890384292E+02  0.51100000000E-03 0. -1.
        -11    1    3    3    0    0  0.46317043957E+01 -0.28359286731E+02  0.35571158269E+01  0.28954358960E+02  0.51100000000E-03 0.  1.
         12    1    3    3    0    0  0.19080151411E+02  0.13370494022E+02  0.12869880895E+02  0.26616839078E+02  0.00000000000E+00 0. -1.
</event>
<event>
 7    1  0.1749439E-013  0.7246157E+02  0.7816164E-02  0.1226708E+00
        -11   -1    0    0    0    0  0.00000000000E+00  0.00000000000E+00  0.45593999997E+02  0.45594000000E+02  0.51100000000E-03 0. -1.
         11   -1    0    0    0    0 -0.00000000000E+00 -0.00000000000E+00 -0.45593999997E+02  0.45594000000E+02  0.51100000000E-03 0.  1.
    9900012    2    1    2    0    0 -0.12299301118E-01 -0.93789357601E+01  0.16208470672E+02  0.72461571916E+02  0.70000002113E+02 0.  0.
        -12    1    1    2    0    0  0.12299301118E-01  0.93789357601E+01 -0.16208470672E+02  0.18726428084E+02  0.00000000000E+00 0.  1.
         11    1    3    3    0    0 -0.73791328075E+01 -0.50599979904E+01  0.19472026416E+02  0.21429302221E+02  0.51100000000E-03 0. -1.
        -11    1    3    3    0    0  0.16629481832E+01 -0.26404768286E+02 -0.81902604960E+01  0.27695803873E+02  0.51100000000E-03 0.  1.
         12    1    3    3    0    0  0.57038853231E+01  0.22085830516E+02  0.49267047513E+01  0.23336465823E+02  0.00000000000E+00 0. -1.
</event>
<event>
 7    1  0.1749439E-013  0.7246166E+02  0.7816164E-02  0.1226708E+00
        -11   -1    0    0    0    0  0.00000000000E+00  0.00000000000E+00  0.45593999997E+02  0.45594000000E+02  0.51100000000E-03 0.  1.
         11   -1    0    0    0    0 -0.00000000000E+00 -0.00000000000E+00 -0.45593999997E+02  0.45594000000E+02  0.51100000000E-03 0. -1.
    9900012    2    1    2    0    0 -0.17823659402E+02  0.15295630704E+01 -0.55365634089E+01  0.72461656736E+02  0.70000112607E+02 0.  0.
        -12    1    1    2    0    0  0.17823659402E+02 -0.15295630704E+01  0.55365634089E+01  0.18726343264E+02  0.00000000000E+00 0.  1.
         11    1    3    3    0    0 -0.74332091433E+01 -0.14937589929E+02 -0.70301495603E+01  0.18105446533E+02  0.51100000000E-03 0. -1.
        -11    1    3    3    0    0 -0.24691443449E+02 -0.44818047927E+01 -0.93372551076E+01  0.26775703297E+02  0.51100000000E-03 0.  1.
        -12    1    3    3    0    0  0.14300993191E+02  0.20948957792E+02  0.10830841259E+02  0.27580506907E+02  0.00000000000E+00 0.  1.
</event>
<event>
 7    1  0.1749439E-013  0.7246156E+02  0.7816164E-02  0.1226708E+00
        -11   -1    0    0    0    0  0.00000000000E+00  0.00000000000E+00  0.45593999997E+02  0.45594000000E+02  0.51100000000E-03 0.  1.
         11   -1    0    0    0    0 -0.00000000000E+00 -0.00000000000E+00 -0.45593999997E+02  0.45594000000E+02  0.51100000000E-03 0. -1.
    9900012    2    1    2    0    0  0.10656305229E+02 -0.11181555106E+02 -0.10587525449E+02  0.72461555841E+02  0.69999981172E+02 0.  0.
        -12    1    1    2    0    0 -0.10656305229E+02  0.11181555106E+02  0.10587525449E+02  0.18726444159E+02  0.00000000000E+00 0.  1.
         11    1    3    3    0    0 -0.10997326410E+01 -0.97589092641E-01  0.41820561571E+01  0.43253357644E+01  0.51100000000E-03 0. -1.
        -11    1    3    3    0    0  0.33586106365E+02 -0.15931316757E+02  0.59557147649E+01  0.37647097272E+02  0.51100000000E-03 0.  1.
         12    1    3    3    0    0 -0.21830068495E+02  0.48473507438E+01 -0.20725296371E+02  0.30489122804E+02  0.00000000000E+00 0. -1.
</event>
<event>
 7    1  0.1749439E-013  0.7246158E+02  0.7816164E-02  0.1226708E+00
        -11   -1    0    0    0    0  0.00000000000E+00  0.00000000000E+00  0.45593999997E+02  0.45594000000E+02  0.51100000000E-03 0. -1.
         11   -1    0    0    0    0 -0.00000000000E+00 -0.00000000000E+00 -0.45593999997E+02  0.45594000000E+02  0.51100000000E-03 0.  1.
    9900012    2    1    2    0    0 -0.10955936411E+02  0.13737502169E+02  0.64751434947E+01  0.72461575041E+02  0.70000006183E+02 0.  0.
        -12    1    1    2    0    0  0.10955936411E+02 -0.13737502169E+02 -0.64751434947E+01  0.18726424959E+02  0.00000000000E+00 0.  1.
         11    1    3    3    0    0 -0.16536769155E+02  0.21773045008E+02 -0.24694313953E+01  0.27452291610E+02  0.51100000000E-03 0. -1.
        -11    1    3    3    0    0 -0.48595633033E+01 -0.38435602011E+00 -0.16097700442E+02  0.16819602993E+02  0.51100000000E-03 0.  1.
        -12    1    3    3    0    0  0.10440396047E+02 -0.76511868190E+01  0.25042275332E+02  0.28189680438E+02  0.00000000000E+00 0.  1.
</event>
<event>
 7    1  0.1749439E-013  0.7246158E+02  0.7816164E-02  0.1226708E+00
        -11   -1    0    0    0    0  0.00000000000E+00  0.00000000000E+00  0.45593999997E+02  0.45594000000E+02  0.51100000000E-03 0. -1.
         11   -1    0    0    0    0 -0.00000000000E+00 -0.00000000000E+00 -0.45593999997E+02  0.45594000000E+02  0.51100000000E-03 0.  1.
    9900012    2    1    2    0    0  0.17434663608E+02  0.28590541825E+01 -0.62078423583E+01  0.72461575016E+02  0.70000006151E+02 0.  0.
        -12    1    1    2    0    0 -0.17434663608E+02 -0.28590541825E+01  0.62078423583E+01  0.18726424984E+02  0.00000000000E+00 0.  1.
         11    1    3    3    0    0 -0.88256614154E+01  0.16705244890E+02  0.14911624334E+02  0.24068943616E+02  0.51100000000E-03 0. -1.
        -11    1    3    3    0    0 -0.17817110982E+01 -0.14277059404E+02 -0.21820890302E+01  0.14552334261E+02  0.51100000000E-03 0.  1.
         12    1    3    3    0    0  0.28042036122E+02  0.43086869637E+00 -0.18937377662E+02  0.33840297138E+02  0.00000000000E+00 0. -1.
</event>
<event>
 7    1  0.1749439E-013  0.7246156E+02  0.7816164E-02  0.1226708E+00
        -11   -1    0    0    0    0  0.00000000000E+00  0.00000000000E+00  0.45593999997E+02  0.45594000000E+02  0.51100000000E-03 0. -1.
         11   -1    0    0    0    0 -0.00000000000E+00 -0.00000000000E+00 -0.45593999997E+02  0.45594000000E+02  0.51100000000E-03 0.  1.
    9900012    2    1    2    0    0 -0.18035830896E+02  0.45237145220E+01 -0.22190598214E+01  0.72461563722E+02  0.69999991438E+02 0.  0.
        -12    1    1    2    0    0  0.18035830896E+02 -0.45237145220E+01  0.22190598214E+01  0.18726436278E+02  0.00000000000E+00 0.  1.
         11    1    3    3    0    0  0.35998168154E+01  0.44800245502E+01  0.20415770118E+02  0.21209266155E+02  0.51100000000E-03 0. -1.
        -11    1    3    3    0    0  0.58319770786E+00 -0.91735971455E+01  0.80803407343E+01  0.12238746292E+02  0.51100000000E-03 0.  1.
        -12    1    3    3    0    0 -0.22218845420E+02  0.92172871173E+01 -0.30715170673E+02  0.39013551275E+02  0.00000000000E+00 0.  1.
</event>
<event>
 7    1  0.1749439E-013  0.7246156E+02  0.7816164E-02  0.1226708E+00
        -11   -1    0    0    0    0  0.00000000000E+00  0.00000000000E+00  0.45593999997E+02  0.45594000000E+02  0.51100000000E-03 0. -1.
         11   -1    0    0    0    0 -0.00000000000E+00 -0.00000000000E+00 -0.45593999997E+02  0.45594000000E+02  0.51100000000E-03 0.  1.
    9900012    2    1    2    0    0  0.17941616855E+02  0.49850042116E+01  0.19818527932E+01  0.72461558190E+02  0.69999984232E+02 0.  0.
        -12    1    1    2    0    0 -0.17941616855E+02 -0.49850042116E+01 -0.19818527932E+01  0.18726441810E+02  0.00000000000E+00 0.  1.
         11    1    3    3    0    0  0.46898873550E+01 -0.18288453466E+00 -0.82931320446E+01  0.95291410696E+01  0.51100000000E-03 0. -1.
        -11    1    3    3    0    0 -0.10628598005E+02 -0.19706437474E+02 -0.81616202389E+01  0.23831131292E+02  0.51100000000E-03 0.  1.
         12    1    3    3    0    0  0.23880327506E+02  0.24874326220E+02  0.18436605077E+02  0.39101285828E+02  0.00000000000E+00 0. -1.
</event>
<event>
 7    1  0.1749439E-013  0.7246154E+02  0.7816164E-02  0.1226708E+00
        -11   -1    0    0    0    0  0.00000000000E+00  0.00000000000E+00  0.45593999997E+02  0.45594000000E+02  0.51100000000E-03 0. -1.
         11   -1    0    0    0    0 -0.00000000000E+00 -0.00000000000E+00 -0.45593999997E+02  0.45594000000E+02  0.51100000000E-03 0.  1.
    9900012    2    1    2    0    0 -0.34528568794E+01 -0.13663981445E+02  0.12331011077E+02  0.72461536272E+02  0.69999955680E+02 0.  0.
        -12    1    1    2    0    0  0.34528568794E+01  0.13663981445E+02 -0.12331011077E+02  0.18726463728E+02  0.00000000000E+00 0.  1.
         11    1    3    3    0    0  0.83832742203E+01 -0.82008305946E+01  0.13038340561E+02  0.17536568477E+02  0.51100000000E-03 0. -1.
        -11    1    3    3    0    0  0.12703887122E+02 -0.20123123125E+02  0.78952009614E+01  0.25073153587E+02  0.51100000000E-03 0.  1.
         12    1    3    3    0    0 -0.24540018222E+02  0.14659972275E+02 -0.86025304455E+01  0.29851814208E+02  0.00000000000E+00 0. -1.
</event>
<event>
 7    1  0.1749439E-013  0.7246156E+02  0.7816164E-02  0.1226708E+00
        -11   -1    0    0    0    0  0.00000000000E+00  0.00000000000E+00  0.45593999997E+02  0.45594000000E+02  0.51100000000E-03 0.  1.
         11   -1    0    0    0    0 -0.00000000000E+00 -0.00000000000E+00 -0.45593999997E+02  0.45594000000E+02  0.51100000000E-03 0. -1.
    9900012    2    1    2    0    0 -0.13282241459E+02  0.12083561216E+02 -0.53149985323E+01  0.72461558821E+02  0.69999985054E+02 0.  0.
        -12    1    1    2    0    0  0.13282241459E+02 -0.12083561216E+02  0.53149985323E+01  0.18726441179E+02  0.00000000000E+00 0.  1.
         11    1    3    3    0    0 -0.23522038370E+02 -0.69395491296E+01 -0.15199026524E+02  0.28852279611E+02  0.51100000000E-03 0. -1.
        -11    1    3    3    0    0 -0.12418531328E+02  0.10937960478E+02  0.10401471273E+02  0.19546086684E+02  0.51100000000E-03 0.  1.
        -12    1    3    3    0    0  0.22658328240E+02  0.80851498678E+01 -0.51744328120E+00  0.24063192526E+02  0.00000000000E+00 0.  1.
</event>
<event>
 7    1  0.1749439E-013  0.7246157E+02  0.7816164E-02  0.1226708E+00
        -11   -1    0    0    0    0  0.00000000000E+00  0.00000000000E+00  0.45593999997E+02  0.45594000000E+02  0.51100000000E-03 0.  1.
         11   -1    0    0    0    0 -0.00000000000E+00 -0.00000000000E+00 -0.45593999997E+02  0.45594000000E+02  0.51100000000E-03 0. -1.
    9900012    2    1    2    0    0  0.18703004963E+02  0.48287070717E-01 -0.93520162646E+00  0.72461566053E+02  0.69999994475E+02 0.  0.
        -12    1    1    2    0    0 -0.18703004963E+02 -0.48287070717E-01  0.93520162646E+00  0.18726433947E+02  0.00000000000E+00 0.  1.
         11    1    3    3    0    0 -0.60742503689E+01  0.87369045735E+01 -0.17863664795E+02  0.20792800178E+02  0.51100000000E-03 0. -1.
        -11    1    3    3    0    0 -0.91291133014E+01  0.29651532489E-01 -0.49505843278E+01  0.10385079409E+02  0.51100000000E-03 0.  1.
         12    1    3    3    0    0  0.33906368633E+02 -0.87182690353E+01  0.21879047497E+02  0.41283686466E+02  0.00000000000E+00 0. -1.
</event>
<event>
 7    1  0.1749439E-013  0.7246158E+02  0.7816164E-02  0.1226708E+00
        -11   -1    0    0    0    0  0.00000000000E+00  0.00000000000E+00  0.45593999997E+02  0.45594000000E+02  0.51100000000E-03 0.  1.
         11   -1    0    0    0    0 -0.00000000000E+00 -0.00000000000E+00 -0.45593999997E+02  0.45594000000E+02  0.51100000000E-03 0. -1.
    9900012    2    1    2    0    0  0.64746382645E+00  0.93700078276E+01  0.16200690792E+02  0.72461584480E+02  0.70000018479E+02 0.  0.
        -12    1    1    2    0    0 -0.64746382645E+00 -0.93700078276E+01 -0.16200690792E+02  0.18726415520E+02  0.00000000000E+00 0.  1.
         11    1    3    3    0    0  0.15318171848E+02 -0.10545804740E+02 -0.12888566221E+02  0.22626876185E+02  0.51100000000E-03 0. -1.
        -11    1    3    3    0    0  0.94479712142E+01  0.71612883668E+01  0.15026922968E+02  0.19140444751E+02  0.51100000000E-03 0.  1.
         12    1    3    3    0    0 -0.24118679236E+02  0.12754524201E+02  0.14062334045E+02  0.30694263543E+02  0.00000000000E+00 0. -1.
</event>
<event>
 7    1  0.1749439E-013  0.7246153E+02  0.7816164E-02  0.1226708E+00
        -11   -1    0    0    0    0  0.00000000000E+00  0.00000000000E+00  0.45593999997E+02  0.45594000000E+02  0.51100000000E-03 0. -1.
         11   -1    0    0    0    0 -0.00000000000E+00 -0.00000000000E+00 -0.45593999997E+02  0.45594000000E+02  0.51100000000E-03 0.  1.
    9900012    2    1    2    0    0  0.18445800716E+02 -0.27225767753E+01  0.17380192711E+01  0.72461529448E+02  0.69999946789E+02 0.  0.
        -12    1    1    2    0    0 -0.18445800716E+02  0.27225767753E+01 -0.17380192711E+01  0.18726470552E+02  0.00000000000E+00 0.  1.
         11    1    3    3    0    0  0.21374199658E+02 -0.23691599884E+02  0.69555341870E+01  0.32657736789E+02  0.51100000000E-03 0. -1.
        -11    1    3    3    0    0  0.63755581297E+01  0.24560496709E+01 -0.15303881643E+02  0.16759734934E+02  0.51100000000E-03 0.  1.
         12    1    3    3    0    0 -0.93039570710E+01  0.18512973438E+02  0.10086366727E+02  0.23044057725E+02  0.00000000000E+00 0. -1.
</event>
<event>
 7    1  0.1749439E-013  0.7246156E+02  0.7816164E-02  0.1226708E+00
        -11   -1    0    0    0    0  0.00000000000E+00  0.00000000000E+00  0.45593999997E+02  0.45594000000E+02  0.51100000000E-03 0.  1.
         11   -1    0    0    0    0 -0.00000000000E+00 -0.00000000000E+00 -0.45593999997E+02  0.45594000000E+02  0.51100000000E-03 0. -1.
    9900012    2    1    2    0    0  0.16487239005E+02 -0.72516450184E+01  0.51248509991E+01  0.72461561384E+02  0.69999988392E+02 0.  0.
        -12    1    1    2    0    0 -0.16487239005E+02  0.72516450184E+01 -0.51248509991E+01  0.18726438616E+02  0.00000000000E+00 0.  1.
         11    1    3    3    0    0  0.19356738773E+02 -0.64364160737E+01  0.20706865054E+02  0.29066906413E+02  0.51100000000E-03 0.  1.
        -11    1    3    3    0    0  0.16256313045E+02 -0.10088241388E+02 -0.90022751764E+01  0.21144296790E+02  0.51100000000E-03 0. -1.
         12    1    3    3    0    0 -0.19125812812E+02  0.92730124429E+01 -0.65797388783E+01  0.22250358181E+02  0.00000000000E+00 0. -1.
</event>
<event>
 7    1  0.1749439E-013  0.7246156E+02  0.7816164E-02  0.1226708E+00
        -11   -1    0    0    0    0  0.00000000000E+00  0.00000000000E+00  0.45593999997E+02  0.45594000000E+02  0.51100000000E-03 0.  1.
         11   -1    0    0    0    0 -0.00000000000E+00 -0.00000000000E+00 -0.45593999997E+02  0.45594000000E+02  0.51100000000E-03 0. -1.
    9900012    2    1    2    0    0  0.11101681333E+00 -0.17338901006E+02  0.70731695156E+01  0.72461560407E+02  0.69999987120E+02 0.  0.
        -12    1    1    2    0    0 -0.11101681333E+00  0.17338901006E+02 -0.70731695156E+01  0.18726439593E+02  0.00000000000E+00 0.  1.
         11    1    3    3    0    0  0.45869408866E+01 -0.14250285515E+02 -0.12498678014E+02  0.19501990060E+02  0.51100000000E-03 0. -1.
        -11    1    3    3    0    0 -0.16737683107E+02 -0.16891331473E+02 -0.28106255044E+01  0.23945077380E+02  0.51100000000E-03 0.  1.
        -12    1    3    3    0    0  0.12261759034E+02  0.13802715982E+02  0.22382473034E+02  0.29014492968E+02  0.00000000000E+00 0.  1.
</event>
<event>
 7    1  0.1749439E-013  0.7246159E+02  0.7816164E-02  0.1226708E+00
        -11   -1    0    0    0    0  0.00000000000E+00  0.00000000000E+00  0.45593999997E+02  0.45594000000E+02  0.51100000000E-03 0. -1.
         11   -1    0    0    0    0 -0.00000000000E+00 -0.00000000000E+00 -0.45593999997E+02  0.45594000000E+02  0.51100000000E-03 0.  1.
    9900012    2    1    2    0    0  0.18567529629E+02 -0.61842881421E+00  0.23543060147E+01  0.72461591707E+02  0.70000027894E+02 0.  0.
        -12    1    1    2    0    0 -0.18567529629E+02  0.61842881421E+00 -0.23543060147E+01  0.18726408293E+02  0.00000000000E+00 0.  1.
         11    1    3    3    0    0  0.12682323218E+02 -0.26249193827E+02  0.20547248052E+02  0.35665822597E+02  0.51100000000E-03 0. -1.
        -11    1    3    3    0    0 -0.23814745821E+01 -0.18543196467E+00  0.19010875766E+01  0.30528577486E+01  0.51100000000E-03 0.  1.
        -12    1    3    3    0    0  0.82666809933E+01  0.25816196977E+02 -0.20094029614E+02  0.33742911361E+02  0.00000000000E+00 0.  1.
</event>
<event>
 7    1  0.1749439E-013  0.7246150E+02  0.7816164E-02  0.1226708E+00
        -11   -1    0    0    0    0  0.00000000000E+00  0.00000000000E+00  0.45593999997E+02  0.45594000000E+02  0.51100000000E-03 0. -1.
         11   -1    0    0    0    0 -0.00000000000E+00 -0.00000000000E+00 -0.45593999997E+02  0.45594000000E+02  0.51100000000E-03 0.  1.
    9900012    2    1    2    0    0  0.93321562187E+01 -0.15058226860E+02  0.60698049770E+01  0.72461498236E+02  0.69999906130E+02 0.  0.
        -12    1    1    2    0    0 -0.93321562187E+01  0.15058226860E+02 -0.60698049770E+01  0.18726501764E+02  0.00000000000E+00 0.  1.
         11    1    3    3    0    0  0.23379183424E+02 -0.11477388365E+02 -0.13622076816E+02  0.29391795425E+02  0.51100000000E-03 0. -1.
        -11    1    3    3    0    0  0.68361002385E+01  0.65381779162E+01 -0.36652987415E+01  0.10144676045E+02  0.51100000000E-03 0.  1.
        -12    1    3    3    0    0 -0.20883127444E+02 -0.10119016412E+02  0.23357180535E+02  0.32925026766E+02  0.00000000000E+00 0.  1.
</event>
<event>
 7    1  0.1749439E-013  0.7246158E+02  0.7816164E-02  0.1226708E+00
        -11   -1    0    0    0    0  0.00000000000E+00  0.00000000000E+00  0.45593999997E+02  0.45594000000E+02  0.51100000000E-03 0. -1.
         11   -1    0    0    0    0 -0.00000000000E+00 -0.00000000000E+00 -0.45593999997E+02  0.45594000000E+02  0.51100000000E-03 0.  1.
    9900012    2    1    2    0    0  0.16904029544E+02  0.53072099660E+01  0.60635122414E+01  0.72461578207E+02  0.70000010308E+02 0.  0.
        -12    1    1    2    0    0 -0.16904029544E+02 -0.53072099660E+01 -0.60635122414E+01  0.18726421793E+02  0.00000000000E+00 0.  1.
         11    1    3    3    0    0 -0.30655684793E+01  0.13528553396E+02  0.24977674219E+02  0.28571028626E+02  0.51100000000E-03 0. -1.
        -11    1    3    3    0    0 -0.21041890448E+01 -0.11889103762E+02 -0.17771473353E+02  0.21484963701E+02  0.51100000000E-03 0.  1.
         12    1    3    3    0    0  0.22073787068E+02  0.36677603323E+01 -0.11426886241E+01  0.22405585881E+02  0.00000000000E+00 0. -1.
</event>
<event>
 7    1  0.1749439E-013  0.7246156E+02  0.7816164E-02  0.1226708E+00
        -11   -1    0    0    0    0  0.00000000000E+00  0.00000000000E+00  0.45593999997E+02  0.45594000000E+02  0.51100000000E-03 0.  1.
         11   -1    0    0    0    0 -0.00000000000E+00 -0.00000000000E+00 -0.45593999997E+02  0.45594000000E+02  0.51100000000E-03 0. -1.
    9900012    2    1    2    0    0 -0.34931378884E+01  0.14968866577E+02 -0.10696279583E+02  0.72461564786E+02  0.69999992824E+02 0.  0.
        -12    1    1    2    0    0  0.34931378884E+01 -0.14968866577E+02  0.10696279583E+02  0.18726435214E+02  0.00000000000E+00 0.  1.
         11    1    3    3    0    0  0.20118720710E+02 -0.22970183689E+01 -0.12423068002E+02  0.23756511428E+02  0.51100000000E-03 0. -1.
        -11    1    3    3    0    0  0.44955218920E+01  0.14186624751E+02  0.11479394825E+02  0.18794854209E+02  0.51100000000E-03 0.  1.
         12    1    3    3    0    0 -0.28107380491E+02  0.30792601947E+01 -0.97526064068E+01  0.29910199149E+02  0.00000000000E+00 0. -1.
</event>
<event>
 7    1  0.1749439E-013  0.7246155E+02  0.7816164E-02  0.1226708E+00
        -11   -1    0    0    0    0  0.00000000000E+00  0.00000000000E+00  0.45593999997E+02  0.45594000000E+02  0.51100000000E-03 0. -1.
         11   -1    0    0    0    0 -0.00000000000E+00 -0.00000000000E+00 -0.45593999997E+02  0.45594000000E+02  0.51100000000E-03 0.  1.
    9900012    2    1    2    0    0  0.14962889427E+02 -0.42398784560E+01  0.10431450497E+02  0.72461553759E+02  0.69999978460E+02 0.  0.
        -12    1    1    2    0    0 -0.14962889427E+02  0.42398784560E+01 -0.10431450497E+02  0.18726446241E+02  0.00000000000E+00 0.  1.
         11    1    3    3    0    0  0.39065801330E+01 -0.24751434874E+02  0.27268186118E+02  0.37033078066E+02  0.51100000000E-03 0. -1.
        -11    1    3    3    0    0  0.60525786237E+01 -0.14451194682E+01 -0.10205184633E+02  0.11952734914E+02  0.51100000000E-03 0.  1.
        -12    1    3    3    0    0  0.50037306708E+01  0.21956675886E+02 -0.66315509878E+01  0.23475740779E+02  0.00000000000E+00 0.  1.
</event>
<event>
 7    1  0.1749439E-013  0.7246153E+02  0.7816164E-02  0.1226708E+00
        -11   -1    0    0    0    0  0.00000000000E+00  0.00000000000E+00  0.45593999997E+02  0.45594000000E+02  0.51100000000E-03 0. -1.
         11   -1    0    0    0    0 -0.00000000000E+00 -0.00000000000E+00 -0.45593999997E+02  0.45594000000E+02  0.51100000000E-03 0.  1.
    9900012    2    1    2    0    0  0.13263364188E+02  0.83959507207E+01 -0.10211352257E+02  0.72461533889E+02  0.69999952575E+02 0.  0.
        -12    1    1    2    0    0 -0.13263364188E+02 -0.83959507207E+01  0.10211352257E+02  0.18726466111E+02  0.00000000000E+00 0.  1.
         11    1    3    3    0    0  0.22014129840E+02  0.25087256015E+01 -0.27458506481E+01  0.22326112801E+02  0.51100000000E-03 0. -1.
        -11    1    3    3    0    0  0.18083206901E+02  0.12219153612E+02 -0.54275115761E+01  0.22489285649E+02  0.51100000000E-03 0.  1.
        -12    1    3    3    0    0 -0.26833972553E+02 -0.63319284929E+01 -0.20379900325E+01  0.27646135440E+02  0.00000000000E+00 0.  1.
</event>
<event>
 7    1  0.1749439E-013  0.7246158E+02  0.7816164E-02  0.1226708E+00
        -11   -1    0    0    0    0  0.00000000000E+00  0.00000000000E+00  0.45593999997E+02  0.45594000000E+02  0.51100000000E-03 0.  1.
         11   -1    0    0    0    0 -0.00000000000E+00 -0.00000000000E+00 -0.45593999997E+02  0.45594000000E+02  0.51100000000E-03 0. -1.
    9900012    2    1    2    0    0  0.11967524432E+01  0.87050412361E+01 -0.16536898195E+02  0.72461575855E+02  0.70000007244E+02 0.  0.
        -12    1    1    2    0    0 -0.11967524432E+01 -0.87050412361E+01  0.16536898195E+02  0.18726424145E+02  0.00000000000E+00 0.  1.
         11    1    3    3    0    0  0.34002861244E+01 -0.88674530553E+01 -0.22067889350E+02  0.24024683349E+02  0.51100000000E-03 0. -1.
        -11    1    3    3    0    0 -0.80890636430E+01 -0.56399003724E+01 -0.14282409977E+02  0.17355940247E+02  0.51100000000E-03 0.  1.
        -12    1    3    3    0    0  0.58855299618E+01  0.23212394664E+02  0.19813401131E+02  0.31080952259E+02  0.00000000000E+00 0.  1.
</event>
<event>
 7    1  0.1749439E-013  0.7246128E+02  0.7816164E-02  0.1226709E+00
        -11   -1    0    0    0    0  0.00000000000E+00  0.00000000000E+00  0.45593999997E+02  0.45594000000E+02  0.51100000000E-03 0.  1.
         11   -1    0    0    0    0 -0.00000000000E+00 -0.00000000000E+00 -0.45593999997E+02  0.45594000000E+02  0.51100000000E-03 0. -1.
    9900012    2    1    2    0    0  0.85470608125E+01  0.16220226742E+02  0.38133895580E+01  0.72461282615E+02  0.69999625244E+02 0.  0.
        -12    1    1    2    0    0 -0.85470608125E+01 -0.16220226742E+02 -0.38133895580E+01  0.18726717385E+02  0.00000000000E+00 0.  1.
         11    1    3    3    0    0 -0.35257847310E+01 -0.10363898775E+02  0.10450383195E+02  0.15134466128E+02  0.51100000000E-03 0. -1.
        -11    1    3    3    0    0  0.28756042769E+02  0.11257542847E+02  0.58923919493E+01  0.31438233885E+02  0.51100000000E-03 0.  1.
         12    1    3    3    0    0 -0.16683197225E+02  0.15326582670E+02 -0.12529385587E+02  0.25888582602E+02  0.00000000000E+00 0. -1.
</event>
<event>
 7    1  0.1749439E-013  0.7246157E+02  0.7816164E-02  0.1226708E+00
        -11   -1    0    0    0    0  0.00000000000E+00  0.00000000000E+00  0.45593999997E+02  0.45594000000E+02  0.51100000000E-03 0.  1.
         11   -1    0    0    0    0 -0.00000000000E+00 -0.00000000000E+00 -0.45593999997E+02  0.45594000000E+02  0.51100000000E-03 0. -1.
    9900012    2    1    2    0    0 -0.53887896926E+01 -0.16442004758E+02  0.71624403851E+01  0.72461571427E+02  0.70000001476E+02 0.  0.
        -12    1    1    2    0    0  0.53887896926E+01  0.16442004758E+02 -0.71624403851E+01  0.18726428573E+02  0.00000000000E+00 0.  1.
         11    1    3    3    0    0 -0.41949096651E+01 -0.30308483059E+02 -0.47791176989E+01  0.30968393221E+02  0.51100000000E-03 0. -1.
        -11    1    3    3    0    0  0.11492827160E+02 -0.53142727870E+01 -0.42632563047E+01  0.13360461293E+02  0.51100000000E-03 0.  1.
        -12    1    3    3    0    0 -0.12686707188E+02  0.19180751087E+02  0.16204814389E+02  0.28132716913E+02  0.00000000000E+00 0.  1.
</event>
<event>
 7    1  0.1749439E-013  0.7246164E+02  0.7816164E-02  0.1226708E+00
        -11   -1    0    0    0    0  0.00000000000E+00  0.00000000000E+00  0.45593999997E+02  0.45594000000E+02  0.51100000000E-03 0.  1.
         11   -1    0    0    0    0 -0.00000000000E+00 -0.00000000000E+00 -0.45593999997E+02  0.45594000000E+02  0.51100000000E-03 0. -1.
    9900012    2    1    2    0    0  0.59654432711E+01  0.17750581155E+02 -0.83923495223E-01  0.72461636554E+02  0.70000086315E+02 0.  0.
        -12    1    1    2    0    0 -0.59654432711E+01 -0.17750581155E+02  0.83923495223E-01  0.18726363446E+02  0.00000000000E+00 0.  1.
         11    1    3    3    0    0 -0.57609209614E+00 -0.66571307178E+01 -0.99888926009E+01  0.12017788780E+02  0.51100000000E-03 0. -1.
        -11    1    3    3    0    0  0.54379654036E+00 -0.10881315875E+02 -0.13746735752E+02  0.17540567093E+02  0.51100000000E-03 0.  1.
         12    1    3    3    0    0  0.59977388269E+01  0.35289027748E+02  0.23651704858E+02  0.42903280681E+02  0.00000000000E+00 0. -1.
</event>
<event>
 7    1  0.1749439E-013  0.7246160E+02  0.7816164E-02  0.1226708E+00
        -11   -1    0    0    0    0  0.00000000000E+00  0.00000000000E+00  0.45593999997E+02  0.45594000000E+02  0.51100000000E-03 0.  1.
         11   -1    0    0    0    0 -0.00000000000E+00 -0.00000000000E+00 -0.45593999997E+02  0.45594000000E+02  0.51100000000E-03 0. -1.
    9900012    2    1    2    0    0  0.14012782211E+02  0.11893032623E+02  0.35882750798E+01  0.72461601299E+02  0.70000040389E+02 0.  0.
        -12    1    1    2    0    0 -0.14012782211E+02 -0.11893032623E+02 -0.35882750798E+01  0.18726398701E+02  0.00000000000E+00 0.  1.
         11    1    3    3    0    0  0.37207405524E+01 -0.29756119676E+01 -0.13506858420E+02  0.14322478887E+02  0.51100000000E-03 0. -1.
        -11    1    3    3    0    0 -0.15061413278E+02  0.21246262999E+02 -0.14540599906E+01  0.26083790984E+02  0.51100000000E-03 0.  1.
        -12    1    3    3    0    0  0.25353454937E+02 -0.63776184083E+01  0.18549193490E+02  0.32055331428E+02  0.00000000000E+00 0.  1.
</event>
<event>
 7    1  0.1749439E-013  0.7246161E+02  0.7816164E-02  0.1226708E+00
        -11   -1    0    0    0    0  0.00000000000E+00  0.00000000000E+00  0.45593999997E+02  0.45594000000E+02  0.51100000000E-03 0.  1.
         11   -1    0    0    0    0 -0.00000000000E+00 -0.00000000000E+00 -0.45593999997E+02  0.45594000000E+02  0.51100000000E-03 0. -1.
    9900012    2    1    2    0    0 -0.14244261452E+02 -0.70152369915E+01 -0.99279929348E+01  0.72461612787E+02  0.70000055354E+02 0.  0.
        -12    1    1    2    0    0  0.14244261452E+02  0.70152369915E+01  0.99279929348E+01  0.18726387213E+02  0.00000000000E+00 0.  1.
         11    1    3    3    0    0 -0.11227178761E+02 -0.12615151995E+01 -0.30454854656E+01  0.11701108730E+02  0.51100000000E-03 0. -1.
        -11    1    3    3    0    0 -0.15673741048E+02  0.21876958252E+02  0.62893428070E+01  0.27637353238E+02  0.51100000000E-03 0.  1.
         12    1    3    3    0    0  0.12656658358E+02 -0.27630680044E+02 -0.13171850276E+02  0.33123150819E+02  0.00000000000E+00 0. -1.
</event>
<event>
 7    1  0.1749439E-013  0.7246157E+02  0.7816164E-02  0.1226708E+00
        -11   -1    0    0    0    0  0.00000000000E+00  0.00000000000E+00  0.45593999997E+02  0.45594000000E+02  0.51100000000E-03 0. -1.
         11   -1    0    0    0    0 -0.00000000000E+00 -0.00000000000E+00 -0.45593999997E+02  0.45594000000E+02  0.51100000000E-03 0.  1.
    9900012    2    1    2    0    0 -0.32035986852E+01 -0.71256422674E+01  0.17018852835E+02  0.72461570173E+02  0.69999999842E+02 0.  0.
        -12    1    1    2    0    0  0.32035986852E+01  0.71256422674E+01 -0.17018852835E+02  0.18726429827E+02  0.00000000000E+00 0.  1.
         11    1    3    3    0    0 -0.17245642814E+02  0.46418733296E+01 -0.71105418566E+01  0.19222876731E+02  0.51100000000E-03 0. -1.
        -11    1    3    3    0    0  0.13128831941E+01 -0.23495644765E+02 -0.13704148811E-01  0.23532300637E+02  0.51100000000E-03 0.  1.
         12    1    3    3    0    0  0.12729160934E+02  0.11728129168E+02  0.24143098840E+02  0.29706392805E+02  0.00000000000E+00 0. -1.
</event>
<event>
 7    1  0.1749439E-013  0.7246156E+02  0.7816164E-02  0.1226708E+00
        -11   -1    0    0    0    0  0.00000000000E+00  0.00000000000E+00  0.45593999997E+02  0.45594000000E+02  0.51100000000E-03 0.  1.
         11   -1    0    0    0    0 -0.00000000000E+00 -0.00000000000E+00 -0.45593999997E+02  0.45594000000E+02  0.51100000000E-03 0. -1.
    9900012    2    1    2    0    0 -0.11596059300E+02  0.14351450395E+02  0.32010509121E+01  0.72461562895E+02  0.69999990360E+02 0.  0.
        -12    1    1    2    0    0  0.11596059300E+02 -0.14351450395E+02 -0.32010509121E+01  0.18726437105E+02  0.00000000000E+00 0.  1.
         11    1    3    3    0    0 -0.23965017258E+01  0.67509629783E+01 -0.31462314316E+01  0.78241609224E+01  0.51100000000E-03 0. -1.
        -11    1    3    3    0    0 -0.16820672891E+02  0.29980871751E+02  0.17410499133E+02  0.38534571333E+02  0.51100000000E-03 0.  1.
         12    1    3    3    0    0  0.76211153174E+01 -0.22380384335E+02 -0.11063216789E+02  0.26102830639E+02  0.00000000000E+00 0. -1.
</event>
<event>
 7    1  0.1749439E-013  0.7246155E+02  0.7816164E-02  0.1226708E+00
        -11   -1    0    0    0    0  0.00000000000E+00  0.00000000000E+00  0.45593999997E+02  0.45594000000E+02  0.51100000000E-03 0.  1.
         11   -1    0    0    0    0 -0.00000000000E+00 -0.00000000000E+00 -0.45593999997E+02  0.45594000000E+02  0.51100000000E-03 0. -1.
    9900012    2    1    2    0    0  0.14283628289E+02 -0.10898865744E+02 -0.52794357435E+01  0.72461554706E+02  0.69999979693E+02 0.  0.
        -12    1    1    2    0    0 -0.14283628289E+02  0.10898865744E+02  0.52794357435E+01  0.18726445294E+02  0.00000000000E+00 0.  1.
         11    1    3    3    0    0  0.10311364513E+02  0.22437971533E+01  0.11862033693E+02  0.15876608813E+02  0.51100000000E-03 0. -1.
        -11    1    3    3    0    0  0.44737816314E+01  0.19162475346E+02 -0.13945362685E+02  0.24118215609E+02  0.51100000000E-03 0.  1.
         12    1    3    3    0    0 -0.50151785604E+00 -0.32305138242E+02 -0.31961067510E+01  0.32466730285E+02  0.00000000000E+00 0. -1.
</event>
<event>
 7    1  0.1749439E-013  0.7246176E+02  0.7816164E-02  0.1226708E+00
        -11   -1    0    0    0    0  0.00000000000E+00  0.00000000000E+00  0.45593999997E+02  0.45594000000E+02  0.51100000000E-03 0.  1.
         11   -1    0    0    0    0 -0.00000000000E+00 -0.00000000000E+00 -0.45593999997E+02  0.45594000000E+02  0.51100000000E-03 0. -1.
    9900012    2    1    2    0    0  0.16355153733E+02  0.61750962480E+01 -0.67118627578E+01  0.72461762551E+02  0.70000250450E+02 0.  0.
        -12    1    1    2    0    0 -0.16355153733E+02 -0.61750962480E+01  0.67118627578E+01  0.18726237449E+02  0.00000000000E+00 0.  1.
         11    1    3    3    0    0  0.10515327049E+02  0.13642139335E+01 -0.61159590141E+01  0.12240838923E+02  0.51100000000E-03 0. -1.
        -11    1    3    3    0    0  0.12355342361E+02  0.30211539989E+02  0.59856060144E+01  0.33184621634E+02  0.51100000000E-03 0.  1.
         12    1    3    3    0    0 -0.65155156771E+01 -0.25400657674E+02 -0.65815097582E+01  0.27036301994E+02  0.00000000000E+00 0. -1.
</event>
<event>
 7    1  0.1749439E-013  0.7246156E+02  0.7816164E-02  0.1226708E+00
        -11   -1    0    0    0    0  0.00000000000E+00  0.00000000000E+00  0.45593999997E+02  0.45594000000E+02  0.51100000000E-03 0.  1.
         11   -1    0    0    0    0 -0.00000000000E+00 -0.00000000000E+00 -0.45593999997E+02  0.45594000000E+02  0.51100000000E-03 0. -1.
    9900012    2    1    2    0    0  0.40898529426E+01  0.10353060924E+02 -0.15058782702E+02  0.72461556022E+02  0.69999981408E+02 0.  0.
        -12    1    1    2    0    0 -0.40898529426E+01 -0.10353060924E+02  0.15058782702E+02  0.18726443978E+02  0.00000000000E+00 0.  1.
         11    1    3    3    0    0  0.77084498035E+01  0.59473880100E+01 -0.45033702535E+01  0.10727160221E+02  0.51100000000E-03 0. -1.
        -11    1    3    3    0    0  0.95376059056E+01 -0.90862357250E+01 -0.31149062805E+02  0.33819960378E+02  0.51100000000E-03 0.  1.
        -12    1    3    3    0    0 -0.13156202766E+02  0.13491908639E+02  0.20593650357E+02  0.27914435423E+02  0.00000000000E+00 0.  1.
</event>
<event>
 7    1  0.1749439E-013  0.7246157E+02  0.7816164E-02  0.1226708E+00
        -11   -1    0    0    0    0  0.00000000000E+00  0.00000000000E+00  0.45593999997E+02  0.45594000000E+02  0.51100000000E-03 0.  1.
         11   -1    0    0    0    0 -0.00000000000E+00 -0.00000000000E+00 -0.45593999997E+02  0.45594000000E+02  0.51100000000E-03 0. -1.
    9900012    2    1    2    0    0  0.35919946390E+01  0.17002886020E+02 -0.69770026996E+01  0.72461571479E+02  0.70000001543E+02 0.  0.
        -12    1    1    2    0    0 -0.35919946390E+01 -0.17002886020E+02  0.69770026996E+01  0.18726428521E+02  0.00000000000E+00 0.  1.
         11    1    3    3    0    0  0.22890995606E+02 -0.74052119835E+01 -0.24792177170E+02  0.34546879648E+02  0.51100000000E-03 0. -1.
        -11    1    3    3    0    0 -0.32622928963E+01  0.44115418849E+01 -0.16492624043E+01  0.57292515639E+01  0.51100000000E-03 0.  1.
        -12    1    3    3    0    0 -0.16036708071E+02  0.19996556118E+02  0.19464436874E+02  0.32185440267E+02  0.00000000000E+00 0.  1.
</event>
<event>
 7    1  0.1749439E-013  0.7246157E+02  0.7816164E-02  0.1226708E+00
        -11   -1    0    0    0    0  0.00000000000E+00  0.00000000000E+00  0.45593999997E+02  0.45594000000E+02  0.51100000000E-03 0.  1.
         11   -1    0    0    0    0 -0.00000000000E+00 -0.00000000000E+00 -0.45593999997E+02  0.45594000000E+02  0.51100000000E-03 0. -1.
    9900012    2    1    2    0    0 -0.11574272793E+02 -0.12224392323E+02 -0.82024074150E+01  0.72461573599E+02  0.70000004305E+02 0.  0.
        -12    1    1    2    0    0  0.11574272793E+02  0.12224392323E+02  0.82024074150E+01  0.18726426401E+02  0.00000000000E+00 0.  1.
         11    1    3    3    0    0 -0.68124705156E+01  0.30829136106E+01 -0.19305438891E+02  0.20702996930E+02  0.51100000000E-03 0. -1.
        -11    1    3    3    0    0 -0.18484271799E+02  0.82675790982E+01 -0.39088029053E+01  0.20622800695E+02  0.51100000000E-03 0.  1.
        -12    1    3    3    0    0  0.13722469522E+02 -0.23574885032E+02  0.15011834381E+02  0.31135775975E+02  0.00000000000E+00 0.  1.
</event>
<event>
 7    1  0.1749439E-013  0.7246175E+02  0.7816164E-02  0.1226708E+00
        -11   -1    0    0    0    0  0.00000000000E+00  0.00000000000E+00  0.45593999997E+02  0.45594000000E+02  0.51100000000E-03 0.  1.
         11   -1    0    0    0    0 -0.00000000000E+00 -0.00000000000E+00 -0.45593999997E+02  0.45594000000E+02  0.51100000000E-03 0. -1.
    9900012    2    1    2    0    0  0.79422575710E+01  0.13846424244E+02 -0.97913030302E+01  0.72461747447E+02  0.70000230773E+02 0.  0.
        -12    1    1    2    0    0 -0.79422575710E+01 -0.13846424244E+02  0.97913030302E+01  0.18726252553E+02  0.00000000000E+00 0.  1.
         11    1    3    3    0    0  0.34777614711E+02  0.19362687380E+02 -0.69387321772E+01  0.40404729328E+02  0.51100000000E-03 0. -1.
        -11    1    3    3    0    0 -0.64804274045E+01  0.17214559450E+01  0.57213632362E+01  0.88143829879E+01  0.51100000000E-03 0.  1.
        -12    1    3    3    0    0 -0.20354929736E+02 -0.72377190810E+01 -0.85739340892E+01  0.23242635131E+02  0.00000000000E+00 0.  1.
</event>
<event>
 7    1  0.1749439E-013  0.7246196E+02  0.7816164E-02  0.1226707E+00
        -11   -1    0    0    0    0  0.00000000000E+00  0.00000000000E+00  0.45593999997E+02  0.45594000000E+02  0.51100000000E-03 0. -1.
         11   -1    0    0    0    0 -0.00000000000E+00 -0.00000000000E+00 -0.45593999997E+02  0.45594000000E+02  0.51100000000E-03 0.  1.
    9900012    2    1    2    0    0 -0.82157325684E+01 -0.13796300649E+02  0.96347460737E+01  0.72461961841E+02  0.70000510060E+02 0.  0.
        -12    1    1    2    0    0  0.82157325684E+01  0.13796300649E+02 -0.96347460737E+01  0.18726038159E+02  0.00000000000E+00 0.  1.
         11    1    3    3    0    0  0.41879191521E+01  0.10069818046E+02  0.35999175823E+01  0.11484742451E+02  0.51100000000E-03 0. -1.
        -11    1    3    3    0    0  0.19372055981E+02  0.14813899933E+00 -0.42672984004E+01  0.19837044487E+02  0.51100000000E-03 0.  1.
         12    1    3    3    0    0 -0.31775707702E+02 -0.24014257694E+02  0.10302126892E+02  0.41140174903E+02  0.00000000000E+00 0. -1.
</event>
<event>
 7    1  0.1749439E-013  0.7246159E+02  0.7816164E-02  0.1226708E+00
        -11   -1    0    0    0    0  0.00000000000E+00  0.00000000000E+00  0.45593999997E+02  0.45594000000E+02  0.51100000000E-03 0. -1.
         11   -1    0    0    0    0 -0.00000000000E+00 -0.00000000000E+00 -0.45593999997E+02  0.45594000000E+02  0.51100000000E-03 0.  1.
    9900012    2    1    2    0    0 -0.10840716556E+02 -0.91519922234E+01  0.12222862300E+02  0.72461589241E+02  0.70000024682E+02 0.  0.
        -12    1    1    2    0    0  0.10840716556E+02  0.91519922234E+01 -0.12222862300E+02  0.18726410759E+02  0.00000000000E+00 0.  1.
         11    1    3    3    0    0  0.10152279474E+02  0.14429837258E+02  0.11544287582E+02  0.21084581045E+02  0.51100000000E-03 0. -1.
        -11    1    3    3    0    0 -0.61835891024E+01  0.84449446334E+01 -0.10036204797E+02  0.14501009311E+02  0.51100000000E-03 0.  1.
         12    1    3    3    0    0 -0.14809406927E+02 -0.32026774115E+02  0.10714779515E+02  0.36875998885E+02  0.00000000000E+00 0. -1.
</event>
<event>
 7    1  0.1749439E-013  0.7246156E+02  0.7816164E-02  0.1226708E+00
        -11   -1    0    0    0    0  0.00000000000E+00  0.00000000000E+00  0.45593999997E+02  0.45594000000E+02  0.51100000000E-03 0. -1.
         11   -1    0    0    0    0 -0.00000000000E+00 -0.00000000000E+00 -0.45593999997E+02  0.45594000000E+02  0.51100000000E-03 0.  1.
    9900012    2    1    2    0    0 -0.13356522093E+02  0.76154939468E+01  0.10690507859E+02  0.72461564441E+02  0.69999992375E+02 0.  0.
        -12    1    1    2    0    0  0.13356522093E+02 -0.76154939468E+01 -0.10690507859E+02  0.18726435559E+02  0.00000000000E+00 0.  1.
         11    1    3    3    0    0  0.45107099220E+01  0.15417313065E+01 -0.59390389917E+01  0.76154857907E+01  0.51100000000E-03 0. -1.
        -11    1    3    3    0    0 -0.15521318563E+02  0.19794041490E+02 -0.15697219311E+02  0.29649925848E+02  0.51100000000E-03 0.  1.
         12    1    3    3    0    0 -0.23459134524E+01 -0.13720278850E+02  0.32326766161E+02  0.35196152802E+02  0.00000000000E+00 0. -1.
</event>
<event>
 7    1  0.1749439E-013  0.7246158E+02  0.7816164E-02  0.1226708E+00
        -11   -1    0    0    0    0  0.00000000000E+00  0.00000000000E+00  0.45593999997E+02  0.45594000000E+02  0.51100000000E-03 0.  1.
         11   -1    0    0    0    0 -0.00000000000E+00 -0.00000000000E+00 -0.45593999997E+02  0.45594000000E+02  0.51100000000E-03 0. -1.
    9900012    2    1    2    0    0  0.50070673184E+01  0.40539179373E+01 -0.17583342778E+02  0.72461577036E+02  0.70000008782E+02 0.  0.
        -12    1    1    2    0    0 -0.50070673184E+01 -0.40539179373E+01  0.17583342778E+02  0.18726422964E+02  0.00000000000E+00 0.  1.
         11    1    3    3    0    0 -0.14088088168E+01 -0.20923646647E+01 -0.71261322728E+01  0.75593977011E+01  0.51100000000E-03 0. -1.
        -11    1    3    3    0    0 -0.14202570670E+02 -0.23723533920E+02 -0.64014328690E+01  0.28381286411E+02  0.51100000000E-03 0.  1.
         12    1    3    3    0    0  0.20618446805E+02  0.29869816522E+02 -0.40557776364E+01  0.36520892924E+02  0.00000000000E+00 0. -1.
</event>
<event>
 7    1  0.1749439E-013  0.7246155E+02  0.7816164E-02  0.1226708E+00
        -11   -1    0    0    0    0  0.00000000000E+00  0.00000000000E+00  0.45593999997E+02  0.45594000000E+02  0.51100000000E-03 0. -1.
         11   -1    0    0    0    0 -0.00000000000E+00 -0.00000000000E+00 -0.45593999997E+02  0.45594000000E+02  0.51100000000E-03 0.  1.
    9900012    2    1    2    0    0 -0.10549250611E+02  0.10717107023E+02  0.11159609552E+02  0.72461549275E+02  0.69999972619E+02 0.  0.
        -12    1    1    2    0    0  0.10549250611E+02 -0.10717107023E+02 -0.11159609552E+02  0.18726450725E+02  0.00000000000E+00 0.  1.
         11    1    3    3    0    0  0.14686347115E+02  0.20032612085E+02 -0.16542131964E+01  0.24894392142E+02  0.51100000000E-03 0. -1.
        -11    1    3    3    0    0  0.97229534053E+01 -0.36334379679E+01  0.33569740871E+01  0.10909031564E+02  0.51100000000E-03 0.  1.
         12    1    3    3    0    0 -0.34958551131E+02 -0.56820670948E+01  0.94568486615E+01  0.36658125569E+02  0.00000000000E+00 0. -1.
</event>
<event>
 7    1  0.1749439E-013  0.7246137E+02  0.7816164E-02  0.1226709E+00
        -11   -1    0    0    0    0  0.00000000000E+00  0.00000000000E+00  0.45593999997E+02  0.45594000000E+02  0.51100000000E-03 0. -1.
         11   -1    0    0    0    0 -0.00000000000E+00 -0.00000000000E+00 -0.45593999997E+02  0.45594000000E+02  0.51100000000E-03 0.  1.
    9900012    2    1    2    0    0  0.85426377779E+01  0.15971795109E+02  0.47551912745E+01  0.72461368074E+02  0.69999736570E+02 0.  0.
        -12    1    1    2    0    0 -0.85426377779E+01 -0.15971795109E+02 -0.47551912745E+01  0.18726631926E+02  0.00000000000E+00 0.  1.
         11    1    3    3    0    0  0.14985761793E+01  0.92637383311E+01 -0.99467051233E+01  0.13674776836E+02  0.51100000000E-03 0. -1.
        -11    1    3    3    0    0 -0.61676632781E+01 -0.20758927655E+02  0.17959282929E+02  0.28133769589E+02  0.51100000000E-03 0.  1.
         12    1    3    3    0    0  0.13211724877E+02  0.27466984433E+02 -0.32573865313E+01  0.30652821650E+02  0.00000000000E+00 0. -1.
</event>
<event>
 7    1  0.1749439E-013  0.7246165E+02  0.7816164E-02  0.1226708E+00
        -11   -1    0    0    0    0  0.00000000000E+00  0.00000000000E+00  0.45593999997E+02  0.45594000000E+02  0.51100000000E-03 0. -1.
         11   -1    0    0    0    0 -0.00000000000E+00 -0.00000000000E+00 -0.45593999997E+02  0.45594000000E+02  0.51100000000E-03 0.  1.
    9900012    2    1    2    0    0 -0.57538742395E+01  0.17082014658E+02  0.50768039095E+01  0.72461648741E+02  0.70000102191E+02 0.  0.
        -12    1    1    2    0    0  0.57538742395E+01 -0.17082014658E+02 -0.50768039095E+01  0.18726351259E+02  0.00000000000E+00 0.  1.
         11    1    3    3    0    0  0.39285547609E+00  0.47332298583E+01  0.57477510320E-01  0.47498530758E+01  0.51100000000E-03 0. -1.
        -11    1    3    3    0    0  0.45311027420E+01  0.15236080472E+02 -0.28380057610E+02  0.32528398522E+02  0.51100000000E-03 0.  1.
         12    1    3    3    0    0 -0.10677832458E+02 -0.28872956715E+01  0.33399384009E+02  0.35183397143E+02  0.00000000000E+00 0. -1.
</event>
<event>
 7    1  0.1749439E-013  0.7246155E+02  0.7816164E-02  0.1226708E+00
        -11   -1    0    0    0    0  0.00000000000E+00  0.00000000000E+00  0.45593999997E+02  0.45594000000E+02  0.51100000000E-03 0. -1.
         11   -1    0    0    0    0 -0.00000000000E+00 -0.00000000000E+00 -0.45593999997E+02  0.45594000000E+02  0.51100000000E-03 0.  1.
    9900012    2    1    2    0    0 -0.15102122355E+02 -0.18300597668E+01 -0.10920475252E+02  0.72461548171E+02  0.69999971181E+02 0.  0.
        -12    1    1    2    0    0  0.15102122355E+02  0.18300597668E+01  0.10920475252E+02  0.18726451829E+02  0.00000000000E+00 0.  1.
         11    1    3    3    0    0 -0.83006860081E+01  0.11609823421E+02  0.52886616096E+01  0.15220359061E+02  0.51100000000E-03 0. -1.
        -11    1    3    3    0    0 -0.18122876325E+02  0.92143020885E+01 -0.23318188099E+02  0.30936708062E+02  0.51100000000E-03 0.  1.
         12    1    3    3    0    0  0.11321439979E+02 -0.22654185276E+02  0.71090512373E+01  0.26304481048E+02  0.00000000000E+00 0. -1.
</event>
<event>
 7    1  0.1749439E-013  0.7246158E+02  0.7816164E-02  0.1226708E+00
        -11   -1    0    0    0    0  0.00000000000E+00  0.00000000000E+00  0.45593999997E+02  0.45594000000E+02  0.51100000000E-03 0. -1.
         11   -1    0    0    0    0 -0.00000000000E+00 -0.00000000000E+00 -0.45593999997E+02  0.45594000000E+02  0.51100000000E-03 0.  1.
    9900012    2    1    2    0    0  0.82545079551E+01 -0.67808182741E+01  0.15380590075E+02  0.72461576179E+02  0.70000007666E+02 0.  0.
        -12    1    1    2    0    0 -0.82545079551E+01  0.67808182741E+01 -0.15380590075E+02  0.18726423821E+02  0.00000000000E+00 0.  1.
         11    1    3    3    0    0 -0.12723347973E+02 -0.23974414459E+02  0.13739597302E+02  0.30420924815E+02  0.51100000000E-03 0. -1.
        -11    1    3    3    0    0 -0.48450166807E+01 -0.91034305603E+00  0.84446011545E+01  0.97782513792E+01  0.51100000000E-03 0.  1.
        -12    1    3    3    0    0  0.25822872609E+02  0.18103939241E+02 -0.68036083811E+01  0.32262399985E+02  0.00000000000E+00 0.  1.
</event>
<event>
 7    1  0.1749439E-013  0.7246152E+02  0.7816164E-02  0.1226708E+00
        -11   -1    0    0    0    0  0.00000000000E+00  0.00000000000E+00  0.45593999997E+02  0.45594000000E+02  0.51100000000E-03 0.  1.
         11   -1    0    0    0    0 -0.00000000000E+00 -0.00000000000E+00 -0.45593999997E+02  0.45594000000E+02  0.51100000000E-03 0. -1.
    9900012    2    1    2    0    0  0.92135230762E+01 -0.82565858620E+01 -0.14057762752E+02  0.72461523792E+02  0.69999939422E+02 0.  0.
        -12    1    1    2    0    0 -0.92135230762E+01  0.82565858620E+01  0.14057762752E+02  0.18726476208E+02  0.00000000000E+00 0.  1.
         11    1    3    3    0    0  0.13379442393E+02 -0.21702583745E+02  0.25958810300E+01  0.25627138322E+02  0.51100000000E-03 0. -1.
        -11    1    3    3    0    0  0.87251316056E+01 -0.57452118927E+01  0.79090401374E+01  0.13102988109E+02  0.51100000000E-03 0.  1.
         12    1    3    3    0    0 -0.12891050923E+02  0.19191209776E+02 -0.24562683920E+02  0.33731397361E+02  0.00000000000E+00 0. -1.
</event>
<event>
 7    1  0.1749439E-013  0.7246162E+02  0.7816164E-02  0.1226708E+00
        -11   -1    0    0    0    0  0.00000000000E+00  0.00000000000E+00  0.45593999997E+02  0.45594000000E+02  0.51100000000E-03 0.  1.
         11   -1    0    0    0    0 -0.00000000000E+00 -0.00000000000E+00 -0.45593999997E+02  0.45594000000E+02  0.51100000000E-03 0. -1.
    9900012    2    1    2    0    0 -0.63863663348E+01 -0.17558270775E+02  0.12644174568E+01  0.72461620236E+02  0.70000065058E+02 0.  0.
        -12    1    1    2    0    0  0.63863663348E+01  0.17558270775E+02 -0.12644174568E+01  0.18726379764E+02  0.00000000000E+00 0.  1.
         11    1    3    3    0    0 -0.30307154886E+02 -0.86185944641E+01 -0.39857877333E+00  0.31511310241E+02  0.51100000000E-03 0. -1.
        -11    1    3    3    0    0 -0.57315646291E+01 -0.84542018584E+01  0.44945910396E+01  0.11159108882E+02  0.51100000000E-03 0.  1.
        -12    1    3    3    0    0  0.29652353181E+02 -0.48547445210E+00 -0.28315948094E+01  0.29791201113E+02  0.00000000000E+00 0.  1.
</event>
<event>
 7    1  0.1749439E-013  0.7246156E+02  0.7816164E-02  0.1226708E+00
        -11   -1    0    0    0    0  0.00000000000E+00  0.00000000000E+00  0.45593999997E+02  0.45594000000E+02  0.51100000000E-03 0.  1.
         11   -1    0    0    0    0 -0.00000000000E+00 -0.00000000000E+00 -0.45593999997E+02  0.45594000000E+02  0.51100000000E-03 0. -1.
    9900012    2    1    2    0    0 -0.72406654844E+01  0.11215910699E+02 -0.13132242563E+02  0.72461556552E+02  0.69999982099E+02 0.  0.
        -12    1    1    2    0    0  0.72406654844E+01 -0.11215910699E+02  0.13132242563E+02  0.18726443448E+02  0.00000000000E+00 0.  1.
         11    1    3    3    0    0  0.19532368332E+02  0.28033214377E+02 -0.71231142080E+01  0.34901479585E+02  0.51100000000E-03 0. -1.
        -11    1    3    3    0    0  0.18958117813E+01  0.72938746345E+00 -0.32527610257E+01  0.38349136800E+01  0.51100000000E-03 0.  1.
        -12    1    3    3    0    0 -0.28668845597E+02 -0.17546691141E+02 -0.27563673292E+01  0.33725163287E+02  0.00000000000E+00 0.  1.
</event>
<event>
 7    1  0.1749439E-013  0.7246155E+02  0.7816164E-02  0.1226708E+00
        -11   -1    0    0    0    0  0.00000000000E+00  0.00000000000E+00  0.45593999997E+02  0.45594000000E+02  0.51100000000E-03 0.  1.
         11   -1    0    0    0    0 -0.00000000000E+00 -0.00000000000E+00 -0.45593999997E+02  0.45594000000E+02  0.51100000000E-03 0. -1.
    9900012    2    1    2    0    0 -0.12987115403E+02 -0.85203685554E+01  0.10460303790E+02  0.72461553402E+02  0.69999977994E+02 0.  0.
        -12    1    1    2    0    0  0.12987115403E+02  0.85203685554E+01 -0.10460303790E+02  0.18726446598E+02  0.00000000000E+00 0.  1.
         11    1    3    3    0    0 -0.95268373186E+01  0.25995967392E+01  0.94512593390E+01  0.13669119791E+02  0.51100000000E-03 0. -1.
        -11    1    3    3    0    0  0.12339555572E+02 -0.26834321277E+02  0.14332331720E+02  0.32829272957E+02  0.51100000000E-03 0.  1.
         12    1    3    3    0    0 -0.15799833656E+02  0.15714355982E+02 -0.13323287269E+02  0.25963160654E+02  0.00000000000E+00 0. -1.
</event>
<event>
 7    1  0.1749439E-013  0.7246161E+02  0.7816164E-02  0.1226708E+00
        -11   -1    0    0    0    0  0.00000000000E+00  0.00000000000E+00  0.45593999997E+02  0.45594000000E+02  0.51100000000E-03 0. -1.
         11   -1    0    0    0    0 -0.00000000000E+00 -0.00000000000E+00 -0.45593999997E+02  0.45594000000E+02  0.51100000000E-03 0.  1.
    9900012    2    1    2    0    0  0.18650589139E+02 -0.17785955583E+00 -0.16738167710E+01  0.72461607612E+02  0.70000048614E+02 0.  0.
        -12    1    1    2    0    0 -0.18650589139E+02  0.17785955583E+00  0.16738167710E+01  0.18726392388E+02  0.00000000000E+00 0.  1.
         11    1    3    3    0    0 -0.23544189308E+02 -0.46372487198E+01 -0.79857087189E+01  0.25290402723E+02  0.51100000000E-03 0. -1.
        -11    1    3    3    0    0  0.70406774759E+01  0.86690160784E+01  0.32632702393E+01  0.11634943575E+02  0.51100000000E-03 0.  1.
        -12    1    3    3    0    0  0.35154100972E+02 -0.42096269144E+01  0.30486217086E+01  0.35536261314E+02  0.00000000000E+00 0.  1.
</event>
<event>
 7    1  0.1749439E-013  0.7246164E+02  0.7816164E-02  0.1226708E+00
        -11   -1    0    0    0    0  0.00000000000E+00  0.00000000000E+00  0.45593999997E+02  0.45594000000E+02  0.51100000000E-03 0.  1.
         11   -1    0    0    0    0 -0.00000000000E+00 -0.00000000000E+00 -0.45593999997E+02  0.45594000000E+02  0.51100000000E-03 0. -1.
    9900012    2    1    2    0    0 -0.92778576675E+01  0.16110900847E+02 -0.22443121003E+01  0.72461636077E+02  0.70000085693E+02 0.  0.
        -12    1    1    2    0    0  0.92778576675E+01 -0.16110900847E+02  0.22443121003E+01  0.18726363923E+02  0.00000000000E+00 0.  1.
         11    1    3    3    0    0 -0.48350145526E+01  0.43495112224E+01 -0.23101064326E+02  0.23999058041E+02  0.51100000000E-03 0. -1.
        -11    1    3    3    0    0 -0.77434513375E+01  0.18732355427E+02 -0.54982075432E+01  0.21002201430E+02  0.51100000000E-03 0.  1.
        -12    1    3    3    0    0  0.33006082227E+01 -0.69709658028E+01  0.26354959769E+02  0.27460376605E+02  0.00000000000E+00 0.  1.
</event>
<event>
 7    1  0.1749439E-013  0.7246162E+02  0.7816164E-02  0.1226708E+00
        -11   -1    0    0    0    0  0.00000000000E+00  0.00000000000E+00  0.45593999997E+02  0.45594000000E+02  0.51100000000E-03 0.  1.
         11   -1    0    0    0    0 -0.00000000000E+00 -0.00000000000E+00 -0.45593999997E+02  0.45594000000E+02  0.51100000000E-03 0. -1.
    9900012    2    1    2    0    0 -0.89047754165E+00  0.31474487638E+01 -0.18438487879E+02  0.72461622367E+02  0.70000067834E+02 0.  0.
        -12    1    1    2    0    0  0.89047754165E+00 -0.31474487638E+01  0.18438487879E+02  0.18726377633E+02  0.00000000000E+00 0.  1.
         11    1    3    3    0    0  0.50281286444E+01 -0.20873056100E+01 -0.34451032964E+02  0.34878540607E+02  0.51100000000E-03 0. -1.
        -11    1    3    3    0    0  0.11975031620E+02  0.97764277644E+01  0.60075786473E+01  0.16585262241E+02  0.51100000000E-03 0.  1.
        -12    1    3    3    0    0 -0.17893637806E+02 -0.45416733906E+01  0.10004966437E+02  0.20997819519E+02  0.00000000000E+00 0.  1.
</event>
<event>
 7    1  0.1749439E-013  0.7246156E+02  0.7816164E-02  0.1226708E+00
        -11   -1    0    0    0    0  0.00000000000E+00  0.00000000000E+00  0.45593999997E+02  0.45594000000E+02  0.51100000000E-03 0. -1.
         11   -1    0    0    0    0 -0.00000000000E+00 -0.00000000000E+00 -0.45593999997E+02  0.45594000000E+02  0.51100000000E-03 0.  1.
    9900012    2    1    2    0    0  0.15195665504E+02  0.37785388359E+01  0.10271026779E+02  0.72461558882E+02  0.69999985134E+02 0.  0.
        -12    1    1    2    0    0 -0.15195665504E+02 -0.37785388359E+01 -0.10271026779E+02  0.18726441118E+02  0.00000000000E+00 0.  1.
         11    1    3    3    0    0  0.12774955960E+02  0.14573168772E+02 -0.97617877626E+00  0.19404372525E+02  0.51100000000E-03 0. -1.
        -11    1    3    3    0    0  0.23110152750E+01  0.15755377035E+02 -0.10213646273E+02  0.18918014367E+02  0.51100000000E-03 0.  1.
         12    1    3    3    0    0  0.10969426847E+00 -0.26550006971E+02  0.21460851828E+02  0.34139171990E+02  0.00000000000E+00 0. -1.
</event>
<event>
 7    1  0.1749439E-013  0.7246158E+02  0.7816164E-02  0.1226708E+00
        -11   -1    0    0    0    0  0.00000000000E+00  0.00000000000E+00  0.45593999997E+02  0.45594000000E+02  0.51100000000E-03 0.  1.
         11   -1    0    0    0    0 -0.00000000000E+00 -0.00000000000E+00 -0.45593999997E+02  0.45594000000E+02  0.51100000000E-03 0. -1.
    9900012    2    1    2    0    0 -0.15313355210E+02 -0.94634919672E+01 -0.51596917250E+01  0.72461576244E+02  0.70000007750E+02 0.  0.
        -12    1    1    2    0    0  0.15313355210E+02  0.94634919672E+01  0.51596917250E+01  0.18726423756E+02  0.00000000000E+00 0.  1.
         11    1    3    3    0    0 -0.19044489816E+02 -0.22756288451E+02 -0.13504172595E+02  0.32602207504E+02  0.51100000000E-03 0. -1.
        -11    1    3    3    0    0 -0.83320677437E+01  0.45955034465E+01  0.19212598178E+02  0.21439821217E+02  0.51100000000E-03 0.  1.
        -12    1    3    3    0    0  0.12063202350E+02  0.86972930370E+01 -0.10868117308E+02  0.18419547523E+02  0.00000000000E+00 0.  1.
</event>
<event>
 7    1  0.1749439E-013  0.7246155E+02  0.7816164E-02  0.1226708E+00
        -11   -1    0    0    0    0  0.00000000000E+00  0.00000000000E+00  0.45593999997E+02  0.45594000000E+02  0.51100000000E-03 0.  1.
         11   -1    0    0    0    0 -0.00000000000E+00 -0.00000000000E+00 -0.45593999997E+02  0.45594000000E+02  0.51100000000E-03 0. -1.
    9900012    2    1    2    0    0  0.17768968808E+02  0.14874698528E+01 -0.57211157229E+01  0.72461548543E+02  0.69999971665E+02 0.  0.
        -12    1    1    2    0    0 -0.17768968808E+02 -0.14874698528E+01  0.57211157229E+01  0.18726451457E+02  0.00000000000E+00 0.  1.
         11    1    3    3    0    0  0.11060541166E+02 -0.84077919101E+01 -0.13735842592E+01  0.13961134254E+02  0.51100000000E-03 0. -1.
        -11    1    3    3    0    0  0.86673771103E+01 -0.22525273401E+02  0.51131414445E+01  0.24670946140E+02  0.51100000000E-03 0.  1.
         12    1    3    3    0    0 -0.19589494683E+01  0.32420535164E+02 -0.94606729083E+01  0.33829468148E+02  0.00000000000E+00 0. -1.
</event>
<event>
 7    1  0.1749439E-013  0.7246131E+02  0.7816164E-02  0.1226709E+00
        -11   -1    0    0    0    0  0.00000000000E+00  0.00000000000E+00  0.45593999997E+02  0.45594000000E+02  0.51100000000E-03 0.  1.
         11   -1    0    0    0    0 -0.00000000000E+00 -0.00000000000E+00 -0.45593999997E+02  0.45594000000E+02  0.51100000000E-03 0. -1.
    9900012    2    1    2    0    0 -0.15491274826E+02 -0.50358405284E+01 -0.92384887954E+01  0.72461308867E+02  0.69999659442E+02 0.  0.
        -12    1    1    2    0    0  0.15491274826E+02  0.50358405284E+01  0.92384887954E+01  0.18726691133E+02  0.00000000000E+00 0.  1.
         11    1    3    3    0    0 -0.88778944742E+01 -0.30623365358E+01  0.30627776798E+01  0.98780323309E+01  0.51100000000E-03 0. -1.
        -11    1    3    3    0    0 -0.21789913109E+01  0.13227157879E+02  0.21454482885E+02  0.25298232049E+02  0.51100000000E-03 0.  1.
         12    1    3    3    0    0 -0.44343890410E+01 -0.15200661871E+02 -0.33755749361E+02  0.37285044487E+02  0.00000000000E+00 0. -1.
</event>
<event>
 7    1  0.1749439E-013  0.7246159E+02  0.7816164E-02  0.1226708E+00
        -11   -1    0    0    0    0  0.00000000000E+00  0.00000000000E+00  0.45593999997E+02  0.45594000000E+02  0.51100000000E-03 0. -1.
         11   -1    0    0    0    0 -0.00000000000E+00 -0.00000000000E+00 -0.45593999997E+02  0.45594000000E+02  0.51100000000E-03 0.  1.
    9900012    2    1    2    0    0  0.38291995343E+01  0.86752336967E+01  0.16147938849E+02  0.72461591433E+02  0.70000027537E+02 0.  0.
        -12    1    1    2    0    0 -0.38291995343E+01 -0.86752336967E+01 -0.16147938849E+02  0.18726408567E+02  0.00000000000E+00 0.  1.
         11    1    3    3    0    0  0.15205646640E+02 -0.80605178320E+01  0.97975125146E+01  0.19803406000E+02  0.51100000000E-03 0.  1.
        -11    1    3    3    0    0  0.50489859330E+01  0.11689296284E+01  0.23626003318E+02  0.24187738391E+02  0.51100000000E-03 0. -1.
        -12    1    3    3    0    0 -0.16425433039E+02  0.15566821900E+02 -0.17275576984E+02  0.28470447041E+02  0.00000000000E+00 0.  1.
</event>
<event>
 7    1  0.1749439E-013  0.7246146E+02  0.7816164E-02  0.1226708E+00
        -11   -1    0    0    0    0  0.00000000000E+00  0.00000000000E+00  0.45593999997E+02  0.45594000000E+02  0.51100000000E-03 0. -1.
         11   -1    0    0    0    0 -0.00000000000E+00 -0.00000000000E+00 -0.45593999997E+02  0.45594000000E+02  0.51100000000E-03 0.  1.
    9900012    2    1    2    0    0  0.35828254835E+01  0.11464856187E+02 -0.14366759467E+02  0.72461458851E+02  0.69999854824E+02 0.  0.
        -12    1    1    2    0    0 -0.35828254835E+01 -0.11464856187E+02  0.14366759467E+02  0.18726541149E+02  0.00000000000E+00 0.  1.
         11    1    3    3    0    0  0.18970083995E+02  0.55154422907E+01  0.12948956236E+02  0.23621169707E+02  0.51100000000E-03 0. -1.
        -11    1    3    3    0    0  0.12184016475E+02  0.17010632709E+01 -0.57492283361E+01  0.13579304122E+02  0.51100000000E-03 0.  1.
        -12    1    3    3    0    0 -0.27571274987E+02  0.42483506252E+01 -0.21566487366E+02  0.35260985022E+02  0.00000000000E+00 0.  1.
</event>
<event>
 7    1  0.1749439E-013  0.7246154E+02  0.7816164E-02  0.1226708E+00
        -11   -1    0    0    0    0  0.00000000000E+00  0.00000000000E+00  0.45593999997E+02  0.45594000000E+02  0.51100000000E-03 0.  1.
         11   -1    0    0    0    0 -0.00000000000E+00 -0.00000000000E+00 -0.45593999997E+02  0.45594000000E+02  0.51100000000E-03 0. -1.
    9900012    2    1    2    0    0  0.15228196817E+02  0.84909363118E+01  0.68327387193E+01  0.72461540213E+02  0.69999960814E+02 0.  0.
        -12    1    1    2    0    0 -0.15228196817E+02 -0.84909363118E+01 -0.68327387193E+01  0.18726459787E+02  0.00000000000E+00 0.  1.
         11    1    3    3    0    0  0.35285880481E+02 -0.98182561178E+00 -0.38581697722E+01  0.35509756647E+02  0.51100000000E-03 0. -1.
        -11    1    3    3    0    0  0.30050779117E-01 -0.84104074529E+01  0.15934031253E+01  0.85600695298E+01  0.51100000000E-03 0.  1.
        -12    1    3    3    0    0 -0.20087734444E+02  0.17883169376E+02  0.90975053662E+01  0.28391714037E+02  0.00000000000E+00 0.  1.
</event>
<event>
 7    1  0.1749439E-013  0.7246149E+02  0.7816164E-02  0.1226708E+00
        -11   -1    0    0    0    0  0.00000000000E+00  0.00000000000E+00  0.45593999997E+02  0.45594000000E+02  0.51100000000E-03 0.  1.
         11   -1    0    0    0    0 -0.00000000000E+00 -0.00000000000E+00 -0.45593999997E+02  0.45594000000E+02  0.51100000000E-03 0. -1.
    9900012    2    1    2    0    0  0.12107701622E+02 -0.84234480345E+01 -0.11538252372E+02  0.72461489830E+02  0.69999895180E+02 0.  0.
        -12    1    1    2    0    0 -0.12107701622E+02  0.84234480345E+01  0.11538252372E+02  0.18726510170E+02  0.00000000000E+00 0.  1.
         11    1    3    3    0    0  0.30507149377E+00 -0.28766824022E+02 -0.78793902182E+01  0.29827973840E+02  0.51100000000E-03 0. -1.
        -11    1    3    3    0    0  0.17516808275E+01 -0.69255821162E+01  0.85234383047E+01  0.11121199313E+02  0.51100000000E-03 0.  1.
        -12    1    3    3    0    0  0.10050949301E+02  0.27268958103E+02 -0.12182300458E+02  0.31512316677E+02  0.00000000000E+00 0.  1.
</event>
<event>
 7    1  0.1749439E-013  0.7246163E+02  0.7816164E-02  0.1226708E+00
        -11   -1    0    0    0    0  0.00000000000E+00  0.00000000000E+00  0.45593999997E+02  0.45594000000E+02  0.51100000000E-03 0.  1.
         11   -1    0    0    0    0 -0.00000000000E+00 -0.00000000000E+00 -0.45593999997E+02  0.45594000000E+02  0.51100000000E-03 0. -1.
    9900012    2    1    2    0    0 -0.65678782441E+00  0.18693118222E+02  0.90158419130E+00  0.72461631073E+02  0.70000079176E+02 0.  0.
        -12    1    1    2    0    0  0.65678782441E+00 -0.18693118222E+02 -0.90158419130E+00  0.18726368927E+02  0.00000000000E+00 0.  1.
         11    1    3    3    0    0  0.25726739525E+02  0.39624417385E+01  0.38316462745E+01  0.26310598332E+02  0.51100000000E-03 0. -1.
        -11    1    3    3    0    0 -0.77151768618E+01 -0.42608378833E+01  0.12559489613E+02  0.15343385320E+02  0.51100000000E-03 0.  1.
         12    1    3    3    0    0 -0.18668350488E+02  0.18991514367E+02 -0.15489551696E+02  0.30807647422E+02  0.00000000000E+00 0. -1.
</event>
<event>
 7    1  0.1749439E-013  0.7246168E+02  0.7816164E-02  0.1226708E+00
        -11   -1    0    0    0    0  0.00000000000E+00  0.00000000000E+00  0.45593999997E+02  0.45594000000E+02  0.51100000000E-03 0. -1.
         11   -1    0    0    0    0 -0.00000000000E+00 -0.00000000000E+00 -0.45593999997E+02  0.45594000000E+02  0.51100000000E-03 0.  1.
    9900012    2    1    2    0    0  0.24959151371E+00  0.85602757930E+01  0.16653360253E+02  0.72461680946E+02  0.70000144145E+02 0.  0.
        -12    1    1    2    0    0 -0.24959151371E+00 -0.85602757930E+01 -0.16653360253E+02  0.18726319054E+02  0.00000000000E+00 0.  1.
         11    1    3    3    0    0 -0.89223036050E+01  0.95239834206E+01  0.28698144024E+01  0.13362245200E+02  0.51100000000E-03 0.  1.
        -11    1    3    3    0    0 -0.84988303809E+01  0.21601597089E+02  0.18963070505E+02  0.29974274935E+02  0.51100000000E-03 0. -1.
         12    1    3    3    0    0  0.17670725500E+02 -0.22565304717E+02 -0.51795246545E+01  0.29125160811E+02  0.00000000000E+00 0. -1.
</event>
<event>
 7    1  0.1749439E-013  0.7246158E+02  0.7816164E-02  0.1226708E+00
        -11   -1    0    0    0    0  0.00000000000E+00  0.00000000000E+00  0.45593999997E+02  0.45594000000E+02  0.51100000000E-03 0.  1.
         11   -1    0    0    0    0 -0.00000000000E+00 -0.00000000000E+00 -0.45593999997E+02  0.45594000000E+02  0.51100000000E-03 0. -1.
    9900012    2    1    2    0    0  0.61887190105E+01  0.17634905938E+02 -0.11783532146E+01  0.72461583719E+02  0.70000017488E+02 0.  0.
        -12    1    1    2    0    0 -0.61887190105E+01 -0.17634905938E+02  0.11783532146E+01  0.18726416281E+02  0.00000000000E+00 0.  1.
         11    1    3    3    0    0  0.21743047358E+02  0.22275281714E+02  0.91778281779E+00  0.31141461261E+02  0.51100000000E-03 0. -1.
        -11    1    3    3    0    0  0.54351283004E+01 -0.87856216966E-01 -0.15212307850E+02  0.16154338388E+02  0.51100000000E-03 0.  1.
        -12    1    3    3    0    0 -0.20989456648E+02 -0.45525195591E+01  0.13116171818E+02  0.25165784070E+02  0.00000000000E+00 0.  1.
</event>
<event>
 7    1  0.1749439E-013  0.7246168E+02  0.7816164E-02  0.1226708E+00
        -11   -1    0    0    0    0  0.00000000000E+00  0.00000000000E+00  0.45593999997E+02  0.45594000000E+02  0.51100000000E-03 0.  1.
         11   -1    0    0    0    0 -0.00000000000E+00 -0.00000000000E+00 -0.45593999997E+02  0.45594000000E+02  0.51100000000E-03 0. -1.
    9900012    2    1    2    0    0 -0.12396697552E+02 -0.41101503368E+01 -0.13420274803E+02  0.72461675700E+02  0.70000137311E+02 0.  0.
        -12    1    1    2    0    0  0.12396697552E+02  0.41101503368E+01  0.13420274803E+02  0.18726324300E+02  0.00000000000E+00 0.  1.
         11    1    3    3    0    0 -0.10884596240E+02 -0.77154717885E+01 -0.25528480331E+02  0.28804621999E+02  0.51100000000E-03 0. -1.
        -11    1    3    3    0    0  0.68776929930E+01 -0.17337684757E+02  0.14589033541E+01  0.18708991766E+02  0.51100000000E-03 0.  1.
        -12    1    3    3    0    0 -0.83897943048E+01  0.20943006209E+02  0.10649302174E+02  0.24948061935E+02  0.00000000000E+00 0.  1.
</event>
<event>
 7    1  0.1749439E-013  0.7246166E+02  0.7816164E-02  0.1226708E+00
        -11   -1    0    0    0    0  0.00000000000E+00  0.00000000000E+00  0.45593999997E+02  0.45594000000E+02  0.51100000000E-03 0.  1.
         11   -1    0    0    0    0 -0.00000000000E+00 -0.00000000000E+00 -0.45593999997E+02  0.45594000000E+02  0.51100000000E-03 0. -1.
    9900012    2    1    2    0    0 -0.11561144356E+02  0.11955891591E+02 -0.86065317657E+01  0.72461660486E+02  0.70000117491E+02 0.  0.
        -12    1    1    2    0    0  0.11561144356E+02 -0.11955891591E+02  0.86065317657E+01  0.18726339514E+02  0.00000000000E+00 0.  1.
         11    1    3    3    0    0  0.77552092762E+01  0.16665238747E+02 -0.25350196498E+02  0.31313031091E+02  0.51100000000E-03 0. -1.
        -11    1    3    3    0    0 -0.72576033782E+01 -0.40867647838E+01 -0.92741947353E+01  0.12465357654E+02  0.51100000000E-03 0.  1.
        -12    1    3    3    0    0 -0.12058750254E+02 -0.62258237155E+00  0.26017859467E+02  0.28683271741E+02  0.00000000000E+00 0.  1.
</event>
<event>
 7    1  0.1749439E-013  0.7246155E+02  0.7816164E-02  0.1226708E+00
        -11   -1    0    0    0    0  0.00000000000E+00  0.00000000000E+00  0.45593999997E+02  0.45594000000E+02  0.51100000000E-03 0. -1.
         11   -1    0    0    0    0 -0.00000000000E+00 -0.00000000000E+00 -0.45593999997E+02  0.45594000000E+02  0.51100000000E-03 0.  1.
    9900012    2    1    2    0    0  0.14070967884E+02  0.74196003773E+01  0.98811526506E+01  0.72461553870E+02  0.69999978604E+02 0.  0.
        -12    1    1    2    0    0 -0.14070967884E+02 -0.74196003773E+01 -0.98811526506E+01  0.18726446130E+02  0.00000000000E+00 0.  1.
         11    1    3    3    0    0 -0.19238704280E+02  0.14816996701E+02  0.93524349297E+01  0.26021897951E+02  0.51100000000E-03 0. -1.
        -11    1    3    3    0    0 -0.88326455759E+00 -0.54451603214E+01 -0.92961723767E+01  0.10809659954E+02  0.51100000000E-03 0.  1.
        -12    1    3    3    0    0  0.34192936721E+02 -0.19522360021E+01  0.98248900975E+01  0.35629995965E+02  0.00000000000E+00 0.  1.
</event>
<event>
 7    1  0.1749439E-013  0.7246157E+02  0.7816164E-02  0.1226708E+00
        -11   -1    0    0    0    0  0.00000000000E+00  0.00000000000E+00  0.45593999997E+02  0.45594000000E+02  0.51100000000E-03 0.  1.
         11   -1    0    0    0    0 -0.00000000000E+00 -0.00000000000E+00 -0.45593999997E+02  0.45594000000E+02  0.51100000000E-03 0. -1.
    9900012    2    1    2    0    0 -0.12509098711E+02  0.94137584902E+01 -0.10275353048E+02  0.72461567352E+02  0.69999996167E+02 0.  0.
        -12    1    1    2    0    0  0.12509098711E+02 -0.94137584902E+01  0.10275353048E+02  0.18726432648E+02  0.00000000000E+00 0.  1.
         11    1    3    3    0    0 -0.15201264958E+02  0.52590133872E+01  0.94110766566E+01  0.18636095144E+02  0.51100000000E-03 0. -1.
        -11    1    3    3    0    0  0.15361520282E+02 -0.27427102352E+01  0.11553396058E+02  0.19415965738E+02  0.51100000000E-03 0.  1.
         12    1    3    3    0    0 -0.12669354035E+02  0.68974553382E+01 -0.31239825762E+02  0.34409506469E+02  0.00000000000E+00 0. -1.
</event>
<event>
 7    1  0.1749439E-013  0.7246175E+02  0.7816164E-02  0.1226708E+00
        -11   -1    0    0    0    0  0.00000000000E+00  0.00000000000E+00  0.45593999997E+02  0.45594000000E+02  0.51100000000E-03 0. -1.
         11   -1    0    0    0    0 -0.00000000000E+00 -0.00000000000E+00 -0.45593999997E+02  0.45594000000E+02  0.51100000000E-03 0.  1.
    9900012    2    1    2    0    0 -0.14873660598E+02 -0.11220861130E+02  0.18812262212E+01  0.72461747941E+02  0.70000231417E+02 0.  0.
        -12    1    1    2    0    0  0.14873660598E+02  0.11220861130E+02 -0.18812262212E+01  0.18726252059E+02  0.00000000000E+00 0.  1.
         11    1    3    3    0    0  0.74616479693E+01 -0.14422382762E+02 -0.58142707717E+01  0.17247813189E+02  0.51100000000E-03 0. -1.
        -11    1    3    3    0    0 -0.14898224487E+02 -0.12985877552E+02 -0.16098526265E+02  0.25490246307E+02  0.51100000000E-03 0.  1.
        -12    1    3    3    0    0 -0.74370840804E+01  0.16187399183E+02  0.23794023258E+02  0.29723688444E+02  0.00000000000E+00 0.  1.
</event>
<event>
 7    1  0.1749439E-013  0.7246161E+02  0.7816164E-02  0.1226708E+00
        -11   -1    0    0    0    0  0.00000000000E+00  0.00000000000E+00  0.45593999997E+02  0.45594000000E+02  0.51100000000E-03 0. -1.
         11   -1    0    0    0    0 -0.00000000000E+00 -0.00000000000E+00 -0.45593999997E+02  0.45594000000E+02  0.51100000000E-03 0.  1.
    9900012    2    1    2    0    0  0.73961966856E+01 -0.13109762174E+02  0.11140373197E+02  0.72461614747E+02  0.70000057907E+02 0.  0.
        -12    1    1    2    0    0 -0.73961966856E+01  0.13109762174E+02 -0.11140373197E+02  0.18726385253E+02  0.00000000000E+00 0.  1.
         11    1    3    3    0    0  0.10014450982E+02 -0.17519938910E+02  0.12180827809E+02  0.23571382103E+02  0.51100000000E-03 0. -1.
        -11    1    3    3    0    0 -0.17825463582E+02 -0.15328500272E+02 -0.38207911964E+01  0.23818239190E+02  0.51100000000E-03 0.  1.
         12    1    3    3    0    0  0.15207209285E+02  0.19738677007E+02  0.27803365845E+01  0.25071993454E+02  0.00000000000E+00 0. -1.
</event>
<event>
 7    1  0.1749439E-013  0.7246155E+02  0.7816164E-02  0.1226708E+00
        -11   -1    0    0    0    0  0.00000000000E+00  0.00000000000E+00  0.45593999997E+02  0.45594000000E+02  0.51100000000E-03 0.  1.
         11   -1    0    0    0    0 -0.00000000000E+00 -0.00000000000E+00 -0.45593999997E+02  0.45594000000E+02  0.51100000000E-03 0. -1.
    9900012    2    1    2    0    0 -0.13997627971E+01 -0.16722574528E+02 -0.83112026457E+01  0.72461550146E+02  0.69999973753E+02 0.  0.
        -12    1    1    2    0    0  0.13997627971E+01  0.16722574528E+02  0.83112026457E+01  0.18726449854E+02  0.00000000000E+00 0.  1.
         11    1    3    3    0    0 -0.11201209295E+02  0.22193389939E+02 -0.67758142161E+00  0.24869112640E+02  0.51100000000E-03 0.  1.
        -11    1    3    3    0    0  0.72011869918E+01 -0.76643739975E+01 -0.11970934198E+02  0.15934333644E+02  0.51100000000E-03 0. -1.
        -12    1    3    3    0    0  0.26002595061E+01 -0.31251590469E+02  0.43373129734E+01  0.31658103862E+02  0.00000000000E+00 0.  1.
</event>
<event>
 7    1  0.1749439E-013  0.7246166E+02  0.7816164E-02  0.1226708E+00
        -11   -1    0    0    0    0  0.00000000000E+00  0.00000000000E+00  0.45593999997E+02  0.45594000000E+02  0.51100000000E-03 0.  1.
         11   -1    0    0    0    0 -0.00000000000E+00 -0.00000000000E+00 -0.45593999997E+02  0.45594000000E+02  0.51100000000E-03 0. -1.
    9900012    2    1    2    0    0 -0.12800739676E+02  0.70598006438E+01 -0.11703683005E+02  0.72461657130E+02  0.70000113120E+02 0.  0.
        -12    1    1    2    0    0  0.12800739676E+02 -0.70598006438E+01  0.11703683005E+02  0.18726342870E+02  0.00000000000E+00 0.  1.
         11    1    3    3    0    0 -0.78014934121E+00  0.10511072841E+02 -0.29403724191E+00  0.10544085708E+02  0.51100000000E-03 0. -1.
        -11    1    3    3    0    0  0.12832776685E+01 -0.92512556510E+01  0.22863819778E+02  0.24697910595E+02  0.51100000000E-03 0.  1.
         12    1    3    3    0    0 -0.13303868004E+02  0.57999834542E+01 -0.34273465541E+02  0.37219660827E+02  0.00000000000E+00 0. -1.
</event>
<event>
 7    1  0.1749439E-013  0.7246157E+02  0.7816164E-02  0.1226708E+00
        -11   -1    0    0    0    0  0.00000000000E+00  0.00000000000E+00  0.45593999997E+02  0.45594000000E+02  0.51100000000E-03 0.  1.
         11   -1    0    0    0    0 -0.00000000000E+00 -0.00000000000E+00 -0.45593999997E+02  0.45594000000E+02  0.51100000000E-03 0. -1.
    9900012    2    1    2    0    0  0.23890023054E+01  0.17249657905E+02  0.68863036961E+01  0.72461569255E+02  0.69999998646E+02 0.  0.
        -12    1    1    2    0    0 -0.23890023054E+01 -0.17249657905E+02 -0.68863036961E+01  0.18726430745E+02  0.00000000000E+00 0.  1.
         11    1    3    3    0    0  0.10006869643E+02  0.10571357530E+02 -0.12625194452E+02  0.19268797972E+02  0.51100000000E-03 0. -1.
        -11    1    3    3    0    0  0.18190608046E+02  0.95818105818E+00  0.19600159200E+02  0.26757850678E+02  0.51100000000E-03 0.  1.
        -12    1    3    3    0    0 -0.25808475383E+02  0.57201193168E+01 -0.88661051476E-01  0.26434920605E+02  0.00000000000E+00 0.  1.
</event>
<event>
 7    1  0.1749439E-013  0.7246162E+02  0.7816164E-02  0.1226708E+00
        -11   -1    0    0    0    0  0.00000000000E+00  0.00000000000E+00  0.45593999997E+02  0.45594000000E+02  0.51100000000E-03 0.  1.
         11   -1    0    0    0    0 -0.00000000000E+00 -0.00000000000E+00 -0.45593999997E+02  0.45594000000E+02  0.51100000000E-03 0. -1.
    9900012    2    1    2    0    0  0.29740118576E-01 -0.12273241387E+02 -0.14143683519E+02  0.72461624960E+02  0.70000071213E+02 0.  0.
        -12    1    1    2    0    0 -0.29740118576E-01  0.12273241387E+02  0.14143683519E+02  0.18726375040E+02  0.00000000000E+00 0.  1.
         11    1    3    3    0    0  0.26638558538E+01  0.11871744561E+01 -0.11141150557E+02  0.11516542328E+02  0.51100000000E-03 0. -1.
        -11    1    3    3    0    0  0.21767374498E+02 -0.25501694684E+02 -0.36508795762E+01  0.33726605911E+02  0.51100000000E-03 0.  1.
         12    1    3    3    0    0 -0.24401490233E+02  0.12041278841E+02  0.64834661359E+00  0.27218476722E+02  0.00000000000E+00 0. -1.
</event>
<event>
 7    1  0.1749439E-013  0.7246149E+02  0.7816164E-02  0.1226708E+00
        -11   -1    0    0    0    0  0.00000000000E+00  0.00000000000E+00  0.45593999997E+02  0.45594000000E+02  0.51100000000E-03 0.  1.
         11   -1    0    0    0    0 -0.00000000000E+00 -0.00000000000E+00 -0.45593999997E+02  0.45594000000E+02  0.51100000000E-03 0. -1.
    9900012    2    1    2    0    0  0.91644368819E+01  0.14396506545E+02 -0.77094736549E+01  0.72461487028E+02  0.69999891530E+02 0.  0.
        -12    1    1    2    0    0 -0.91644368819E+01 -0.14396506545E+02  0.77094736549E+01  0.18726512972E+02  0.00000000000E+00 0.  1.
         11    1    3    3    0    0 -0.15128939558E+01 -0.46705369666E+01 -0.48087751687E+01  0.68721963420E+01  0.51100000000E-03 0. -1.
        -11    1    3    3    0    0  0.20908566603E+02 -0.98895388989E+01  0.17253492023E+02  0.28855746815E+02  0.51100000000E-03 0.  1.
         12    1    3    3    0    0 -0.10231235765E+02  0.28956582411E+02 -0.20154190509E+02  0.36733543870E+02  0.00000000000E+00 0. -1.
</event>
<event>
 7    1  0.1749439E-013  0.7246160E+02  0.7816164E-02  0.1226708E+00
        -11   -1    0    0    0    0  0.00000000000E+00  0.00000000000E+00  0.45593999997E+02  0.45594000000E+02  0.51100000000E-03 0.  1.
         11   -1    0    0    0    0 -0.00000000000E+00 -0.00000000000E+00 -0.45593999997E+02  0.45594000000E+02  0.51100000000E-03 0. -1.
    9900012    2    1    2    0    0  0.14505836419E+02 -0.77604179549E+00 -0.11817630763E+02  0.72461603445E+02  0.70000043185E+02 0.  0.
        -12    1    1    2    0    0 -0.14505836419E+02  0.77604179549E+00  0.11817630763E+02  0.18726396555E+02  0.00000000000E+00 0.  1.
         11    1    3    3    0    0  0.20692416466E+02 -0.63994837691E+01  0.10333481990E+02  0.23998132052E+02  0.51100000000E-03 0. -1.
        -11    1    3    3    0    0  0.11048179127E+02 -0.10722046850E+02 -0.19073634849E+02  0.24511795065E+02  0.51100000000E-03 0.  1.
        -12    1    3    3    0    0 -0.17234759174E+02  0.16345488824E+02 -0.30774779036E+01  0.23951676328E+02  0.00000000000E+00 0.  1.
</event>
<event>
 7    1  0.1749439E-013  0.7246152E+02  0.7816164E-02  0.1226708E+00
        -11   -1    0    0    0    0  0.00000000000E+00  0.00000000000E+00  0.45593999997E+02  0.45594000000E+02  0.51100000000E-03 0. -1.
         11   -1    0    0    0    0 -0.00000000000E+00 -0.00000000000E+00 -0.45593999997E+02  0.45594000000E+02  0.51100000000E-03 0.  1.
    9900012    2    1    2    0    0  0.59797718265E+01  0.17604395522E+02  0.22379592377E+01  0.72461524775E+02  0.69999940703E+02 0.  0.
        -12    1    1    2    0    0 -0.59797718265E+01 -0.17604395522E+02 -0.22379592377E+01  0.18726475225E+02  0.00000000000E+00 0.  1.
         11    1    3    3    0    0  0.16240135047E+02  0.72566656090E+01  0.10895283325E+02  0.20859251691E+02  0.51100000000E-03 0. -1.
        -11    1    3    3    0    0 -0.96036538116E+01  0.67248730281E+01  0.19744386830E+02  0.22962902590E+02  0.51100000000E-03 0.  1.
        -12    1    3    3    0    0 -0.65670940889E+00  0.36228568849E+01 -0.28401710918E+02  0.28639370495E+02  0.00000000000E+00 0.  1.
</event>
<event>
 7    1  0.1749439E-013  0.7246159E+02  0.7816164E-02  0.1226708E+00
        -11   -1    0    0    0    0  0.00000000000E+00  0.00000000000E+00  0.45593999997E+02  0.45594000000E+02  0.51100000000E-03 0. -1.
         11   -1    0    0    0    0 -0.00000000000E+00 -0.00000000000E+00 -0.45593999997E+02  0.45594000000E+02  0.51100000000E-03 0.  1.
    9900012    2    1    2    0    0 -0.19232765541E+01  0.18010441536E+02  0.47543169158E+01  0.72461587466E+02  0.70000022370E+02 0.  0.
        -12    1    1    2    0    0  0.19232765541E+01 -0.18010441536E+02 -0.47543169158E+01  0.18726412534E+02  0.00000000000E+00 0.  1.
         11    1    3    3    0    0  0.66013201270E+01 -0.74406565850E+01 -0.17039184754E+01  0.10091785584E+02  0.51100000000E-03 0. -1.
        -11    1    3    3    0    0  0.23727814008E+02  0.11627119868E+02 -0.12114801298E+01  0.26451214686E+02  0.51100000000E-03 0.  1.
         12    1    3    3    0    0 -0.32252410689E+02  0.13823978253E+02  0.76697155211E+01  0.35918587196E+02  0.00000000000E+00 0. -1.
</event>
<event>
 7    1  0.1749439E-013  0.7246154E+02  0.7816164E-02  0.1226708E+00
        -11   -1    0    0    0    0  0.00000000000E+00  0.00000000000E+00  0.45593999997E+02  0.45594000000E+02  0.51100000000E-03 0.  1.
         11   -1    0    0    0    0 -0.00000000000E+00 -0.00000000000E+00 -0.45593999997E+02  0.45594000000E+02  0.51100000000E-03 0. -1.
    9900012    2    1    2    0    0 -0.35372282891E+01  0.72277275200E+01 -0.16909412694E+02  0.72461540998E+02  0.69999961837E+02 0.  0.
        -12    1    1    2    0    0  0.35372282891E+01 -0.72277275200E+01  0.16909412694E+02  0.18726459002E+02  0.00000000000E+00 0.  1.
         11    1    3    3    0    0 -0.52171562396E+01  0.16248879924E+02 -0.27758314502E+02  0.32584794648E+02  0.51100000000E-03 0. -1.
        -11    1    3    3    0    0 -0.82278464261E+01  0.12309604056E+02  0.32342312826E+01  0.15155331111E+02  0.51100000000E-03 0.  1.
         12    1    3    3    0    0  0.99077743766E+01 -0.21330756460E+02  0.76146705246E+01  0.24721415240E+02  0.00000000000E+00 0. -1.
</event>
<event>
 7    1  0.1749439E-013  0.7246156E+02  0.7816164E-02  0.1226708E+00
        -11   -1    0    0    0    0  0.00000000000E+00  0.00000000000E+00  0.45593999997E+02  0.45594000000E+02  0.51100000000E-03 0.  1.
         11   -1    0    0    0    0 -0.00000000000E+00 -0.00000000000E+00 -0.45593999997E+02  0.45594000000E+02  0.51100000000E-03 0. -1.
    9900012    2    1    2    0    0 -0.23741081131E+01 -0.13413912455E+01 -0.18526845666E+02  0.72461555326E+02  0.69999980501E+02 0.  0.
        -12    1    1    2    0    0  0.23741081131E+01  0.13413912455E+01  0.18526845666E+02  0.18726444674E+02  0.00000000000E+00 0.  1.
         11    1    3    3    0    0  0.16318451477E+01  0.21234259070E+02 -0.18817116058E+02  0.28419017116E+02  0.51100000000E-03 0. -1.
        -11    1    3    3    0    0  0.78338268539E+01 -0.11475166732E+02 -0.15901937812E+02  0.21116816075E+02  0.51100000000E-03 0.  1.
        -12    1    3    3    0    0 -0.11839780115E+02 -0.11100483583E+02  0.16192208204E+02  0.22925722136E+02  0.00000000000E+00 0.  1.
</event>
<event>
 7    1  0.1749439E-013  0.7246159E+02  0.7816164E-02  0.1226708E+00
        -11   -1    0    0    0    0  0.00000000000E+00  0.00000000000E+00  0.45593999997E+02  0.45594000000E+02  0.51100000000E-03 0. -1.
         11   -1    0    0    0    0 -0.00000000000E+00 -0.00000000000E+00 -0.45593999997E+02  0.45594000000E+02  0.51100000000E-03 0.  1.
    9900012    2    1    2    0    0 -0.10278225719E+02 -0.11647990629E+02  0.10457580951E+02  0.72461585261E+02  0.70000019497E+02 0.  0.
        -12    1    1    2    0    0  0.10278225719E+02  0.11647990629E+02 -0.10457580951E+02  0.18726414739E+02  0.00000000000E+00 0.  1.
         11    1    3    3    0    0  0.11719824528E+02 -0.19087907185E+02 -0.12420523845E-01  0.22398719656E+02  0.51100000000E-03 0. -1.
        -11    1    3    3    0    0 -0.16024851426E+02  0.77198605151E+01 -0.15389604899E+02  0.23520885374E+02  0.51100000000E-03 0.  1.
         12    1    3    3    0    0 -0.59731988212E+01 -0.27994395910E+00  0.25859606373E+02  0.26541980231E+02  0.00000000000E+00 0. -1.
</event>
<event>
 7    1  0.1749439E-013  0.7246155E+02  0.7816164E-02  0.1226708E+00
        -11   -1    0    0    0    0  0.00000000000E+00  0.00000000000E+00  0.45593999997E+02  0.45594000000E+02  0.51100000000E-03 0.  1.
         11   -1    0    0    0    0 -0.00000000000E+00 -0.00000000000E+00 -0.45593999997E+02  0.45594000000E+02  0.51100000000E-03 0. -1.
    9900012    2    1    2    0    0 -0.10789917796E+02  0.15069339404E+02 -0.26781505713E+01  0.72461553284E+02  0.69999977841E+02 0.  0.
        -12    1    1    2    0    0  0.10789917796E+02 -0.15069339404E+02  0.26781505713E+01  0.18726446716E+02  0.00000000000E+00 0.  1.
         11    1    3    3    0    0  0.84258953871E+00  0.63606358637E+01 -0.21587146518E+02  0.22520491575E+02  0.51100000000E-03 0. -1.
        -11    1    3    3    0    0 -0.74415976118E+01  0.23006901620E+02 -0.20037499733E+01  0.24263345017E+02  0.51100000000E-03 0.  1.
        -12    1    3    3    0    0 -0.41909097232E+01 -0.14298198080E+02  0.20912745920E+02  0.25677716693E+02  0.00000000000E+00 0.  1.
</event>
<event>
 7    1  0.1749439E-013  0.7246159E+02  0.7816164E-02  0.1226708E+00
        -11   -1    0    0    0    0  0.00000000000E+00  0.00000000000E+00  0.45593999997E+02  0.45594000000E+02  0.51100000000E-03 0.  1.
         11   -1    0    0    0    0 -0.00000000000E+00 -0.00000000000E+00 -0.45593999997E+02  0.45594000000E+02  0.51100000000E-03 0. -1.
    9900012    2    1    2    0    0 -0.92745542289E+01  0.44426608429E+01 -0.15650038554E+02  0.72461593557E+02  0.70000030305E+02 0.  0.
        -12    1    1    2    0    0  0.92745542289E+01 -0.44426608429E+01  0.15650038554E+02  0.18726406443E+02  0.00000000000E+00 0.  1.
         11    1    3    3    0    0 -0.10082129517E+02  0.22372174196E+02  0.10596909168E+02  0.26729347131E+02  0.51100000000E-03 0.  1.
        -11    1    3    3    0    0 -0.96651487292E+01 -0.23447855585E+02 -0.20295777497E+02  0.32482851105E+02  0.51100000000E-03 0. -1.
         12    1    3    3    0    0  0.10472724018E+02  0.55183422318E+01 -0.59511702253E+01  0.13249395321E+02  0.00000000000E+00 0. -1.
</event>
<event>
 7    1  0.1749439E-013  0.7246156E+02  0.7816164E-02  0.1226708E+00
        -11   -1    0    0    0    0  0.00000000000E+00  0.00000000000E+00  0.45593999997E+02  0.45594000000E+02  0.51100000000E-03 0.  1.
         11   -1    0    0    0    0 -0.00000000000E+00 -0.00000000000E+00 -0.45593999997E+02  0.45594000000E+02  0.51100000000E-03 0. -1.
    9900012    2    1    2    0    0 -0.12283162536E+02  0.98853206434E+01 -0.10103650066E+02  0.72461564387E+02  0.69999992304E+02 0.  0.
        -12    1    1    2    0    0  0.12283162536E+02 -0.98853206434E+01  0.10103650066E+02  0.18726435613E+02  0.00000000000E+00 0.  1.
         11    1    3    3    0    0  0.21776263340E+02 -0.36351202385E+01 -0.14805324579E+02  0.26582275680E+02  0.51100000000E-03 0. -1.
        -11    1    3    3    0    0 -0.99747168609E+00  0.93841103948E+01  0.80336817854E+01  0.12393406350E+02  0.51100000000E-03 0.  1.
        -12    1    3    3    0    0 -0.33061954190E+02  0.41363304872E+01 -0.33320072732E+01  0.33485882357E+02  0.00000000000E+00 0.  1.
</event>
<event>
 7    1  0.1749439E-013  0.7246154E+02  0.7816164E-02  0.1226708E+00
        -11   -1    0    0    0    0  0.00000000000E+00  0.00000000000E+00  0.45593999997E+02  0.45594000000E+02  0.51100000000E-03 0. -1.
         11   -1    0    0    0    0 -0.00000000000E+00 -0.00000000000E+00 -0.45593999997E+02  0.45594000000E+02  0.51100000000E-03 0.  1.
    9900012    2    1    2    0    0  0.15041106715E+02  0.47641865798E+01  0.10087016763E+02  0.72461540853E+02  0.69999961647E+02 0.  0.
        -12    1    1    2    0    0 -0.15041106715E+02 -0.47641865798E+01 -0.10087016763E+02  0.18726459147E+02  0.00000000000E+00 0.  1.
         11    1    3    3    0    0  0.20863206953E+02 -0.24055294317E+01 -0.49874216216E+01  0.21585512523E+02  0.51100000000E-03 0. -1.
        -11    1    3    3    0    0  0.60698934528E+01 -0.18587767129E+02  0.20561225684E+01  0.19661544539E+02  0.51100000000E-03 0.  1.
        -12    1    3    3    0    0 -0.11891993690E+02  0.25757483140E+02  0.13018315817E+02  0.31214483791E+02  0.00000000000E+00 0.  1.
</event>
<event>
 7    1  0.1749439E-013  0.7246158E+02  0.7816164E-02  0.1226708E+00
        -11   -1    0    0    0    0  0.00000000000E+00  0.00000000000E+00  0.45593999997E+02  0.45594000000E+02  0.51100000000E-03 0.  1.
         11   -1    0    0    0    0 -0.00000000000E+00 -0.00000000000E+00 -0.45593999997E+02  0.45594000000E+02  0.51100000000E-03 0. -1.
    9900012    2    1    2    0    0 -0.11233722881E+02 -0.14952408353E+02  0.95278575961E+00  0.72461578932E+02  0.70000011252E+02 0.  0.
        -12    1    1    2    0    0  0.11233722881E+02  0.14952408353E+02 -0.95278575961E+00  0.18726421068E+02  0.00000000000E+00 0.  1.
         11    1    3    3    0    0 -0.33838255259E+01  0.14936241595E+01  0.10420793204E+02  0.11057762865E+02  0.51100000000E-03 0.  1.
        -11    1    3    3    0    0  0.20918023507E+02  0.10361120791E+01  0.92400041346E+01  0.22891372007E+02  0.51100000000E-03 0. -1.
        -12    1    3    3    0    0 -0.28767920862E+02 -0.17482144591E+02 -0.18708011579E+02  0.38512444060E+02  0.00000000000E+00 0.  1.
</event>
<event>
 7    1  0.1749439E-013  0.7246153E+02  0.7816164E-02  0.1226708E+00
        -11   -1    0    0    0    0  0.00000000000E+00  0.00000000000E+00  0.45593999997E+02  0.45594000000E+02  0.51100000000E-03 0.  1.
         11   -1    0    0    0    0 -0.00000000000E+00 -0.00000000000E+00 -0.45593999997E+02  0.45594000000E+02  0.51100000000E-03 0. -1.
    9900012    2    1    2    0    0  0.10069722787E+02 -0.47141546951E+01 -0.15068453461E+02  0.72461525127E+02  0.69999941161E+02 0.  0.
        -12    1    1    2    0    0 -0.10069722787E+02  0.47141546951E+01  0.15068453461E+02  0.18726474873E+02  0.00000000000E+00 0.  1.
         11    1    3    3    0    0  0.17994405146E+02 -0.10724296001E+02  0.14614960299E+01  0.20998693106E+02  0.51100000000E-03 0. -1.
        -11    1    3    3    0    0 -0.20240742728E+01 -0.10174506997E+02  0.13389761025E+02  0.16938216254E+02  0.51100000000E-03 0.  1.
         12    1    3    3    0    0 -0.59006080865E+01  0.16184648303E+02 -0.29919710516E+02  0.34524615766E+02  0.00000000000E+00 0. -1.
</event>
<event>
 7    1  0.1749439E-013  0.7246221E+02  0.7816164E-02  0.1226706E+00
        -11   -1    0    0    0    0  0.00000000000E+00  0.00000000000E+00  0.45593999997E+02  0.45594000000E+02  0.51100000000E-03 0.  1.
         11   -1    0    0    0    0 -0.00000000000E+00 -0.00000000000E+00 -0.45593999997E+02  0.45594000000E+02  0.51100000000E-03 0. -1.
    9900012    2    1    2    0    0  0.58988409881E+01 -0.15766943138E+02  0.82013574671E+01  0.72462213362E+02  0.70000837710E+02 0.  0.
        -12    1    1    2    0    0 -0.58988409881E+01  0.15766943138E+02 -0.82013574671E+01  0.18725786638E+02  0.00000000000E+00 0.  1.
         11    1    3    3    0    0 -0.78436928314E+01 -0.31953344463E+01  0.18011920292E+01  0.86589821829E+01  0.51100000000E-03 0. -1.
        -11    1    3    3    0    0 -0.13342267246E+02 -0.26348894308E+02 -0.73719157099E+01  0.30440523452E+02  0.51100000000E-03 0.  1.
         12    1    3    3    0    0  0.27084801066E+02  0.13777285617E+02  0.13772081148E+02  0.33362707727E+02  0.00000000000E+00 0. -1.
</event>
<event>
 7    1  0.1749439E-013  0.7246146E+02  0.7816164E-02  0.1226708E+00
        -11   -1    0    0    0    0  0.00000000000E+00  0.00000000000E+00  0.45593999997E+02  0.45594000000E+02  0.51100000000E-03 0. -1.
         11   -1    0    0    0    0 -0.00000000000E+00 -0.00000000000E+00 -0.45593999997E+02  0.45594000000E+02  0.51100000000E-03 0.  1.
    9900012    2    1    2    0    0 -0.14820121477E+02  0.10060242230E+02  0.54625092516E+01  0.72461455160E+02  0.69999850016E+02 0.  0.
        -12    1    1    2    0    0  0.14820121477E+02 -0.10060242230E+02 -0.54625092516E+01  0.18726544840E+02  0.00000000000E+00 0.  1.
         11    1    3    3    0    0 -0.22548391981E+02 -0.92519680404E+01  0.16379697725E+02  0.29365343372E+02  0.51100000000E-03 0. -1.
        -11    1    3    3    0    0 -0.80591784564E+00 -0.95896513429E+01  0.27464173577E+01  0.10007683299E+02  0.51100000000E-03 0.  1.
        -12    1    3    3    0    0  0.85341883492E+01  0.28901861614E+02 -0.13663605831E+02  0.33088428488E+02  0.00000000000E+00 0.  1.
</event>
<event>
 7    1  0.1749439E-013  0.7246182E+02  0.7816164E-02  0.1226707E+00
        -11   -1    0    0    0    0  0.00000000000E+00  0.00000000000E+00  0.45593999997E+02  0.45594000000E+02  0.51100000000E-03 0.  1.
         11   -1    0    0    0    0 -0.00000000000E+00 -0.00000000000E+00 -0.45593999997E+02  0.45594000000E+02  0.51100000000E-03 0. -1.
    9900012    2    1    2    0    0 -0.14516382488E+02  0.84703324607E+01 -0.82582123565E+01  0.72461816089E+02  0.70000320193E+02 0.  0.
        -12    1    1    2    0    0  0.14516382488E+02 -0.84703324607E+01  0.82582123565E+01  0.18726183911E+02  0.00000000000E+00 0.  1.
         11    1    3    3    0    0 -0.54185612283E+01  0.16928338892E+02 -0.20932041193E+02  0.27460513691E+02  0.51100000000E-03 0. -1.
        -11    1    3    3    0    0  0.73453174972E+01 -0.16597809847E+02  0.18335722107E+02  0.25799993921E+02  0.51100000000E-03 0.  1.
         12    1    3    3    0    0 -0.16443138757E+02  0.81398034161E+01 -0.56618932705E+01  0.19201308477E+02  0.00000000000E+00 0. -1.
</event>
<event>
 7    1  0.1749439E-013  0.7246158E+02  0.7816164E-02  0.1226708E+00
        -11   -1    0    0    0    0  0.00000000000E+00  0.00000000000E+00  0.45593999997E+02  0.45594000000E+02  0.51100000000E-03 0.  1.
         11   -1    0    0    0    0 -0.00000000000E+00 -0.00000000000E+00 -0.45593999997E+02  0.45594000000E+02  0.51100000000E-03 0. -1.
    9900012    2    1    2    0    0 -0.74894672761E+01 -0.16539902685E+02  0.45845577417E+01  0.72461583616E+02  0.70000017354E+02 0.  0.
        -12    1    1    2    0    0  0.74894672761E+01  0.16539902685E+02 -0.45845577417E+01  0.18726416384E+02  0.00000000000E+00 0.  1.
         11    1    3    3    0    0  0.21570908140E+02 -0.20230398373E+02  0.73987278928E+01  0.30484656321E+02  0.51100000000E-03 0. -1.
        -11    1    3    3    0    0  0.38468499193E+01  0.59438059807E+01 -0.53811474933E+01  0.88929091103E+01  0.51100000000E-03 0.  1.
        -12    1    3    3    0    0 -0.32907225336E+02 -0.22533102924E+01  0.25669773423E+01  0.33084018184E+02  0.00000000000E+00 0.  1.
</event>
<event>
 7    1  0.1749439E-013  0.7246173E+02  0.7816164E-02  0.1226708E+00
        -11   -1    0    0    0    0  0.00000000000E+00  0.00000000000E+00  0.45593999997E+02  0.45594000000E+02  0.51100000000E-03 0. -1.
         11   -1    0    0    0    0 -0.00000000000E+00 -0.00000000000E+00 -0.45593999997E+02  0.45594000000E+02  0.51100000000E-03 0.  1.
    9900012    2    1    2    0    0  0.13318471142E+00  0.13076080964E+02  0.13404164383E+02  0.72461728232E+02  0.70000205743E+02 0.  0.
        -12    1    1    2    0    0 -0.13318471142E+00 -0.13076080964E+02 -0.13404164383E+02  0.18726271768E+02  0.00000000000E+00 0.  1.
         11    1    3    3    0    0 -0.34931754760E+00  0.49463670401E+01 -0.17838786225E+01  0.52698000764E+01  0.51100000000E-03 0. -1.
        -11    1    3    3    0    0 -0.31733450345E+02 -0.87220713812E+00  0.10372829619E+02  0.33397128779E+02  0.51100000000E-03 0.  1.
        -12    1    3    3    0    0  0.32215952604E+02  0.90019210616E+01  0.48152133865E+01  0.33794799377E+02  0.00000000000E+00 0.  1.
</event>
<event>
 7    1  0.1749439E-013  0.7246158E+02  0.7816164E-02  0.1226708E+00
        -11   -1    0    0    0    0  0.00000000000E+00  0.00000000000E+00  0.45593999997E+02  0.45594000000E+02  0.51100000000E-03 0. -1.
         11   -1    0    0    0    0 -0.00000000000E+00 -0.00000000000E+00 -0.45593999997E+02  0.45594000000E+02  0.51100000000E-03 0.  1.
    9900012    2    1    2    0    0  0.15058440808E+02 -0.33731037655E+01  0.10608682923E+02  0.72461584915E+02  0.70000019046E+02 0.  0.
        -12    1    1    2    0    0 -0.15058440808E+02  0.33731037655E+01 -0.10608682923E+02  0.18726415085E+02  0.00000000000E+00 0.  1.
         11    1    3    3    0    0  0.74765181766E+01  0.13462218047E+02  0.15442935345E+02  0.21808573799E+02  0.51100000000E-03 0. -1.
        -11    1    3    3    0    0  0.25274269474E+02 -0.15837773383E+02 -0.11147347427E+02  0.31841594152E+02  0.51100000000E-03 0.  1.
         12    1    3    3    0    0 -0.17692346843E+02 -0.99754842965E+00  0.63130950048E+01  0.18811416965E+02  0.00000000000E+00 0. -1.
</event>
<event>
 7    1  0.1749439E-013  0.7246154E+02  0.7816164E-02  0.1226708E+00
        -11   -1    0    0    0    0  0.00000000000E+00  0.00000000000E+00  0.45593999997E+02  0.45594000000E+02  0.51100000000E-03 0.  1.
         11   -1    0    0    0    0 -0.00000000000E+00 -0.00000000000E+00 -0.45593999997E+02  0.45594000000E+02  0.51100000000E-03 0. -1.
    9900012    2    1    2    0    0 -0.13794902329E+02 -0.11115418470E+02  0.60686319702E+01  0.72461544061E+02  0.69999965827E+02 0.  0.
        -12    1    1    2    0    0  0.13794902329E+02  0.11115418470E+02 -0.60686319702E+01  0.18726455939E+02  0.00000000000E+00 0.  1.
         11    1    3    3    0    0  0.86870146705E+01 -0.66571658046E+01  0.14419863474E+02  0.18102887706E+02  0.51100000000E-03 0. -1.
        -11    1    3    3    0    0  0.53590791396E+01 -0.17942908015E+02  0.67875262840E+01  0.19918287843E+02  0.51100000000E-03 0.  1.
         12    1    3    3    0    0 -0.27840996140E+02  0.13484655350E+02 -0.15138757788E+02  0.34440368513E+02  0.00000000000E+00 0. -1.
</event>
<event>
 7    1  0.1749439E-013  0.7246159E+02  0.7816164E-02  0.1226708E+00
        -11   -1    0    0    0    0  0.00000000000E+00  0.00000000000E+00  0.45593999997E+02  0.45594000000E+02  0.51100000000E-03 0.  1.
         11   -1    0    0    0    0 -0.00000000000E+00 -0.00000000000E+00 -0.45593999997E+02  0.45594000000E+02  0.51100000000E-03 0. -1.
    9900012    2    1    2    0    0 -0.18619993880E+02 -0.19074503648E+01 -0.57949696472E+00  0.72461592023E+02  0.70000028306E+02 0.  0.
        -12    1    1    2    0    0  0.18619993880E+02  0.19074503648E+01  0.57949696472E+00  0.18726407977E+02  0.00000000000E+00 0.  1.
         11    1    3    3    0    0  0.10765562068E+02 -0.25245510175E+01 -0.22630431299E+01  0.11286808625E+02  0.51100000000E-03 0. -1.
        -11    1    3    3    0    0  0.12475686617E+02 -0.10797198212E+01  0.12720339445E+02  0.17849806366E+02  0.51100000000E-03 0.  1.
         12    1    3    3    0    0 -0.41861242565E+02  0.16968204739E+01 -0.11036793280E+02  0.43324977031E+02  0.00000000000E+00 0. -1.
</event>
<event>
 7    1  0.1749439E-013  0.7246158E+02  0.7816164E-02  0.1226708E+00
        -11   -1    0    0    0    0  0.00000000000E+00  0.00000000000E+00  0.45593999997E+02  0.45594000000E+02  0.51100000000E-03 0. -1.
         11   -1    0    0    0    0 -0.00000000000E+00 -0.00000000000E+00 -0.45593999997E+02  0.45594000000E+02  0.51100000000E-03 0.  1.
    9900012    2    1    2    0    0  0.11772824633E+02  0.11692927745E+02  0.86807163397E+01  0.72461580287E+02  0.70000013018E+02 0.  0.
        -12    1    1    2    0    0 -0.11772824633E+02 -0.11692927745E+02 -0.86807163397E+01  0.18726419713E+02  0.00000000000E+00 0.  1.
         11    1    3    3    0    0  0.44054800114E+01 -0.20308429119E+02 -0.13351076171E+02  0.24700036085E+02  0.51100000000E-03 0. -1.
        -11    1    3    3    0    0 -0.64913425692E+01 -0.88858300359E+00  0.20868678801E+01  0.68761999619E+01  0.51100000000E-03 0.  1.
        -12    1    3    3    0    0  0.13858687191E+02  0.32889939868E+02  0.19944924631E+02  0.40885344240E+02  0.00000000000E+00 0.  1.
</event>
<event>
 7    1  0.1749439E-013  0.7246158E+02  0.7816164E-02  0.1226708E+00
        -11   -1    0    0    0    0  0.00000000000E+00  0.00000000000E+00  0.45593999997E+02  0.45594000000E+02  0.51100000000E-03 0. -1.
         11   -1    0    0    0    0 -0.00000000000E+00 -0.00000000000E+00 -0.45593999997E+02  0.45594000000E+02  0.51100000000E-03 0.  1.
    9900012    2    1    2    0    0 -0.31367642490E+01 -0.21963333620E+01  0.18330733156E+02  0.72461576203E+02  0.70000007697E+02 0.  0.
        -12    1    1    2    0    0  0.31367642490E+01  0.21963333620E+01 -0.18330733156E+02  0.18726423797E+02  0.00000000000E+00 0.  1.
         11    1    3    3    0    0  0.31410204219E+01  0.59112047165E+00 -0.25610870857E+01  0.40956806546E+01  0.51100000000E-03 0. -1.
        -11    1    3    3    0    0 -0.11043007967E+01 -0.30146785248E+02  0.26275978534E+02  0.40005939424E+02  0.51100000000E-03 0.  1.
         12    1    3    3    0    0 -0.51734838742E+01  0.27359331415E+02 -0.53841582917E+01  0.28359956124E+02  0.00000000000E+00 0. -1.
</event>
<event>
 7    1  0.1749439E-013  0.7246161E+02  0.7816164E-02  0.1226708E+00
        -11   -1    0    0    0    0  0.00000000000E+00  0.00000000000E+00  0.45593999997E+02  0.45594000000E+02  0.51100000000E-03 0.  1.
         11   -1    0    0    0    0 -0.00000000000E+00 -0.00000000000E+00 -0.45593999997E+02  0.45594000000E+02  0.51100000000E-03 0. -1.
    9900012    2    1    2    0    0  0.16874807584E+02 -0.80887095849E+01  0.70106918550E+00  0.72461605479E+02  0.70000045835E+02 0.  0.
        -12    1    1    2    0    0 -0.16874807584E+02  0.80887095849E+01 -0.70106918550E+00  0.18726394521E+02  0.00000000000E+00 0.  1.
         11    1    3    3    0    0  0.14237401207E+02 -0.19612013042E+02  0.24532908608E+02  0.34484753932E+02  0.51100000000E-03 0. -1.
        -11    1    3    3    0    0 -0.15752412739E+01 -0.87054438795E+01 -0.60668345296E+01  0.10727190670E+02  0.51100000000E-03 0.  1.
        -12    1    3    3    0    0  0.42126476511E+01  0.20228747336E+02 -0.17765004893E+02  0.27249660877E+02  0.00000000000E+00 0.  1.
</event>
<event>
 7    1  0.1749439E-013  0.7246160E+02  0.7816164E-02  0.1226708E+00
        -11   -1    0    0    0    0  0.00000000000E+00  0.00000000000E+00  0.45593999997E+02  0.45594000000E+02  0.51100000000E-03 0. -1.
         11   -1    0    0    0    0 -0.00000000000E+00 -0.00000000000E+00 -0.45593999997E+02  0.45594000000E+02  0.51100000000E-03 0.  1.
    9900012    2    1    2    0    0 -0.43210218712E+01 -0.33116698414E+01  0.17917579563E+02  0.72461600332E+02  0.70000039129E+02 0.  0.
        -12    1    1    2    0    0  0.43210218712E+01  0.33116698414E+01 -0.17917579563E+02  0.18726399668E+02  0.00000000000E+00 0.  1.
         11    1    3    3    0    0 -0.57236345125E+01  0.26162204558E+01  0.66269202187E+01  0.91389645667E+01  0.51100000000E-03 0. -1.
        -11    1    3    3    0    0 -0.30153302362E+02 -0.32953859260E+01  0.86765505884E+01  0.31549385765E+02  0.51100000000E-03 0.  1.
         12    1    3    3    0    0  0.31555915004E+02 -0.26325043712E+01  0.26141087558E+01  0.31773250000E+02  0.00000000000E+00 0. -1.
</event>
<event>
 7    1  0.1749439E-013  0.7246148E+02  0.7816164E-02  0.1226708E+00
        -11   -1    0    0    0    0  0.00000000000E+00  0.00000000000E+00  0.45593999997E+02  0.45594000000E+02  0.51100000000E-03 0.  1.
         11   -1    0    0    0    0 -0.00000000000E+00 -0.00000000000E+00 -0.45593999997E+02  0.45594000000E+02  0.51100000000E-03 0. -1.
    9900012    2    1    2    0    0  0.12694621304E+02  0.12938883729E+02 -0.47026018163E+01  0.72461479073E+02  0.69999881167E+02 0.  0.
        -12    1    1    2    0    0 -0.12694621304E+02 -0.12938883729E+02  0.47026018163E+01  0.18726520927E+02  0.00000000000E+00 0.  1.
         11    1    3    3    0    0  0.85940544775E-01 -0.90086980755E+01 -0.76299006495E+01  0.11805905767E+02  0.51100000000E-03 0. -1.
        -11    1    3    3    0    0  0.79097265218E+01 -0.17152478844E+02 -0.68267176000E+01  0.20084207169E+02  0.51100000000E-03 0.  1.
        -12    1    3    3    0    0  0.46989542369E+01  0.39100060649E+02  0.97540164332E+01  0.40571366137E+02  0.00000000000E+00 0.  1.
</event>
