<event>
 7    1  0.1402367E-008  0.4614232E+02  0.7816164E-02  0.1320468E+00
        -11   -1    0    0    0    0  0.00000000000E+00  0.00000000000E+00  0.45593999997E+02  0.45594000000E+02  0.51100000000E-03 0.  1.
         11   -1    0    0    0    0 -0.00000000000E+00 -0.00000000000E+00 -0.45593999997E+02  0.45594000000E+02  0.51100000000E-03 0. -1.
    9900012    2    1    2    0    0  0.15122037973E+02  0.18953022239E+02  0.37963411147E+02  0.46142315741E+02  0.99999815805E+01 0.  0.
         12    1    1    2    0    0 -0.15122037973E+02 -0.18953022239E+02 -0.37963411147E+02  0.45045684259E+02  0.00000000000E+00 0. -1.
         11    1    3    3    0    0  0.50867017568E+01  0.20727953182E+01  0.45141159509E+01  0.71097298312E+01  0.51100000000E-03 0. -1.
        -11    1    3    3    0    0  0.89857947595E+01  0.13734614457E+02  0.30297924451E+02  0.34457921702E+02  0.51100000000E-03 0.  1.
        -12    1    3    3    0    0  0.10495414564E+01  0.31456124637E+01  0.31513707453E+01  0.45746642079E+01  0.00000000000E+00 0.  1.
</event>
<event>
 7    1  0.1402367E-008  0.4614232E+02  0.7816164E-02  0.1320468E+00
        -11   -1    0    0    0    0  0.00000000000E+00  0.00000000000E+00  0.45593999997E+02  0.45594000000E+02  0.51100000000E-03 0.  1.
         11   -1    0    0    0    0 -0.00000000000E+00 -0.00000000000E+00 -0.45593999997E+02  0.45594000000E+02  0.51100000000E-03 0. -1.
    9900012    2    1    2    0    0 -0.42223299804E+02  0.63540055459E+01  0.14350357860E+02  0.46142320923E+02  0.10000028829E+02 0.  0.
         12    1    1    2    0    0  0.42223299804E+02 -0.63540055459E+01 -0.14350357860E+02  0.45045679077E+02  0.00000000000E+00 0. -1.
         11    1    3    3    0    0 -0.13906729711E+02  0.54113442248E+01  0.38723588435E+01  0.15416709793E+02  0.51100000000E-03 0. -1.
        -11    1    3    3    0    0 -0.14742598001E+02 -0.16761521257E+01  0.73210716624E+01  0.16545445667E+02  0.51100000000E-03 0.  1.
        -12    1    3    3    0    0 -0.13573972092E+02  0.26188134468E+01  0.31569273540E+01  0.14180165463E+02  0.00000000000E+00 0.  1.
</event>
<event>
 7    1  0.1402367E-008  0.4614232E+02  0.7816164E-02  0.1320468E+00
        -11   -1    0    0    0    0  0.00000000000E+00  0.00000000000E+00  0.45593999997E+02  0.45594000000E+02  0.51100000000E-03 0.  1.
         11   -1    0    0    0    0 -0.00000000000E+00 -0.00000000000E+00 -0.45593999997E+02  0.45594000000E+02  0.51100000000E-03 0. -1.
    9900012    2    1    2    0    0 -0.79398469903E+01  0.21098857828E+02  0.38998850131E+02  0.46142320036E+02  0.10000020743E+02 0.  0.
         12    1    1    2    0    0  0.79398469903E+01 -0.21098857828E+02 -0.38998850131E+02  0.45045679964E+02  0.00000000000E+00 0. -1.
         11    1    3    3    0    0 -0.34896314666E+01  0.15921672282E+02  0.23225310422E+02  0.28374147044E+02  0.51100000000E-03 0. -1.
        -11    1    3    3    0    0 -0.47939421719E+01  0.57505801960E+01  0.14064330753E+02  0.15932873373E+02  0.51100000000E-03 0.  1.
         12    1    3    3    0    0  0.34372664825E+00 -0.57339464978E+00  0.17092089566E+01  0.18352996187E+01  0.00000000000E+00 0. -1.
</event>
<event>
 7    1  0.1402367E-008  0.4614232E+02  0.7816164E-02  0.1320468E+00
        -11   -1    0    0    0    0  0.00000000000E+00  0.00000000000E+00  0.45593999997E+02  0.45594000000E+02  0.51100000000E-03 0.  1.
         11   -1    0    0    0    0 -0.00000000000E+00 -0.00000000000E+00 -0.45593999997E+02  0.45594000000E+02  0.51100000000E-03 0. -1.
    9900012    2    1    2    0    0 -0.38940981343E+02  0.12232754238E-02  0.22643177810E+02  0.46142317291E+02  0.99999957115E+01 0.  0.
         12    1    1    2    0    0  0.38940981343E+02 -0.12232754238E-02 -0.22643177810E+02  0.45045682709E+02  0.00000000000E+00 0. -1.
         11    1    3    3    0    0 -0.98163943119E+01  0.23693904365E+01  0.73417286402E+01  0.12485054586E+02  0.51100000000E-03 0. -1.
        -11    1    3    3    0    0 -0.21363821352E+02 -0.12034752998E+01  0.77260190088E+01  0.22749782099E+02  0.51100000000E-03 0.  1.
        -12    1    3    3    0    0 -0.77607656783E+01 -0.11646918613E+01  0.75754301606E+01  0.10907480606E+02  0.00000000000E+00 0.  1.
</event>
<event>
 7    1  0.1402367E-008  0.4614232E+02  0.7816164E-02  0.1320468E+00
        -11   -1    0    0    0    0  0.00000000000E+00  0.00000000000E+00  0.45593999997E+02  0.45594000000E+02  0.51100000000E-03 0.  1.
         11   -1    0    0    0    0 -0.00000000000E+00 -0.00000000000E+00 -0.45593999997E+02  0.45594000000E+02  0.51100000000E-03 0. -1.
    9900012    2    1    2    0    0 -0.23096974113E+02  0.16185723307E+02  0.35123579016E+02  0.46142315911E+02  0.99999831293E+01 0.  0.
         12    1    1    2    0    0  0.23096974113E+02 -0.16185723307E+02 -0.35123579016E+02  0.45045684089E+02  0.00000000000E+00 0. -1.
         11    1    3    3    0    0 -0.56786908127E+01  0.76563360718E+01  0.85920526797E+01  0.12833175013E+02  0.51100000000E-03 0. -1.
        -11    1    3    3    0    0 -0.74350548619E+01  0.66596251671E+01  0.13020356928E+02  0.16406106880E+02  0.51100000000E-03 0.  1.
         12    1    3    3    0    0 -0.99832284386E+01  0.18697620679E+01  0.13511169409E+02  0.16903034019E+02  0.00000000000E+00 0. -1.
</event>
<event>
 7    1  0.1402367E-008  0.4614232E+02  0.7816164E-02  0.1320468E+00
        -11   -1    0    0    0    0  0.00000000000E+00  0.00000000000E+00  0.45593999997E+02  0.45594000000E+02  0.51100000000E-03 0. -1.
         11   -1    0    0    0    0 -0.00000000000E+00 -0.00000000000E+00 -0.45593999997E+02  0.45594000000E+02  0.51100000000E-03 0.  1.
    9900012    2    1    2    0    0  0.27986439127E+02 -0.18480494493E+01 -0.35248512913E+02  0.46142315141E+02  0.99999761103E+01 0.  0.
         12    1    1    2    0    0 -0.27986439127E+02  0.18480494493E+01  0.35248512913E+02  0.45045684859E+02  0.00000000000E+00 0. -1.
         11    1    3    3    0    0  0.14007660030E+02  0.57892703828E+00 -0.12829112288E+02  0.19003573832E+02  0.51100000000E-03 0. -1.
        -11    1    3    3    0    0  0.24272081659E+01 -0.27949460412E+01 -0.46885308025E+01  0.59737244832E+01  0.51100000000E-03 0.  1.
        -12    1    3    3    0    0  0.11551570931E+02  0.36796955367E+00 -0.17730869822E+02  0.21165016826E+02  0.00000000000E+00 0.  1.
</event>
<event>
 7    1  0.1402367E-008  0.4614231E+02  0.7816164E-02  0.1320468E+00
        -11   -1    0    0    0    0  0.00000000000E+00  0.00000000000E+00  0.45593999997E+02  0.45594000000E+02  0.51100000000E-03 0.  1.
         11   -1    0    0    0    0 -0.00000000000E+00 -0.00000000000E+00 -0.45593999997E+02  0.45594000000E+02  0.51100000000E-03 0. -1.
    9900012    2    1    2    0    0 -0.19332371263E+02 -0.14790844551E+02  0.37902561064E+02  0.46142314342E+02  0.99999688260E+01 0.  0.
         12    1    1    2    0    0  0.19332371263E+02  0.14790844551E+02 -0.37902561064E+02  0.45045685658E+02  0.00000000000E+00 0. -1.
         11    1    3    3    0    0  0.75975052565E+00 -0.86842811798E+00  0.36486763674E+01  0.38267777245E+01  0.51100000000E-03 0. -1.
        -11    1    3    3    0    0 -0.17545413175E+02 -0.10130911608E+02  0.27323417080E+02  0.34015379091E+02  0.51100000000E-03 0.  1.
        -12    1    3    3    0    0 -0.25467086134E+01 -0.37915048247E+01  0.69304676158E+01  0.83001575269E+01  0.00000000000E+00 0.  1.
</event>
<event>
 7    1  0.1402367E-008  0.4614232E+02  0.7816164E-02  0.1320468E+00
        -11   -1    0    0    0    0  0.00000000000E+00  0.00000000000E+00  0.45593999997E+02  0.45594000000E+02  0.51100000000E-03 0.  1.
         11   -1    0    0    0    0 -0.00000000000E+00 -0.00000000000E+00 -0.45593999997E+02  0.45594000000E+02  0.51100000000E-03 0. -1.
    9900012    2    1    2    0    0  0.43461022440E+02  0.10228864250E+02 -0.59685490085E+01  0.46142315272E+02  0.99999773036E+01 0.  0.
         12    1    1    2    0    0 -0.43461022440E+02 -0.10228864250E+02  0.59685490085E+01  0.45045684728E+02  0.00000000000E+00 0. -1.
         11    1    3    3    0    0  0.33434014016E+01 -0.10133535997E+00 -0.71083438413E+00  0.34196326660E+01  0.51100000000E-03 0. -1.
        -11    1    3    3    0    0  0.20451772611E+02  0.18760553055E+01 -0.56935035016E+01  0.21312216422E+02  0.51100000000E-03 0.  1.
        -12    1    3    3    0    0  0.19665848427E+02  0.84541443043E+01  0.43578887723E+00  0.21410466184E+02  0.00000000000E+00 0.  1.
</event>
<event>
 7    1  0.1402367E-008  0.4614232E+02  0.7816164E-02  0.1320468E+00
        -11   -1    0    0    0    0  0.00000000000E+00  0.00000000000E+00  0.45593999997E+02  0.45594000000E+02  0.51100000000E-03 0.  1.
         11   -1    0    0    0    0 -0.00000000000E+00 -0.00000000000E+00 -0.45593999997E+02  0.45594000000E+02  0.51100000000E-03 0. -1.
    9900012    2    1    2    0    0 -0.70347100132E+01 -0.14202136205E+02  0.42165454883E+02  0.46142318706E+02  0.10000008616E+02 0.  0.
         12    1    1    2    0    0  0.70347100132E+01  0.14202136205E+02 -0.42165454883E+02  0.45045681294E+02  0.00000000000E+00 0. -1.
         11    1    3    3    0    0 -0.12033310507E+01 -0.24929151951E+01  0.16693825850E+02  0.16921774539E+02  0.51100000000E-03 0. -1.
        -11    1    3    3    0    0 -0.44247723792E+01 -0.27401182390E+01  0.83038505215E+01  0.98000404242E+01  0.51100000000E-03 0.  1.
        -12    1    3    3    0    0 -0.14066065833E+01 -0.89691027707E+01  0.17167778511E+02  0.19420503742E+02  0.00000000000E+00 0.  1.
</event>
<event>
 7    1  0.1402367E-008  0.4614232E+02  0.7816164E-02  0.1320468E+00
        -11   -1    0    0    0    0  0.00000000000E+00  0.00000000000E+00  0.45593999997E+02  0.45594000000E+02  0.51100000000E-03 0.  1.
         11   -1    0    0    0    0 -0.00000000000E+00 -0.00000000000E+00 -0.45593999997E+02  0.45594000000E+02  0.51100000000E-03 0. -1.
    9900012    2    1    2    0    0 -0.48011384265E+01 -0.35783178720E+02  0.26937458221E+02  0.46142318021E+02  0.10000002374E+02 0.  0.
         12    1    1    2    0    0  0.48011384265E+01  0.35783178720E+02 -0.26937458221E+02  0.45045681979E+02  0.00000000000E+00 0. -1.
         11    1    3    3    0    0 -0.71173120981E+00 -0.26585648191E+02  0.19462419179E+02  0.32955864602E+02  0.51100000000E-03 0. -1.
        -11    1    3    3    0    0  0.18028226165E+00 -0.42950831383E+01  0.36791708252E+01  0.56583159226E+01  0.51100000000E-03 0.  1.
         12    1    3    3    0    0 -0.42696894784E+01 -0.49024473902E+01  0.37958682172E+01  0.75281374973E+01  0.00000000000E+00 0. -1.
</event>
<event>
 7    1  0.1402367E-008  0.4614232E+02  0.7816164E-02  0.1320468E+00
        -11   -1    0    0    0    0  0.00000000000E+00  0.00000000000E+00  0.45593999997E+02  0.45594000000E+02  0.51100000000E-03 0.  1.
         11   -1    0    0    0    0 -0.00000000000E+00 -0.00000000000E+00 -0.45593999997E+02  0.45594000000E+02  0.51100000000E-03 0. -1.
    9900012    2    1    2    0    0  0.40944021106E+02  0.11118530579E+02  0.15135355029E+02  0.46142316984E+02  0.99999929125E+01 0.  0.
         12    1    1    2    0    0 -0.40944021106E+02 -0.11118530579E+02 -0.15135355029E+02  0.45045683016E+02  0.00000000000E+00 0. -1.
         11    1    3    3    0    0  0.13430093458E+01 -0.63182322902E+00  0.19637303540E+01  0.24615263273E+01  0.51100000000E-03 0. -1.
        -11    1    3    3    0    0  0.16471624702E+02  0.21932112002E+01  0.49441340462E+01  0.17336927566E+02  0.51100000000E-03 0.  1.
        -12    1    3    3    0    0  0.23129387058E+02  0.95571426080E+01  0.82274906284E+01  0.26343863091E+02  0.00000000000E+00 0.  1.
</event>
<event>
 7    1  0.1402367E-008  0.4614232E+02  0.7816164E-02  0.1320468E+00
        -11   -1    0    0    0    0  0.00000000000E+00  0.00000000000E+00  0.45593999997E+02  0.45594000000E+02  0.51100000000E-03 0.  1.
         11   -1    0    0    0    0 -0.00000000000E+00 -0.00000000000E+00 -0.45593999997E+02  0.45594000000E+02  0.51100000000E-03 0. -1.
    9900012    2    1    2    0    0 -0.31006156833E+02  0.19582823627E+02  0.26158071205E+02  0.46142318388E+02  0.10000005714E+02 0.  0.
         12    1    1    2    0    0  0.31006156833E+02 -0.19582823627E+02 -0.26158071205E+02  0.45045681612E+02  0.00000000000E+00 0. -1.
         11    1    3    3    0    0 -0.74415259941E+01  0.27650289254E+01  0.88660898921E+01  0.11900808557E+02  0.51100000000E-03 0. -1.
        -11    1    3    3    0    0 -0.11774450927E+02  0.11278004518E+02  0.11685546657E+02  0.20059488564E+02  0.51100000000E-03 0.  1.
         12    1    3    3    0    0 -0.11790179912E+02  0.55397901841E+01  0.56064346553E+01  0.14182021266E+02  0.00000000000E+00 0. -1.
</event>
<event>
 7    1  0.1402367E-008  0.4614232E+02  0.7816164E-02  0.1320468E+00
        -11   -1    0    0    0    0  0.00000000000E+00  0.00000000000E+00  0.45593999997E+02  0.45594000000E+02  0.51100000000E-03 0. -1.
         11   -1    0    0    0    0 -0.00000000000E+00 -0.00000000000E+00 -0.45593999997E+02  0.45594000000E+02  0.51100000000E-03 0.  1.
    9900012    2    1    2    0    0 -0.51164488460E+01  0.25217526381E+01 -0.44683063885E+02  0.46142317817E+02  0.10000000507E+02 0.  0.
         12    1    1    2    0    0  0.51164488460E+01 -0.25217526381E+01  0.44683063885E+02  0.45045682183E+02  0.00000000000E+00 0. -1.
         11    1    3    3    0    0 -0.53841493106E+01  0.46257577493E+01 -0.17881606493E+02  0.19238985150E+02  0.51100000000E-03 0. -1.
        -11    1    3    3    0    0 -0.66008179894E-02 -0.18367568758E+01 -0.24627600577E+02  0.24696000280E+02  0.51100000000E-03 0.  1.
         12    1    3    3    0    0  0.27430128257E+00 -0.26724823535E+00 -0.21738568151E+01  0.22073323867E+01  0.00000000000E+00 0. -1.
</event>
<event>
 7    1  0.1402367E-008  0.4614232E+02  0.7816164E-02  0.1320468E+00
        -11   -1    0    0    0    0  0.00000000000E+00  0.00000000000E+00  0.45593999997E+02  0.45594000000E+02  0.51100000000E-03 0.  1.
         11   -1    0    0    0    0 -0.00000000000E+00 -0.00000000000E+00 -0.45593999997E+02  0.45594000000E+02  0.51100000000E-03 0. -1.
    9900012    2    1    2    0    0  0.29544605017E+02 -0.93693813929E+01  0.32687070862E+02  0.46142316579E+02  0.99999892236E+01 0.  0.
         12    1    1    2    0    0 -0.29544605017E+02  0.93693813929E+01 -0.32687070862E+02  0.45045683421E+02  0.00000000000E+00 0. -1.
         11    1    3    3    0    0  0.52180108360E+01  0.15670200736E+01  0.44234510631E+01  0.70178421587E+01  0.51100000000E-03 0. -1.
        -11    1    3    3    0    0  0.19906794456E+02 -0.76980811348E+01  0.20282002962E+02  0.29443175153E+02  0.51100000000E-03 0.  1.
        -12    1    3    3    0    0  0.44197997250E+01 -0.32383203316E+01  0.79816168370E+01  0.96812992678E+01  0.00000000000E+00 0.  1.
</event>
<event>
 7    1  0.1402367E-008  0.4614232E+02  0.7816164E-02  0.1320468E+00
        -11   -1    0    0    0    0  0.00000000000E+00  0.00000000000E+00  0.45593999997E+02  0.45594000000E+02  0.51100000000E-03 0.  1.
         11   -1    0    0    0    0 -0.00000000000E+00 -0.00000000000E+00 -0.45593999997E+02  0.45594000000E+02  0.51100000000E-03 0. -1.
    9900012    2    1    2    0    0  0.11778229867E+02  0.44076387813E+01  0.43254589944E+02  0.46142317303E+02  0.99999958219E+01 0.  0.
         12    1    1    2    0    0 -0.11778229867E+02 -0.44076387813E+01 -0.43254589944E+02  0.45045682697E+02  0.00000000000E+00 0. -1.
         11    1    3    3    0    0  0.70630242819E+01  0.18835313001E+01  0.20486351194E+02  0.21751427256E+02  0.51100000000E-03 0.  1.
        -11    1    3    3    0    0 -0.91800286397E-02  0.33335262425E+01  0.51697597103E+01  0.61513329617E+01  0.51100000000E-03 0. -1.
         12    1    3    3    0    0  0.47243856139E+01 -0.80941876130E+00  0.17598479039E+02  0.18239557085E+02  0.00000000000E+00 0. -1.
</event>
<event>
 7    1  0.1402367E-008  0.4614232E+02  0.7816164E-02  0.1320468E+00
        -11   -1    0    0    0    0  0.00000000000E+00  0.00000000000E+00  0.45593999997E+02  0.45594000000E+02  0.51100000000E-03 0. -1.
         11   -1    0    0    0    0 -0.00000000000E+00 -0.00000000000E+00 -0.45593999997E+02  0.45594000000E+02  0.51100000000E-03 0.  1.
    9900012    2    1    2    0    0 -0.37944126198E+02  0.24258794393E+02  0.93148139915E+00  0.46142317899E+02  0.10000001262E+02 0.  0.
         12    1    1    2    0    0  0.37944126198E+02 -0.24258794393E+02 -0.93148139915E+00  0.45045682101E+02  0.00000000000E+00 0. -1.
         11    1    3    3    0    0 -0.14989992087E+02  0.52233080053E+01  0.88334511476E+00  0.15898525344E+02  0.51100000000E-03 0. -1.
        -11    1    3    3    0    0 -0.12806739088E+02  0.13105217494E+02  0.15774669322E+01  0.18391511461E+02  0.51100000000E-03 0.  1.
        -12    1    3    3    0    0 -0.10147395023E+02  0.59302688932E+01 -0.15293306478E+01  0.11852281094E+02  0.00000000000E+00 0.  1.
</event>
<event>
 7    1  0.1402367E-008  0.4614232E+02  0.7816164E-02  0.1320468E+00
        -11   -1    0    0    0    0  0.00000000000E+00  0.00000000000E+00  0.45593999997E+02  0.45594000000E+02  0.51100000000E-03 0.  1.
         11   -1    0    0    0    0 -0.00000000000E+00 -0.00000000000E+00 -0.45593999997E+02  0.45594000000E+02  0.51100000000E-03 0. -1.
    9900012    2    1    2    0    0 -0.13628644656E+02  0.27112102417E+02  0.33291252413E+02  0.46142317189E+02  0.99999947860E+01 0.  0.
         12    1    1    2    0    0  0.13628644656E+02 -0.27112102417E+02 -0.33291252413E+02  0.45045682811E+02  0.00000000000E+00 0. -1.
         11    1    3    3    0    0 -0.11692132779E+02  0.19185466518E+02  0.18134431784E+02  0.28872923490E+02  0.51100000000E-03 0. -1.
        -11    1    3    3    0    0 -0.12070589386E+01  0.35419551735E+01  0.56784272026E+01  0.68005127372E+01  0.51100000000E-03 0.  1.
         12    1    3    3    0    0 -0.72945293770E+00  0.43846807254E+01  0.94783934269E+01  0.10468880962E+02  0.00000000000E+00 0. -1.
</event>
<event>
 7    1  0.1402367E-008  0.4614232E+02  0.7816164E-02  0.1320468E+00
        -11   -1    0    0    0    0  0.00000000000E+00  0.00000000000E+00  0.45593999997E+02  0.45594000000E+02  0.51100000000E-03 0.  1.
         11   -1    0    0    0    0 -0.00000000000E+00 -0.00000000000E+00 -0.45593999997E+02  0.45594000000E+02  0.51100000000E-03 0. -1.
    9900012    2    1    2    0    0 -0.17667450631E+00  0.16572396254E+02  0.41886009846E+02  0.46142319271E+02  0.10000013772E+02 0.  0.
         12    1    1    2    0    0  0.17667450631E+00 -0.16572396254E+02 -0.41886009846E+02  0.45045680729E+02  0.00000000000E+00 0. -1.
         11    1    3    3    0    0 -0.10617899987E+01  0.77307508251E+01  0.12334472239E+02  0.14595585360E+02  0.51100000000E-03 0. -1.
        -11    1    3    3    0    0 -0.79424572579E+00  0.81534059196E+01  0.17069963589E+02  0.18933898478E+02  0.51100000000E-03 0.  1.
         12    1    3    3    0    0  0.16793612182E+01  0.68823950971E+00  0.12481574017E+02  0.12612835434E+02  0.00000000000E+00 0. -1.
</event>
<event>
 7    1  0.1402367E-008  0.4614232E+02  0.7816164E-02  0.1320468E+00
        -11   -1    0    0    0    0  0.00000000000E+00  0.00000000000E+00  0.45593999997E+02  0.45594000000E+02  0.51100000000E-03 0.  1.
         11   -1    0    0    0    0 -0.00000000000E+00 -0.00000000000E+00 -0.45593999997E+02  0.45594000000E+02  0.51100000000E-03 0. -1.
    9900012    2    1    2    0    0  0.57176876571E+01  0.37174089573E+02  0.24789280433E+02  0.46142319718E+02  0.10000017840E+02 0.  0.
         12    1    1    2    0    0 -0.57176876571E+01 -0.37174089573E+02 -0.24789280433E+02  0.45045680282E+02  0.00000000000E+00 0. -1.
         11    1    3    3    0    0  0.54151300526E+01  0.22754961879E+02  0.12273626049E+02  0.26415030196E+02  0.51100000000E-03 0. -1.
        -11    1    3    3    0    0  0.13157128318E+01  0.55305384961E+01  0.22589933136E+01  0.61172712351E+01  0.51100000000E-03 0.  1.
         12    1    3    3    0    0 -0.10131552272E+01  0.88885891979E+01  0.10256661071E+02  0.13610018287E+02  0.00000000000E+00 0. -1.
</event>
<event>
 7    1  0.1402367E-008  0.4614232E+02  0.7816164E-02  0.1320468E+00
        -11   -1    0    0    0    0  0.00000000000E+00  0.00000000000E+00  0.45593999997E+02  0.45594000000E+02  0.51100000000E-03 0.  1.
         11   -1    0    0    0    0 -0.00000000000E+00 -0.00000000000E+00 -0.45593999997E+02  0.45594000000E+02  0.51100000000E-03 0. -1.
    9900012    2    1    2    0    0 -0.99402670678E+01  0.17106168640E+01  0.43901918080E+02  0.46142317293E+02  0.99999957276E+01 0.  0.
         12    1    1    2    0    0  0.99402670678E+01 -0.17106168640E+01 -0.43901918080E+02  0.45045682707E+02  0.00000000000E+00 0. -1.
         11    1    3    3    0    0 -0.25782682194E+01 -0.20577035719E+01  0.35231657090E+01  0.48264177062E+01  0.51100000000E-03 0. -1.
        -11    1    3    3    0    0 -0.37496436447E+01  0.36550524596E+00  0.18811823092E+02  0.19185361864E+02  0.51100000000E-03 0.  1.
         12    1    3    3    0    0 -0.36123552037E+01  0.34028151899E+01  0.21566929280E+02  0.22130537723E+02  0.00000000000E+00 0. -1.
</event>
<event>
 7    1  0.1402367E-008  0.4614232E+02  0.7816164E-02  0.1320468E+00
        -11   -1    0    0    0    0  0.00000000000E+00  0.00000000000E+00  0.45593999997E+02  0.45594000000E+02  0.51100000000E-03 0.  1.
         11   -1    0    0    0    0 -0.00000000000E+00 -0.00000000000E+00 -0.45593999997E+02  0.45594000000E+02  0.51100000000E-03 0. -1.
    9900012    2    1    2    0    0  0.13972591163E+02 -0.97700921761E+01  0.41694430532E+02  0.46142317162E+02  0.99999945355E+01 0.  0.
         12    1    1    2    0    0 -0.13972591163E+02  0.97700921761E+01 -0.41694430532E+02  0.45045682838E+02  0.00000000000E+00 0. -1.
         11    1    3    3    0    0  0.84049846431E+01 -0.98080278299E+01  0.25773724010E+02  0.28829256431E+02  0.51100000000E-03 0. -1.
        -11    1    3    3    0    0  0.56262119150E+01 -0.10376682627E+01  0.13170868563E+02  0.14359763052E+02  0.51100000000E-03 0.  1.
         12    1    3    3    0    0 -0.58605395479E-01  0.10756039166E+01  0.27498379595E+01  0.29532976791E+01  0.00000000000E+00 0. -1.
</event>
<event>
 7    1  0.1402367E-008  0.4614232E+02  0.7816164E-02  0.1320468E+00
        -11   -1    0    0    0    0  0.00000000000E+00  0.00000000000E+00  0.45593999997E+02  0.45594000000E+02  0.51100000000E-03 0. -1.
         11   -1    0    0    0    0 -0.00000000000E+00 -0.00000000000E+00 -0.45593999997E+02  0.45594000000E+02  0.51100000000E-03 0.  1.
    9900012    2    1    2    0    0  0.36662317414E+02 -0.80922218228E+01 -0.24889836973E+02  0.46142317002E+02  0.99999930788E+01 0.  0.
         12    1    1    2    0    0 -0.36662317414E+02  0.80922218228E+01  0.24889836973E+02  0.45045682998E+02  0.00000000000E+00 0. -1.
         11    1    3    3    0    0  0.32024606918E+01  0.17906242753E+01 -0.23668881799E+01  0.43662626691E+01  0.51100000000E-03 0. -1.
        -11    1    3    3    0    0  0.20388960939E+02 -0.42077809947E+01 -0.11690342618E+02  0.23876332630E+02  0.51100000000E-03 0.  1.
        -12    1    3    3    0    0  0.13070895784E+02 -0.56750651034E+01 -0.10832606174E+02  0.17899721703E+02  0.00000000000E+00 0.  1.
</event>
<event>
 7    1  0.1402367E-008  0.4614232E+02  0.7816164E-02  0.1320468E+00
        -11   -1    0    0    0    0  0.00000000000E+00  0.00000000000E+00  0.45593999997E+02  0.45594000000E+02  0.51100000000E-03 0. -1.
         11   -1    0    0    0    0 -0.00000000000E+00 -0.00000000000E+00 -0.45593999997E+02  0.45594000000E+02  0.51100000000E-03 0.  1.
    9900012    2    1    2    0    0 -0.41287528177E+02 -0.18002701437E+02  0.59687194348E+00  0.46142317653E+02  0.99999990106E+01 0.  0.
         12    1    1    2    0    0  0.41287528177E+02  0.18002701437E+02 -0.59687194348E+00  0.45045682347E+02  0.00000000000E+00 0. -1.
         11    1    3    3    0    0 -0.86804273379E+01 -0.59993140820E+00  0.18679541807E+01  0.88993814136E+01  0.51100000000E-03 0. -1.
        -11    1    3    3    0    0 -0.14699753314E+02 -0.92406358170E+01  0.12218695658E+01  0.17405891626E+02  0.51100000000E-03 0.  1.
        -12    1    3    3    0    0 -0.17907347526E+02 -0.81621342119E+01 -0.24929518031E+01  0.19837044613E+02  0.00000000000E+00 0.  1.
</event>
<event>
 7    1  0.1402367E-008  0.4614232E+02  0.7816164E-02  0.1320468E+00
        -11   -1    0    0    0    0  0.00000000000E+00  0.00000000000E+00  0.45593999997E+02  0.45594000000E+02  0.51100000000E-03 0.  1.
         11   -1    0    0    0    0 -0.00000000000E+00 -0.00000000000E+00 -0.45593999997E+02  0.45594000000E+02  0.51100000000E-03 0. -1.
    9900012    2    1    2    0    0 -0.29390220654E+01 -0.17180134633E+02  0.41536954923E+02  0.46142317621E+02  0.99999987244E+01 0.  0.
         12    1    1    2    0    0  0.29390220654E+01  0.17180134633E+02 -0.41536954923E+02  0.45045682379E+02  0.00000000000E+00 0. -1.
         11    1    3    3    0    0 -0.22700216451E+01 -0.88707302052E+01  0.14267835665E+02  0.16953288397E+02  0.51100000000E-03 0. -1.
        -11    1    3    3    0    0  0.59457956000E+00 -0.68633320048E+01  0.12305007960E+02  0.14102200971E+02  0.51100000000E-03 0.  1.
         12    1    3    3    0    0 -0.12635799803E+01 -0.14460724227E+01  0.14964111298E+02  0.15086828254E+02  0.00000000000E+00 0. -1.
</event>
<event>
 7    1  0.1402367E-008  0.4614232E+02  0.7816164E-02  0.1320468E+00
        -11   -1    0    0    0    0  0.00000000000E+00  0.00000000000E+00  0.45593999997E+02  0.45594000000E+02  0.51100000000E-03 0.  1.
         11   -1    0    0    0    0 -0.00000000000E+00 -0.00000000000E+00 -0.45593999997E+02  0.45594000000E+02  0.51100000000E-03 0. -1.
    9900012    2    1    2    0    0 -0.77888521587E+01  0.27272316999E+02  0.34995257098E+02  0.46142317501E+02  0.99999976272E+01 0.  0.
         12    1    1    2    0    0  0.77888521587E+01 -0.27272316999E+02 -0.34995257098E+02  0.45045682499E+02  0.00000000000E+00 0. -1.
         11    1    3    3    0    0 -0.18557042556E+01  0.27338608909E+01  0.17986884729E+01  0.37620359035E+01  0.51100000000E-03 0. -1.
        -11    1    3    3    0    0  0.70563917504E+00  0.71995394994E+01  0.57357927322E+01  0.92320427954E+01  0.51100000000E-03 0.  1.
        -12    1    3    3    0    0 -0.66387870781E+01  0.17338916609E+02  0.27460775893E+02  0.33148238802E+02  0.00000000000E+00 0.  1.
</event>
<event>
 7    1  0.1402367E-008  0.4614232E+02  0.7816164E-02  0.1320468E+00
        -11   -1    0    0    0    0  0.00000000000E+00  0.00000000000E+00  0.45593999997E+02  0.45594000000E+02  0.51100000000E-03 0.  1.
         11   -1    0    0    0    0 -0.00000000000E+00 -0.00000000000E+00 -0.45593999997E+02  0.45594000000E+02  0.51100000000E-03 0. -1.
    9900012    2    1    2    0    0 -0.36536185233E+02 -0.75761606391E+01  0.25235343559E+02  0.46142316456E+02  0.99999880959E+01 0.  0.
         12    1    1    2    0    0  0.36536185233E+02  0.75761606391E+01 -0.25235343559E+02  0.45045683544E+02  0.00000000000E+00 0. -1.
         11    1    3    3    0    0 -0.57178908950E+00  0.52594077720E+00  0.26245332902E+01  0.27371027961E+01  0.51100000000E-03 0. -1.
        -11    1    3    3    0    0 -0.68522934805E+01 -0.15849076191E+01  0.26760718474E+01  0.75251059061E+01  0.51100000000E-03 0.  1.
         12    1    3    3    0    0 -0.29112102663E+02 -0.65171937972E+01  0.19934738422E+02  0.35880107753E+02  0.00000000000E+00 0. -1.
</event>
<event>
 7    1  0.1402367E-008  0.4614232E+02  0.7816164E-02  0.1320468E+00
        -11   -1    0    0    0    0  0.00000000000E+00  0.00000000000E+00  0.45593999997E+02  0.45594000000E+02  0.51100000000E-03 0.  1.
         11   -1    0    0    0    0 -0.00000000000E+00 -0.00000000000E+00 -0.45593999997E+02  0.45594000000E+02  0.51100000000E-03 0. -1.
    9900012    2    1    2    0    0  0.16658406861E+02  0.12781186766E+02  0.39852882113E+02  0.46142317998E+02  0.10000002164E+02 0.  0.
         12    1    1    2    0    0 -0.16658406861E+02 -0.12781186766E+02 -0.39852882113E+02  0.45045682002E+02  0.00000000000E+00 0. -1.
         11    1    3    3    0    0  0.64811388844E+01  0.10973242351E+01  0.71923828504E+01  0.97436981195E+01  0.51100000000E-03 0. -1.
        -11    1    3    3    0    0  0.13695918708E+01  0.31926303871E+01  0.44189768325E+01  0.56210343522E+01  0.51100000000E-03 0.  1.
         12    1    3    3    0    0  0.88076761053E+01  0.84912321434E+01  0.28241522430E+02  0.30777585527E+02  0.00000000000E+00 0. -1.
</event>
<event>
 7    1  0.1402367E-008  0.4614232E+02  0.7816164E-02  0.1320468E+00
        -11   -1    0    0    0    0  0.00000000000E+00  0.00000000000E+00  0.45593999997E+02  0.45594000000E+02  0.51100000000E-03 0. -1.
         11   -1    0    0    0    0 -0.00000000000E+00 -0.00000000000E+00 -0.45593999997E+02  0.45594000000E+02  0.51100000000E-03 0.  1.
    9900012    2    1    2    0    0  0.15288234191E+02  0.38334246600E+02 -0.18051844260E+02  0.46142315986E+02  0.99999838100E+01 0.  0.
         12    1    1    2    0    0 -0.15288234191E+02 -0.38334246600E+02  0.18051844260E+02  0.45045684014E+02  0.00000000000E+00 0. -1.
         11    1    3    3    0    0  0.48985027477E+01  0.14547390835E+02 -0.11154718316E+02  0.18974974315E+02  0.51100000000E-03 0. -1.
        -11    1    3    3    0    0  0.67421355173E+01  0.19081483092E+02 -0.43949628061E+01  0.20709299521E+02  0.51100000000E-03 0.  1.
         12    1    3    3    0    0  0.36475959264E+01  0.47053726738E+01 -0.25021631381E+01  0.64580421500E+01  0.00000000000E+00 0. -1.
</event>
<event>
 7    1  0.1402367E-008  0.4614232E+02  0.7816164E-02  0.1320468E+00
        -11   -1    0    0    0    0  0.00000000000E+00  0.00000000000E+00  0.45593999997E+02  0.45594000000E+02  0.51100000000E-03 0.  1.
         11   -1    0    0    0    0 -0.00000000000E+00 -0.00000000000E+00 -0.45593999997E+02  0.45594000000E+02  0.51100000000E-03 0. -1.
    9900012    2    1    2    0    0  0.33756129924E+02  0.11992212573E+02  0.27309779508E+02  0.46142317337E+02  0.99999961283E+01 0.  0.
         12    1    1    2    0    0 -0.33756129924E+02 -0.11992212573E+02 -0.27309779508E+02  0.45045682663E+02  0.00000000000E+00 0. -1.
         11    1    3    3    0    0  0.81628371638E+01 -0.66666349619E+00  0.38606148887E+01  0.90543193206E+01  0.51100000000E-03 0. -1.
        -11    1    3    3    0    0  0.13881559183E+02  0.53154417235E+01  0.11097733893E+02  0.18550237300E+02  0.51100000000E-03 0.  1.
         12    1    3    3    0    0  0.11711733577E+02  0.73434343453E+01  0.12351430727E+02  0.18537760716E+02  0.00000000000E+00 0. -1.
</event>
<event>
 7    1  0.1402367E-008  0.4614232E+02  0.7816164E-02  0.1320468E+00
        -11   -1    0    0    0    0  0.00000000000E+00  0.00000000000E+00  0.45593999997E+02  0.45594000000E+02  0.51100000000E-03 0.  1.
         11   -1    0    0    0    0 -0.00000000000E+00 -0.00000000000E+00 -0.45593999997E+02  0.45594000000E+02  0.51100000000E-03 0. -1.
    9900012    2    1    2    0    0 -0.29966981835E+02 -0.18290384175E+02  0.28223312653E+02  0.46142317291E+02  0.99999957169E+01 0.  0.
         12    1    1    2    0    0  0.29966981835E+02  0.18290384175E+02 -0.28223312653E+02  0.45045682709E+02  0.00000000000E+00 0. -1.
         11    1    3    3    0    0 -0.20015616823E+01  0.79310367888E+00  0.48755334438E+00  0.22074807220E+01  0.51100000000E-03 0. -1.
        -11    1    3    3    0    0 -0.19525381848E+02 -0.14647075490E+02  0.21622317812E+02  0.32608311587E+02  0.51100000000E-03 0.  1.
         12    1    3    3    0    0 -0.84400383048E+01 -0.44364123645E+01  0.61134414967E+01  0.11326524983E+02  0.00000000000E+00 0. -1.
</event>
<event>
 7    1  0.1402367E-008  0.4614231E+02  0.7816164E-02  0.1320468E+00
        -11   -1    0    0    0    0  0.00000000000E+00  0.00000000000E+00  0.45593999997E+02  0.45594000000E+02  0.51100000000E-03 0.  1.
         11   -1    0    0    0    0 -0.00000000000E+00 -0.00000000000E+00 -0.45593999997E+02  0.45594000000E+02  0.51100000000E-03 0. -1.
    9900012    2    1    2    0    0 -0.11123654528E+02 -0.96117598338E+01  0.42579246049E+02  0.46142314177E+02  0.99999673178E+01 0.  0.
         12    1    1    2    0    0  0.11123654528E+02  0.96117598338E+01 -0.42579246049E+02  0.45045685823E+02  0.00000000000E+00 0. -1.
         11    1    3    3    0    0 -0.21081456309E+01 -0.67008583724E+01  0.11658696630E+02  0.13611428591E+02  0.51100000000E-03 0. -1.
        -11    1    3    3    0    0 -0.51269362991E+01 -0.85742318495E+00  0.21721123689E+02  0.22334454659E+02  0.51100000000E-03 0.  1.
         12    1    3    3    0    0 -0.38885725984E+01 -0.20534782765E+01  0.91994257298E+01  0.10196430927E+02  0.00000000000E+00 0. -1.
</event>
<event>
 7    1  0.1402367E-008  0.4614232E+02  0.7816164E-02  0.1320468E+00
        -11   -1    0    0    0    0  0.00000000000E+00  0.00000000000E+00  0.45593999997E+02  0.45594000000E+02  0.51100000000E-03 0.  1.
         11   -1    0    0    0    0 -0.00000000000E+00 -0.00000000000E+00 -0.45593999997E+02  0.45594000000E+02  0.51100000000E-03 0. -1.
    9900012    2    1    2    0    0 -0.23184701426E+02 -0.14756331202E+02  0.35690808703E+02  0.46142317448E+02  0.99999971405E+01 0.  0.
         12    1    1    2    0    0  0.23184701426E+02  0.14756331202E+02 -0.35690808703E+02  0.45045682552E+02  0.00000000000E+00 0. -1.
         11    1    3    3    0    0 -0.95512244128E+01 -0.10451390628E+02  0.13790474538E+02  0.19764479302E+02  0.51100000000E-03 0. -1.
        -11    1    3    3    0    0 -0.12210281684E+02 -0.28131182516E+01  0.19822027700E+02  0.23450317599E+02  0.51100000000E-03 0.  1.
        -12    1    3    3    0    0 -0.14231953294E+01 -0.14918223226E+01  0.20783064649E+01  0.29275205464E+01  0.00000000000E+00 0.  1.
</event>
<event>
 7    1  0.1402367E-008  0.4614232E+02  0.7816164E-02  0.1320468E+00
        -11   -1    0    0    0    0  0.00000000000E+00  0.00000000000E+00  0.45593999997E+02  0.45594000000E+02  0.51100000000E-03 0. -1.
         11   -1    0    0    0    0 -0.00000000000E+00 -0.00000000000E+00 -0.45593999997E+02  0.45594000000E+02  0.51100000000E-03 0.  1.
    9900012    2    1    2    0    0  0.24137978803E+02  0.26652184683E+02 -0.27131762025E+02  0.46142317858E+02  0.10000000880E+02 0.  0.
         12    1    1    2    0    0 -0.24137978803E+02 -0.26652184683E+02  0.27131762025E+02  0.45045682142E+02  0.00000000000E+00 0. -1.
         11    1    3    3    0    0  0.15341446339E+02  0.18926564185E+02 -0.14623408691E+02  0.28415117273E+02  0.51100000000E-03 0. -1.
        -11    1    3    3    0    0  0.50323423638E+01  0.20775089640E+01 -0.76091746240E+01  0.93562840852E+01  0.51100000000E-03 0.  1.
        -12    1    3    3    0    0  0.37641901007E+01  0.56481115333E+01 -0.48991787104E+01  0.83709164996E+01  0.00000000000E+00 0.  1.
</event>
<event>
 7    1  0.1402367E-008  0.4614232E+02  0.7816164E-02  0.1320468E+00
        -11   -1    0    0    0    0  0.00000000000E+00  0.00000000000E+00  0.45593999997E+02  0.45594000000E+02  0.51100000000E-03 0.  1.
         11   -1    0    0    0    0 -0.00000000000E+00 -0.00000000000E+00 -0.45593999997E+02  0.45594000000E+02  0.51100000000E-03 0. -1.
    9900012    2    1    2    0    0  0.17662189399E+02  0.29372070726E+02  0.29230840143E+02  0.46142317759E+02  0.99999999809E+01 0.  0.
         12    1    1    2    0    0 -0.17662189399E+02 -0.29372070726E+02 -0.29230840143E+02  0.45045682241E+02  0.00000000000E+00 0. -1.
         11    1    3    3    0    0  0.88506371956E+00  0.79645843811E+00 -0.16947700093E+00  0.12026664318E+01  0.51100000000E-03 0. -1.
        -11    1    3    3    0    0 -0.29016828003E+00  0.25337719113E+01  0.40615465623E+01  0.47958688961E+01  0.51100000000E-03 0.  1.
        -12    1    3    3    0    0  0.17067293959E+02  0.26041840377E+02  0.25338770582E+02  0.40143782431E+02  0.00000000000E+00 0.  1.
</event>
<event>
 7    1  0.1402367E-008  0.4614232E+02  0.7816164E-02  0.1320468E+00
        -11   -1    0    0    0    0  0.00000000000E+00  0.00000000000E+00  0.45593999997E+02  0.45594000000E+02  0.51100000000E-03 0.  1.
         11   -1    0    0    0    0 -0.00000000000E+00 -0.00000000000E+00 -0.45593999997E+02  0.45594000000E+02  0.51100000000E-03 0. -1.
    9900012    2    1    2    0    0  0.21582752698E+02  0.28301610398E+02  0.27610091268E+02  0.46142317576E+02  0.99999983160E+01 0.  0.
         12    1    1    2    0    0 -0.21582752698E+02 -0.28301610398E+02 -0.27610091268E+02  0.45045682424E+02  0.00000000000E+00 0. -1.
         11    1    3    3    0    0  0.27998185201E+01  0.66625684617E+01  0.29817213900E+01  0.78178938955E+01  0.51100000000E-03 0. -1.
        -11    1    3    3    0    0  0.94746935364E+01  0.15173512233E+02  0.13220406201E+02  0.22243750391E+02  0.51100000000E-03 0.  1.
         12    1    3    3    0    0  0.93082406419E+01  0.64655297040E+01  0.11407963676E+02  0.16080673290E+02  0.00000000000E+00 0. -1.
</event>
<event>
 7    1  0.1402367E-008  0.4614232E+02  0.7816164E-02  0.1320468E+00
        -11   -1    0    0    0    0  0.00000000000E+00  0.00000000000E+00  0.45593999997E+02  0.45594000000E+02  0.51100000000E-03 0.  1.
         11   -1    0    0    0    0 -0.00000000000E+00 -0.00000000000E+00 -0.45593999997E+02  0.45594000000E+02  0.51100000000E-03 0. -1.
    9900012    2    1    2    0    0 -0.43700203782E+02  0.63017621993E+01  0.89270953235E+01  0.46142322645E+02  0.10000044539E+02 0.  0.
         12    1    1    2    0    0  0.43700203782E+02 -0.63017621993E+01 -0.89270953235E+01  0.45045677355E+02  0.00000000000E+00 0. -1.
         11    1    3    3    0    0 -0.85544697615E+01 -0.40545964882E+00  0.24630077366E+01  0.89112152819E+01  0.51100000000E-03 0. -1.
        -11    1    3    3    0    0 -0.77776728213E+01 -0.12902887443E+01 -0.43395525849E+00  0.78959076100E+01  0.51100000000E-03 0.  1.
        -12    1    3    3    0    0 -0.27368061199E+02  0.79975105924E+01  0.68980428454E+01  0.29335199754E+02  0.00000000000E+00 0.  1.
</event>
<event>
 7    1  0.1402367E-008  0.4614232E+02  0.7816164E-02  0.1320468E+00
        -11   -1    0    0    0    0  0.00000000000E+00  0.00000000000E+00  0.45593999997E+02  0.45594000000E+02  0.51100000000E-03 0.  1.
         11   -1    0    0    0    0 -0.00000000000E+00 -0.00000000000E+00 -0.45593999997E+02  0.45594000000E+02  0.51100000000E-03 0. -1.
    9900012    2    1    2    0    0 -0.41869240160E+02 -0.88997098828E+01 -0.14031228671E+02  0.46142317792E+02  0.10000000280E+02 0.  0.
         12    1    1    2    0    0  0.41869240160E+02  0.88997098828E+01  0.14031228671E+02  0.45045682208E+02  0.00000000000E+00 0. -1.
         11    1    3    3    0    0 -0.35520657116E+02 -0.72307193300E+01 -0.13711841215E+02  0.38755837931E+02  0.51100000000E-03 0. -1.
        -11    1    3    3    0    0 -0.67562221423E+01 -0.14740542978E+01 -0.40328718863E+00  0.69269051189E+01  0.51100000000E-03 0.  1.
         12    1    3    3    0    0  0.40763909835E+00 -0.19493625508E+00  0.83899732289E-01  0.45957474161E+00  0.00000000000E+00 0. -1.
</event>
<event>
 7    1  0.1402367E-008  0.4614232E+02  0.7816164E-02  0.1320468E+00
        -11   -1    0    0    0    0  0.00000000000E+00  0.00000000000E+00  0.45593999997E+02  0.45594000000E+02  0.51100000000E-03 0. -1.
         11   -1    0    0    0    0 -0.00000000000E+00 -0.00000000000E+00 -0.45593999997E+02  0.45594000000E+02  0.51100000000E-03 0.  1.
    9900012    2    1    2    0    0  0.93364501903E+01 -0.34318153743E+02 -0.27644321552E+02  0.46142317715E+02  0.99999995777E+01 0.  0.
         12    1    1    2    0    0 -0.93364501903E+01  0.34318153743E+02  0.27644321552E+02  0.45045682285E+02  0.00000000000E+00 0. -1.
         11    1    3    3    0    0  0.19697503338E+01 -0.66943945184E+01 -0.30588257390E+01  0.76191370580E+01  0.51100000000E-03 0. -1.
        -11    1    3    3    0    0  0.48287852916E+01 -0.82090295594E+01 -0.11688681614E+02  0.15077486920E+02  0.51100000000E-03 0.  1.
        -12    1    3    3    0    0  0.25379145649E+01 -0.19414729665E+02 -0.12896814199E+02  0.23445693737E+02  0.00000000000E+00 0.  1.
</event>
<event>
 7    1  0.1402367E-008  0.4614232E+02  0.7816164E-02  0.1320468E+00
        -11   -1    0    0    0    0  0.00000000000E+00  0.00000000000E+00  0.45593999997E+02  0.45594000000E+02  0.51100000000E-03 0.  1.
         11   -1    0    0    0    0 -0.00000000000E+00 -0.00000000000E+00 -0.45593999997E+02  0.45594000000E+02  0.51100000000E-03 0. -1.
    9900012    2    1    2    0    0  0.21899620530E+02  0.37042217914E+02  0.13318941113E+02  0.46142317858E+02  0.10000000880E+02 0.  0.
         12    1    1    2    0    0 -0.21899620530E+02 -0.37042217914E+02 -0.13318941113E+02  0.45045682142E+02  0.00000000000E+00 0. -1.
         11    1    3    3    0    0  0.81626277675E+00  0.70590005811E+01  0.14576372119E+01  0.72539975618E+01  0.51100000000E-03 0. -1.
        -11    1    3    3    0    0  0.15360168576E+02  0.25049509511E+02  0.10542422345E+02  0.31217869476E+02  0.51100000000E-03 0.  1.
         12    1    3    3    0    0  0.57231891773E+01  0.49337078211E+01  0.13188815554E+01  0.76704508199E+01  0.00000000000E+00 0. -1.
</event>
<event>
 7    1  0.1402367E-008  0.4614232E+02  0.7816164E-02  0.1320468E+00
        -11   -1    0    0    0    0  0.00000000000E+00  0.00000000000E+00  0.45593999997E+02  0.45594000000E+02  0.51100000000E-03 0. -1.
         11   -1    0    0    0    0 -0.00000000000E+00 -0.00000000000E+00 -0.45593999997E+02  0.45594000000E+02  0.51100000000E-03 0.  1.
    9900012    2    1    2    0    0  0.72699424662E+01  0.41265361498E+02 -0.16535758392E+02  0.46142318424E+02  0.10000006048E+02 0.  0.
         12    1    1    2    0    0 -0.72699424662E+01 -0.41265361498E+02  0.16535758392E+02  0.45045681576E+02  0.00000000000E+00 0. -1.
         11    1    3    3    0    0  0.22007344286E+01  0.32384347313E+02 -0.12819212197E+02  0.34898730414E+02  0.51100000000E-03 0. -1.
        -11    1    3    3    0    0  0.47314572058E+01  0.89219909013E+01 -0.39358591968E+01  0.10838800525E+02  0.51100000000E-03 0.  1.
         12    1    3    3    0    0  0.33775083185E+00 -0.40976716253E-01  0.21931300181E+00  0.40478748555E+00  0.00000000000E+00 0. -1.
</event>
<event>
 7    1  0.1402367E-008  0.4614232E+02  0.7816164E-02  0.1320468E+00
        -11   -1    0    0    0    0  0.00000000000E+00  0.00000000000E+00  0.45593999997E+02  0.45594000000E+02  0.51100000000E-03 0.  1.
         11   -1    0    0    0    0 -0.00000000000E+00 -0.00000000000E+00 -0.45593999997E+02  0.45594000000E+02  0.51100000000E-03 0. -1.
    9900012    2    1    2    0    0  0.12489917336E+02  0.25583022553E+02  0.34908801133E+02  0.46142317915E+02  0.10000001402E+02 0.  0.
         12    1    1    2    0    0 -0.12489917336E+02 -0.25583022553E+02 -0.34908801133E+02  0.45045682085E+02  0.00000000000E+00 0. -1.
         11    1    3    3    0    0  0.13241954210E+01  0.27180323354E+01  0.93530784320E+01  0.98296118797E+01  0.51100000000E-03 0. -1.
        -11    1    3    3    0    0  0.88814781788E+01  0.17670515912E+02  0.22151396682E+02  0.29695322232E+02  0.51100000000E-03 0.  1.
         12    1    3    3    0    0  0.22842437360E+01  0.51944743054E+01  0.34043260185E+01  0.66173838029E+01  0.00000000000E+00 0. -1.
</event>
<event>
 7    1  0.1402367E-008  0.4614232E+02  0.7816164E-02  0.1320468E+00
        -11   -1    0    0    0    0  0.00000000000E+00  0.00000000000E+00  0.45593999997E+02  0.45594000000E+02  0.51100000000E-03 0.  1.
         11   -1    0    0    0    0 -0.00000000000E+00 -0.00000000000E+00 -0.45593999997E+02  0.45594000000E+02  0.51100000000E-03 0. -1.
    9900012    2    1    2    0    0 -0.40022803278E+01 -0.55050155473E+01  0.44528530961E+02  0.46142317482E+02  0.99999974547E+01 0.  0.
         12    1    1    2    0    0  0.40022803278E+01  0.55050155473E+01 -0.44528530961E+02  0.45045682518E+02  0.00000000000E+00 0. -1.
         11    1    3    3    0    0 -0.48348057699E+01 -0.48086595922E+01  0.17282411151E+02  0.18579028213E+02  0.51100000000E-03 0. -1.
        -11    1    3    3    0    0  0.12814749093E+01 -0.33224486474E+00  0.26801125907E+02  0.26833801720E+02  0.51100000000E-03 0.  1.
        -12    1    3    3    0    0 -0.44894946719E+00 -0.36411109033E+00  0.44499390273E+00  0.72948754866E+00  0.00000000000E+00 0.  1.
</event>
<event>
 7    1  0.1402367E-008  0.4614230E+02  0.7816164E-02  0.1320468E+00
        -11   -1    0    0    0    0  0.00000000000E+00  0.00000000000E+00  0.45593999997E+02  0.45594000000E+02  0.51100000000E-03 0.  1.
         11   -1    0    0    0    0 -0.00000000000E+00 -0.00000000000E+00 -0.45593999997E+02  0.45594000000E+02  0.51100000000E-03 0. -1.
    9900012    2    1    2    0    0 -0.13490287966E+02  0.41703764575E+02  0.10388594140E+02  0.46142303897E+02  0.99998735786E+01 0.  0.
         12    1    1    2    0    0  0.13490287966E+02 -0.41703764575E+02 -0.10388594140E+02  0.45045696103E+02  0.00000000000E+00 0. -1.
         11    1    3    3    0    0 -0.21406645998E+01  0.59954758412E+01 -0.28406480424E+00  0.63725088125E+01  0.51100000000E-03 0.  1.
        -11    1    3    3    0    0 -0.27042114936E+01  0.19717795278E+01  0.76204930683E-02  0.33467495636E+01  0.51100000000E-03 0. -1.
        -12    1    3    3    0    0 -0.86454118724E+01  0.33736509206E+02  0.10665038451E+02  0.36423045521E+02  0.00000000000E+00 0.  1.
</event>
<event>
 7    1  0.1402367E-008  0.4614232E+02  0.7816164E-02  0.1320468E+00
        -11   -1    0    0    0    0  0.00000000000E+00  0.00000000000E+00  0.45593999997E+02  0.45594000000E+02  0.51100000000E-03 0.  1.
         11   -1    0    0    0    0 -0.00000000000E+00 -0.00000000000E+00 -0.45593999997E+02  0.45594000000E+02  0.51100000000E-03 0. -1.
    9900012    2    1    2    0    0 -0.30604610066E+01 -0.43672126147E+02 -0.10606245507E+02  0.46142317992E+02  0.10000002109E+02 0.  0.
         12    1    1    2    0    0  0.30604610066E+01  0.43672126147E+02  0.10606245507E+02  0.45045682008E+02  0.00000000000E+00 0. -1.
         11    1    3    3    0    0  0.38069926571E+00 -0.28899504013E+02 -0.10909579603E+02  0.30892477912E+02  0.51100000000E-03 0. -1.
        -11    1    3    3    0    0 -0.28884768117E+01 -0.91411104850E+01  0.29880041434E+00  0.95912710909E+01  0.51100000000E-03 0.  1.
         12    1    3    3    0    0 -0.55268346064E+00 -0.56315116488E+01  0.45336818676E-02  0.56585689898E+01  0.00000000000E+00 0. -1.
</event>
<event>
 7    1  0.1402367E-008  0.4614232E+02  0.7816164E-02  0.1320468E+00
        -11   -1    0    0    0    0  0.00000000000E+00  0.00000000000E+00  0.45593999997E+02  0.45594000000E+02  0.51100000000E-03 0.  1.
         11   -1    0    0    0    0 -0.00000000000E+00 -0.00000000000E+00 -0.45593999997E+02  0.45594000000E+02  0.51100000000E-03 0. -1.
    9900012    2    1    2    0    0  0.39902195104E+02 -0.35637114074E+01 -0.20596803059E+02  0.46142317528E+02  0.99999978708E+01 0.  0.
         12    1    1    2    0    0 -0.39902195104E+02  0.35637114074E+01  0.20596803059E+02  0.45045682472E+02  0.00000000000E+00 0. -1.
         11    1    3    3    0    0  0.14832262234E+01  0.90880540804E+00 -0.29153110793E+01  0.33948381773E+01  0.51100000000E-03 0. -1.
        -11    1    3    3    0    0  0.22350668903E+02 -0.45276724232E+00 -0.10270871900E+02  0.24601792789E+02  0.51100000000E-03 0.  1.
         12    1    3    3    0    0  0.16068299978E+02 -0.40197495731E+01 -0.74106200801E+01  0.18145686561E+02  0.00000000000E+00 0. -1.
</event>
<event>
 7    1  0.1402367E-008  0.4614231E+02  0.7816164E-02  0.1320468E+00
        -11   -1    0    0    0    0  0.00000000000E+00  0.00000000000E+00  0.45593999997E+02  0.45594000000E+02  0.51100000000E-03 0.  1.
         11   -1    0    0    0    0 -0.00000000000E+00 -0.00000000000E+00 -0.45593999997E+02  0.45594000000E+02  0.51100000000E-03 0. -1.
    9900012    2    1    2    0    0  0.27334514036E+02 -0.24700972713E+02  0.25919106313E+02  0.46142314495E+02  0.99999702166E+01 0.  0.
         12    1    1    2    0    0 -0.27334514036E+02  0.24700972713E+02 -0.25919106313E+02  0.45045685505E+02  0.00000000000E+00 0. -1.
         11    1    3    3    0    0  0.76474236763E+01 -0.11631114694E+02  0.63930373461E+01  0.15317860317E+02  0.51100000000E-03 0. -1.
        -11    1    3    3    0    0  0.55040561246E+01 -0.54240437886E+01  0.58937197291E+01  0.97185810358E+01  0.51100000000E-03 0.  1.
         12    1    3    3    0    0  0.14183034235E+02 -0.76458142299E+01  0.13632349238E+02  0.21105873142E+02  0.00000000000E+00 0. -1.
</event>
<event>
 7    1  0.1402367E-008  0.4614233E+02  0.7816164E-02  0.1320468E+00
        -11   -1    0    0    0    0  0.00000000000E+00  0.00000000000E+00  0.45593999997E+02  0.45594000000E+02  0.51100000000E-03 0.  1.
         11   -1    0    0    0    0 -0.00000000000E+00 -0.00000000000E+00 -0.45593999997E+02  0.45594000000E+02  0.51100000000E-03 0. -1.
    9900012    2    1    2    0    0 -0.62153749222E+01 -0.43217388823E+02 -0.11078752146E+02  0.46142330605E+02  0.10000117123E+02 0.  0.
         12    1    1    2    0    0  0.62153749222E+01  0.43217388823E+02  0.11078752146E+02  0.45045669395E+02  0.00000000000E+00 0. -1.
         11    1    3    3    0    0 -0.33741227881E+01 -0.15802541814E+02 -0.64258110582E+01  0.17389539396E+02  0.51100000000E-03 0. -1.
        -11    1    3    3    0    0 -0.35682162249E+01 -0.26998475442E+02 -0.36991714460E+01  0.27483335184E+02  0.51100000000E-03 0.  1.
        -12    1    3    3    0    0  0.72696409081E+00 -0.41637156711E+00 -0.95376964141E+00  0.12694560253E+01  0.00000000000E+00 0.  1.
</event>
<event>
 7    1  0.1402367E-008  0.4614232E+02  0.7816164E-02  0.1320468E+00
        -11   -1    0    0    0    0  0.00000000000E+00  0.00000000000E+00  0.45593999997E+02  0.45594000000E+02  0.51100000000E-03 0.  1.
         11   -1    0    0    0    0 -0.00000000000E+00 -0.00000000000E+00 -0.45593999997E+02  0.45594000000E+02  0.51100000000E-03 0. -1.
    9900012    2    1    2    0    0  0.17880388042E+02  0.39248024681E+02  0.12999918860E+02  0.46142316431E+02  0.99999878675E+01 0.  0.
         12    1    1    2    0    0 -0.17880388042E+02 -0.39248024681E+02 -0.12999918860E+02  0.45045683569E+02  0.00000000000E+00 0. -1.
         11    1    3    3    0    0  0.63268594630E+01  0.70050466966E+01  0.46639650329E+01  0.10528646636E+02  0.51100000000E-03 0. -1.
        -11    1    3    3    0    0  0.56541677438E+01  0.22605469174E+02  0.50064685291E+01  0.23833622822E+02  0.51100000000E-03 0.  1.
        -12    1    3    3    0    0  0.58993608351E+01  0.96375088105E+01  0.33294852982E+01  0.11780046973E+02  0.00000000000E+00 0.  1.
</event>
<event>
 7    1  0.1402367E-008  0.4614232E+02  0.7816164E-02  0.1320468E+00
        -11   -1    0    0    0    0  0.00000000000E+00  0.00000000000E+00  0.45593999997E+02  0.45594000000E+02  0.51100000000E-03 0.  1.
         11   -1    0    0    0    0 -0.00000000000E+00 -0.00000000000E+00 -0.45593999997E+02  0.45594000000E+02  0.51100000000E-03 0. -1.
    9900012    2    1    2    0    0  0.25956197667E+01  0.13174438266E+02  0.42997796102E+02  0.46142317240E+02  0.99999952525E+01 0.  0.
         12    1    1    2    0    0 -0.25956197667E+01 -0.13174438266E+02 -0.42997796102E+02  0.45045682760E+02  0.00000000000E+00 0. -1.
         11    1    3    3    0    0  0.23825225381E+00 -0.53534733605E+00  0.28196788953E+01  0.28799219157E+01  0.51100000000E-03 0. -1.
        -11    1    3    3    0    0 -0.77691721547E+00  0.10312459145E+01  0.33575970227E+00  0.13340927009E+01  0.51100000000E-03 0.  1.
        -12    1    3    3    0    0  0.31342847284E+01  0.12678539688E+02  0.39842357505E+02  0.41928302624E+02  0.00000000000E+00 0.  1.
</event>
<event>
 7    1  0.1402367E-008  0.4614232E+02  0.7816164E-02  0.1320468E+00
        -11   -1    0    0    0    0  0.00000000000E+00  0.00000000000E+00  0.45593999997E+02  0.45594000000E+02  0.51100000000E-03 0.  1.
         11   -1    0    0    0    0 -0.00000000000E+00 -0.00000000000E+00 -0.45593999997E+02  0.45594000000E+02  0.51100000000E-03 0. -1.
    9900012    2    1    2    0    0  0.43335977252E+02  0.38540348140E+01  0.11672751939E+02  0.46142316005E+02  0.99999839897E+01 0.  0.
         12    1    1    2    0    0 -0.43335977252E+02 -0.38540348140E+01 -0.11672751939E+02  0.45045683995E+02  0.00000000000E+00 0. -1.
         11    1    3    3    0    0  0.73674297047E+01  0.10182953354E+01 -0.17324225467E+01  0.76365721358E+01  0.51100000000E-03 0. -1.
        -11    1    3    3    0    0  0.31520929765E+02  0.25733369504E+01  0.12121072464E+02  0.33869034150E+02  0.51100000000E-03 0.  1.
        -12    1    3    3    0    0  0.44476177819E+01  0.26240252811E+00  0.12841020218E+01  0.46367097195E+01  0.00000000000E+00 0.  1.
</event>
<event>
 7    1  0.1402367E-008  0.4614232E+02  0.7816164E-02  0.1320468E+00
        -11   -1    0    0    0    0  0.00000000000E+00  0.00000000000E+00  0.45593999997E+02  0.45594000000E+02  0.51100000000E-03 0. -1.
         11   -1    0    0    0    0 -0.00000000000E+00 -0.00000000000E+00 -0.45593999997E+02  0.45594000000E+02  0.51100000000E-03 0.  1.
    9900012    2    1    2    0    0  0.25694242612E+02  0.36965234266E+02 -0.15782639603E+01  0.46142316912E+02  0.99999922608E+01 0.  0.
         12    1    1    2    0    0 -0.25694242612E+02 -0.36965234266E+02  0.15782639603E+01  0.45045683088E+02  0.00000000000E+00 0. -1.
         11    1    3    3    0    0  0.18554032168E+01 -0.16352603732E+00  0.18081871706E+00  0.18713517925E+01  0.51100000000E-03 0. -1.
        -11    1    3    3    0    0  0.17241045555E+02  0.26418333536E+02 -0.26650159138E+01  0.31658874091E+02  0.51100000000E-03 0.  1.
        -12    1    3    3    0    0  0.65977938399E+01  0.10710426767E+02  0.90593323650E+00  0.12612091028E+02  0.00000000000E+00 0.  1.
</event>
<event>
 7    1  0.1402367E-008  0.4614232E+02  0.7816164E-02  0.1320468E+00
        -11   -1    0    0    0    0  0.00000000000E+00  0.00000000000E+00  0.45593999997E+02  0.45594000000E+02  0.51100000000E-03 0. -1.
         11   -1    0    0    0    0 -0.00000000000E+00 -0.00000000000E+00 -0.45593999997E+02  0.45594000000E+02  0.51100000000E-03 0.  1.
    9900012    2    1    2    0    0  0.30734018864E+01  0.84841473125E+01 -0.44132606107E+02  0.46142317892E+02  0.10000001190E+02 0.  0.
         12    1    1    2    0    0 -0.30734018864E+01 -0.84841473125E+01  0.44132606107E+02  0.45045682108E+02  0.00000000000E+00 0. -1.
         11    1    3    3    0    0  0.26156035456E+01  0.29138987571E+01 -0.81250964442E+01  0.90193891347E+01  0.51100000000E-03 0. -1.
        -11    1    3    3    0    0 -0.58092600929E+00 -0.14404515720E+01 -0.31793219677E+01  0.35384267967E+01  0.51100000000E-03 0.  1.
         12    1    3    3    0    0  0.10387243501E+01  0.70107001274E+01 -0.32828187695E+02  0.33584501960E+02  0.00000000000E+00 0. -1.
</event>
<event>
 7    1  0.1402367E-008  0.4614232E+02  0.7816164E-02  0.1320468E+00
        -11   -1    0    0    0    0  0.00000000000E+00  0.00000000000E+00  0.45593999997E+02  0.45594000000E+02  0.51100000000E-03 0.  1.
         11   -1    0    0    0    0 -0.00000000000E+00 -0.00000000000E+00 -0.45593999997E+02  0.45594000000E+02  0.51100000000E-03 0. -1.
    9900012    2    1    2    0    0 -0.76490626993E+01 -0.14499117019E+02  0.41956894123E+02  0.46142317422E+02  0.99999969064E+01 0.  0.
         12    1    1    2    0    0  0.76490626993E+01  0.14499117019E+02 -0.41956894123E+02  0.45045682578E+02  0.00000000000E+00 0. -1.
         11    1    3    3    0    0 -0.58251727182E+00  0.16470101602E+00  0.20724906247E+01  0.21590901897E+01  0.51100000000E-03 0. -1.
        -11    1    3    3    0    0 -0.63715827925E+01 -0.99195965310E+01  0.35777560816E+02  0.37670005585E+02  0.51100000000E-03 0.  1.
        -12    1    3    3    0    0 -0.69496263497E+00 -0.47442215041E+01  0.41068426821E+01  0.63132216467E+01  0.00000000000E+00 0.  1.
</event>
<event>
 7    1  0.1402367E-008  0.4614232E+02  0.7816164E-02  0.1320468E+00
        -11   -1    0    0    0    0  0.00000000000E+00  0.00000000000E+00  0.45593999997E+02  0.45594000000E+02  0.51100000000E-03 0. -1.
         11   -1    0    0    0    0 -0.00000000000E+00 -0.00000000000E+00 -0.45593999997E+02  0.45594000000E+02  0.51100000000E-03 0.  1.
    9900012    2    1    2    0    0  0.43998686978E+02 -0.30401124382E+01 -0.91644269511E+01  0.46142318068E+02  0.10000002797E+02 0.  0.
         12    1    1    2    0    0 -0.43998686978E+02  0.30401124382E+01  0.91644269511E+01  0.45045681932E+02  0.00000000000E+00 0. -1.
         11    1    3    3    0    0  0.32548408973E+02 -0.31041951272E-01 -0.28255199855E+01  0.32670834910E+02  0.51100000000E-03 0. -1.
        -11    1    3    3    0    0  0.42450903132E+01 -0.12582685025E+01 -0.29391265522E+01  0.53143669936E+01  0.51100000000E-03 0.  1.
         12    1    3    3    0    0  0.72051876916E+01 -0.17508019844E+01 -0.33997804134E+01  0.81571161644E+01  0.00000000000E+00 0. -1.
</event>
<event>
 7    1  0.1402367E-008  0.4614232E+02  0.7816164E-02  0.1320468E+00
        -11   -1    0    0    0    0  0.00000000000E+00  0.00000000000E+00  0.45593999997E+02  0.45594000000E+02  0.51100000000E-03 0.  1.
         11   -1    0    0    0    0 -0.00000000000E+00 -0.00000000000E+00 -0.45593999997E+02  0.45594000000E+02  0.51100000000E-03 0. -1.
    9900012    2    1    2    0    0 -0.14016404647E+02  0.42339402696E+02  0.63268510046E+01  0.46142315817E+02  0.99999822706E+01 0.  0.
         12    1    1    2    0    0  0.14016404647E+02 -0.42339402696E+02 -0.63268510046E+01  0.45045684183E+02  0.00000000000E+00 0. -1.
         11    1    3    3    0    0 -0.11954763395E+02  0.33206033487E+02  0.49073549770E+01  0.35631996309E+02  0.51100000000E-03 0.  1.
        -11    1    3    3    0    0 -0.70542511893E+00  0.21007904593E+00  0.12881412383E+01  0.14835989737E+01  0.51100000000E-03 0. -1.
        -12    1    3    3    0    0 -0.13562161329E+01  0.89232901628E+01  0.13135478938E+00  0.90267205346E+01  0.00000000000E+00 0.  1.
</event>
<event>
 7    1  0.1402367E-008  0.4614232E+02  0.7816164E-02  0.1320468E+00
        -11   -1    0    0    0    0  0.00000000000E+00  0.00000000000E+00  0.45593999997E+02  0.45594000000E+02  0.51100000000E-03 0. -1.
         11   -1    0    0    0    0 -0.00000000000E+00 -0.00000000000E+00 -0.45593999997E+02  0.45594000000E+02  0.51100000000E-03 0.  1.
    9900012    2    1    2    0    0  0.12924811510E+02  0.26500054271E+02  0.34055981587E+02  0.46142317512E+02  0.99999977276E+01 0.  0.
         12    1    1    2    0    0 -0.12924811510E+02 -0.26500054271E+02 -0.34055981587E+02  0.45045682488E+02  0.00000000000E+00 0. -1.
         11    1    3    3    0    0 -0.12109373078E+01  0.23307668215E+01  0.39672566902E+01  0.47579374782E+01  0.51100000000E-03 0. -1.
        -11    1    3    3    0    0  0.54901119829E+01  0.12986509365E+02  0.12705147170E+02  0.18979239183E+02  0.51100000000E-03 0.  1.
         12    1    3    3    0    0  0.86456368351E+01  0.11182778085E+02  0.17383577727E+02  0.22405140851E+02  0.00000000000E+00 0. -1.
</event>
<event>
 7    1  0.1402367E-008  0.4614232E+02  0.7816164E-02  0.1320468E+00
        -11   -1    0    0    0    0  0.00000000000E+00  0.00000000000E+00  0.45593999997E+02  0.45594000000E+02  0.51100000000E-03 0.  1.
         11   -1    0    0    0    0 -0.00000000000E+00 -0.00000000000E+00 -0.45593999997E+02  0.45594000000E+02  0.51100000000E-03 0. -1.
    9900012    2    1    2    0    0 -0.21541140755E+02 -0.36715712439E+02  0.14732588891E+02  0.46142318072E+02  0.10000002832E+02 0.  0.
         12    1    1    2    0    0  0.21541140755E+02  0.36715712439E+02 -0.14732588891E+02  0.45045681928E+02  0.00000000000E+00 0. -1.
         11    1    3    3    0    0 -0.85129988637E+01 -0.18861613025E+02  0.40315300963E+01  0.21082808891E+02  0.51100000000E-03 0. -1.
        -11    1    3    3    0    0 -0.77245151111E+01 -0.77078571539E+01  0.31984698769E+01  0.11371429348E+02  0.51100000000E-03 0.  1.
         12    1    3    3    0    0 -0.53036267803E+01 -0.10146242261E+02  0.75025889181E+01  0.13688079833E+02  0.00000000000E+00 0. -1.
</event>
<event>
 7    1  0.1402367E-008  0.4614232E+02  0.7816164E-02  0.1320468E+00
        -11   -1    0    0    0    0  0.00000000000E+00  0.00000000000E+00  0.45593999997E+02  0.45594000000E+02  0.51100000000E-03 0. -1.
         11   -1    0    0    0    0 -0.00000000000E+00 -0.00000000000E+00 -0.45593999997E+02  0.45594000000E+02  0.51100000000E-03 0.  1.
    9900012    2    1    2    0    0  0.40965614059E+02 -0.16665601402E+02 -0.85551080812E+01  0.46142315639E+02  0.99999806478E+01 0.  0.
         12    1    1    2    0    0 -0.40965614059E+02  0.16665601402E+02  0.85551080812E+01  0.45045684361E+02  0.00000000000E+00 0. -1.
         11    1    3    3    0    0  0.12755642718E+02 -0.81705288892E+01 -0.50126203179E+01  0.15955886882E+02  0.51100000000E-03 0. -1.
        -11    1    3    3    0    0  0.68123434144E+01 -0.79648170847E+00 -0.28729723524E+01  0.74361533272E+01  0.51100000000E-03 0.  1.
         12    1    3    3    0    0  0.21397627926E+02 -0.76985908044E+01 -0.66951541082E+00  0.22750275430E+02  0.00000000000E+00 0. -1.
</event>
<event>
 7    1  0.1402367E-008  0.4614232E+02  0.7816164E-02  0.1320468E+00
        -11   -1    0    0    0    0  0.00000000000E+00  0.00000000000E+00  0.45593999997E+02  0.45594000000E+02  0.51100000000E-03 0.  1.
         11   -1    0    0    0    0 -0.00000000000E+00 -0.00000000000E+00 -0.45593999997E+02  0.45594000000E+02  0.51100000000E-03 0. -1.
    9900012    2    1    2    0    0  0.35749049505E+02 -0.71802104173E+01  0.26449264319E+02  0.46142317131E+02  0.99999942539E+01 0.  0.
         12    1    1    2    0    0 -0.35749049505E+02  0.71802104173E+01 -0.26449264319E+02  0.45045682869E+02  0.00000000000E+00 0. -1.
         11    1    3    3    0    0  0.21765288691E+02 -0.48851356617E+01  0.10552563258E+02  0.24676890684E+02  0.51100000000E-03 0. -1.
        -11    1    3    3    0    0  0.83789045618E+01 -0.21548291865E+01  0.11194417092E+02  0.14147943482E+02  0.51100000000E-03 0.  1.
        -12    1    3    3    0    0  0.56048562517E+01 -0.14024556910E+00  0.47022839685E+01  0.73174829649E+01  0.00000000000E+00 0.  1.
</event>
<event>
 7    1  0.1402367E-008  0.4614233E+02  0.7816164E-02  0.1320468E+00
        -11   -1    0    0    0    0  0.00000000000E+00  0.00000000000E+00  0.45593999997E+02  0.45594000000E+02  0.51100000000E-03 0.  1.
         11   -1    0    0    0    0 -0.00000000000E+00 -0.00000000000E+00 -0.45593999997E+02  0.45594000000E+02  0.51100000000E-03 0. -1.
    9900012    2    1    2    0    0  0.11147362689E+02 -0.18562990659E+02  0.39500177952E+02  0.46142330115E+02  0.10000112650E+02 0.  0.
         12    1    1    2    0    0 -0.11147362689E+02  0.18562990659E+02 -0.39500177952E+02  0.45045669885E+02  0.00000000000E+00 0. -1.
         11    1    3    3    0    0  0.31698465707E+01 -0.36269750787E+00  0.46646385671E+01  0.56514007102E+01  0.51100000000E-03 0. -1.
        -11    1    3    3    0    0  0.73400075072E+01 -0.14307139721E+02  0.23386671163E+02  0.28381443683E+02  0.51100000000E-03 0.  1.
        -12    1    3    3    0    0  0.63750861131E+00 -0.38931534301E+01  0.11448868222E+02  0.12109485721E+02  0.00000000000E+00 0.  1.
</event>
<event>
 7    1  0.1402367E-008  0.4614231E+02  0.7816164E-02  0.1320468E+00
        -11   -1    0    0    0    0  0.00000000000E+00  0.00000000000E+00  0.45593999997E+02  0.45594000000E+02  0.51100000000E-03 0.  1.
         11   -1    0    0    0    0 -0.00000000000E+00 -0.00000000000E+00 -0.45593999997E+02  0.45594000000E+02  0.51100000000E-03 0. -1.
    9900012    2    1    2    0    0 -0.42283488981E+01 -0.44588561732E+02  0.48057604076E+01  0.46142310919E+02  0.99999376076E+01 0.  0.
         12    1    1    2    0    0  0.42283488981E+01  0.44588561732E+02 -0.48057604076E+01  0.45045689081E+02  0.00000000000E+00 0. -1.
         11    1    3    3    0    0 -0.27238894304E+01 -0.32993696001E+02  0.60963202702E+01  0.33662570765E+02  0.51100000000E-03 0. -1.
        -11    1    3    3    0    0 -0.27669981572E+01 -0.65217784879E+01 -0.15245970858E+01  0.72466730285E+01  0.51100000000E-03 0.  1.
        -12    1    3    3    0    0  0.12625386895E+01 -0.50730872429E+01  0.23403722330E+00  0.52330671253E+01  0.00000000000E+00 0.  1.
</event>
<event>
 7    1  0.1402367E-008  0.4614232E+02  0.7816164E-02  0.1320468E+00
        -11   -1    0    0    0    0  0.00000000000E+00  0.00000000000E+00  0.45593999997E+02  0.45594000000E+02  0.51100000000E-03 0.  1.
         11   -1    0    0    0    0 -0.00000000000E+00 -0.00000000000E+00 -0.45593999997E+02  0.45594000000E+02  0.51100000000E-03 0. -1.
    9900012    2    1    2    0    0  0.37068229251E+02  0.10765328852E+01  0.25571476262E+02  0.46142323835E+02  0.10000055390E+02 0.  0.
         12    1    1    2    0    0 -0.37068229251E+02 -0.10765328852E+01 -0.25571476262E+02  0.45045676165E+02  0.00000000000E+00 0. -1.
         11    1    3    3    0    0  0.14671622148E+02  0.23411041736E+01  0.87563564666E+01  0.17245609414E+02  0.51100000000E-03 0. -1.
        -11    1    3    3    0    0  0.14816292833E+02  0.17605811707E+01  0.81834015926E+01  0.17017351182E+02  0.51100000000E-03 0.  1.
        -12    1    3    3    0    0  0.75803142697E+01 -0.30251524591E+01  0.86317182033E+01  0.11879363239E+02  0.00000000000E+00 0.  1.
</event>
<event>
 7    1  0.1402367E-008  0.4614232E+02  0.7816164E-02  0.1320468E+00
        -11   -1    0    0    0    0  0.00000000000E+00  0.00000000000E+00  0.45593999997E+02  0.45594000000E+02  0.51100000000E-03 0.  1.
         11   -1    0    0    0    0 -0.00000000000E+00 -0.00000000000E+00 -0.45593999997E+02  0.45594000000E+02  0.51100000000E-03 0. -1.
    9900012    2    1    2    0    0 -0.43081403295E+01 -0.52363527572E+01  0.44532392330E+02  0.46142318410E+02  0.10000005916E+02 0.  0.
         12    1    1    2    0    0  0.43081403295E+01  0.52363527572E+01 -0.44532392330E+02  0.45045681590E+02  0.00000000000E+00 0. -1.
         11    1    3    3    0    0  0.84954320856E+00  0.19359027559E+01  0.35068329642E+01  0.40947919169E+01  0.51100000000E-03 0. -1.
        -11    1    3    3    0    0 -0.17074541280E+01 -0.45436554364E+01  0.23130747532E+02  0.23634544336E+02  0.51100000000E-03 0.  1.
         12    1    3    3    0    0 -0.34502294101E+01 -0.26286000766E+01  0.17894811834E+02  0.18412982157E+02  0.00000000000E+00 0. -1.
</event>
<event>
 7    1  0.1402367E-008  0.4614232E+02  0.7816164E-02  0.1320468E+00
        -11   -1    0    0    0    0  0.00000000000E+00  0.00000000000E+00  0.45593999997E+02  0.45594000000E+02  0.51100000000E-03 0.  1.
         11   -1    0    0    0    0 -0.00000000000E+00 -0.00000000000E+00 -0.45593999997E+02  0.45594000000E+02  0.51100000000E-03 0. -1.
    9900012    2    1    2    0    0 -0.39946089595E+02  0.12261199891E+02  0.16825168643E+02  0.46142318780E+02  0.10000009293E+02 0.  0.
         12    1    1    2    0    0  0.39946089595E+02 -0.12261199891E+02 -0.16825168643E+02  0.45045681220E+02  0.00000000000E+00 0. -1.
         11    1    3    3    0    0 -0.94827685173E+01  0.64871910395E+01  0.55832328980E+01  0.12774155009E+02  0.51100000000E-03 0. -1.
        -11    1    3    3    0    0 -0.23397760652E+02  0.25233318970E+01  0.96178559632E+01  0.25422933761E+02  0.51100000000E-03 0.  1.
        -12    1    3    3    0    0 -0.70655604254E+01  0.32506769543E+01  0.16240797814E+01  0.79452300107E+01  0.00000000000E+00 0.  1.
</event>
<event>
 7    1  0.1402367E-008  0.4614232E+02  0.7816164E-02  0.1320468E+00
        -11   -1    0    0    0    0  0.00000000000E+00  0.00000000000E+00  0.45593999997E+02  0.45594000000E+02  0.51100000000E-03 0.  1.
         11   -1    0    0    0    0 -0.00000000000E+00 -0.00000000000E+00 -0.45593999997E+02  0.45594000000E+02  0.51100000000E-03 0. -1.
    9900012    2    1    2    0    0  0.77992581317E+01  0.23783348172E+02  0.37451799918E+02  0.46142318800E+02  0.10000009477E+02 0.  0.
         12    1    1    2    0    0 -0.77992581317E+01 -0.23783348172E+02 -0.37451799918E+02  0.45045681200E+02  0.00000000000E+00 0. -1.
         11    1    3    3    0    0  0.22442524114E+01  0.20985955492E+00  0.22712268930E+01  0.31998721505E+01  0.51100000000E-03 0. -1.
        -11    1    3    3    0    0  0.11698946779E+01  0.14105716191E+01  0.14134663211E+01  0.23143580432E+01  0.51100000000E-03 0.  1.
         12    1    3    3    0    0  0.43851110424E+01  0.22162916998E+02  0.33767106704E+02  0.40628088607E+02  0.00000000000E+00 0. -1.
</event>
<event>
 7    1  0.1402367E-008  0.4614232E+02  0.7816164E-02  0.1320468E+00
        -11   -1    0    0    0    0  0.00000000000E+00  0.00000000000E+00  0.45593999997E+02  0.45594000000E+02  0.51100000000E-03 0. -1.
         11   -1    0    0    0    0 -0.00000000000E+00 -0.00000000000E+00 -0.45593999997E+02  0.45594000000E+02  0.51100000000E-03 0.  1.
    9900012    2    1    2    0    0 -0.11971755248E+02 -0.26049668473E+02 -0.34744860165E+02  0.46142318085E+02  0.10000002958E+02 0.  0.
         12    1    1    2    0    0  0.11971755248E+02  0.26049668473E+02  0.34744860165E+02  0.45045681915E+02  0.00000000000E+00 0. -1.
         11    1    3    3    0    0 -0.43487920294E+00 -0.11249370636E+02 -0.15187913932E+02  0.18905295276E+02  0.51100000000E-03 0. -1.
        -11    1    3    3    0    0 -0.71717460673E+01 -0.70186763971E+01 -0.10276402370E+02  0.14363154457E+02  0.51100000000E-03 0.  1.
        -12    1    3    3    0    0 -0.43651299777E+01 -0.77816214406E+01 -0.92805438628E+01  0.12873868352E+02  0.00000000000E+00 0.  1.
</event>
<event>
 7    1  0.1402367E-008  0.4614232E+02  0.7816164E-02  0.1320468E+00
        -11   -1    0    0    0    0  0.00000000000E+00  0.00000000000E+00  0.45593999997E+02  0.45594000000E+02  0.51100000000E-03 0. -1.
         11   -1    0    0    0    0 -0.00000000000E+00 -0.00000000000E+00 -0.45593999997E+02  0.45594000000E+02  0.51100000000E-03 0.  1.
    9900012    2    1    2    0    0  0.22047054996E+02  0.95722033844E+01 -0.38097425033E+02  0.46142317568E+02  0.99999982374E+01 0.  0.
         12    1    1    2    0    0 -0.22047054996E+02 -0.95722033844E+01  0.38097425033E+02  0.45045682432E+02  0.00000000000E+00 0. -1.
         11    1    3    3    0    0  0.70613988677E+01  0.82133751364E+01 -0.15087051945E+02  0.18572614833E+02  0.51100000000E-03 0. -1.
        -11    1    3    3    0    0  0.77263698067E+01  0.52905707298E+00 -0.13666365411E+02  0.15708158249E+02  0.51100000000E-03 0.  1.
         12    1    3    3    0    0  0.72592863219E+01  0.82977117507E+00 -0.93440076778E+01  0.11861544486E+02  0.00000000000E+00 0. -1.
</event>
<event>
 7    1  0.1402367E-008  0.4614232E+02  0.7816164E-02  0.1320468E+00
        -11   -1    0    0    0    0  0.00000000000E+00  0.00000000000E+00  0.45593999997E+02  0.45594000000E+02  0.51100000000E-03 0. -1.
         11   -1    0    0    0    0 -0.00000000000E+00 -0.00000000000E+00 -0.45593999997E+02  0.45594000000E+02  0.51100000000E-03 0.  1.
    9900012    2    1    2    0    0  0.34904241433E+02  0.92113054307E+01 -0.26943630311E+02  0.46142318386E+02  0.10000005699E+02 0.  0.
         12    1    1    2    0    0 -0.34904241433E+02 -0.92113054307E+01  0.26943630311E+02  0.45045681614E+02  0.00000000000E+00 0. -1.
         11    1    3    3    0    0  0.54010962958E+01  0.38940033638E+01 -0.44315045451E+01  0.79983333381E+01  0.51100000000E-03 0. -1.
        -11    1    3    3    0    0  0.16503129763E+02 -0.57779638400E+00 -0.12413701411E+02  0.20658826773E+02  0.51100000000E-03 0.  1.
        -12    1    3    3    0    0  0.13000015374E+02  0.58950984510E+01 -0.10098424355E+02  0.17485158275E+02  0.00000000000E+00 0.  1.
</event>
<event>
 7    1  0.1402367E-008  0.4614232E+02  0.7816164E-02  0.1320468E+00
        -11   -1    0    0    0    0  0.00000000000E+00  0.00000000000E+00  0.45593999997E+02  0.45594000000E+02  0.51100000000E-03 0.  1.
         11   -1    0    0    0    0 -0.00000000000E+00 -0.00000000000E+00 -0.45593999997E+02  0.45594000000E+02  0.51100000000E-03 0. -1.
    9900012    2    1    2    0    0  0.44334513322E+02 -0.19128611763E+01 -0.77398545351E+01  0.46142318103E+02  0.10000003115E+02 0.  0.
         12    1    1    2    0    0 -0.44334513322E+02  0.19128611763E+01  0.77398545351E+01  0.45045681897E+02  0.00000000000E+00 0. -1.
         11    1    3    3    0    0  0.38033297623E+02 -0.23966670725E+01 -0.54378251914E+01  0.38494748787E+02  0.51100000000E-03 0.  1.
        -11    1    3    3    0    0  0.11910854443E+01 -0.13964241728E+01 -0.77604617632E+00  0.19927199841E+01  0.51100000000E-03 0. -1.
        -12    1    3    3    0    0  0.51101302550E+01  0.18802300691E+01 -0.15259831674E+01  0.56548493316E+01  0.00000000000E+00 0.  1.
</event>
<event>
 7    1  0.1402367E-008  0.4614232E+02  0.7816164E-02  0.1320468E+00
        -11   -1    0    0    0    0  0.00000000000E+00  0.00000000000E+00  0.45593999997E+02  0.45594000000E+02  0.51100000000E-03 0. -1.
         11   -1    0    0    0    0 -0.00000000000E+00 -0.00000000000E+00 -0.45593999997E+02  0.45594000000E+02  0.51100000000E-03 0.  1.
    9900012    2    1    2    0    0 -0.30385274256E+02  0.29437480893E+01 -0.33123751448E+02  0.46142318138E+02  0.10000003436E+02 0.  0.
         12    1    1    2    0    0  0.30385274256E+02 -0.29437480893E+01  0.33123751448E+02  0.45045681862E+02  0.00000000000E+00 0. -1.
         11    1    3    3    0    0 -0.50052966691E+01  0.26212213814E+00 -0.10794482523E+02  0.11901367819E+02  0.51100000000E-03 0. -1.
        -11    1    3    3    0    0 -0.22035789582E+02  0.88944546720E+00 -0.17861982502E+02  0.28379879403E+02  0.51100000000E-03 0.  1.
        -12    1    3    3    0    0 -0.33441880041E+01  0.17921804839E+01 -0.44672864230E+01  0.58610709157E+01  0.00000000000E+00 0.  1.
</event>
<event>
 7    1  0.1402367E-008  0.4614232E+02  0.7816164E-02  0.1320468E+00
        -11   -1    0    0    0    0  0.00000000000E+00  0.00000000000E+00  0.45593999997E+02  0.45594000000E+02  0.51100000000E-03 0.  1.
         11   -1    0    0    0    0 -0.00000000000E+00 -0.00000000000E+00 -0.45593999997E+02  0.45594000000E+02  0.51100000000E-03 0. -1.
    9900012    2    1    2    0    0  0.29099748835E+02 -0.20139431742E+02  0.27869722665E+02  0.46142317248E+02  0.99999953211E+01 0.  0.
         12    1    1    2    0    0 -0.29099748835E+02  0.20139431742E+02 -0.27869722665E+02  0.45045682752E+02  0.00000000000E+00 0. -1.
         11    1    3    3    0    0  0.86850635250E+00 -0.34081430326E+01  0.19686744950E+01  0.40305609713E+01  0.51100000000E-03 0. -1.
        -11    1    3    3    0    0  0.11033631361E+02 -0.64005163189E+01  0.13260058629E+02  0.18399369154E+02  0.51100000000E-03 0.  1.
        -12    1    3    3    0    0  0.17197611122E+02 -0.10330772390E+02  0.12640989541E+02  0.23712387122E+02  0.00000000000E+00 0.  1.
</event>
<event>
 7    1  0.1402367E-008  0.4614232E+02  0.7816164E-02  0.1320468E+00
        -11   -1    0    0    0    0  0.00000000000E+00  0.00000000000E+00  0.45593999997E+02  0.45594000000E+02  0.51100000000E-03 0.  1.
         11   -1    0    0    0    0 -0.00000000000E+00 -0.00000000000E+00 -0.45593999997E+02  0.45594000000E+02  0.51100000000E-03 0. -1.
    9900012    2    1    2    0    0 -0.18590869688E+02  0.15932486249E+02  0.37810698905E+02  0.46142317571E+02  0.99999982689E+01 0.  0.
         12    1    1    2    0    0  0.18590869688E+02 -0.15932486249E+02 -0.37810698905E+02  0.45045682429E+02  0.00000000000E+00 0. -1.
         11    1    3    3    0    0 -0.29733127352E+01  0.26656693372E+01  0.11312065461E+02  0.11996216357E+02  0.51100000000E-03 0. -1.
        -11    1    3    3    0    0 -0.11384394771E+02  0.57763765483E+01  0.17864011488E+02  0.21956636287E+02  0.51100000000E-03 0.  1.
         12    1    3    3    0    0 -0.42331621814E+01  0.74904403632E+01  0.86346219554E+01  0.12189464927E+02  0.00000000000E+00 0. -1.
</event>
<event>
 7    1  0.1402367E-008  0.4614232E+02  0.7816164E-02  0.1320468E+00
        -11   -1    0    0    0    0  0.00000000000E+00  0.00000000000E+00  0.45593999997E+02  0.45594000000E+02  0.51100000000E-03 0.  1.
         11   -1    0    0    0    0 -0.00000000000E+00 -0.00000000000E+00 -0.45593999997E+02  0.45594000000E+02  0.51100000000E-03 0. -1.
    9900012    2    1    2    0    0 -0.42778932773E+02 -0.43706134062E+01 -0.13415442362E+02  0.46142318248E+02  0.10000004438E+02 0.  0.
         12    1    1    2    0    0  0.42778932773E+02  0.43706134062E+01  0.13415442362E+02  0.45045681752E+02  0.00000000000E+00 0. -1.
         11    1    3    3    0    0 -0.12952498943E+02  0.26614691882E+01 -0.40510939843E+01  0.13829750896E+02  0.51100000000E-03 0. -1.
        -11    1    3    3    0    0 -0.13077581871E+02 -0.35414397076E+01 -0.20374417572E+01  0.13700952959E+02  0.51100000000E-03 0.  1.
         12    1    3    3    0    0 -0.16748851959E+02 -0.34906428869E+01 -0.73269066208E+01  0.18611614394E+02  0.00000000000E+00 0. -1.
</event>
<event>
 7    1  0.1402367E-008  0.4614232E+02  0.7816164E-02  0.1320468E+00
        -11   -1    0    0    0    0  0.00000000000E+00  0.00000000000E+00  0.45593999997E+02  0.45594000000E+02  0.51100000000E-03 0.  1.
         11   -1    0    0    0    0 -0.00000000000E+00 -0.00000000000E+00 -0.45593999997E+02  0.45594000000E+02  0.51100000000E-03 0. -1.
    9900012    2    1    2    0    0 -0.32022089030E+02  0.30960593668E+02 -0.67187017879E+01  0.46142317634E+02  0.99999988407E+01 0.  0.
         12    1    1    2    0    0  0.32022089030E+02 -0.30960593668E+02  0.67187017879E+01  0.45045682366E+02  0.00000000000E+00 0. -1.
         11    1    3    3    0    0 -0.10308316538E+02  0.97095820036E+01 -0.52696451376E+00  0.14170923202E+02  0.51100000000E-03 0. -1.
        -11    1    3    3    0    0  0.31410690685E+00  0.12925748276E+00 -0.94674862688E+00  0.10058349116E+01  0.51100000000E-03 0.  1.
        -12    1    3    3    0    0 -0.22027879399E+02  0.21121754182E+02 -0.52449886472E+01  0.30965559521E+02  0.00000000000E+00 0.  1.
</event>
<event>
 7    1  0.1402367E-008  0.4614232E+02  0.7816164E-02  0.1320468E+00
        -11   -1    0    0    0    0  0.00000000000E+00  0.00000000000E+00  0.45593999997E+02  0.45594000000E+02  0.51100000000E-03 0.  1.
         11   -1    0    0    0    0 -0.00000000000E+00 -0.00000000000E+00 -0.45593999997E+02  0.45594000000E+02  0.51100000000E-03 0. -1.
    9900012    2    1    2    0    0  0.14924174553E+01  0.28954638849E+02  0.34474846382E+02  0.46142318145E+02  0.10000003500E+02 0.  0.
         12    1    1    2    0    0 -0.14924174553E+01 -0.28954638849E+02 -0.34474846382E+02  0.45045681855E+02  0.00000000000E+00 0. -1.
         11    1    3    3    0    0 -0.16884534933E+01  0.69946446504E+01  0.14570201167E+02  0.16250128963E+02  0.51100000000E-03 0. -1.
        -11    1    3    3    0    0  0.74946962184E+00  0.15513564518E+01  0.19410274234E+01  0.25953803718E+01  0.51100000000E-03 0.  1.
         12    1    3    3    0    0  0.24314013267E+01  0.20408637747E+02  0.17963617791E+02  0.27296808810E+02  0.00000000000E+00 0. -1.
</event>
<event>
 7    1  0.1402367E-008  0.4614232E+02  0.7816164E-02  0.1320468E+00
        -11   -1    0    0    0    0  0.00000000000E+00  0.00000000000E+00  0.45593999997E+02  0.45594000000E+02  0.51100000000E-03 0. -1.
         11   -1    0    0    0    0 -0.00000000000E+00 -0.00000000000E+00 -0.45593999997E+02  0.45594000000E+02  0.51100000000E-03 0.  1.
    9900012    2    1    2    0    0  0.31820501928E+02  0.12087740158E+02 -0.29503486240E+02  0.46142317572E+02  0.99999982779E+01 0.  0.
         12    1    1    2    0    0 -0.31820501928E+02 -0.12087740158E+02  0.29503486240E+02  0.45045682428E+02  0.00000000000E+00 0. -1.
         11    1    3    3    0    0  0.39924027783E+01 -0.34853054150E+00 -0.32880032116E+01  0.51837938678E+01  0.51100000000E-03 0. -1.
        -11    1    3    3    0    0  0.49315154216E+01  0.19600725153E+01 -0.11500663161E+01  0.54299522477E+01  0.51100000000E-03 0.  1.
        -12    1    3    3    0    0  0.22896583728E+02  0.10476198184E+02 -0.25065416712E+02  0.35528571457E+02  0.00000000000E+00 0.  1.
</event>
<event>
 7    1  0.1402367E-008  0.4614232E+02  0.7816164E-02  0.1320468E+00
        -11   -1    0    0    0    0  0.00000000000E+00  0.00000000000E+00  0.45593999997E+02  0.45594000000E+02  0.51100000000E-03 0.  1.
         11   -1    0    0    0    0 -0.00000000000E+00 -0.00000000000E+00 -0.45593999997E+02  0.45594000000E+02  0.51100000000E-03 0. -1.
    9900012    2    1    2    0    0 -0.12226878435E+02 -0.31806443112E+02  0.29461275400E+02  0.46142321762E+02  0.10000036482E+02 0.  0.
         12    1    1    2    0    0  0.12226878435E+02  0.31806443112E+02 -0.29461275400E+02  0.45045678238E+02  0.00000000000E+00 0. -1.
         11    1    3    3    0    0  0.74269362838E+00  0.32311165987E-01  0.15548935841E+01  0.17234651596E+01  0.51100000000E-03 0. -1.
        -11    1    3    3    0    0 -0.13309569584E+01 -0.51093843384E+01  0.57133402266E+01  0.77794287418E+01  0.51100000000E-03 0.  1.
         12    1    3    3    0    0 -0.11638615105E+02 -0.26729369940E+02  0.22193041590E+02  0.36639427860E+02  0.00000000000E+00 0. -1.
</event>
<event>
 7    1  0.1402367E-008  0.4614232E+02  0.7816164E-02  0.1320468E+00
        -11   -1    0    0    0    0  0.00000000000E+00  0.00000000000E+00  0.45593999997E+02  0.45594000000E+02  0.51100000000E-03 0.  1.
         11   -1    0    0    0    0 -0.00000000000E+00 -0.00000000000E+00 -0.45593999997E+02  0.45594000000E+02  0.51100000000E-03 0. -1.
    9900012    2    1    2    0    0  0.19963464017E+02 -0.25878431561E+02  0.30998071067E+02  0.46142317349E+02  0.99999962411E+01 0.  0.
         12    1    1    2    0    0 -0.19963464017E+02  0.25878431561E+02 -0.30998071067E+02  0.45045682651E+02  0.00000000000E+00 0. -1.
         11    1    3    3    0    0  0.58889406676E+01 -0.78921138234E+01  0.14598344503E+02  0.17608996146E+02  0.51100000000E-03 0. -1.
        -11    1    3    3    0    0  0.10016212791E+02 -0.12009370905E+02  0.83893162645E+01  0.17746271040E+02  0.51100000000E-03 0.  1.
        -12    1    3    3    0    0  0.40583105592E+01 -0.59769468332E+01  0.80104102993E+01  0.10787050162E+02  0.00000000000E+00 0.  1.
</event>
<event>
 7    1  0.1402367E-008  0.4614232E+02  0.7816164E-02  0.1320468E+00
        -11   -1    0    0    0    0  0.00000000000E+00  0.00000000000E+00  0.45593999997E+02  0.45594000000E+02  0.51100000000E-03 0.  1.
         11   -1    0    0    0    0 -0.00000000000E+00 -0.00000000000E+00 -0.45593999997E+02  0.45594000000E+02  0.51100000000E-03 0. -1.
    9900012    2    1    2    0    0 -0.27618976259E+02  0.33484084451E+02  0.12046642681E+02  0.46142319175E+02  0.10000012893E+02 0.  0.
         12    1    1    2    0    0  0.27618976259E+02 -0.33484084451E+02 -0.12046642681E+02  0.45045680825E+02  0.00000000000E+00 0. -1.
         11    1    3    3    0    0 -0.19007283670E+02  0.18057482575E+02  0.10332656271E+02  0.28180015886E+02  0.51100000000E-03 0.  1.
        -11    1    3    3    0    0 -0.87887787025E+01  0.14829963555E+02  0.18067864249E+01  0.17333058806E+02  0.51100000000E-03 0. -1.
        -12    1    3    3    0    0  0.17708611305E+00  0.59663832045E+00 -0.92800014522E-01  0.62924448314E+00  0.00000000000E+00 0.  1.
</event>
<event>
 7    1  0.1402367E-008  0.4614232E+02  0.7816164E-02  0.1320468E+00
        -11   -1    0    0    0    0  0.00000000000E+00  0.00000000000E+00  0.45593999997E+02  0.45594000000E+02  0.51100000000E-03 0.  1.
         11   -1    0    0    0    0 -0.00000000000E+00 -0.00000000000E+00 -0.45593999997E+02  0.45594000000E+02  0.51100000000E-03 0. -1.
    9900012    2    1    2    0    0 -0.11875907304E+01 -0.44034560768E+02  0.94159762731E+01  0.46142317378E+02  0.99999965021E+01 0.  0.
         12    1    1    2    0    0  0.11875907304E+01  0.44034560768E+02 -0.94159762731E+01  0.45045682622E+02  0.00000000000E+00 0. -1.
         11    1    3    3    0    0 -0.14079223044E+01 -0.22356795244E+02  0.45661928129E+00  0.22405736771E+02  0.51100000000E-03 0. -1.
        -11    1    3    3    0    0  0.15688865265E+00 -0.11002832839E+02  0.25863046018E+01  0.11303800966E+02  0.51100000000E-03 0.  1.
         12    1    3    3    0    0  0.63442921416E-01 -0.10674932685E+02  0.63730523901E+01  0.12432779641E+02  0.00000000000E+00 0. -1.
</event>
<event>
 7    1  0.1402367E-008  0.4614232E+02  0.7816164E-02  0.1320468E+00
        -11   -1    0    0    0    0  0.00000000000E+00  0.00000000000E+00  0.45593999997E+02  0.45594000000E+02  0.51100000000E-03 0. -1.
         11   -1    0    0    0    0 -0.00000000000E+00 -0.00000000000E+00 -0.45593999997E+02  0.45594000000E+02  0.51100000000E-03 0.  1.
    9900012    2    1    2    0    0 -0.36353006441E+02 -0.11036564662E+02 -0.24202614897E+02  0.46142318690E+02  0.10000008473E+02 0.  0.
         12    1    1    2    0    0  0.36353006441E+02  0.11036564662E+02  0.24202614897E+02  0.45045681310E+02  0.00000000000E+00 0. -1.
         11    1    3    3    0    0 -0.23127377867E+02 -0.10209670867E+02 -0.15977687716E+02  0.29906512522E+02  0.51100000000E-03 0. -1.
        -11    1    3    3    0    0 -0.12617747782E+02 -0.36876380336E+00 -0.87070285090E+01  0.15334793496E+02  0.51100000000E-03 0.  1.
         12    1    3    3    0    0 -0.60788079182E+00 -0.45812999210E+00  0.48210132796E+00  0.90101267313E+00  0.00000000000E+00 0. -1.
</event>
<event>
 7    1  0.1402367E-008  0.4614232E+02  0.7816164E-02  0.1320468E+00
        -11   -1    0    0    0    0  0.00000000000E+00  0.00000000000E+00  0.45593999997E+02  0.45594000000E+02  0.51100000000E-03 0. -1.
         11   -1    0    0    0    0 -0.00000000000E+00 -0.00000000000E+00 -0.45593999997E+02  0.45594000000E+02  0.51100000000E-03 0.  1.
    9900012    2    1    2    0    0  0.41487784758E+02  0.86863937086E+01 -0.15245452961E+02  0.46142317013E+02  0.99999931810E+01 0.  0.
         12    1    1    2    0    0 -0.41487784758E+02 -0.86863937086E+01  0.15245452961E+02  0.45045682987E+02  0.00000000000E+00 0. -1.
         11    1    3    3    0    0  0.77706730567E+01  0.13075585905E+01  0.29343936667E-01  0.78799702124E+01  0.51100000000E-03 0. -1.
        -11    1    3    3    0    0  0.20030119062E+02  0.29926028736E+01 -0.58694783195E+01  0.21085827411E+02  0.51100000000E-03 0.  1.
         12    1    3    3    0    0  0.13686992639E+02  0.43862322445E+01 -0.94053185781E+01  0.17176519390E+02  0.00000000000E+00 0. -1.
</event>
<event>
 7    1  0.1402367E-008  0.4614232E+02  0.7816164E-02  0.1320468E+00
        -11   -1    0    0    0    0  0.00000000000E+00  0.00000000000E+00  0.45593999997E+02  0.45594000000E+02  0.51100000000E-03 0.  1.
         11   -1    0    0    0    0 -0.00000000000E+00 -0.00000000000E+00 -0.45593999997E+02  0.45594000000E+02  0.51100000000E-03 0. -1.
    9900012    2    1    2    0    0 -0.44744978157E+02  0.35007948157E+00 -0.51843892053E+01  0.46142317440E+02  0.99999970677E+01 0.  0.
         12    1    1    2    0    0  0.44744978157E+02 -0.35007948157E+00  0.51843892053E+01  0.45045682560E+02  0.00000000000E+00 0. -1.
         11    1    3    3    0    0 -0.25829023301E+01  0.63218646214E+00 -0.20847424280E+01  0.33789340660E+01  0.51100000000E-03 0. -1.
        -11    1    3    3    0    0 -0.15173475733E+02 -0.25285595762E+01  0.79290045645E+00  0.15403138341E+02  0.51100000000E-03 0.  1.
        -12    1    3    3    0    0 -0.26988600093E+02  0.22464525957E+01 -0.38925472337E+01  0.27360245032E+02  0.00000000000E+00 0.  1.
</event>
<event>
 7    1  0.1402367E-008  0.4614232E+02  0.7816164E-02  0.1320468E+00
        -11   -1    0    0    0    0  0.00000000000E+00  0.00000000000E+00  0.45593999997E+02  0.45594000000E+02  0.51100000000E-03 0.  1.
         11   -1    0    0    0    0 -0.00000000000E+00 -0.00000000000E+00 -0.45593999997E+02  0.45594000000E+02  0.51100000000E-03 0. -1.
    9900012    2    1    2    0    0  0.23300203021E+02 -0.36377629016E+02  0.12762525245E+02  0.46142318695E+02  0.10000008512E+02 0.  0.
         12    1    1    2    0    0 -0.23300203021E+02  0.36377629016E+02 -0.12762525245E+02  0.45045681305E+02  0.00000000000E+00 0. -1.
         11    1    3    3    0    0  0.17502300611E+02 -0.20760066037E+02  0.98449317658E+01  0.28883101465E+02  0.51100000000E-03 0.  1.
        -11    1    3    3    0    0  0.17696734287E+01 -0.77479680549E+01 -0.65948306791E-02  0.79475025497E+01  0.51100000000E-03 0. -1.
         12    1    3    3    0    0  0.40282289809E+01 -0.78695949246E+01  0.29241883098E+01  0.93117146794E+01  0.00000000000E+00 0. -1.
</event>
<event>
 7    1  0.1402367E-008  0.4614232E+02  0.7816164E-02  0.1320468E+00
        -11   -1    0    0    0    0  0.00000000000E+00  0.00000000000E+00  0.45593999997E+02  0.45594000000E+02  0.51100000000E-03 0. -1.
         11   -1    0    0    0    0 -0.00000000000E+00 -0.00000000000E+00 -0.45593999997E+02  0.45594000000E+02  0.51100000000E-03 0.  1.
    9900012    2    1    2    0    0 -0.52216980264E+01  0.13935194711E+02 -0.42516557736E+02  0.46142318036E+02  0.10000002502E+02 0.  0.
         12    1    1    2    0    0  0.52216980264E+01 -0.13935194711E+02  0.42516557736E+02  0.45045681964E+02  0.00000000000E+00 0. -1.
         11    1    3    3    0    0  0.76858602463E+00  0.24389625762E+00 -0.69733124888E+01  0.70197789986E+01  0.51100000000E-03 0. -1.
        -11    1    3    3    0    0 -0.97206667620E+00  0.24100045670E+01 -0.17205033046E+01  0.31165955012E+01  0.51100000000E-03 0.  1.
        -12    1    3    3    0    0 -0.50182173748E+01  0.11281293886E+02 -0.33822741943E+02  0.36005943536E+02  0.00000000000E+00 0.  1.
</event>
<event>
 7    1  0.1402367E-008  0.4614232E+02  0.7816164E-02  0.1320468E+00
        -11   -1    0    0    0    0  0.00000000000E+00  0.00000000000E+00  0.45593999997E+02  0.45594000000E+02  0.51100000000E-03 0.  1.
         11   -1    0    0    0    0 -0.00000000000E+00 -0.00000000000E+00 -0.45593999997E+02  0.45594000000E+02  0.51100000000E-03 0. -1.
    9900012    2    1    2    0    0  0.90770941539E+01  0.44040016837E+02  0.26826741677E+01  0.46142318054E+02  0.10000002669E+02 0.  0.
         12    1    1    2    0    0 -0.90770941539E+01 -0.44040016837E+02 -0.26826741677E+01  0.45045681946E+02  0.00000000000E+00 0. -1.
         11    1    3    3    0    0  0.54305561928E+00  0.24886329487E+02  0.91437868035E+00  0.24909042402E+02  0.51100000000E-03 0. -1.
        -11    1    3    3    0    0  0.83741474576E+01  0.16855287153E+02  0.19527298822E+01  0.18921950346E+02  0.51100000000E-03 0.  1.
        -12    1    3    3    0    0  0.15989107703E+00  0.22984001975E+01 -0.18443439482E+00  0.23113253061E+01  0.00000000000E+00 0.  1.
</event>
<event>
 7    1  0.1402367E-008  0.4614233E+02  0.7816164E-02  0.1320468E+00
        -11   -1    0    0    0    0  0.00000000000E+00  0.00000000000E+00  0.45593999997E+02  0.45594000000E+02  0.51100000000E-03 0.  1.
         11   -1    0    0    0    0 -0.00000000000E+00 -0.00000000000E+00 -0.45593999997E+02  0.45594000000E+02  0.51100000000E-03 0. -1.
    9900012    2    1    2    0    0 -0.36767771435E+02 -0.49638501381E+01  0.25546113034E+02  0.46142326338E+02  0.10000078211E+02 0.  0.
         12    1    1    2    0    0  0.36767771435E+02  0.49638501381E+01 -0.25546113034E+02  0.45045673662E+02  0.00000000000E+00 0. -1.
         11    1    3    3    0    0 -0.89972360531E+01 -0.22486014588E+01  0.86965139785E+01  0.12713607700E+02  0.51100000000E-03 0. -1.
        -11    1    3    3    0    0 -0.27042610257E+02 -0.40283871868E+01  0.15621920006E+02  0.31489284809E+02  0.51100000000E-03 0.  1.
        -12    1    3    3    0    0 -0.72792512498E+00  0.13131385075E+01  0.12276790492E+01  0.19394338286E+01  0.00000000000E+00 0.  1.
</event>
<event>
 7    1  0.1402367E-008  0.4614232E+02  0.7816164E-02  0.1320468E+00
        -11   -1    0    0    0    0  0.00000000000E+00  0.00000000000E+00  0.45593999997E+02  0.45594000000E+02  0.51100000000E-03 0.  1.
         11   -1    0    0    0    0 -0.00000000000E+00 -0.00000000000E+00 -0.45593999997E+02  0.45594000000E+02  0.51100000000E-03 0. -1.
    9900012    2    1    2    0    0  0.58182096691E+00 -0.28484742308E+02  0.34891180191E+02  0.46142317464E+02  0.99999972909E+01 0.  0.
         12    1    1    2    0    0 -0.58182096691E+00  0.28484742308E+02 -0.34891180191E+02  0.45045682536E+02  0.00000000000E+00 0. -1.
         11    1    3    3    0    0 -0.78782527547E+00 -0.35447434584E+01  0.51267631715E+01  0.62824816536E+01  0.51100000000E-03 0. -1.
        -11    1    3    3    0    0  0.41213998285E+01 -0.19598457314E+02  0.19418225407E+02  0.27895392879E+02  0.51100000000E-03 0.  1.
        -12    1    3    3    0    0 -0.27517535861E+01 -0.53415415353E+01  0.10346191613E+02  0.11964442932E+02  0.00000000000E+00 0.  1.
</event>
<event>
 7    1  0.1402367E-008  0.4614232E+02  0.7816164E-02  0.1320468E+00
        -11   -1    0    0    0    0  0.00000000000E+00  0.00000000000E+00  0.45593999997E+02  0.45594000000E+02  0.51100000000E-03 0.  1.
         11   -1    0    0    0    0 -0.00000000000E+00 -0.00000000000E+00 -0.45593999997E+02  0.45594000000E+02  0.51100000000E-03 0. -1.
    9900012    2    1    2    0    0  0.11141675984E+02 -0.71553113876E+01  0.43055523507E+02  0.46142317308E+02  0.99999958642E+01 0.  0.
         12    1    1    2    0    0 -0.11141675984E+02  0.71553113876E+01 -0.43055523507E+02  0.45045682692E+02  0.00000000000E+00 0. -1.
         11    1    3    3    0    0  0.41402251081E+01 -0.46371490130E+01  0.91338829919E+01  0.11048639449E+02  0.51100000000E-03 0. -1.
        -11    1    3    3    0    0  0.50076019397E+01 -0.39068087955E+01  0.27595370667E+02  0.28316845069E+02  0.51100000000E-03 0.  1.
         12    1    3    3    0    0  0.19938489358E+01  0.13886464209E+01  0.63262698479E+01  0.67768327890E+01  0.00000000000E+00 0. -1.
</event>
<event>
 7    1  0.1402367E-008  0.4614232E+02  0.7816164E-02  0.1320468E+00
        -11   -1    0    0    0    0  0.00000000000E+00  0.00000000000E+00  0.45593999997E+02  0.45594000000E+02  0.51100000000E-03 0. -1.
         11   -1    0    0    0    0 -0.00000000000E+00 -0.00000000000E+00 -0.45593999997E+02  0.45594000000E+02  0.51100000000E-03 0.  1.
    9900012    2    1    2    0    0  0.38357497774E+02 -0.20371561188E+02 -0.11950535478E+02  0.46142318310E+02  0.10000005007E+02 0.  0.
         12    1    1    2    0    0 -0.38357497774E+02  0.20371561188E+02  0.11950535478E+02  0.45045681690E+02  0.00000000000E+00 0. -1.
         11    1    3    3    0    0  0.77271466120E+01 -0.49513396089E+00 -0.23592245642E+01  0.80944359413E+01  0.51100000000E-03 0. -1.
        -11    1    3    3    0    0  0.10207461863E+02 -0.93471122944E+01 -0.34581504992E+01  0.14266029268E+02  0.51100000000E-03 0.  1.
        -12    1    3    3    0    0  0.20422889299E+02 -0.10529314933E+02 -0.61331604142E+01  0.23781853101E+02  0.00000000000E+00 0.  1.
</event>
<event>
 7    1  0.1402367E-008  0.4614232E+02  0.7816164E-02  0.1320468E+00
        -11   -1    0    0    0    0  0.00000000000E+00  0.00000000000E+00  0.45593999997E+02  0.45594000000E+02  0.51100000000E-03 0. -1.
         11   -1    0    0    0    0 -0.00000000000E+00 -0.00000000000E+00 -0.45593999997E+02  0.45594000000E+02  0.51100000000E-03 0.  1.
    9900012    2    1    2    0    0  0.23185780844E+01 -0.34242825786E+02 -0.29174759580E+02  0.46142317424E+02  0.99999969267E+01 0.  0.
         12    1    1    2    0    0 -0.23185780844E+01  0.34242825786E+02  0.29174759580E+02  0.45045682576E+02  0.00000000000E+00 0. -1.
         11    1    3    3    0    0 -0.91206688331E+00  0.14797893297E+00 -0.51127564594E+00  0.10560145887E+01  0.51100000000E-03 0. -1.
        -11    1    3    3    0    0  0.58441870986E+00 -0.25488733469E+02 -0.20334759202E+02  0.32611646863E+02  0.51100000000E-03 0.  1.
         12    1    3    3    0    0  0.26462262578E+01 -0.89020712505E+01 -0.83287247320E+01  0.12474655972E+02  0.00000000000E+00 0. -1.
</event>
<event>
 7    1  0.1402367E-008  0.4614232E+02  0.7816164E-02  0.1320468E+00
        -11   -1    0    0    0    0  0.00000000000E+00  0.00000000000E+00  0.45593999997E+02  0.45594000000E+02  0.51100000000E-03 0.  1.
         11   -1    0    0    0    0 -0.00000000000E+00 -0.00000000000E+00 -0.45593999997E+02  0.45594000000E+02  0.51100000000E-03 0. -1.
    9900012    2    1    2    0    0 -0.13732041070E+02  0.37089161697E+02  0.21562428147E+02  0.46142321240E+02  0.10000031723E+02 0.  0.
         12    1    1    2    0    0  0.13732041070E+02 -0.37089161697E+02 -0.21562428147E+02  0.45045678760E+02  0.00000000000E+00 0. -1.
         11    1    3    3    0    0 -0.44773850541E+01  0.64481866014E+01  0.20969838322E+01  0.81254802210E+01  0.51100000000E-03 0. -1.
        -11    1    3    3    0    0 -0.98020732893E+01  0.28332187713E+02  0.16505260476E+02  0.34223049616E+02  0.51100000000E-03 0.  1.
         12    1    3    3    0    0  0.54741727283E+00  0.23087873824E+01  0.29601838387E+01  0.37937914026E+01  0.00000000000E+00 0. -1.
</event>
<event>
 7    1  0.1402367E-008  0.4614232E+02  0.7816164E-02  0.1320468E+00
        -11   -1    0    0    0    0  0.00000000000E+00  0.00000000000E+00  0.45593999997E+02  0.45594000000E+02  0.51100000000E-03 0. -1.
         11   -1    0    0    0    0 -0.00000000000E+00 -0.00000000000E+00 -0.45593999997E+02  0.45594000000E+02  0.51100000000E-03 0.  1.
    9900012    2    1    2    0    0 -0.30704992343E+02  0.14170910333E+02  0.29757385151E+02  0.46142320679E+02  0.10000026607E+02 0.  0.
         12    1    1    2    0    0  0.30704992343E+02 -0.14170910333E+02 -0.29757385151E+02  0.45045679321E+02  0.00000000000E+00 0. -1.
         11    1    3    3    0    0 -0.43230556295E+01 -0.76909918926E+00  0.17413719205E+01  0.47236320735E+01  0.51100000000E-03 0. -1.
        -11    1    3    3    0    0 -0.12769052384E+02  0.77912675273E+01  0.11623119747E+02  0.18943322343E+02  0.51100000000E-03 0.  1.
        -12    1    3    3    0    0 -0.13612884330E+02  0.71487419951E+01  0.16392893483E+02  0.22475366263E+02  0.00000000000E+00 0.  1.
</event>
<event>
 7    1  0.1402367E-008  0.4614232E+02  0.7816164E-02  0.1320468E+00
        -11   -1    0    0    0    0  0.00000000000E+00  0.00000000000E+00  0.45593999997E+02  0.45594000000E+02  0.51100000000E-03 0.  1.
         11   -1    0    0    0    0 -0.00000000000E+00 -0.00000000000E+00 -0.45593999997E+02  0.45594000000E+02  0.51100000000E-03 0. -1.
    9900012    2    1    2    0    0 -0.18054485134E+02  0.34322344463E+02  0.22915624836E+02  0.46142316250E+02  0.99999862240E+01 0.  0.
         12    1    1    2    0    0  0.18054485134E+02 -0.34322344463E+02 -0.22915624836E+02  0.45045683750E+02  0.00000000000E+00 0. -1.
         11    1    3    3    0    0 -0.96532079765E+00 -0.11383395448E+00  0.13995205587E+01  0.17039543617E+01  0.51100000000E-03 0. -1.
        -11    1    3    3    0    0 -0.16684114230E+02  0.33153829142E+02  0.19267563504E+02  0.41818357907E+02  0.51100000000E-03 0.  1.
        -12    1    3    3    0    0 -0.40505010546E+00  0.12823492749E+01  0.22485407738E+01  0.26200039813E+01  0.00000000000E+00 0.  1.
</event>
<event>
 7    1  0.1402367E-008  0.4614232E+02  0.7816164E-02  0.1320468E+00
        -11   -1    0    0    0    0  0.00000000000E+00  0.00000000000E+00  0.45593999997E+02  0.45594000000E+02  0.51100000000E-03 0.  1.
         11   -1    0    0    0    0 -0.00000000000E+00 -0.00000000000E+00 -0.45593999997E+02  0.45594000000E+02  0.51100000000E-03 0. -1.
    9900012    2    1    2    0    0 -0.12848132396E+02 -0.20466779479E+02  0.38015127416E+02  0.46142317846E+02  0.10000000771E+02 0.  0.
         12    1    1    2    0    0  0.12848132396E+02  0.20466779479E+02 -0.38015127416E+02  0.45045682154E+02  0.00000000000E+00 0. -1.
         11    1    3    3    0    0 -0.11776110662E+01 -0.37610879336E+01  0.45961667650E+01  0.60545271872E+01  0.51100000000E-03 0. -1.
        -11    1    3    3    0    0 -0.50709342848E+01 -0.99066654976E+01  0.25186442630E+02  0.27535673016E+02  0.51100000000E-03 0.  1.
        -12    1    3    3    0    0 -0.65995870446E+01 -0.67990260479E+01  0.82325180208E+01  0.12552117643E+02  0.00000000000E+00 0.  1.
</event>
<event>
 7    1  0.1402367E-008  0.4614232E+02  0.7816164E-02  0.1320468E+00
        -11   -1    0    0    0    0  0.00000000000E+00  0.00000000000E+00  0.45593999997E+02  0.45594000000E+02  0.51100000000E-03 0.  1.
         11   -1    0    0    0    0 -0.00000000000E+00 -0.00000000000E+00 -0.45593999997E+02  0.45594000000E+02  0.51100000000E-03 0. -1.
    9900012    2    1    2    0    0  0.27644004162E+02 -0.33563081135E+02 -0.11766148442E+02  0.46142316183E+02  0.99999856077E+01 0.  0.
         12    1    1    2    0    0 -0.27644004162E+02  0.33563081135E+02  0.11766148442E+02  0.45045683817E+02  0.00000000000E+00 0. -1.
         11    1    3    3    0    0  0.11714060059E+02 -0.97318224934E+01 -0.63327295725E+01  0.16493363399E+02  0.51100000000E-03 0. -1.
        -11    1    3    3    0    0  0.11807304249E+02 -0.15348243720E+02 -0.14759382827E+01  0.19420592498E+02  0.51100000000E-03 0.  1.
        -12    1    3    3    0    0  0.41226398537E+01 -0.84830149224E+01 -0.39574805868E+01  0.10228360286E+02  0.00000000000E+00 0.  1.
</event>
<event>
 7    1  0.1402367E-008  0.4614232E+02  0.7816164E-02  0.1320468E+00
        -11   -1    0    0    0    0  0.00000000000E+00  0.00000000000E+00  0.45593999997E+02  0.45594000000E+02  0.51100000000E-03 0.  1.
         11   -1    0    0    0    0 -0.00000000000E+00 -0.00000000000E+00 -0.45593999997E+02  0.45594000000E+02  0.51100000000E-03 0. -1.
    9900012    2    1    2    0    0  0.37438567691E+02  0.12662046147E+01  0.25017270830E+02  0.46142318024E+02  0.10000002397E+02 0.  0.
         12    1    1    2    0    0 -0.37438567691E+02 -0.12662046147E+01 -0.25017270830E+02  0.45045681976E+02  0.00000000000E+00 0. -1.
         11    1    3    3    0    0  0.49078598100E+01 -0.18581180733E+01  0.42547395339E+01  0.67559232864E+01  0.51100000000E-03 0. -1.
        -11    1    3    3    0    0  0.24991356122E+02 -0.34084257850E+00  0.17291500023E+02  0.30392104695E+02  0.51100000000E-03 0.  1.
         12    1    3    3    0    0  0.75393517593E+01  0.34651652665E+01  0.34710312733E+01  0.89942900429E+01  0.00000000000E+00 0. -1.
</event>
<event>
 7    1  0.1402367E-008  0.4614232E+02  0.7816164E-02  0.1320468E+00
        -11   -1    0    0    0    0  0.00000000000E+00  0.00000000000E+00  0.45593999997E+02  0.45594000000E+02  0.51100000000E-03 0.  1.
         11   -1    0    0    0    0 -0.00000000000E+00 -0.00000000000E+00 -0.45593999997E+02  0.45594000000E+02  0.51100000000E-03 0. -1.
    9900012    2    1    2    0    0  0.25155803471E+02 -0.12224154265E+02  0.35311033721E+02  0.46142317652E+02  0.99999990071E+01 0.  0.
         12    1    1    2    0    0 -0.25155803471E+02  0.12224154265E+02 -0.35311033721E+02  0.45045682348E+02  0.00000000000E+00 0. -1.
         11    1    3    3    0    0  0.90763995786E+01  0.16224665572E-01  0.12411180713E+02  0.15375912964E+02  0.51100000000E-03 0. -1.
        -11    1    3    3    0    0  0.13877625552E+02 -0.87992569856E+01  0.18977612850E+02  0.25103091527E+02  0.51100000000E-03 0.  1.
         12    1    3    3    0    0  0.22017783398E+01 -0.34411219451E+01  0.39222401580E+01  0.56633131606E+01  0.00000000000E+00 0. -1.
</event>
<event>
 7    1  0.1402367E-008  0.4614232E+02  0.7816164E-02  0.1320468E+00
        -11   -1    0    0    0    0  0.00000000000E+00  0.00000000000E+00  0.45593999997E+02  0.45594000000E+02  0.51100000000E-03 0. -1.
         11   -1    0    0    0    0 -0.00000000000E+00 -0.00000000000E+00 -0.45593999997E+02  0.45594000000E+02  0.51100000000E-03 0.  1.
    9900012    2    1    2    0    0 -0.41856669919E+02  0.10960437988E+02 -0.12530025578E+02  0.46142316982E+02  0.99999928947E+01 0.  0.
         12    1    1    2    0    0  0.41856669919E+02 -0.10960437988E+02  0.12530025578E+02  0.45045683018E+02  0.00000000000E+00 0. -1.
         11    1    3    3    0    0 -0.64175143543E+01 -0.45788271564E+00 -0.32901349908E+01  0.72262808960E+01  0.51100000000E-03 0. -1.
        -11    1    3    3    0    0 -0.21669675079E+02  0.95420099678E+01 -0.37425313759E+01  0.23971468741E+02  0.51100000000E-03 0.  1.
        -12    1    3    3    0    0 -0.13769480486E+02  0.18763107354E+01 -0.54973592113E+01  0.14944567345E+02  0.00000000000E+00 0.  1.
</event>
<event>
 7    1  0.1402367E-008  0.4614232E+02  0.7816164E-02  0.1320468E+00
        -11   -1    0    0    0    0  0.00000000000E+00  0.00000000000E+00  0.45593999997E+02  0.45594000000E+02  0.51100000000E-03 0.  1.
         11   -1    0    0    0    0 -0.00000000000E+00 -0.00000000000E+00 -0.45593999997E+02  0.45594000000E+02  0.51100000000E-03 0. -1.
    9900012    2    1    2    0    0 -0.40619949056E+02  0.36707792755E+01  0.19122200717E+02  0.46142318275E+02  0.10000004682E+02 0.  0.
         12    1    1    2    0    0  0.40619949056E+02 -0.36707792755E+01 -0.19122200717E+02  0.45045681725E+02  0.00000000000E+00 0. -1.
         11    1    3    3    0    0 -0.11338522960E+02 -0.20902129179E+01  0.29408601099E+01  0.11898728983E+02  0.51100000000E-03 0. -1.
        -11    1    3    3    0    0 -0.18596425216E+02  0.15511698495E+01  0.10799738344E+02  0.21560786332E+02  0.51100000000E-03 0.  1.
         12    1    3    3    0    0 -0.10685000881E+02  0.42098223440E+01  0.53816022631E+01  0.12682802959E+02  0.00000000000E+00 0. -1.
</event>
<event>
 7    1  0.1402367E-008  0.4614232E+02  0.7816164E-02  0.1320468E+00
        -11   -1    0    0    0    0  0.00000000000E+00  0.00000000000E+00  0.45593999997E+02  0.45594000000E+02  0.51100000000E-03 0.  1.
         11   -1    0    0    0    0 -0.00000000000E+00 -0.00000000000E+00 -0.45593999997E+02  0.45594000000E+02  0.51100000000E-03 0. -1.
    9900012    2    1    2    0    0 -0.28351432508E+02 -0.10859253785E+02  0.33277416490E+02  0.46142316897E+02  0.99999921176E+01 0.  0.
         12    1    1    2    0    0  0.28351432508E+02  0.10859253785E+02 -0.33277416490E+02  0.45045683103E+02  0.00000000000E+00 0. -1.
         11    1    3    3    0    0 -0.27260759605E+00  0.35239676788E+00 -0.11947007155E+00  0.46127187488E+00  0.51100000000E-03 0. -1.
        -11    1    3    3    0    0 -0.57795480138E+01 -0.38711050451E+01  0.38753582172E+01  0.79628532001E+01  0.51100000000E-03 0.  1.
        -12    1    3    3    0    0 -0.22299276898E+02 -0.73405455077E+01  0.29521528344E+02  0.37718191822E+02  0.00000000000E+00 0.  1.
</event>
<event>
 7    1  0.1402367E-008  0.4614232E+02  0.7816164E-02  0.1320468E+00
        -11   -1    0    0    0    0  0.00000000000E+00  0.00000000000E+00  0.45593999997E+02  0.45594000000E+02  0.51100000000E-03 0.  1.
         11   -1    0    0    0    0 -0.00000000000E+00 -0.00000000000E+00 -0.45593999997E+02  0.45594000000E+02  0.51100000000E-03 0. -1.
    9900012    2    1    2    0    0  0.15261586453E+02  0.11426216145E+02  0.40812239778E+02  0.46142319273E+02  0.10000013790E+02 0.  0.
         12    1    1    2    0    0 -0.15261586453E+02 -0.11426216145E+02 -0.40812239778E+02  0.45045680727E+02  0.00000000000E+00 0. -1.
         11    1    3    3    0    0  0.53368192884E+01  0.36651753695E+01  0.21152930331E+02  0.22121519217E+02  0.51100000000E-03 0.  1.
        -11    1    3    3    0    0  0.97152000405E+01  0.84052684284E+01  0.17188230038E+02  0.21458539123E+02  0.51100000000E-03 0. -1.
        -12    1    3    3    0    0  0.20956712401E+00 -0.64422765333E+00  0.24710794087E+01  0.25622609338E+01  0.00000000000E+00 0.  1.
</event>
<event>
 7    1  0.1402367E-008  0.4614232E+02  0.7816164E-02  0.1320468E+00
        -11   -1    0    0    0    0  0.00000000000E+00  0.00000000000E+00  0.45593999997E+02  0.45594000000E+02  0.51100000000E-03 0.  1.
         11   -1    0    0    0    0 -0.00000000000E+00 -0.00000000000E+00 -0.45593999997E+02  0.45594000000E+02  0.51100000000E-03 0. -1.
    9900012    2    1    2    0    0 -0.10861284805E+01 -0.13263877832E+02  0.43034908125E+02  0.46142318214E+02  0.10000004133E+02 0.  0.
         12    1    1    2    0    0  0.10861284805E+01  0.13263877832E+02 -0.43034908125E+02  0.45045681786E+02  0.00000000000E+00 0. -1.
         11    1    3    3    0    0  0.26397428146E+01 -0.26411916667E+01  0.67701815821E+01  0.77317200197E+01  0.51100000000E-03 0. -1.
        -11    1    3    3    0    0 -0.39012019219E+01 -0.46443608694E+01  0.24148727878E+02  0.24898805649E+02  0.51100000000E-03 0.  1.
        -12    1    3    3    0    0  0.17533062678E+00 -0.59783252963E+01  0.12115998664E+02  0.13511792546E+02  0.00000000000E+00 0.  1.
</event>
<event>
 7    1  0.1402367E-008  0.4614232E+02  0.7816164E-02  0.1320468E+00
        -11   -1    0    0    0    0  0.00000000000E+00  0.00000000000E+00  0.45593999997E+02  0.45594000000E+02  0.51100000000E-03 0.  1.
         11   -1    0    0    0    0 -0.00000000000E+00 -0.00000000000E+00 -0.45593999997E+02  0.45594000000E+02  0.51100000000E-03 0. -1.
    9900012    2    1    2    0    0 -0.43797084476E+02  0.50127227049E+01  0.92629119745E+01  0.46142317235E+02  0.99999952030E+01 0.  0.
         12    1    1    2    0    0  0.43797084476E+02 -0.50127227049E+01 -0.92629119745E+01  0.45045682765E+02  0.00000000000E+00 0. -1.
         11    1    3    3    0    0 -0.93154579688E+01  0.32438394482E+01 -0.11304596420E+01  0.99286550347E+01  0.51100000000E-03 0. -1.
        -11    1    3    3    0    0 -0.17674005850E+02  0.86258789536E+00  0.35722533390E+01  0.18052023012E+02  0.51100000000E-03 0.  1.
         12    1    3    3    0    0 -0.16807620657E+02  0.90629536136E+00  0.68211182775E+01  0.18161639188E+02  0.00000000000E+00 0. -1.
</event>
<event>
 7    1  0.1402367E-008  0.4614230E+02  0.7816164E-02  0.1320468E+00
        -11   -1    0    0    0    0  0.00000000000E+00  0.00000000000E+00  0.45593999997E+02  0.45594000000E+02  0.51100000000E-03 0.  1.
         11   -1    0    0    0    0 -0.00000000000E+00 -0.00000000000E+00 -0.45593999997E+02  0.45594000000E+02  0.51100000000E-03 0. -1.
    9900012    2    1    2    0    0  0.30923468619E+02  0.24856555227E+02  0.21330857408E+02  0.46142304013E+02  0.99998746332E+01 0.  0.
         12    1    1    2    0    0 -0.30923468619E+02 -0.24856555227E+02 -0.21330857408E+02  0.45045695987E+02  0.00000000000E+00 0. -1.
         11    1    3    3    0    0  0.74692486092E+01  0.93841078966E+01  0.60502765075E+01  0.13433428523E+02  0.51100000000E-03 0. -1.
        -11    1    3    3    0    0  0.86918698939E+01  0.78481657362E+01  0.31203301087E+01  0.12119355095E+02  0.51100000000E-03 0.  1.
        -12    1    3    3    0    0  0.14762350116E+02  0.76242815942E+01  0.12160250792E+02  0.20589520395E+02  0.00000000000E+00 0.  1.
</event>
<event>
 7    1  0.1402367E-008  0.4614232E+02  0.7816164E-02  0.1320468E+00
        -11   -1    0    0    0    0  0.00000000000E+00  0.00000000000E+00  0.45593999997E+02  0.45594000000E+02  0.51100000000E-03 0. -1.
         11   -1    0    0    0    0 -0.00000000000E+00 -0.00000000000E+00 -0.45593999997E+02  0.45594000000E+02  0.51100000000E-03 0.  1.
    9900012    2    1    2    0    0  0.36373860456E+02  0.11858162522E+02 -0.23778975367E+02  0.46142318605E+02  0.10000007693E+02 0.  0.
         12    1    1    2    0    0 -0.36373860456E+02 -0.11858162522E+02  0.23778975367E+02  0.45045681395E+02  0.00000000000E+00 0. -1.
         11    1    3    3    0    0  0.75165612839E+01 -0.33597940498E+00 -0.34109739762E+01  0.82611330593E+01  0.51100000000E-03 0. -1.
        -11    1    3    3    0    0  0.15518629846E+02  0.87615352647E+01 -0.14214978373E+02  0.22796008047E+02  0.51100000000E-03 0.  1.
        -12    1    3    3    0    0  0.13338669326E+02  0.34326066620E+01 -0.61530230174E+01  0.15085177498E+02  0.00000000000E+00 0.  1.
</event>
<event>
 7    1  0.1402367E-008  0.4614232E+02  0.7816164E-02  0.1320468E+00
        -11   -1    0    0    0    0  0.00000000000E+00  0.00000000000E+00  0.45593999997E+02  0.45594000000E+02  0.51100000000E-03 0. -1.
         11   -1    0    0    0    0 -0.00000000000E+00 -0.00000000000E+00 -0.45593999997E+02  0.45594000000E+02  0.51100000000E-03 0.  1.
    9900012    2    1    2    0    0  0.39348118651E+02 -0.13219416411E+02  0.17495316554E+02  0.46142317489E+02  0.99999975170E+01 0.  0.
         12    1    1    2    0    0 -0.39348118651E+02  0.13219416411E+02 -0.17495316554E+02  0.45045682511E+02  0.00000000000E+00 0. -1.
         11    1    3    3    0    0  0.30789835437E+01 -0.10142488067E+01 -0.10015982719E+01  0.33929396788E+01  0.51100000000E-03 0. -1.
        -11    1    3    3    0    0  0.11269444163E+02 -0.60331468419E+01  0.57411698204E+01  0.14012860654E+02  0.51100000000E-03 0.  1.
        -12    1    3    3    0    0  0.24999690944E+02 -0.61720207619E+01  0.12755745005E+02  0.28736517156E+02  0.00000000000E+00 0.  1.
</event>
<event>
 7    1  0.1402367E-008  0.4614232E+02  0.7816164E-02  0.1320468E+00
        -11   -1    0    0    0    0  0.00000000000E+00  0.00000000000E+00  0.45593999997E+02  0.45594000000E+02  0.51100000000E-03 0.  1.
         11   -1    0    0    0    0 -0.00000000000E+00 -0.00000000000E+00 -0.45593999997E+02  0.45594000000E+02  0.51100000000E-03 0. -1.
    9900012    2    1    2    0    0  0.42692853566E+02  0.65770523219E+00 -0.14352735755E+02  0.46142319348E+02  0.10000014468E+02 0.  0.
         12    1    1    2    0    0 -0.42692853566E+02 -0.65770523219E+00  0.14352735755E+02  0.45045680652E+02  0.00000000000E+00 0. -1.
         11    1    3    3    0    0  0.24217897919E+02  0.42329571427E+00 -0.11039090856E+02  0.26618551540E+02  0.51100000000E-03 0.  1.
        -11    1    3    3    0    0  0.83554336045E+01  0.11026180753E+01  0.10039484997E+01  0.84874584058E+01  0.51100000000E-03 0. -1.
         12    1    3    3    0    0  0.10119522042E+02 -0.86820855736E+00 -0.43175933994E+01  0.11036309402E+02  0.00000000000E+00 0. -1.
</event>
<event>
 7    1  0.1402367E-008  0.4614232E+02  0.7816164E-02  0.1320468E+00
        -11   -1    0    0    0    0  0.00000000000E+00  0.00000000000E+00  0.45593999997E+02  0.45594000000E+02  0.51100000000E-03 0.  1.
         11   -1    0    0    0    0 -0.00000000000E+00 -0.00000000000E+00 -0.45593999997E+02  0.45594000000E+02  0.51100000000E-03 0. -1.
    9900012    2    1    2    0    0  0.33456291493E+02  0.27964299547E+02 -0.11304335900E+02  0.46142317635E+02  0.99999988482E+01 0.  0.
         12    1    1    2    0    0 -0.33456291493E+02 -0.27964299547E+02  0.11304335900E+02  0.45045682365E+02  0.00000000000E+00 0. -1.
         11    1    3    3    0    0  0.16221027674E+02  0.13858013521E+02 -0.17402494594E+01  0.21405484017E+02  0.51100000000E-03 0. -1.
        -11    1    3    3    0    0  0.50474669483E+01  0.22507091469E+01 -0.72563840640E+00  0.55739721578E+01  0.51100000000E-03 0.  1.
         12    1    3    3    0    0  0.12187796870E+02  0.11855576879E+02 -0.88384480338E+01  0.19162861460E+02  0.00000000000E+00 0. -1.
</event>
<event>
 7    1  0.1402367E-008  0.4614232E+02  0.7816164E-02  0.1320468E+00
        -11   -1    0    0    0    0  0.00000000000E+00  0.00000000000E+00  0.45593999997E+02  0.45594000000E+02  0.51100000000E-03 0. -1.
         11   -1    0    0    0    0 -0.00000000000E+00 -0.00000000000E+00 -0.45593999997E+02  0.45594000000E+02  0.51100000000E-03 0.  1.
    9900012    2    1    2    0    0 -0.62839563463E+01  0.27943442745E+02 -0.34767648618E+02  0.46142317740E+02  0.99999998077E+01 0.  0.
         12    1    1    2    0    0  0.62839563463E+01 -0.27943442745E+02  0.34767648618E+02  0.45045682260E+02  0.00000000000E+00 0. -1.
         11    1    3    3    0    0 -0.18028646381E+01  0.87767398143E+01 -0.52566954713E+01  0.10388182238E+02  0.51100000000E-03 0. -1.
        -11    1    3    3    0    0 -0.30848749731E+01  0.11637739833E+02 -0.14064728092E+02  0.18514049222E+02  0.51100000000E-03 0.  1.
         12    1    3    3    0    0 -0.13962167351E+01  0.75289630977E+01 -0.15446225055E+02  0.17240086280E+02  0.00000000000E+00 0. -1.
</event>
<event>
 7    1  0.1402367E-008  0.4614232E+02  0.7816164E-02  0.1320468E+00
        -11   -1    0    0    0    0  0.00000000000E+00  0.00000000000E+00  0.45593999997E+02  0.45594000000E+02  0.51100000000E-03 0.  1.
         11   -1    0    0    0    0 -0.00000000000E+00 -0.00000000000E+00 -0.45593999997E+02  0.45594000000E+02  0.51100000000E-03 0. -1.
    9900012    2    1    2    0    0  0.13107821242E+02 -0.19243226139E+02  0.38561597159E+02  0.46142317572E+02  0.99999982725E+01 0.  0.
         12    1    1    2    0    0 -0.13107821242E+02  0.19243226139E+02 -0.38561597159E+02  0.45045682428E+02  0.00000000000E+00 0. -1.
         11    1    3    3    0    0  0.96577637262E+01 -0.16980839515E+02  0.24943086211E+02  0.31682469298E+02  0.51100000000E-03 0.  1.
        -11    1    3    3    0    0  0.27650739734E+01 -0.32939062744E+00  0.71082631450E+01  0.76342345696E+01  0.51100000000E-03 0. -1.
         12    1    3    3    0    0  0.68498354267E+00 -0.19329959964E+01  0.65102478036E+01  0.68256137043E+01  0.00000000000E+00 0. -1.
</event>
<event>
 7    1  0.2376027E-008  0.4614232E+02  0.7816164E-02  0.1320468E+00
        -11   -1    0    0    0    0  0.00000000000E+00  0.00000000000E+00  0.45593999997E+02  0.45594000000E+02  0.51100000000E-03 0. -1.
         11   -1    0    0    0    0 -0.00000000000E+00 -0.00000000000E+00 -0.45593999997E+02  0.45594000000E+02  0.51100000000E-03 0.  1.
    9900012    2    1    2    0    0 -0.13483744059E+02 -0.13153109049E+02 -0.40918184491E+02  0.46142318148E+02  0.10000003526E+02 0.  0.
         12    1    1    2    0    0  0.13483744059E+02  0.13153109049E+02  0.40918184491E+02  0.45045681852E+02  0.00000000000E+00 0. -1.
         11    1    3    3    0    0 -0.18368242231E+01 -0.42306333219E+01 -0.54789341656E+01  0.71617666384E+01  0.51100000000E-03 0. -1.
        -11    1    3    3    0    0 -0.69571344785E+01 -0.27805416934E+01 -0.24258528519E+02  0.25389157891E+02  0.51100000000E-03 0.  1.
        -12    1    3    3    0    0 -0.46897853574E+01 -0.61419340341E+01 -0.11180721806E+02  0.13591393618E+02  0.00000000000E+00 0.  1.
</event>
<event>
 7    1  0.1402367E-008  0.4614232E+02  0.7816164E-02  0.1320468E+00
        -11   -1    0    0    0    0  0.00000000000E+00  0.00000000000E+00  0.45593999997E+02  0.45594000000E+02  0.51100000000E-03 0.  1.
         11   -1    0    0    0    0 -0.00000000000E+00 -0.00000000000E+00 -0.45593999997E+02  0.45594000000E+02  0.51100000000E-03 0. -1.
    9900012    2    1    2    0    0 -0.27917440093E+02 -0.33645694091E+02  0.10848842276E+02  0.46142316845E+02  0.99999916452E+01 0.  0.
         12    1    1    2    0    0  0.27917440093E+02  0.33645694091E+02 -0.10848842276E+02  0.45045683155E+02  0.00000000000E+00 0. -1.
         11    1    3    3    0    0 -0.20355964274E+02 -0.28326993132E+02  0.10311653380E+02  0.36374634254E+02  0.51100000000E-03 0.  1.
        -11    1    3    3    0    0 -0.63559233388E+01 -0.45136141513E+01  0.16152202332E+01  0.79611186939E+01  0.51100000000E-03 0. -1.
         12    1    3    3    0    0 -0.12055524798E+01 -0.80508680711E+00 -0.10780313372E+01  0.18065638966E+01  0.00000000000E+00 0. -1.
</event>
<event>
 7    1  0.1402367E-008  0.4614232E+02  0.7816164E-02  0.1320468E+00
        -11   -1    0    0    0    0  0.00000000000E+00  0.00000000000E+00  0.45593999997E+02  0.45594000000E+02  0.51100000000E-03 0.  1.
         11   -1    0    0    0    0 -0.00000000000E+00 -0.00000000000E+00 -0.45593999997E+02  0.45594000000E+02  0.51100000000E-03 0. -1.
    9900012    2    1    2    0    0  0.33441571947E+02 -0.27629622714E+02  0.12139965842E+02  0.46142317007E+02  0.99999931268E+01 0.  0.
         12    1    1    2    0    0 -0.33441571947E+02  0.27629622714E+02 -0.12139965842E+02  0.45045682993E+02  0.00000000000E+00 0. -1.
         11    1    3    3    0    0  0.44275957096E+01 -0.16479665338E+01  0.29733399219E+01  0.55821275528E+01  0.51100000000E-03 0. -1.
        -11    1    3    3    0    0  0.29302043849E+02 -0.26056828745E+02  0.90695450308E+01  0.40247046417E+02  0.51100000000E-03 0.  1.
        -12    1    3    3    0    0 -0.28806761101E+00  0.75172564608E-01  0.97080889467E-01  0.31314303773E+00  0.00000000000E+00 0.  1.
</event>
<event>
 7    1  0.1402367E-008  0.4614231E+02  0.7816164E-02  0.1320468E+00
        -11   -1    0    0    0    0  0.00000000000E+00  0.00000000000E+00  0.45593999997E+02  0.45594000000E+02  0.51100000000E-03 0.  1.
         11   -1    0    0    0    0 -0.00000000000E+00 -0.00000000000E+00 -0.45593999997E+02  0.45594000000E+02  0.51100000000E-03 0. -1.
    9900012    2    1    2    0    0 -0.11804626467E+02  0.15969794837E+02  0.40431797085E+02  0.46142314650E+02  0.99999716261E+01 0.  0.
         12    1    1    2    0    0  0.11804626467E+02 -0.15969794837E+02 -0.40431797085E+02  0.45045685350E+02  0.00000000000E+00 0. -1.
         11    1    3    3    0    0 -0.40966008378E+00  0.37203649961E+00  0.29589459947E+00  0.62752403651E+00  0.51100000000E-03 0. -1.
        -11    1    3    3    0    0 -0.44954884730E+01  0.12723238054E+02  0.20899026194E+02  0.24876886849E+02  0.51100000000E-03 0.  1.
        -12    1    3    3    0    0 -0.68994779102E+01  0.28745202825E+01  0.19236876292E+02  0.20637903764E+02  0.00000000000E+00 0.  1.
</event>
<event>
 7    1  0.1402367E-008  0.4614232E+02  0.7816164E-02  0.1320468E+00
        -11   -1    0    0    0    0  0.00000000000E+00  0.00000000000E+00  0.45593999997E+02  0.45594000000E+02  0.51100000000E-03 0. -1.
         11   -1    0    0    0    0 -0.00000000000E+00 -0.00000000000E+00 -0.45593999997E+02  0.45594000000E+02  0.51100000000E-03 0.  1.
    9900012    2    1    2    0    0 -0.41534943236E+02  0.12684794001E+02 -0.11960674175E+02  0.46142320571E+02  0.10000025626E+02 0.  0.
         12    1    1    2    0    0  0.41534943236E+02 -0.12684794001E+02  0.11960674175E+02  0.45045679429E+02  0.00000000000E+00 0. -1.
         11    1    3    3    0    0 -0.23972069330E+02  0.50678650210E+01 -0.10852024138E+02  0.26797570636E+02  0.51100000000E-03 0. -1.
        -11    1    3    3    0    0 -0.11626701589E+02  0.63312094605E+01 -0.81742333434E+00  0.13263958091E+02  0.51100000000E-03 0.  1.
         12    1    3    3    0    0 -0.59361723177E+01  0.12857195195E+01 -0.29122670270E+00  0.60807918448E+01  0.00000000000E+00 0. -1.
</event>
<event>
 7    1  0.1402367E-008  0.4614231E+02  0.7816164E-02  0.1320468E+00
        -11   -1    0    0    0    0  0.00000000000E+00  0.00000000000E+00  0.45593999997E+02  0.45594000000E+02  0.51100000000E-03 0. -1.
         11   -1    0    0    0    0 -0.00000000000E+00 -0.00000000000E+00 -0.45593999997E+02  0.45594000000E+02  0.51100000000E-03 0.  1.
    9900012    2    1    2    0    0 -0.15608063088E+02  0.10368528921E+02 -0.40963353261E+02  0.46142308356E+02  0.99999142336E+01 0.  0.
         12    1    1    2    0    0  0.15608063088E+02 -0.10368528921E+02  0.40963353261E+02  0.45045691644E+02  0.00000000000E+00 0. -1.
         11    1    3    3    0    0 -0.13876476850E+02  0.47775924774E+01 -0.26160103291E+02  0.29995549738E+02  0.51100000000E-03 0. -1.
        -11    1    3    3    0    0 -0.18351935523E+01  0.58378129919E+01 -0.13588648499E+02  0.14902998497E+02  0.51100000000E-03 0.  1.
        -12    1    3    3    0    0  0.10360731392E+00 -0.24687654804E+00 -0.12146014705E+01  0.12437601206E+01  0.00000000000E+00 0.  1.
</event>
<event>
 7    1  0.1402367E-008  0.4614232E+02  0.7816164E-02  0.1320468E+00
        -11   -1    0    0    0    0  0.00000000000E+00  0.00000000000E+00  0.45593999997E+02  0.45594000000E+02  0.51100000000E-03 0.  1.
         11   -1    0    0    0    0 -0.00000000000E+00 -0.00000000000E+00 -0.45593999997E+02  0.45594000000E+02  0.51100000000E-03 0. -1.
    9900012    2    1    2    0    0  0.30901818887E+02 -0.31332888345E+02  0.96146361113E+01  0.46142317298E+02  0.99999957770E+01 0.  0.
         12    1    1    2    0    0 -0.30901818887E+02  0.31332888345E+02 -0.96146361113E+01  0.45045682702E+02  0.00000000000E+00 0. -1.
         11    1    3    3    0    0  0.81917429165E+01 -0.10596509153E+02 -0.45222918367E-01  0.13393756142E+02  0.51100000000E-03 0. -1.
        -11    1    3    3    0    0  0.15403433859E+02 -0.16698929710E+02  0.52899495604E+01  0.23326028267E+02  0.51100000000E-03 0.  1.
         12    1    3    3    0    0  0.73066421112E+01 -0.40374494823E+01  0.43699094693E+01  0.94225328884E+01  0.00000000000E+00 0. -1.
</event>
<event>
 7    1  0.1402367E-008  0.4614232E+02  0.7816164E-02  0.1320468E+00
        -11   -1    0    0    0    0  0.00000000000E+00  0.00000000000E+00  0.45593999997E+02  0.45594000000E+02  0.51100000000E-03 0. -1.
         11   -1    0    0    0    0 -0.00000000000E+00 -0.00000000000E+00 -0.45593999997E+02  0.45594000000E+02  0.51100000000E-03 0.  1.
    9900012    2    1    2    0    0  0.22371671844E+02  0.27223385635E+02 -0.28062590326E+02  0.46142318716E+02  0.10000008704E+02 0.  0.
         12    1    1    2    0    0 -0.22371671844E+02 -0.27223385635E+02  0.28062590326E+02  0.45045681284E+02  0.00000000000E+00 0. -1.
         11    1    3    3    0    0  0.82087605822E+01  0.55664097709E+01 -0.70370528451E+01  0.12160953130E+02  0.51100000000E-03 0. -1.
        -11    1    3    3    0    0  0.11268822749E+02  0.11566461982E+02 -0.11718192017E+02  0.19952078422E+02  0.51100000000E-03 0.  1.
         12    1    3    3    0    0  0.28940885128E+01  0.10090513882E+02 -0.93073454639E+01  0.14029287163E+02  0.00000000000E+00 0. -1.
</event>
<event>
 7    1  0.1402367E-008  0.4614232E+02  0.7816164E-02  0.1320468E+00
        -11   -1    0    0    0    0  0.00000000000E+00  0.00000000000E+00  0.45593999997E+02  0.45594000000E+02  0.51100000000E-03 0. -1.
         11   -1    0    0    0    0 -0.00000000000E+00 -0.00000000000E+00 -0.45593999997E+02  0.45594000000E+02  0.51100000000E-03 0.  1.
    9900012    2    1    2    0    0 -0.38750742219E+02  0.20792332087E+02 -0.97556343529E+01  0.46142317657E+02  0.99999990515E+01 0.  0.
         12    1    1    2    0    0  0.38750742219E+02 -0.20792332087E+02  0.97556343529E+01  0.45045682343E+02  0.00000000000E+00 0. -1.
         11    1    3    3    0    0 -0.98717079187E+01  0.22956047083E+01 -0.26531657124E+01  0.10476626688E+02  0.51100000000E-03 0. -1.
        -11    1    3    3    0    0 -0.29126346293E+02  0.17869845144E+02 -0.65479514921E+01  0.34792974619E+02  0.51100000000E-03 0.  1.
         12    1    3    3    0    0  0.24731199338E+00  0.62688223493E+00 -0.55451714838E+00  0.87271634933E+00  0.00000000000E+00 0. -1.
</event>
<event>
 7    1  0.1402367E-008  0.4614232E+02  0.7816164E-02  0.1320468E+00
        -11   -1    0    0    0    0  0.00000000000E+00  0.00000000000E+00  0.45593999997E+02  0.45594000000E+02  0.51100000000E-03 0.  1.
         11   -1    0    0    0    0 -0.00000000000E+00 -0.00000000000E+00 -0.45593999997E+02  0.45594000000E+02  0.51100000000E-03 0. -1.
    9900012    2    1    2    0    0 -0.45000943948E+02 -0.19905667704E+01 -0.25724337982E+00  0.46142317783E+02  0.10000000196E+02 0.  0.
         12    1    1    2    0    0  0.45000943948E+02  0.19905667704E+01  0.25724337982E+00  0.45045682217E+02  0.00000000000E+00 0. -1.
         11    1    3    3    0    0 -0.47845007994E+01  0.10571414148E+01 -0.23106417473E+01  0.54173851087E+01  0.51100000000E-03 0. -1.
        -11    1    3    3    0    0 -0.21855996928E+02 -0.40610189808E+01  0.72905439015E-01  0.22230200007E+02  0.51100000000E-03 0.  1.
        -12    1    3    3    0    0 -0.18360446221E+02  0.10133107956E+01  0.19804929285E+01  0.18494732667E+02  0.00000000000E+00 0.  1.
</event>
<event>
 7    1  0.1402367E-008  0.4614232E+02  0.7816164E-02  0.1320468E+00
        -11   -1    0    0    0    0  0.00000000000E+00  0.00000000000E+00  0.45593999997E+02  0.45594000000E+02  0.51100000000E-03 0. -1.
         11   -1    0    0    0    0 -0.00000000000E+00 -0.00000000000E+00 -0.45593999997E+02  0.45594000000E+02  0.51100000000E-03 0.  1.
    9900012    2    1    2    0    0  0.14412837730E+02 -0.42651472958E+02 -0.14951703606E+01  0.46142316841E+02  0.99999916053E+01 0.  0.
         12    1    1    2    0    0 -0.14412837730E+02  0.42651472958E+02  0.14951703606E+01  0.45045683159E+02  0.00000000000E+00 0. -1.
         11    1    3    3    0    0  0.28296849707E+01 -0.21517223386E+02  0.16517861246E+01  0.21765257107E+02  0.51100000000E-03 0. -1.
        -11    1    3    3    0    0  0.46373771325E+01 -0.10159665444E+02 -0.19134399416E+01  0.11330724658E+02  0.51100000000E-03 0.  1.
         12    1    3    3    0    0  0.69457756271E+01 -0.10974584128E+02 -0.12335165436E+01  0.13046335076E+02  0.00000000000E+00 0. -1.
</event>
<event>
 7    1  0.1402367E-008  0.4614232E+02  0.7816164E-02  0.1320468E+00
        -11   -1    0    0    0    0  0.00000000000E+00  0.00000000000E+00  0.45593999997E+02  0.45594000000E+02  0.51100000000E-03 0. -1.
         11   -1    0    0    0    0 -0.00000000000E+00 -0.00000000000E+00 -0.45593999997E+02  0.45594000000E+02  0.51100000000E-03 0.  1.
    9900012    2    1    2    0    0 -0.42954254531E+02 -0.54511582014E+01 -0.12422968304E+02  0.46142320412E+02  0.10000024173E+02 0.  0.
         12    1    1    2    0    0  0.42954254531E+02  0.54511582014E+01  0.12422968304E+02  0.45045679588E+02  0.00000000000E+00 0. -1.
         11    1    3    3    0    0 -0.11701054457E+02  0.11015797408E+01 -0.79345653224E-01  0.11753061275E+02  0.51100000000E-03 0. -1.
        -11    1    3    3    0    0 -0.26226266351E+02 -0.44902169435E+01 -0.10999978181E+02  0.28791988733E+02  0.51100000000E-03 0.  1.
         12    1    3    3    0    0 -0.50269337222E+01 -0.20625209987E+01 -0.13436444698E+01  0.55972704043E+01  0.00000000000E+00 0. -1.
</event>
<event>
 7    1  0.1402367E-008  0.4614232E+02  0.7816164E-02  0.1320468E+00
        -11   -1    0    0    0    0  0.00000000000E+00  0.00000000000E+00  0.45593999997E+02  0.45594000000E+02  0.51100000000E-03 0. -1.
         11   -1    0    0    0    0 -0.00000000000E+00 -0.00000000000E+00 -0.45593999997E+02  0.45594000000E+02  0.51100000000E-03 0.  1.
    9900012    2    1    2    0    0  0.19388826089E+02  0.31671048433E+02 -0.25497677884E+02  0.46142318038E+02  0.10000002524E+02 0.  0.
         12    1    1    2    0    0 -0.19388826089E+02 -0.31671048433E+02  0.25497677884E+02  0.45045681962E+02  0.00000000000E+00 0. -1.
         11    1    3    3    0    0  0.35147705391E+01  0.51091137643E+01 -0.73345122177E+01  0.96047761625E+01  0.51100000000E-03 0. -1.
        -11    1    3    3    0    0  0.44668500589E+01  0.13771575362E+02 -0.69730948402E+01  0.16069632520E+02  0.51100000000E-03 0.  1.
        -12    1    3    3    0    0  0.11407205491E+02  0.12790359306E+02 -0.11190070826E+02  0.20467909356E+02  0.00000000000E+00 0.  1.
</event>
<event>
 7    1  0.1402367E-008  0.4614232E+02  0.7816164E-02  0.1320468E+00
        -11   -1    0    0    0    0  0.00000000000E+00  0.00000000000E+00  0.45593999997E+02  0.45594000000E+02  0.51100000000E-03 0. -1.
         11   -1    0    0    0    0 -0.00000000000E+00 -0.00000000000E+00 -0.45593999997E+02  0.45594000000E+02  0.51100000000E-03 0.  1.
    9900012    2    1    2    0    0 -0.42005422763E+02 -0.11230574653E+02 -0.11769967621E+02  0.46142317784E+02  0.10000000208E+02 0.  0.
         12    1    1    2    0    0  0.42005422763E+02  0.11230574653E+02  0.11769967621E+02  0.45045682216E+02  0.00000000000E+00 0. -1.
         11    1    3    3    0    0 -0.30423191750E+01 -0.13339713540E+01 -0.13381429821E+01  0.35813143450E+01  0.51100000000E-03 0.  1.
        -11    1    3    3    0    0 -0.17893865205E+02 -0.85440916710E+01 -0.24065590302E+01  0.19974569860E+02  0.51100000000E-03 0. -1.
        -12    1    3    3    0    0 -0.21069238383E+02 -0.13525116277E+01 -0.80252656083E+01  0.22586433579E+02  0.00000000000E+00 0.  1.
</event>
<event>
 7    1  0.1402367E-008  0.4614232E+02  0.7816164E-02  0.1320468E+00
        -11   -1    0    0    0    0  0.00000000000E+00  0.00000000000E+00  0.45593999997E+02  0.45594000000E+02  0.51100000000E-03 0. -1.
         11   -1    0    0    0    0 -0.00000000000E+00 -0.00000000000E+00 -0.45593999997E+02  0.45594000000E+02  0.51100000000E-03 0.  1.
    9900012    2    1    2    0    0  0.37750623361E+02  0.23694054664E+02 -0.65265377343E+01  0.46142317795E+02  0.10000000309E+02 0.  0.
         12    1    1    2    0    0 -0.37750623361E+02 -0.23694054664E+02  0.65265377343E+01  0.45045682205E+02  0.00000000000E+00 0. -1.
         11    1    3    3    0    0  0.51370852262E+00 -0.14864876165E+00 -0.95443326272E+00  0.10940457096E+01  0.51100000000E-03 0. -1.
        -11    1    3    3    0    0  0.30116199932E+02  0.18036566799E+02 -0.19054815180E+01  0.35155854425E+02  0.51100000000E-03 0.  1.
         12    1    3    3    0    0  0.71207149058E+01  0.58061366259E+01 -0.36666229535E+01  0.98924176606E+01  0.00000000000E+00 0. -1.
</event>
<event>
 7    1  0.1402367E-008  0.4614232E+02  0.7816164E-02  0.1320468E+00
        -11   -1    0    0    0    0  0.00000000000E+00  0.00000000000E+00  0.45593999997E+02  0.45594000000E+02  0.51100000000E-03 0. -1.
         11   -1    0    0    0    0 -0.00000000000E+00 -0.00000000000E+00 -0.45593999997E+02  0.45594000000E+02  0.51100000000E-03 0.  1.
    9900012    2    1    2    0    0  0.40485477485E+02 -0.10589696254E+02 -0.16670269448E+02  0.46142318327E+02  0.10000005156E+02 0.  0.
         12    1    1    2    0    0 -0.40485477485E+02  0.10589696254E+02  0.16670269448E+02  0.45045681673E+02  0.00000000000E+00 0. -1.
         11    1    3    3    0    0  0.33274299622E+02 -0.86347840116E+01 -0.10541430390E+02  0.35956366129E+02  0.51100000000E-03 0. -1.
        -11    1    3    3    0    0  0.67867419372E+01 -0.13145474580E+01 -0.41492544050E+01  0.80625190555E+01  0.51100000000E-03 0.  1.
        -12    1    3    3    0    0  0.42443592602E+00 -0.64036478412E+00 -0.19795846524E+01  0.21234331419E+01  0.00000000000E+00 0.  1.
</event>
<event>
 7    1  0.1402367E-008  0.4614232E+02  0.7816164E-02  0.1320468E+00
        -11   -1    0    0    0    0  0.00000000000E+00  0.00000000000E+00  0.45593999997E+02  0.45594000000E+02  0.51100000000E-03 0. -1.
         11   -1    0    0    0    0 -0.00000000000E+00 -0.00000000000E+00 -0.45593999997E+02  0.45594000000E+02  0.51100000000E-03 0.  1.
    9900012    2    1    2    0    0 -0.13301520506E+02  0.42543818246E+02 -0.64966540242E+01  0.46142318384E+02  0.10000005679E+02 0.  0.
         12    1    1    2    0    0  0.13301520506E+02 -0.42543818246E+02  0.64966540242E+01  0.45045681616E+02  0.00000000000E+00 0. -1.
         11    1    3    3    0    0 -0.22852323996E+01  0.17541051893E+01 -0.90168210593E-01  0.28822391820E+01  0.51100000000E-03 0. -1.
        -11    1    3    3    0    0 -0.51405345053E+01  0.17205221746E+02 -0.60615292200E+01  0.18952226441E+02  0.51100000000E-03 0.  1.
         12    1    3    3    0    0 -0.58757536007E+01  0.23584491311E+02 -0.34495659360E+00  0.24307852761E+02  0.00000000000E+00 0. -1.
</event>
<event>
 7    1  0.1402367E-008  0.4614232E+02  0.7816164E-02  0.1320468E+00
        -11   -1    0    0    0    0  0.00000000000E+00  0.00000000000E+00  0.45593999997E+02  0.45594000000E+02  0.51100000000E-03 0.  1.
         11   -1    0    0    0    0 -0.00000000000E+00 -0.00000000000E+00 -0.45593999997E+02  0.45594000000E+02  0.51100000000E-03 0. -1.
    9900012    2    1    2    0    0  0.22586939982E+02  0.28525929820E+01  0.38869092195E+02  0.46142317937E+02  0.10000001601E+02 0.  0.
         12    1    1    2    0    0 -0.22586939982E+02 -0.28525929820E+01 -0.38869092195E+02  0.45045682063E+02  0.00000000000E+00 0. -1.
         11    1    3    3    0    0  0.89384333818E+01 -0.29967485897E+01  0.15030077481E+02  0.17742021384E+02  0.51100000000E-03 0. -1.
        -11    1    3    3    0    0  0.80621170350E+01  0.23540247848E+01  0.99039556992E+01  0.12985665271E+02  0.51100000000E-03 0.  1.
         12    1    3    3    0    0  0.55863895655E+01  0.34953167868E+01  0.13935059015E+02  0.15414631282E+02  0.00000000000E+00 0. -1.
</event>
<event>
 7    1  0.1402367E-008  0.4614232E+02  0.7816164E-02  0.1320468E+00
        -11   -1    0    0    0    0  0.00000000000E+00  0.00000000000E+00  0.45593999997E+02  0.45594000000E+02  0.51100000000E-03 0.  1.
         11   -1    0    0    0    0 -0.00000000000E+00 -0.00000000000E+00 -0.45593999997E+02  0.45594000000E+02  0.51100000000E-03 0. -1.
    9900012    2    1    2    0    0 -0.25432316843E+02  0.34063890212E+02  0.14898393916E+02  0.46142317658E+02  0.99999990588E+01 0.  0.
         12    1    1    2    0    0  0.25432316843E+02 -0.34063890212E+02 -0.14898393916E+02  0.45045682342E+02  0.00000000000E+00 0. -1.
         11    1    3    3    0    0 -0.46559782302E+01  0.53721963481E+01  0.40684129880E+01  0.81908858730E+01  0.51100000000E-03 0. -1.
        -11    1    3    3    0    0 -0.10103425833E+02  0.20545375586E+02  0.58475493654E+01  0.23630182085E+02  0.51100000000E-03 0.  1.
        -12    1    3    3    0    0 -0.10672912779E+02  0.81463182782E+01  0.49824315631E+01  0.14321249700E+02  0.00000000000E+00 0.  1.
</event>
<event>
 7    1  0.1402367E-008  0.4614232E+02  0.7816164E-02  0.1320468E+00
        -11   -1    0    0    0    0  0.00000000000E+00  0.00000000000E+00  0.45593999997E+02  0.45594000000E+02  0.51100000000E-03 0.  1.
         11   -1    0    0    0    0 -0.00000000000E+00 -0.00000000000E+00 -0.45593999997E+02  0.45594000000E+02  0.51100000000E-03 0. -1.
    9900012    2    1    2    0    0 -0.11303923563E+01 -0.25929393143E+01  0.44956781517E+02  0.46142319569E+02  0.10000016484E+02 0.  0.
         12    1    1    2    0    0  0.11303923563E+01  0.25929393143E+01 -0.44956781517E+02  0.45045680431E+02  0.00000000000E+00 0. -1.
         11    1    3    3    0    0 -0.17053687281E+01 -0.34712311083E+01  0.17454587853E+02  0.17877929558E+02  0.51100000000E-03 0. -1.
        -11    1    3    3    0    0 -0.11003169680E+01  0.28798336543E+01  0.77528201894E+01  0.83432823551E+01  0.51100000000E-03 0.  1.
        -12    1    3    3    0    0  0.16752933398E+01 -0.20015418604E+01  0.19749373474E+02  0.19921107656E+02  0.00000000000E+00 0.  1.
</event>
<event>
 7    1  0.1402367E-008  0.4614232E+02  0.7816164E-02  0.1320468E+00
        -11   -1    0    0    0    0  0.00000000000E+00  0.00000000000E+00  0.45593999997E+02  0.45594000000E+02  0.51100000000E-03 0. -1.
         11   -1    0    0    0    0 -0.00000000000E+00 -0.00000000000E+00 -0.45593999997E+02  0.45594000000E+02  0.51100000000E-03 0.  1.
    9900012    2    1    2    0    0 -0.12087907027E+02  0.19376382826E+02 -0.38827204639E+02  0.46142317323E+02  0.99999960088E+01 0.  0.
         12    1    1    2    0    0  0.12087907027E+02 -0.19376382826E+02  0.38827204639E+02  0.45045682677E+02  0.00000000000E+00 0. -1.
         11    1    3    3    0    0 -0.10927775092E+02  0.15324391215E+02 -0.25228548994E+02  0.31475910140E+02  0.51100000000E-03 0.  1.
        -11    1    3    3    0    0  0.10882636390E+01  0.25962043273E+01 -0.69446483527E+01  0.74935129052E+01  0.51100000000E-03 0. -1.
         12    1    3    3    0    0 -0.22483955746E+01  0.14557872840E+01 -0.66540072924E+01  0.71728942780E+01  0.00000000000E+00 0. -1.
</event>
<event>
 7    1  0.1402367E-008  0.4614232E+02  0.7816164E-02  0.1320468E+00
        -11   -1    0    0    0    0  0.00000000000E+00  0.00000000000E+00  0.45593999997E+02  0.45594000000E+02  0.51100000000E-03 0.  1.
         11   -1    0    0    0    0 -0.00000000000E+00 -0.00000000000E+00 -0.45593999997E+02  0.45594000000E+02  0.51100000000E-03 0. -1.
    9900012    2    1    2    0    0  0.78932220544E+01 -0.27220758509E+02  0.35012009186E+02  0.46142318348E+02  0.10000005356E+02 0.  0.
         12    1    1    2    0    0 -0.78932220544E+01  0.27220758509E+02 -0.35012009186E+02  0.45045681652E+02  0.00000000000E+00 0. -1.
         11    1    3    3    0    0  0.61085692569E+00 -0.97552802775E+01  0.13460167931E+02  0.16634745579E+02  0.51100000000E-03 0. -1.
        -11    1    3    3    0    0  0.63380053140E+00 -0.99571877275E+01  0.89603823466E+01  0.13410284956E+02  0.51100000000E-03 0.  1.
        -12    1    3    3    0    0  0.66485645973E+01 -0.75082905036E+01  0.12591458909E+02  0.16097287813E+02  0.00000000000E+00 0.  1.
</event>
<event>
 7    1  0.1402367E-008  0.4614232E+02  0.7816164E-02  0.1320468E+00
        -11   -1    0    0    0    0  0.00000000000E+00  0.00000000000E+00  0.45593999997E+02  0.45594000000E+02  0.51100000000E-03 0.  1.
         11   -1    0    0    0    0 -0.00000000000E+00 -0.00000000000E+00 -0.45593999997E+02  0.45594000000E+02  0.51100000000E-03 0. -1.
    9900012    2    1    2    0    0 -0.29678276257E+02 -0.20455345369E+02  0.27016516888E+02  0.46142318514E+02  0.10000006869E+02 0.  0.
         12    1    1    2    0    0  0.29678276257E+02  0.20455345369E+02 -0.27016516888E+02  0.45045681486E+02  0.00000000000E+00 0. -1.
         11    1    3    3    0    0 -0.10741387924E+01  0.28722360238E+00  0.26476017229E+01  0.28715965398E+01  0.51100000000E-03 0. -1.
        -11    1    3    3    0    0 -0.83987952426E+01 -0.40341809358E+01  0.43485943858E+01  0.10282249304E+02  0.51100000000E-03 0.  1.
         12    1    3    3    0    0 -0.20205342222E+02 -0.16708388035E+02  0.20020320779E+02  0.32988472671E+02  0.00000000000E+00 0. -1.
</event>
<event>
 7    1  0.1402367E-008  0.4614232E+02  0.7816164E-02  0.1320468E+00
        -11   -1    0    0    0    0  0.00000000000E+00  0.00000000000E+00  0.45593999997E+02  0.45594000000E+02  0.51100000000E-03 0.  1.
         11   -1    0    0    0    0 -0.00000000000E+00 -0.00000000000E+00 -0.45593999997E+02  0.45594000000E+02  0.51100000000E-03 0. -1.
    9900012    2    1    2    0    0 -0.29056915443E+02 -0.25830821609E+02  0.22750336962E+02  0.46142317499E+02  0.99999976117E+01 0.  0.
         12    1    1    2    0    0  0.29056915443E+02  0.25830821609E+02 -0.22750336962E+02  0.45045682501E+02  0.00000000000E+00 0. -1.
         11    1    3    3    0    0 -0.10166026539E+01 -0.12154446816E+01 -0.10020691018E+01  0.18748145177E+01  0.51100000000E-03 0. -1.
        -11    1    3    3    0    0 -0.26723564545E+02 -0.23534285111E+02  0.23087192383E+02  0.42438542978E+02  0.51100000000E-03 0.  1.
        -12    1    3    3    0    0 -0.13167482435E+01 -0.10810918170E+01  0.66521368084E+00  0.18289600036E+01  0.00000000000E+00 0.  1.
</event>
<event>
 7    1  0.1402367E-008  0.4614232E+02  0.7816164E-02  0.1320468E+00
        -11   -1    0    0    0    0  0.00000000000E+00  0.00000000000E+00  0.45593999997E+02  0.45594000000E+02  0.51100000000E-03 0.  1.
         11   -1    0    0    0    0 -0.00000000000E+00 -0.00000000000E+00 -0.45593999997E+02  0.45594000000E+02  0.51100000000E-03 0. -1.
    9900012    2    1    2    0    0 -0.42163811219E+02  0.12766958706E+02 -0.93984687907E+01  0.46142318446E+02  0.10000006241E+02 0.  0.
         12    1    1    2    0    0  0.42163811219E+02 -0.12766958706E+02  0.93984687907E+01  0.45045681554E+02  0.00000000000E+00 0. -1.
         11    1    3    3    0    0 -0.23229047652E+02  0.86490679282E+01 -0.80270713907E+01  0.26054345247E+02  0.51100000000E-03 0. -1.
        -11    1    3    3    0    0 -0.16025831820E+02  0.46384291598E+01  0.31293646249E+00  0.16686528701E+02  0.51100000000E-03 0.  1.
         12    1    3    3    0    0 -0.29089317465E+01 -0.52053838210E+00 -0.16843338625E+01  0.34014444981E+01  0.00000000000E+00 0. -1.
</event>
<event>
 7    1  0.1402367E-008  0.4614232E+02  0.7816164E-02  0.1320468E+00
        -11   -1    0    0    0    0  0.00000000000E+00  0.00000000000E+00  0.45593999997E+02  0.45594000000E+02  0.51100000000E-03 0. -1.
         11   -1    0    0    0    0 -0.00000000000E+00 -0.00000000000E+00 -0.45593999997E+02  0.45594000000E+02  0.51100000000E-03 0.  1.
    9900012    2    1    2    0    0  0.40425591692E+02  0.18398836188E+02 -0.75078570998E+01  0.46142317022E+02  0.99999932600E+01 0.  0.
         12    1    1    2    0    0 -0.40425591692E+02 -0.18398836188E+02  0.75078570998E+01  0.45045682978E+02  0.00000000000E+00 0. -1.
         11    1    3    3    0    0  0.12295460429E+02  0.43477043421E+01  0.43643282423E+00  0.13048806615E+02  0.51100000000E-03 0. -1.
        -11    1    3    3    0    0  0.25478952373E+02  0.13455523030E+02 -0.89875705726E+01  0.30182851739E+02  0.51100000000E-03 0.  1.
        -12    1    3    3    0    0  0.26511788904E+01  0.59560881558E+00  0.10432806486E+01  0.29106586681E+01  0.00000000000E+00 0.  1.
</event>
<event>
 7    1  0.1402367E-008  0.4614232E+02  0.7816164E-02  0.1320468E+00
        -11   -1    0    0    0    0  0.00000000000E+00  0.00000000000E+00  0.45593999997E+02  0.45594000000E+02  0.51100000000E-03 0.  1.
         11   -1    0    0    0    0 -0.00000000000E+00 -0.00000000000E+00 -0.45593999997E+02  0.45594000000E+02  0.51100000000E-03 0. -1.
    9900012    2    1    2    0    0 -0.29956509266E+02 -0.11944630081E+02  0.31449114476E+02  0.46142318337E+02  0.10000005249E+02 0.  0.
         12    1    1    2    0    0  0.29956509266E+02  0.11944630081E+02 -0.31449114476E+02  0.45045681663E+02  0.00000000000E+00 0. -1.
         11    1    3    3    0    0 -0.12277665906E+02 -0.70382941445E+01  0.16409704585E+02  0.21669265549E+02  0.51100000000E-03 0. -1.
        -11    1    3    3    0    0 -0.16817994875E+02 -0.55551707487E+01  0.12396995045E+02  0.21619212753E+02  0.51100000000E-03 0.  1.
         12    1    3    3    0    0 -0.86084848452E+00  0.64883481199E+00  0.26424148462E+01  0.28538400351E+01  0.00000000000E+00 0. -1.
</event>
<event>
 7    1  0.1402367E-008  0.4614232E+02  0.7816164E-02  0.1320468E+00
        -11   -1    0    0    0    0  0.00000000000E+00  0.00000000000E+00  0.45593999997E+02  0.45594000000E+02  0.51100000000E-03 0.  1.
         11   -1    0    0    0    0 -0.00000000000E+00 -0.00000000000E+00 -0.45593999997E+02  0.45594000000E+02  0.51100000000E-03 0. -1.
    9900012    2    1    2    0    0 -0.17540975892E+02  0.56621698619E+01  0.41101916535E+02  0.46142317125E+02  0.99999941998E+01 0.  0.
         12    1    1    2    0    0  0.17540975892E+02 -0.56621698619E+01 -0.41101916535E+02  0.45045682875E+02  0.00000000000E+00 0. -1.
         11    1    3    3    0    0  0.72269087657E+00 -0.72076971273E-01  0.22429442059E+01  0.23575996616E+01  0.51100000000E-03 0. -1.
        -11    1    3    3    0    0 -0.13922888835E+02  0.20674601597E+01  0.23310812467E+02  0.27230776764E+02  0.51100000000E-03 0.  1.
         12    1    3    3    0    0 -0.43407779337E+01  0.36667866735E+01  0.15548159862E+02  0.16553940699E+02  0.00000000000E+00 0. -1.
</event>
<event>
 7    1  0.1402367E-008  0.4614232E+02  0.7816164E-02  0.1320468E+00
        -11   -1    0    0    0    0  0.00000000000E+00  0.00000000000E+00  0.45593999997E+02  0.45594000000E+02  0.51100000000E-03 0.  1.
         11   -1    0    0    0    0 -0.00000000000E+00 -0.00000000000E+00 -0.45593999997E+02  0.45594000000E+02  0.51100000000E-03 0. -1.
    9900012    2    1    2    0    0  0.25634478867E+02 -0.16838295617E+02  0.32991799151E+02  0.46142317440E+02  0.99999970761E+01 0.  0.
         12    1    1    2    0    0 -0.25634478867E+02  0.16838295617E+02 -0.32991799151E+02  0.45045682560E+02  0.00000000000E+00 0. -1.
         11    1    3    3    0    0  0.98833889254E+01 -0.10655619372E+02  0.15193018023E+02  0.21025018377E+02  0.51100000000E-03 0. -1.
        -11    1    3    3    0    0  0.79147030704E+01 -0.35005684765E+01  0.12774173419E+02  0.15429711959E+02  0.51100000000E-03 0.  1.
        -12    1    3    3    0    0  0.78363868709E+01 -0.26821077689E+01  0.50246077092E+01  0.96875871045E+01  0.00000000000E+00 0.  1.
</event>
<event>
 7    1  0.1402367E-008  0.4614232E+02  0.7816164E-02  0.1320468E+00
        -11   -1    0    0    0    0  0.00000000000E+00  0.00000000000E+00  0.45593999997E+02  0.45594000000E+02  0.51100000000E-03 0.  1.
         11   -1    0    0    0    0 -0.00000000000E+00 -0.00000000000E+00 -0.45593999997E+02  0.45594000000E+02  0.51100000000E-03 0. -1.
    9900012    2    1    2    0    0  0.20638096703E+02  0.33366860205E+02  0.22132218063E+02  0.46142317945E+02  0.10000001676E+02 0.  0.
         12    1    1    2    0    0 -0.20638096703E+02 -0.33366860205E+02 -0.22132218063E+02  0.45045682055E+02  0.00000000000E+00 0. -1.
         11    1    3    3    0    0  0.11315634977E+02  0.18092402740E+02  0.16696765344E+02  0.27095398227E+02  0.51100000000E-03 0. -1.
        -11    1    3    3    0    0  0.68153942602E+01  0.10157444531E+02  0.53428060937E+01  0.13347990693E+02  0.51100000000E-03 0.  1.
         12    1    3    3    0    0  0.25070674662E+01  0.51170129329E+01  0.92646624688E-01  0.56989290251E+01  0.00000000000E+00 0. -1.
</event>
<event>
 7    1  0.1402367E-008  0.4614232E+02  0.7816164E-02  0.1320468E+00
        -11   -1    0    0    0    0  0.00000000000E+00  0.00000000000E+00  0.45593999997E+02  0.45594000000E+02  0.51100000000E-03 0. -1.
         11   -1    0    0    0    0 -0.00000000000E+00 -0.00000000000E+00 -0.45593999997E+02  0.45594000000E+02  0.51100000000E-03 0.  1.
    9900012    2    1    2    0    0  0.18518927521E+02  0.17006581406E+02 -0.37375647040E+02  0.46142317862E+02  0.10000000919E+02 0.  0.
         12    1    1    2    0    0 -0.18518927521E+02 -0.17006581406E+02  0.37375647040E+02  0.45045682138E+02  0.00000000000E+00 0. -1.
         11    1    3    3    0    0  0.13771195345E+02  0.12799772899E+02 -0.26994577835E+02  0.32896614419E+02  0.51100000000E-03 0. -1.
        -11    1    3    3    0    0  0.44731630642E+01  0.49014236091E+01 -0.64839282029E+01  0.92776325858E+01  0.51100000000E-03 0.  1.
         12    1    3    3    0    0  0.27456911127E+00 -0.69461510170E+00 -0.38971410019E+01  0.39680708568E+01  0.00000000000E+00 0. -1.
</event>
<event>
 7    1  0.1402367E-008  0.4614232E+02  0.7816164E-02  0.1320468E+00
        -11   -1    0    0    0    0  0.00000000000E+00  0.00000000000E+00  0.45593999997E+02  0.45594000000E+02  0.51100000000E-03 0. -1.
         11   -1    0    0    0    0 -0.00000000000E+00 -0.00000000000E+00 -0.45593999997E+02  0.45594000000E+02  0.51100000000E-03 0.  1.
    9900012    2    1    2    0    0 -0.13653842814E+02  0.42926286322E+02 -0.14129996392E+00  0.46142318224E+02  0.10000004223E+02 0.  0.
         12    1    1    2    0    0  0.13653842814E+02 -0.42926286322E+02  0.14129996392E+00  0.45045681776E+02  0.00000000000E+00 0. -1.
         11    1    3    3    0    0  0.73301205939E+00  0.54824492260E+00 -0.91730657488E-01  0.91994236179E+00  0.51100000000E-03 0. -1.
        -11    1    3    3    0    0 -0.14116110659E+02  0.35296111438E+02 -0.12478507699E+01  0.38034684100E+02  0.51100000000E-03 0.  1.
         12    1    3    3    0    0 -0.27074421364E+00  0.70819299611E+01  0.11982814635E+01  0.71876917622E+01  0.00000000000E+00 0. -1.
</event>
<event>
 7    1  0.1402367E-008  0.4614232E+02  0.7816164E-02  0.1320468E+00
        -11   -1    0    0    0    0  0.00000000000E+00  0.00000000000E+00  0.45593999997E+02  0.45594000000E+02  0.51100000000E-03 0.  1.
         11   -1    0    0    0    0 -0.00000000000E+00 -0.00000000000E+00 -0.45593999997E+02  0.45594000000E+02  0.51100000000E-03 0. -1.
    9900012    2    1    2    0    0  0.26123938986E+02 -0.31312515849E+02  0.19135821816E+02  0.46142317482E+02  0.99999974560E+01 0.  0.
         12    1    1    2    0    0 -0.26123938986E+02  0.31312515849E+02 -0.19135821816E+02  0.45045682518E+02  0.00000000000E+00 0. -1.
         11    1    3    3    0    0  0.51209826702E+01 -0.11869955721E+02  0.60128569210E+01  0.14257445807E+02  0.51100000000E-03 0. -1.
        -11    1    3    3    0    0  0.18493402470E+01 -0.19892726550E+01 -0.24476864854E+00  0.27271188088E+01  0.51100000000E-03 0.  1.
        -12    1    3    3    0    0  0.19153616069E+02 -0.17453287473E+02  0.13367733543E+02  0.29157752866E+02  0.00000000000E+00 0.  1.
</event>
<event>
 7    1  0.1402367E-008  0.4614232E+02  0.7816164E-02  0.1320468E+00
        -11   -1    0    0    0    0  0.00000000000E+00  0.00000000000E+00  0.45593999997E+02  0.45594000000E+02  0.51100000000E-03 0.  1.
         11   -1    0    0    0    0 -0.00000000000E+00 -0.00000000000E+00 -0.45593999997E+02  0.45594000000E+02  0.51100000000E-03 0. -1.
    9900012    2    1    2    0    0  0.15586526139E+01  0.21478573940E+02  0.39564566830E+02  0.46142317799E+02  0.10000000350E+02 0.  0.
         12    1    1    2    0    0 -0.15586526139E+01 -0.21478573940E+02 -0.39564566830E+02  0.45045682201E+02  0.00000000000E+00 0. -1.
         11    1    3    3    0    0 -0.39931469056E-01  0.18669856281E+01  0.15569097971E+01  0.24312955878E+01  0.51100000000E-03 0. -1.
        -11    1    3    3    0    0 -0.13965433195E+01  0.67642790176E+01  0.62203571293E+01  0.92950872480E+01  0.51100000000E-03 0.  1.
        -12    1    3    3    0    0  0.29951274025E+01  0.12847309294E+02  0.31787299904E+02  0.34415934964E+02  0.00000000000E+00 0.  1.
</event>
<event>
 7    1  0.1402367E-008  0.4614232E+02  0.7816164E-02  0.1320468E+00
        -11   -1    0    0    0    0  0.00000000000E+00  0.00000000000E+00  0.45593999997E+02  0.45594000000E+02  0.51100000000E-03 0.  1.
         11   -1    0    0    0    0 -0.00000000000E+00 -0.00000000000E+00 -0.45593999997E+02  0.45594000000E+02  0.51100000000E-03 0. -1.
    9900012    2    1    2    0    0 -0.41174046225E+02 -0.10597357711E+02  0.14883128067E+02  0.46142316810E+02  0.99999913273E+01 0.  0.
         12    1    1    2    0    0  0.41174046225E+02  0.10597357711E+02 -0.14883128067E+02  0.45045683190E+02  0.00000000000E+00 0. -1.
         11    1    3    3    0    0 -0.25423691168E+00  0.37627326136E-01 -0.19618245113E+00  0.32332651946E+00  0.51100000000E-03 0. -1.
        -11    1    3    3    0    0 -0.11068574334E+02 -0.20881745745E+01 -0.82944188738E-01  0.11264132937E+02  0.51100000000E-03 0.  1.
        -12    1    3    3    0    0 -0.29851234980E+02 -0.85468104623E+01  0.15162254707E+02  0.34554857353E+02  0.00000000000E+00 0.  1.
</event>
<event>
 7    1  0.1402367E-008  0.4614232E+02  0.7816164E-02  0.1320468E+00
        -11   -1    0    0    0    0  0.00000000000E+00  0.00000000000E+00  0.45593999997E+02  0.45594000000E+02  0.51100000000E-03 0.  1.
         11   -1    0    0    0    0 -0.00000000000E+00 -0.00000000000E+00 -0.45593999997E+02  0.45594000000E+02  0.51100000000E-03 0. -1.
    9900012    2    1    2    0    0  0.80443919625E+01  0.22453573930E+02  0.38213064227E+02  0.46142317611E+02  0.99999986283E+01 0.  0.
         12    1    1    2    0    0 -0.80443919625E+01 -0.22453573930E+02 -0.38213064227E+02  0.45045682389E+02  0.00000000000E+00 0. -1.
         11    1    3    3    0    0  0.37557311698E+01  0.21202806982E+01  0.58060184854E+01  0.72326314556E+01  0.51100000000E-03 0. -1.
        -11    1    3    3    0    0  0.25694196140E+00  0.13988527177E+02  0.20147620552E+02  0.24528993577E+02  0.51100000000E-03 0.  1.
        -12    1    3    3    0    0  0.40317188313E+01  0.63447660553E+01  0.12259425190E+02  0.14380692578E+02  0.00000000000E+00 0.  1.
</event>
<event>
 7    1  0.1402367E-008  0.4614232E+02  0.7816164E-02  0.1320468E+00
        -11   -1    0    0    0    0  0.00000000000E+00  0.00000000000E+00  0.45593999997E+02  0.45594000000E+02  0.51100000000E-03 0.  1.
         11   -1    0    0    0    0 -0.00000000000E+00 -0.00000000000E+00 -0.45593999997E+02  0.45594000000E+02  0.51100000000E-03 0. -1.
    9900012    2    1    2    0    0  0.15794486768E+02 -0.41283903069E+02  0.86768098244E+01  0.46142317703E+02  0.99999994734E+01 0.  0.
         12    1    1    2    0    0 -0.15794486768E+02  0.41283903069E+02 -0.86768098244E+01  0.45045682297E+02  0.00000000000E+00 0. -1.
         11    1    3    3    0    0 -0.70329123511E+00 -0.22616353152E+01 -0.63812443330E+00  0.24529198752E+01  0.51100000000E-03 0. -1.
        -11    1    3    3    0    0  0.58240113973E+01 -0.81657207683E+01  0.24575687432E+01  0.10326555515E+02  0.51100000000E-03 0.  1.
        -12    1    3    3    0    0  0.10673766606E+02 -0.30856546985E+02  0.68573655145E+01  0.33362842313E+02  0.00000000000E+00 0.  1.
</event>
<event>
 7    1  0.1402367E-008  0.4614232E+02  0.7816164E-02  0.1320468E+00
        -11   -1    0    0    0    0  0.00000000000E+00  0.00000000000E+00  0.45593999997E+02  0.45594000000E+02  0.51100000000E-03 0.  1.
         11   -1    0    0    0    0 -0.00000000000E+00 -0.00000000000E+00 -0.45593999997E+02  0.45594000000E+02  0.51100000000E-03 0. -1.
    9900012    2    1    2    0    0 -0.13389772559E+02 -0.92005901184E+01  0.42014005026E+02  0.46142317787E+02  0.10000000234E+02 0.  0.
         12    1    1    2    0    0  0.13389772559E+02  0.92005901184E+01 -0.42014005026E+02  0.45045682213E+02  0.00000000000E+00 0. -1.
         11    1    3    3    0    0 -0.34819981186E+01 -0.10462812534E+01  0.17079941468E+02  0.17462629131E+02  0.51100000000E-03 0. -1.
        -11    1    3    3    0    0 -0.59674844902E+01 -0.19754090988E+01  0.15555017686E+02  0.16777117980E+02  0.51100000000E-03 0.  1.
         12    1    3    3    0    0 -0.39402899500E+01 -0.61788997662E+01  0.93790458723E+01  0.11902570676E+02  0.00000000000E+00 0. -1.
</event>
<event>
 7    1  0.1402367E-008  0.4614232E+02  0.7816164E-02  0.1320468E+00
        -11   -1    0    0    0    0  0.00000000000E+00  0.00000000000E+00  0.45593999997E+02  0.45594000000E+02  0.51100000000E-03 0.  1.
         11   -1    0    0    0    0 -0.00000000000E+00 -0.00000000000E+00 -0.45593999997E+02  0.45594000000E+02  0.51100000000E-03 0. -1.
    9900012    2    1    2    0    0 -0.23864353273E+02  0.32332703035E+01  0.38067730049E+02  0.46142318020E+02  0.10000002361E+02 0.  0.
         12    1    1    2    0    0  0.23864353273E+02 -0.32332703035E+01 -0.38067730049E+02  0.45045681980E+02  0.00000000000E+00 0. -1.
         11    1    3    3    0    0 -0.12246125883E+02  0.23152885569E+01  0.12409056251E+02  0.17587291933E+02  0.51100000000E-03 0. -1.
        -11    1    3    3    0    0 -0.37786935579E+01  0.13817561300E+01  0.13448020523E+02  0.14036987970E+02  0.51100000000E-03 0.  1.
        -12    1    3    3    0    0 -0.78395338324E+01 -0.46377438344E+00  0.12210653275E+02  0.14518038117E+02  0.00000000000E+00 0.  1.
</event>
<event>
 7    1  0.1402367E-008  0.4614232E+02  0.7816164E-02  0.1320468E+00
        -11   -1    0    0    0    0  0.00000000000E+00  0.00000000000E+00  0.45593999997E+02  0.45594000000E+02  0.51100000000E-03 0.  1.
         11   -1    0    0    0    0 -0.00000000000E+00 -0.00000000000E+00 -0.45593999997E+02  0.45594000000E+02  0.51100000000E-03 0. -1.
    9900012    2    1    2    0    0 -0.40670875579E+02 -0.13997207188E+02  0.13381761457E+02  0.46142317975E+02  0.10000001949E+02 0.  0.
         12    1    1    2    0    0  0.40670875579E+02  0.13997207188E+02 -0.13381761457E+02  0.45045682025E+02  0.00000000000E+00 0. -1.
         11    1    3    3    0    0 -0.28609545639E+02 -0.91624175415E+01  0.11933254609E+02  0.32324272037E+02  0.51100000000E-03 0. -1.
        -11    1    3    3    0    0 -0.55787122238E+01 -0.16668044871E+01  0.28267320491E+01  0.64723011065E+01  0.51100000000E-03 0.  1.
         12    1    3    3    0    0 -0.64826177158E+01 -0.31679851596E+01 -0.13782252018E+01  0.73457448314E+01  0.00000000000E+00 0. -1.
</event>
<event>
 7    1  0.1402367E-008  0.4614232E+02  0.7816164E-02  0.1320468E+00
        -11   -1    0    0    0    0  0.00000000000E+00  0.00000000000E+00  0.45593999997E+02  0.45594000000E+02  0.51100000000E-03 0.  1.
         11   -1    0    0    0    0 -0.00000000000E+00 -0.00000000000E+00 -0.45593999997E+02  0.45594000000E+02  0.51100000000E-03 0. -1.
    9900012    2    1    2    0    0  0.27291251523E+02  0.26163671944E+02  0.24490066128E+02  0.46142317873E+02  0.10000001019E+02 0.  0.
         12    1    1    2    0    0 -0.27291251523E+02 -0.26163671944E+02 -0.24490066128E+02  0.45045682127E+02  0.00000000000E+00 0. -1.
         11    1    3    3    0    0  0.12143515935E+02  0.12365460589E+02  0.15924477153E+02  0.23536324431E+02  0.51100000000E-03 0. -1.
        -11    1    3    3    0    0  0.15136342042E+02  0.12867627497E+02  0.86569022128E+01  0.21670870864E+02  0.51100000000E-03 0.  1.
        -12    1    3    3    0    0  0.11393547145E-01  0.93058385779E+00 -0.91313237756E-01  0.93512257842E+00  0.00000000000E+00 0.  1.
</event>
<event>
 7    1  0.1402367E-008  0.4614232E+02  0.7816164E-02  0.1320468E+00
        -11   -1    0    0    0    0  0.00000000000E+00  0.00000000000E+00  0.45593999997E+02  0.45594000000E+02  0.51100000000E-03 0. -1.
         11   -1    0    0    0    0 -0.00000000000E+00 -0.00000000000E+00 -0.45593999997E+02  0.45594000000E+02  0.51100000000E-03 0.  1.
    9900012    2    1    2    0    0  0.30840896831E+01  0.35923258631E+02 -0.27002246905E+02  0.46142318101E+02  0.10000003100E+02 0.  0.
         12    1    1    2    0    0 -0.30840896831E+01 -0.35923258631E+02  0.27002246905E+02  0.45045681899E+02  0.00000000000E+00 0. -1.
         11    1    3    3    0    0  0.28484527537E+01  0.19019194304E+02 -0.17143135023E+02  0.25762967876E+02  0.51100000000E-03 0. -1.
        -11    1    3    3    0    0 -0.12794207817E+00  0.96961616221E+00  0.75023082422E+00  0.12326277735E+01  0.51100000000E-03 0.  1.
        -12    1    3    3    0    0  0.36357900763E+00  0.15934448164E+02 -0.10609342706E+02  0.19146722452E+02  0.00000000000E+00 0.  1.
</event>
<event>
 7    1  0.1402367E-008  0.4614232E+02  0.7816164E-02  0.1320468E+00
        -11   -1    0    0    0    0  0.00000000000E+00  0.00000000000E+00  0.45593999997E+02  0.45594000000E+02  0.51100000000E-03 0.  1.
         11   -1    0    0    0    0 -0.00000000000E+00 -0.00000000000E+00 -0.45593999997E+02  0.45594000000E+02  0.51100000000E-03 0. -1.
    9900012    2    1    2    0    0  0.24289119982E+02 -0.24186984304E+02  0.29225705886E+02  0.46142318256E+02  0.10000004513E+02 0.  0.
         12    1    1    2    0    0 -0.24289119982E+02  0.24186984304E+02 -0.29225705886E+02  0.45045681744E+02  0.00000000000E+00 0. -1.
         11    1    3    3    0    0  0.28184604492E+01 -0.21803722591E+01  0.53440402561E+00  0.36032388785E+01  0.51100000000E-03 0. -1.
        -11    1    3    3    0    0  0.11749383239E+02 -0.15956118237E+02  0.20090031228E+02  0.28217991968E+02  0.51100000000E-03 0.  1.
        -12    1    3    3    0    0  0.97212762939E+01 -0.60504938076E+01  0.86012706326E+01  0.14321087410E+02  0.00000000000E+00 0.  1.
</event>
<event>
 7    1  0.1402367E-008  0.4614232E+02  0.7816164E-02  0.1320468E+00
        -11   -1    0    0    0    0  0.00000000000E+00  0.00000000000E+00  0.45593999997E+02  0.45594000000E+02  0.51100000000E-03 0.  1.
         11   -1    0    0    0    0 -0.00000000000E+00 -0.00000000000E+00 -0.45593999997E+02  0.45594000000E+02  0.51100000000E-03 0. -1.
    9900012    2    1    2    0    0  0.27213298209E+02 -0.27352185703E+02  0.23246672130E+02  0.46142318439E+02  0.10000006181E+02 0.  0.
         12    1    1    2    0    0 -0.27213298209E+02  0.27352185703E+02 -0.23246672130E+02  0.45045681561E+02  0.00000000000E+00 0. -1.
         11    1    3    3    0    0  0.13022217892E+01  0.24367648877E+00 -0.50559348116E+00  0.14180214557E+01  0.51100000000E-03 0. -1.
        -11    1    3    3    0    0  0.20474626380E+02 -0.20920665124E+02  0.17834232983E+02  0.34277462289E+02  0.51100000000E-03 0.  1.
         12    1    3    3    0    0  0.54364500397E+01 -0.66751970680E+01  0.59180326287E+01  0.10446834694E+02  0.00000000000E+00 0. -1.
</event>
<event>
 7    1  0.1402367E-008  0.4614232E+02  0.7816164E-02  0.1320468E+00
        -11   -1    0    0    0    0  0.00000000000E+00  0.00000000000E+00  0.45593999997E+02  0.45594000000E+02  0.51100000000E-03 0.  1.
         11   -1    0    0    0    0 -0.00000000000E+00 -0.00000000000E+00 -0.45593999997E+02  0.45594000000E+02  0.51100000000E-03 0. -1.
    9900012    2    1    2    0    0  0.58210437392E+01  0.37648245954E+02  0.24038268713E+02  0.46142319449E+02  0.10000015387E+02 0.  0.
         12    1    1    2    0    0 -0.58210437392E+01 -0.37648245954E+02 -0.24038268713E+02  0.45045680551E+02  0.00000000000E+00 0. -1.
         11    1    3    3    0    0 -0.14325531500E+01  0.79854021635E+01  0.19323439279E+01  0.83398327056E+01  0.51100000000E-03 0. -1.
        -11    1    3    3    0    0  0.44375663761E+01  0.12377786363E+02  0.92152568923E+01  0.16056853691E+02  0.51100000000E-03 0.  1.
         12    1    3    3    0    0  0.28160305131E+01  0.17285057428E+02  0.12890667893E+02  0.21745633052E+02  0.00000000000E+00 0. -1.
</event>
<event>
 7    1  0.1402367E-008  0.4614232E+02  0.7816164E-02  0.1320468E+00
        -11   -1    0    0    0    0  0.00000000000E+00  0.00000000000E+00  0.45593999997E+02  0.45594000000E+02  0.51100000000E-03 0.  1.
         11   -1    0    0    0    0 -0.00000000000E+00 -0.00000000000E+00 -0.45593999997E+02  0.45594000000E+02  0.51100000000E-03 0. -1.
    9900012    2    1    2    0    0 -0.30317048878E+02 -0.19213851471E+02  0.27217972071E+02  0.46142317136E+02  0.99999942982E+01 0.  0.
         12    1    1    2    0    0  0.30317048878E+02  0.19213851471E+02 -0.27217972071E+02  0.45045682864E+02  0.00000000000E+00 0. -1.
         11    1    3    3    0    0 -0.13096970771E+02 -0.13215389920E+02  0.15765953265E+02  0.24387342142E+02  0.51100000000E-03 0. -1.
        -11    1    3    3    0    0 -0.72237787065E+01 -0.33724496815E+01  0.34633396327E+01  0.86920145724E+01  0.51100000000E-03 0.  1.
        -12    1    3    3    0    0 -0.99962994009E+01 -0.26260118698E+01  0.79886791730E+01  0.13062960422E+02  0.00000000000E+00 0.  1.
</event>
<event>
 7    1  0.1402367E-008  0.4614232E+02  0.7816164E-02  0.1320468E+00
        -11   -1    0    0    0    0  0.00000000000E+00  0.00000000000E+00  0.45593999997E+02  0.45594000000E+02  0.51100000000E-03 0.  1.
         11   -1    0    0    0    0 -0.00000000000E+00 -0.00000000000E+00 -0.45593999997E+02  0.45594000000E+02  0.51100000000E-03 0. -1.
    9900012    2    1    2    0    0  0.14386574917E+02 -0.45864003323E+01  0.42439426097E+02  0.46142317706E+02  0.99999995006E+01 0.  0.
         12    1    1    2    0    0 -0.14386574917E+02  0.45864003323E+01 -0.42439426097E+02  0.45045682294E+02  0.00000000000E+00 0. -1.
         11    1    3    3    0    0  0.37528508640E+01 -0.39460381564E+01  0.12879690541E+02  0.13983616679E+02  0.51100000000E-03 0. -1.
        -11    1    3    3    0    0  0.39461682752E+01 -0.36085563041E+01  0.12274422206E+02  0.13388628137E+02  0.51100000000E-03 0.  1.
         12    1    3    3    0    0  0.66875557777E+01  0.29681941282E+01  0.17285313351E+02  0.18770072890E+02  0.00000000000E+00 0. -1.
</event>
<event>
 7    1  0.1402367E-008  0.4614232E+02  0.7816164E-02  0.1320468E+00
        -11   -1    0    0    0    0  0.00000000000E+00  0.00000000000E+00  0.45593999997E+02  0.45594000000E+02  0.51100000000E-03 0.  1.
         11   -1    0    0    0    0 -0.00000000000E+00 -0.00000000000E+00 -0.45593999997E+02  0.45594000000E+02  0.51100000000E-03 0. -1.
    9900012    2    1    2    0    0  0.15048027820E+02  0.21565005751E+02  0.36573499755E+02  0.46142317647E+02  0.99999989572E+01 0.  0.
         12    1    1    2    0    0 -0.15048027820E+02 -0.21565005751E+02 -0.36573499755E+02  0.45045682353E+02  0.00000000000E+00 0. -1.
         11    1    3    3    0    0  0.52036708184E+01  0.37617626222E+01  0.75369856968E+01  0.99012727296E+01  0.51100000000E-03 0. -1.
        -11    1    3    3    0    0  0.40446854244E+01  0.13360766234E+02  0.15504198939E+02  0.20862639803E+02  0.51100000000E-03 0.  1.
         12    1    3    3    0    0  0.57996715774E+01  0.44424768952E+01  0.13532315120E+02  0.15378405114E+02  0.00000000000E+00 0. -1.
</event>
<event>
 7    1  0.1402367E-008  0.4614232E+02  0.7816164E-02  0.1320468E+00
        -11   -1    0    0    0    0  0.00000000000E+00  0.00000000000E+00  0.45593999997E+02  0.45594000000E+02  0.51100000000E-03 0. -1.
         11   -1    0    0    0    0 -0.00000000000E+00 -0.00000000000E+00 -0.45593999997E+02  0.45594000000E+02  0.51100000000E-03 0.  1.
    9900012    2    1    2    0    0 -0.17497756594E+02 -0.38143432011E+02 -0.16371338860E+02  0.46142316217E+02  0.99999859211E+01 0.  0.
         12    1    1    2    0    0  0.17497756594E+02  0.38143432011E+02  0.16371338860E+02  0.45045683783E+02  0.00000000000E+00 0. -1.
         11    1    3    3    0    0 -0.15213466260E+01 -0.10472031388E+02 -0.24764257297E+01  0.10867871070E+02  0.51100000000E-03 0. -1.
        -11    1    3    3    0    0 -0.76109184538E+01 -0.79786499586E+01 -0.47183816645E+01  0.11993667524E+02  0.51100000000E-03 0.  1.
         12    1    3    3    0    0 -0.83654915146E+01 -0.19692750665E+02 -0.91765314655E+01  0.23280777624E+02  0.00000000000E+00 0. -1.
</event>
<event>
 7    1  0.1402367E-008  0.4614232E+02  0.7816164E-02  0.1320468E+00
        -11   -1    0    0    0    0  0.00000000000E+00  0.00000000000E+00  0.45593999997E+02  0.45594000000E+02  0.51100000000E-03 0.  1.
         11   -1    0    0    0    0 -0.00000000000E+00 -0.00000000000E+00 -0.45593999997E+02  0.45594000000E+02  0.51100000000E-03 0. -1.
    9900012    2    1    2    0    0  0.13609051005E+02  0.25019474993E+02  0.34898897141E+02  0.46142318522E+02  0.10000006936E+02 0.  0.
         12    1    1    2    0    0 -0.13609051005E+02 -0.25019474993E+02 -0.34898897141E+02  0.45045681478E+02  0.00000000000E+00 0. -1.
         11    1    3    3    0    0  0.45694466097E+01  0.48744510055E+01  0.12399299343E+02  0.14084840765E+02  0.51100000000E-03 0. -1.
        -11    1    3    3    0    0  0.71473286624E+01  0.89184096536E+01  0.11963538031E+02  0.16545349203E+02  0.51100000000E-03 0.  1.
        -12    1    3    3    0    0  0.18922757332E+01  0.11226614334E+02  0.10536059766E+02  0.15512128553E+02  0.00000000000E+00 0.  1.
</event>
<event>
 7    1  0.1402367E-008  0.4614232E+02  0.7816164E-02  0.1320468E+00
        -11   -1    0    0    0    0  0.00000000000E+00  0.00000000000E+00  0.45593999997E+02  0.45594000000E+02  0.51100000000E-03 0. -1.
         11   -1    0    0    0    0 -0.00000000000E+00 -0.00000000000E+00 -0.45593999997E+02  0.45594000000E+02  0.51100000000E-03 0.  1.
    9900012    2    1    2    0    0  0.37255582529E+02 -0.18795698853E+02 -0.16966344157E+02  0.46142316977E+02  0.99999928491E+01 0.  0.
         12    1    1    2    0    0 -0.37255582529E+02  0.18795698853E+02  0.16966344157E+02  0.45045683023E+02  0.00000000000E+00 0. -1.
         11    1    3    3    0    0  0.60068927637E+01 -0.12952224595E+01  0.43182876405E+00  0.61601005054E+01  0.51100000000E-03 0. -1.
        -11    1    3    3    0    0  0.19934899820E+02 -0.93541710462E+01 -0.11525683815E+02  0.24854418811E+02  0.51100000000E-03 0.  1.
         12    1    3    3    0    0  0.11313789946E+02 -0.81463053472E+01 -0.58724891064E+01  0.15127797660E+02  0.00000000000E+00 0. -1.
</event>
<event>
 7    1  0.1402367E-008  0.4614232E+02  0.7816164E-02  0.1320468E+00
        -11   -1    0    0    0    0  0.00000000000E+00  0.00000000000E+00  0.45593999997E+02  0.45594000000E+02  0.51100000000E-03 0. -1.
         11   -1    0    0    0    0 -0.00000000000E+00 -0.00000000000E+00 -0.45593999997E+02  0.45594000000E+02  0.51100000000E-03 0.  1.
    9900012    2    1    2    0    0 -0.40733112125E+02  0.17431125104E+02 -0.81291396510E+01  0.46142318106E+02  0.10000003149E+02 0.  0.
         12    1    1    2    0    0  0.40733112125E+02 -0.17431125104E+02  0.81291396510E+01  0.45045681894E+02  0.00000000000E+00 0. -1.
         11    1    3    3    0    0 -0.25834138960E+01  0.49199360237E+00  0.10492843203E+01  0.28314453745E+01  0.51100000000E-03 0. -1.
        -11    1    3    3    0    0 -0.82617827419E+01  0.63880325784E+01 -0.53136832836E+00  0.10456881316E+02  0.51100000000E-03 0.  1.
         12    1    3    3    0    0 -0.29887915487E+02  0.10551098924E+02 -0.86470556429E+01  0.32853991416E+02  0.00000000000E+00 0. -1.
</event>
<event>
 7    1  0.1402367E-008  0.4614232E+02  0.7816164E-02  0.1320468E+00
        -11   -1    0    0    0    0  0.00000000000E+00  0.00000000000E+00  0.45593999997E+02  0.45594000000E+02  0.51100000000E-03 0.  1.
         11   -1    0    0    0    0 -0.00000000000E+00 -0.00000000000E+00 -0.45593999997E+02  0.45594000000E+02  0.51100000000E-03 0. -1.
    9900012    2    1    2    0    0 -0.12788602583E+02 -0.77504618097E+01  0.42491123123E+02  0.46142316983E+02  0.99999929012E+01 0.  0.
         12    1    1    2    0    0  0.12788602583E+02  0.77504618097E+01 -0.42491123123E+02  0.45045683017E+02  0.00000000000E+00 0. -1.
         11    1    3    3    0    0 -0.18882795451E+01 -0.31844990776E+01  0.31740642999E+01  0.48766093197E+01  0.51100000000E-03 0. -1.
        -11    1    3    3    0    0 -0.28579868110E+01 -0.25575574347E+01  0.17769893326E+02  0.18179062070E+02  0.51100000000E-03 0.  1.
        -12    1    3    3    0    0 -0.80423362266E+01 -0.20084052974E+01  0.21547165496E+02  0.23086645593E+02  0.00000000000E+00 0.  1.
</event>
<event>
 7    1  0.1402367E-008  0.4614232E+02  0.7816164E-02  0.1320468E+00
        -11   -1    0    0    0    0  0.00000000000E+00  0.00000000000E+00  0.45593999997E+02  0.45594000000E+02  0.51100000000E-03 0.  1.
         11   -1    0    0    0    0 -0.00000000000E+00 -0.00000000000E+00 -0.45593999997E+02  0.45594000000E+02  0.51100000000E-03 0. -1.
    9900012    2    1    2    0    0 -0.16668612369E+02 -0.30687613719E+02  0.28452438422E+02  0.46142317341E+02  0.99999961697E+01 0.  0.
         12    1    1    2    0    0  0.16668612369E+02  0.30687613719E+02 -0.28452438422E+02  0.45045682659E+02  0.00000000000E+00 0. -1.
         11    1    3    3    0    0  0.30123537764E+00 -0.14852523900E+01  0.11897764766E-01  0.15155392548E+01  0.51100000000E-03 0. -1.
        -11    1    3    3    0    0 -0.14409787086E+02 -0.26556023760E+02  0.22634306402E+02  0.37751505776E+02  0.51100000000E-03 0.  1.
         12    1    3    3    0    0 -0.25600606610E+01 -0.26463375687E+01  0.58062342550E+01  0.68752723102E+01  0.00000000000E+00 0. -1.
</event>
<event>
 7    1  0.1402367E-008  0.4614232E+02  0.7816164E-02  0.1320468E+00
        -11   -1    0    0    0    0  0.00000000000E+00  0.00000000000E+00  0.45593999997E+02  0.45594000000E+02  0.51100000000E-03 0.  1.
         11   -1    0    0    0    0 -0.00000000000E+00 -0.00000000000E+00 -0.45593999997E+02  0.45594000000E+02  0.51100000000E-03 0. -1.
    9900012    2    1    2    0    0 -0.15283269363E+01 -0.19304233947E+02  0.40670925546E+02  0.46142318561E+02  0.10000007296E+02 0.  0.
         12    1    1    2    0    0  0.15283269363E+01  0.19304233947E+02 -0.40670925546E+02  0.45045681439E+02  0.00000000000E+00 0. -1.
         11    1    3    3    0    0 -0.13438800221E+01 -0.21803459721E+01  0.30206652508E+01  0.39603460569E+01  0.51100000000E-03 0. -1.
        -11    1    3    3    0    0 -0.92706679299E+00 -0.10200514482E-01  0.12977011754E+00  0.93616100843E+00  0.51100000000E-03 0.  1.
        -12    1    3    3    0    0  0.74261987885E+00 -0.17113687461E+02  0.37520490178E+02  0.41245811496E+02  0.00000000000E+00 0.  1.
</event>
<event>
 7    1  0.1402367E-008  0.4614232E+02  0.7816164E-02  0.1320468E+00
        -11   -1    0    0    0    0  0.00000000000E+00  0.00000000000E+00  0.45593999997E+02  0.45594000000E+02  0.51100000000E-03 0. -1.
         11   -1    0    0    0    0 -0.00000000000E+00 -0.00000000000E+00 -0.45593999997E+02  0.45594000000E+02  0.51100000000E-03 0.  1.
    9900012    2    1    2    0    0 -0.37000130909E+02 -0.23702204836E+02 -0.99150926307E+01  0.46142320260E+02  0.10000022786E+02 0.  0.
         12    1    1    2    0    0  0.37000130909E+02  0.23702204836E+02  0.99150926307E+01  0.45045679740E+02  0.00000000000E+00 0. -1.
         11    1    3    3    0    0 -0.39828595054E+01 -0.50382550129E+01  0.10063134501E+01  0.65007576816E+01  0.51100000000E-03 0. -1.
        -11    1    3    3    0    0 -0.17303592812E+02 -0.11139135541E+02 -0.44396781615E+01  0.21052444211E+02  0.51100000000E-03 0.  1.
         12    1    3    3    0    0 -0.15713678592E+02 -0.75248142819E+01 -0.64817279193E+01  0.18589118367E+02  0.00000000000E+00 0. -1.
</event>
<event>
 7    1  0.1402367E-008  0.4614232E+02  0.7816164E-02  0.1320468E+00
        -11   -1    0    0    0    0  0.00000000000E+00  0.00000000000E+00  0.45593999997E+02  0.45594000000E+02  0.51100000000E-03 0.  1.
         11   -1    0    0    0    0 -0.00000000000E+00 -0.00000000000E+00 -0.45593999997E+02  0.45594000000E+02  0.51100000000E-03 0. -1.
    9900012    2    1    2    0    0 -0.41127310369E+02 -0.17874390832E+02  0.42619057722E+01  0.46142319334E+02  0.10000014346E+02 0.  0.
         12    1    1    2    0    0  0.41127310369E+02  0.17874390832E+02 -0.42619057722E+01  0.45045680666E+02  0.00000000000E+00 0. -1.
         11    1    3    3    0    0 -0.97314616917E+01 -0.22053875436E+01 -0.13588849813E+01  0.10070335125E+02  0.51100000000E-03 0. -1.
        -11    1    3    3    0    0 -0.21921642724E+02 -0.85541560976E+01  0.17041643969E+01  0.23593138469E+02  0.51100000000E-03 0.  1.
         12    1    3    3    0    0 -0.94742059538E+01 -0.71148471911E+01  0.39166263565E+01  0.12478845741E+02  0.00000000000E+00 0. -1.
</event>
<event>
 7    1  0.1402367E-008  0.4614232E+02  0.7816164E-02  0.1320468E+00
        -11   -1    0    0    0    0  0.00000000000E+00  0.00000000000E+00  0.45593999997E+02  0.45594000000E+02  0.51100000000E-03 0.  1.
         11   -1    0    0    0    0 -0.00000000000E+00 -0.00000000000E+00 -0.45593999997E+02  0.45594000000E+02  0.51100000000E-03 0. -1.
    9900012    2    1    2    0    0 -0.37142232281E+02 -0.16648220365E+02  0.19297793503E+02  0.46142317697E+02  0.99999994132E+01 0.  0.
         12    1    1    2    0    0  0.37142232281E+02  0.16648220365E+02 -0.19297793503E+02  0.45045682303E+02  0.00000000000E+00 0. -1.
         11    1    3    3    0    0 -0.68242449809E+01 -0.73071858730E-01  0.20906792113E+01  0.71376886232E+01  0.51100000000E-03 0. -1.
        -11    1    3    3    0    0 -0.29840651503E+02 -0.15556774105E+02  0.17365733548E+02  0.37868805164E+02  0.51100000000E-03 0.  1.
         12    1    3    3    0    0 -0.47733579669E+00 -0.10183744013E+01 -0.15861925658E+00  0.11358239091E+01  0.00000000000E+00 0. -1.
</event>
<event>
 7    1  0.1402367E-008  0.4614232E+02  0.7816164E-02  0.1320468E+00
        -11   -1    0    0    0    0  0.00000000000E+00  0.00000000000E+00  0.45593999997E+02  0.45594000000E+02  0.51100000000E-03 0.  1.
         11   -1    0    0    0    0 -0.00000000000E+00 -0.00000000000E+00 -0.45593999997E+02  0.45594000000E+02  0.51100000000E-03 0. -1.
    9900012    2    1    2    0    0  0.30168292788E+02 -0.30930651564E+02  0.12739007092E+02  0.46142318768E+02  0.10000009184E+02 0.  0.
         12    1    1    2    0    0 -0.30168292788E+02  0.30930651564E+02 -0.12739007092E+02  0.45045681232E+02  0.00000000000E+00 0. -1.
         11    1    3    3    0    0  0.10454550432E+00 -0.99440378336E+00  0.13492384609E+01  0.16793490800E+01  0.51100000000E-03 0. -1.
        -11    1    3    3    0    0  0.24780070674E+02 -0.24021063340E+02  0.64218409072E+01  0.35104179630E+02  0.51100000000E-03 0.  1.
         12    1    3    3    0    0  0.52836766096E+01 -0.59151844414E+01  0.49679277242E+01  0.93587900587E+01  0.00000000000E+00 0. -1.
</event>
<event>
 7    1  0.1402367E-008  0.4614232E+02  0.7816164E-02  0.1320468E+00
        -11   -1    0    0    0    0  0.00000000000E+00  0.00000000000E+00  0.45593999997E+02  0.45594000000E+02  0.51100000000E-03 0. -1.
         11   -1    0    0    0    0 -0.00000000000E+00 -0.00000000000E+00 -0.45593999997E+02  0.45594000000E+02  0.51100000000E-03 0.  1.
    9900012    2    1    2    0    0  0.25269197644E+02 -0.90258522512E+01 -0.36181693804E+02  0.46142319575E+02  0.10000016537E+02 0.  0.
         12    1    1    2    0    0 -0.25269197644E+02  0.90258522512E+01  0.36181693804E+02  0.45045680425E+02  0.00000000000E+00 0. -1.
         11    1    3    3    0    0 -0.38995743832E+00  0.14611802687E+00  0.22297668738E+00  0.47237288841E+00  0.51100000000E-03 0. -1.
        -11    1    3    3    0    0  0.84619784036E+01 -0.12953501816E+01 -0.95878759530E+01  0.12853418851E+02  0.51100000000E-03 0.  1.
        -12    1    3    3    0    0  0.17197176679E+02 -0.78766200964E+01 -0.26816794539E+02  0.32816527836E+02  0.00000000000E+00 0.  1.
</event>
<event>
 7    1  0.1402367E-008  0.4614232E+02  0.7816164E-02  0.1320468E+00
        -11   -1    0    0    0    0  0.00000000000E+00  0.00000000000E+00  0.45593999997E+02  0.45594000000E+02  0.51100000000E-03 0.  1.
         11   -1    0    0    0    0 -0.00000000000E+00 -0.00000000000E+00 -0.45593999997E+02  0.45594000000E+02  0.51100000000E-03 0. -1.
    9900012    2    1    2    0    0 -0.12967635130E+01  0.11959879693E+02  0.43409597536E+02  0.46142317897E+02  0.10000001243E+02 0.  0.
         12    1    1    2    0    0  0.12967635130E+01 -0.11959879693E+02 -0.43409597536E+02  0.45045682103E+02  0.00000000000E+00 0. -1.
         11    1    3    3    0    0 -0.46036636747E+01  0.31502478475E+01  0.21094243392E+02  0.21819369498E+02  0.51100000000E-03 0. -1.
        -11    1    3    3    0    0  0.30181398934E+01  0.87906272972E+01  0.20827527435E+02  0.22807239991E+02  0.51100000000E-03 0.  1.
         12    1    3    3    0    0  0.28876026840E+00  0.19004548245E-01  0.14878267088E+01  0.15157084089E+01  0.00000000000E+00 0. -1.
</event>
<event>
 7    1  0.1402367E-008  0.4614232E+02  0.7816164E-02  0.1320468E+00
        -11   -1    0    0    0    0  0.00000000000E+00  0.00000000000E+00  0.45593999997E+02  0.45594000000E+02  0.51100000000E-03 0.  1.
         11   -1    0    0    0    0 -0.00000000000E+00 -0.00000000000E+00 -0.45593999997E+02  0.45594000000E+02  0.51100000000E-03 0. -1.
    9900012    2    1    2    0    0 -0.29899675096E+02  0.11870229169E+02  0.31531262867E+02  0.46142318194E+02  0.10000003945E+02 0.  0.
         12    1    1    2    0    0  0.29899675096E+02 -0.11870229169E+02 -0.31531262867E+02  0.45045681806E+02  0.00000000000E+00 0. -1.
         11    1    3    3    0    0 -0.15317689440E+01 -0.11029396729E+01  0.20072176121E+01  0.27553066659E+01  0.51100000000E-03 0. -1.
        -11    1    3    3    0    0 -0.80399827169E+01  0.65634605490E+01  0.11307600546E+02  0.15348686160E+02  0.51100000000E-03 0.  1.
         12    1    3    3    0    0 -0.20327923435E+02  0.64097082933E+01  0.18216444709E+02  0.28038325368E+02  0.00000000000E+00 0. -1.
</event>
<event>
 7    1  0.1402367E-008  0.4614232E+02  0.7816164E-02  0.1320468E+00
        -11   -1    0    0    0    0  0.00000000000E+00  0.00000000000E+00  0.45593999997E+02  0.45594000000E+02  0.51100000000E-03 0. -1.
         11   -1    0    0    0    0 -0.00000000000E+00 -0.00000000000E+00 -0.45593999997E+02  0.45594000000E+02  0.51100000000E-03 0.  1.
    9900012    2    1    2    0    0 -0.37810350981E+02 -0.16499293910E+02 -0.18090444236E+02  0.46142317483E+02  0.99999974602E+01 0.  0.
         12    1    1    2    0    0  0.37810350981E+02  0.16499293910E+02  0.18090444236E+02  0.45045682517E+02  0.00000000000E+00 0. -1.
         11    1    3    3    0    0 -0.19467651675E+02 -0.11390951082E+02 -0.61392730770E+01  0.23375925703E+02  0.51100000000E-03 0. -1.
        -11    1    3    3    0    0 -0.49386741346E+01 -0.20987014214E+01 -0.17119069524E+01  0.56325549743E+01  0.51100000000E-03 0.  1.
         12    1    3    3    0    0 -0.13404025171E+02 -0.30096414066E+01 -0.10239264207E+02  0.17133836806E+02  0.00000000000E+00 0. -1.
</event>
<event>
 7    1  0.1402367E-008  0.4614232E+02  0.7816164E-02  0.1320468E+00
        -11   -1    0    0    0    0  0.00000000000E+00  0.00000000000E+00  0.45593999997E+02  0.45594000000E+02  0.51100000000E-03 0.  1.
         11   -1    0    0    0    0 -0.00000000000E+00 -0.00000000000E+00 -0.45593999997E+02  0.45594000000E+02  0.51100000000E-03 0. -1.
    9900012    2    1    2    0    0 -0.88707472412E+01 -0.18643215961E+02  0.40035657497E+02  0.46142317308E+02  0.99999958652E+01 0.  0.
         12    1    1    2    0    0  0.88707472412E+01  0.18643215961E+02 -0.40035657497E+02  0.45045682692E+02  0.00000000000E+00 0. -1.
         11    1    3    3    0    0 -0.17161692815E+01  0.62193805530E-01  0.90306909633E+01  0.91925232993E+01  0.51100000000E-03 0. -1.
        -11    1    3    3    0    0 -0.62562998384E+01 -0.15587862348E+02  0.26963691830E+02  0.31767332555E+02  0.51100000000E-03 0.  1.
         12    1    3    3    0    0 -0.89827812128E+00 -0.31175474190E+01  0.40412747033E+01  0.51824614538E+01  0.00000000000E+00 0. -1.
</event>
<event>
 7    1  0.1402367E-008  0.4614232E+02  0.7816164E-02  0.1320468E+00
        -11   -1    0    0    0    0  0.00000000000E+00  0.00000000000E+00  0.45593999997E+02  0.45594000000E+02  0.51100000000E-03 0.  1.
         11   -1    0    0    0    0 -0.00000000000E+00 -0.00000000000E+00 -0.45593999997E+02  0.45594000000E+02  0.51100000000E-03 0. -1.
    9900012    2    1    2    0    0 -0.31961768875E+02 -0.16720592795E+02  0.26981116320E+02  0.46142317289E+02  0.99999956960E+01 0.  0.
         12    1    1    2    0    0  0.31961768875E+02  0.16720592795E+02 -0.26981116320E+02  0.45045682711E+02  0.00000000000E+00 0. -1.
         11    1    3    3    0    0 -0.73552355271E+01 -0.65074726314E+01  0.34175488136E+01  0.10398381117E+02  0.51100000000E-03 0. -1.
        -11    1    3    3    0    0 -0.21431446382E+02 -0.94023781061E+01  0.19107819990E+02  0.30212917653E+02  0.51100000000E-03 0.  1.
         12    1    3    3    0    0 -0.31750869651E+01 -0.81074205733E+00  0.44557475168E+01  0.55310185186E+01  0.00000000000E+00 0. -1.
</event>
<event>
 7    1  0.1402367E-008  0.4614232E+02  0.7816164E-02  0.1320468E+00
        -11   -1    0    0    0    0  0.00000000000E+00  0.00000000000E+00  0.45593999997E+02  0.45594000000E+02  0.51100000000E-03 0.  1.
         11   -1    0    0    0    0 -0.00000000000E+00 -0.00000000000E+00 -0.45593999997E+02  0.45594000000E+02  0.51100000000E-03 0. -1.
    9900012    2    1    2    0    0  0.44097823100E+02 -0.88630836443E+01 -0.24374686687E+01  0.46142317550E+02  0.99999980756E+01 0.  0.
         12    1    1    2    0    0 -0.44097823100E+02  0.88630836443E+01  0.24374686687E+01  0.45045682450E+02  0.00000000000E+00 0. -1.
         11    1    3    3    0    0  0.17078420392E+02 -0.38837511083E+00  0.21253470291E+01  0.17214539743E+02  0.51100000000E-03 0. -1.
        -11    1    3    3    0    0  0.16300165893E+02 -0.36851916863E+01 -0.14083224295E+01  0.16770790626E+02  0.51100000000E-03 0.  1.
        -12    1    3    3    0    0  0.10719236815E+02 -0.47895168472E+01 -0.31544932684E+01  0.12156987181E+02  0.00000000000E+00 0.  1.
</event>
<event>
 7    1  0.1402367E-008  0.4614232E+02  0.7816164E-02  0.1320468E+00
        -11   -1    0    0    0    0  0.00000000000E+00  0.00000000000E+00  0.45593999997E+02  0.45594000000E+02  0.51100000000E-03 0.  1.
         11   -1    0    0    0    0 -0.00000000000E+00 -0.00000000000E+00 -0.45593999997E+02  0.45594000000E+02  0.51100000000E-03 0. -1.
    9900012    2    1    2    0    0 -0.36895541447E+02 -0.84753621636E+01  0.24413126690E+02  0.46142317662E+02  0.99999990980E+01 0.  0.
         12    1    1    2    0    0  0.36895541447E+02  0.84753621636E+01 -0.24413126690E+02  0.45045682338E+02  0.00000000000E+00 0. -1.
         11    1    3    3    0    0 -0.22600576533E+02 -0.75053593832E+01  0.15493127916E+02  0.28410446881E+02  0.51100000000E-03 0. -1.
        -11    1    3    3    0    0 -0.12332490555E+02  0.45197300828E-01  0.93558241127E+01  0.15479787181E+02  0.51100000000E-03 0.  1.
         12    1    3    3    0    0 -0.19624743598E+01 -0.10152000812E+01 -0.43582533858E+00  0.22520836005E+01  0.00000000000E+00 0. -1.
</event>
<event>
 7    1  0.1402367E-008  0.4614232E+02  0.7816164E-02  0.1320468E+00
        -11   -1    0    0    0    0  0.00000000000E+00  0.00000000000E+00  0.45593999997E+02  0.45594000000E+02  0.51100000000E-03 0.  1.
         11   -1    0    0    0    0 -0.00000000000E+00 -0.00000000000E+00 -0.45593999997E+02  0.45594000000E+02  0.51100000000E-03 0. -1.
    9900012    2    1    2    0    0  0.20322463502E+02 -0.30452613280E+02  0.26244033595E+02  0.46142317879E+02  0.10000001075E+02 0.  0.
         12    1    1    2    0    0 -0.20322463502E+02  0.30452613280E+02 -0.26244033595E+02  0.45045682121E+02  0.00000000000E+00 0. -1.
         11    1    3    3    0    0  0.14883772930E+02 -0.20688191505E+02  0.18937263056E+02  0.31751344801E+02  0.51100000000E-03 0.  1.
        -11    1    3    3    0    0  0.58448812681E+01 -0.78637439154E+01  0.40578216348E+01  0.10605047010E+02  0.51100000000E-03 0. -1.
        -12    1    3    3    0    0 -0.40619069537E+00 -0.19006778596E+01  0.32489489043E+01  0.37859260677E+01  0.00000000000E+00 0.  1.
</event>
<event>
 7    1  0.1402367E-008  0.4614232E+02  0.7816164E-02  0.1320468E+00
        -11   -1    0    0    0    0  0.00000000000E+00  0.00000000000E+00  0.45593999997E+02  0.45594000000E+02  0.51100000000E-03 0.  1.
         11   -1    0    0    0    0 -0.00000000000E+00 -0.00000000000E+00 -0.45593999997E+02  0.45594000000E+02  0.51100000000E-03 0. -1.
    9900012    2    1    2    0    0 -0.58475888683E+01 -0.42781297042E+02  0.12832753924E+02  0.46142320457E+02  0.10000024585E+02 0.  0.
         12    1    1    2    0    0  0.58475888683E+01  0.42781297042E+02 -0.12832753924E+02  0.45045679543E+02  0.00000000000E+00 0. -1.
         11    1    3    3    0    0  0.48932473591E+00 -0.41389493840E+01  0.11821018929E+01  0.43321710315E+01  0.51100000000E-03 0. -1.
        -11    1    3    3    0    0 -0.20399292473E+01 -0.27416926441E+02  0.45993930465E+01  0.27874784008E+02  0.51100000000E-03 0.  1.
        -12    1    3    3    0    0 -0.42969843569E+01 -0.11225421217E+02  0.70512589845E+01  0.13935365418E+02  0.00000000000E+00 0.  1.
</event>
<event>
 7    1  0.1402367E-008  0.4614232E+02  0.7816164E-02  0.1320468E+00
        -11   -1    0    0    0    0  0.00000000000E+00  0.00000000000E+00  0.45593999997E+02  0.45594000000E+02  0.51100000000E-03 0.  1.
         11   -1    0    0    0    0 -0.00000000000E+00 -0.00000000000E+00 -0.45593999997E+02  0.45594000000E+02  0.51100000000E-03 0. -1.
    9900012    2    1    2    0    0  0.29765000352E+01 -0.28955169615E+02  0.34378073262E+02  0.46142319618E+02  0.10000016931E+02 0.  0.
         12    1    1    2    0    0 -0.29765000352E+01  0.28955169615E+02 -0.34378073262E+02  0.45045680382E+02  0.00000000000E+00 0. -1.
         11    1    3    3    0    0  0.19569980635E+01 -0.26744571093E+01  0.16770539848E+01  0.37141718564E+01  0.51100000000E-03 0. -1.
        -11    1    3    3    0    0  0.26278706924E+01 -0.16381599582E+02  0.23843176749E+02  0.29047540119E+02  0.51100000000E-03 0.  1.
         12    1    3    3    0    0 -0.16083687206E+01 -0.98991129236E+01  0.88578425281E+01  0.13380607642E+02  0.00000000000E+00 0. -1.
</event>
<event>
 7    1  0.1402367E-008  0.4614232E+02  0.7816164E-02  0.1320468E+00
        -11   -1    0    0    0    0  0.00000000000E+00  0.00000000000E+00  0.45593999997E+02  0.45594000000E+02  0.51100000000E-03 0.  1.
         11   -1    0    0    0    0 -0.00000000000E+00 -0.00000000000E+00 -0.45593999997E+02  0.45594000000E+02  0.51100000000E-03 0. -1.
    9900012    2    1    2    0    0  0.37308442981E+02  0.98992772821E+01  0.23220632853E+02  0.46142318759E+02  0.10000009098E+02 0.  0.
         12    1    1    2    0    0 -0.37308442981E+02 -0.98992772821E+01 -0.23220632853E+02  0.45045681241E+02  0.00000000000E+00 0. -1.
         11    1    3    3    0    0  0.60177426967E+00  0.80531602546E+00  0.34503392481E+00  0.10628804462E+01  0.51100000000E-03 0. -1.
        -11    1    3    3    0    0  0.33399194397E+02  0.78896515694E+01  0.23377094863E+02  0.41523985270E+02  0.51100000000E-03 0.  1.
        -12    1    3    3    0    0  0.33074743145E+01  0.12043096872E+01 -0.50149593441E+00  0.35554530423E+01  0.00000000000E+00 0.  1.
</event>
<event>
 7    1  0.1402367E-008  0.4614232E+02  0.7816164E-02  0.1320468E+00
        -11   -1    0    0    0    0  0.00000000000E+00  0.00000000000E+00  0.45593999997E+02  0.45594000000E+02  0.51100000000E-03 0.  1.
         11   -1    0    0    0    0 -0.00000000000E+00 -0.00000000000E+00 -0.45593999997E+02  0.45594000000E+02  0.51100000000E-03 0. -1.
    9900012    2    1    2    0    0  0.23948315787E+02  0.26494098334E+02  0.27452769310E+02  0.46142316318E+02  0.99999868444E+01 0.  0.
         12    1    1    2    0    0 -0.23948315787E+02 -0.26494098334E+02 -0.27452769310E+02  0.45045683682E+02  0.00000000000E+00 0. -1.
         11    1    3    3    0    0  0.10904862084E+02  0.16441743469E+02  0.10320705662E+02  0.22265756466E+02  0.51100000000E-03 0. -1.
        -11    1    3    3    0    0  0.10345914863E+02  0.88309987093E+01  0.13200645511E+02  0.18954723283E+02  0.51100000000E-03 0.  1.
         12    1    3    3    0    0  0.26975388391E+01  0.12213561556E+01  0.39314181374E+01  0.49218365696E+01  0.00000000000E+00 0. -1.
</event>
<event>
 7    1  0.1402367E-008  0.4614232E+02  0.7816164E-02  0.1320468E+00
        -11   -1    0    0    0    0  0.00000000000E+00  0.00000000000E+00  0.45593999997E+02  0.45594000000E+02  0.51100000000E-03 0.  1.
         11   -1    0    0    0    0 -0.00000000000E+00 -0.00000000000E+00 -0.45593999997E+02  0.45594000000E+02  0.51100000000E-03 0. -1.
    9900012    2    1    2    0    0 -0.16957815127E+01  0.15137879347E+02  0.42392009189E+02  0.46142317531E+02  0.99999978982E+01 0.  0.
         12    1    1    2    0    0  0.16957815127E+01 -0.15137879347E+02 -0.42392009189E+02  0.45045682469E+02  0.00000000000E+00 0. -1.
         11    1    3    3    0    0  0.27708828157E+01  0.52851723603E+01  0.91668189925E+01  0.10938071547E+02  0.51100000000E-03 0. -1.
        -11    1    3    3    0    0 -0.36293781890E+01  0.66606326023E+01  0.28121828560E+02  0.29126854525E+02  0.51100000000E-03 0.  1.
        -12    1    3    3    0    0 -0.83728613954E+00  0.31920743839E+01  0.51033616361E+01  0.60773914586E+01  0.00000000000E+00 0.  1.
</event>
<event>
 7    1  0.1402367E-008  0.4614232E+02  0.7816164E-02  0.1320468E+00
        -11   -1    0    0    0    0  0.00000000000E+00  0.00000000000E+00  0.45593999997E+02  0.45594000000E+02  0.51100000000E-03 0. -1.
         11   -1    0    0    0    0 -0.00000000000E+00 -0.00000000000E+00 -0.45593999997E+02  0.45594000000E+02  0.51100000000E-03 0.  1.
    9900012    2    1    2    0    0 -0.25998800308E+02 -0.67040345914E+01 -0.36169486412E+02  0.46142318247E+02  0.10000004435E+02 0.  0.
         12    1    1    2    0    0  0.25998800308E+02  0.67040345914E+01  0.36169486412E+02  0.45045681753E+02  0.00000000000E+00 0. -1.
         11    1    3    3    0    0 -0.45432524294E+01  0.19825507288E+01 -0.53425399822E+01  0.72879615635E+01  0.51100000000E-03 0. -1.
        -11    1    3    3    0    0 -0.20981442361E+02 -0.74330666466E+01 -0.29614388916E+02  0.37047043531E+02  0.51100000000E-03 0.  1.
        -12    1    3    3    0    0 -0.47410551819E+00 -0.12535186736E+01 -0.12125575139E+01  0.18073131527E+01  0.00000000000E+00 0.  1.
</event>
<event>
 7    1  0.1402367E-008  0.4614232E+02  0.7816164E-02  0.1320468E+00
        -11   -1    0    0    0    0  0.00000000000E+00  0.00000000000E+00  0.45593999997E+02  0.45594000000E+02  0.51100000000E-03 0.  1.
         11   -1    0    0    0    0 -0.00000000000E+00 -0.00000000000E+00 -0.45593999997E+02  0.45594000000E+02  0.51100000000E-03 0. -1.
    9900012    2    1    2    0    0  0.69323764994E+00  0.25536664900E+02  0.37101370434E+02  0.46142317401E+02  0.99999967197E+01 0.  0.
         12    1    1    2    0    0 -0.69323764994E+00 -0.25536664900E+02 -0.37101370434E+02  0.45045682599E+02  0.00000000000E+00 0. -1.
         11    1    3    3    0    0 -0.28572649978E+01  0.92489042421E+01  0.15595147716E+02  0.18355239729E+02  0.51100000000E-03 0. -1.
        -11    1    3    3    0    0 -0.99232333704E+00  0.82931659512E+01  0.11264809928E+02  0.14023453572E+02  0.51100000000E-03 0.  1.
        -12    1    3    3    0    0  0.45428259848E+01  0.79945947070E+01  0.10241412790E+02  0.13763624101E+02  0.00000000000E+00 0.  1.
</event>
<event>
 7    1  0.1402367E-008  0.4614232E+02  0.7816164E-02  0.1320468E+00
        -11   -1    0    0    0    0  0.00000000000E+00  0.00000000000E+00  0.45593999997E+02  0.45594000000E+02  0.51100000000E-03 0.  1.
         11   -1    0    0    0    0 -0.00000000000E+00 -0.00000000000E+00 -0.45593999997E+02  0.45594000000E+02  0.51100000000E-03 0. -1.
    9900012    2    1    2    0    0  0.12309027750E+02 -0.32006333219E+02  0.29209518530E+02  0.46142317598E+02  0.99999985152E+01 0.  0.
         12    1    1    2    0    0 -0.12309027750E+02  0.32006333219E+02 -0.29209518530E+02  0.45045682402E+02  0.00000000000E+00 0. -1.
         11    1    3    3    0    0  0.44005982069E+00 -0.63264786824E+01  0.96829407448E+01  0.11574857532E+02  0.51100000000E-03 0. -1.
        -11    1    3    3    0    0  0.93960645898E+01 -0.21578293788E+02  0.14597070400E+02  0.27694462571E+02  0.51100000000E-03 0.  1.
        -12    1    3    3    0    0  0.24729033400E+01 -0.41015607483E+01  0.49295073858E+01  0.68729974951E+01  0.00000000000E+00 0.  1.
</event>
<event>
 7    1  0.1402367E-008  0.4614232E+02  0.7816164E-02  0.1320468E+00
        -11   -1    0    0    0    0  0.00000000000E+00  0.00000000000E+00  0.45593999997E+02  0.45594000000E+02  0.51100000000E-03 0.  1.
         11   -1    0    0    0    0 -0.00000000000E+00 -0.00000000000E+00 -0.45593999997E+02  0.45594000000E+02  0.51100000000E-03 0. -1.
    9900012    2    1    2    0    0  0.33745454649E+02 -0.27138172654E+02  0.12404729763E+02  0.46142318244E+02  0.10000004400E+02 0.  0.
         12    1    1    2    0    0 -0.33745454649E+02  0.27138172654E+02 -0.12404729763E+02  0.45045681756E+02  0.00000000000E+00 0. -1.
         11    1    3    3    0    0  0.76745972647E+01 -0.56832663759E+01 -0.12549050709E+01  0.96319129395E+01  0.51100000000E-03 0. -1.
        -11    1    3    3    0    0  0.23629913954E+02 -0.18765551729E+02  0.11546767152E+02  0.32308614905E+02  0.51100000000E-03 0.  1.
         12    1    3    3    0    0  0.24409434296E+01 -0.26893545483E+01  0.21128676819E+01  0.42017903987E+01  0.00000000000E+00 0. -1.
</event>
<event>
 7    1  0.1402367E-008  0.4614232E+02  0.7816164E-02  0.1320468E+00
        -11   -1    0    0    0    0  0.00000000000E+00  0.00000000000E+00  0.45593999997E+02  0.45594000000E+02  0.51100000000E-03 0.  1.
         11   -1    0    0    0    0 -0.00000000000E+00 -0.00000000000E+00 -0.45593999997E+02  0.45594000000E+02  0.51100000000E-03 0. -1.
    9900012    2    1    2    0    0 -0.51712075866E+01 -0.76066010049E+01  0.44096618826E+02  0.46142316981E+02  0.99999928897E+01 0.  0.
         12    1    1    2    0    0  0.51712075866E+01  0.76066010049E+01 -0.44096618826E+02  0.45045683019E+02  0.00000000000E+00 0. -1.
         11    1    3    3    0    0 -0.59736841353E+01 -0.49243450663E+01  0.35513363457E+02  0.36347394140E+02  0.51100000000E-03 0. -1.
        -11    1    3    3    0    0  0.16024660609E+01 -0.49498251832E+00  0.63517106293E+01  0.65694089041E+01  0.51100000000E-03 0.  1.
         12    1    3    3    0    0 -0.79998951228E+00 -0.21872734202E+01  0.22315447392E+01  0.32255139370E+01  0.00000000000E+00 0. -1.
</event>
<event>
 7    1  0.1402367E-008  0.4614232E+02  0.7816164E-02  0.1320468E+00
        -11   -1    0    0    0    0  0.00000000000E+00  0.00000000000E+00  0.45593999997E+02  0.45594000000E+02  0.51100000000E-03 0.  1.
         11   -1    0    0    0    0 -0.00000000000E+00 -0.00000000000E+00 -0.45593999997E+02  0.45594000000E+02  0.51100000000E-03 0. -1.
    9900012    2    1    2    0    0 -0.44659008861E+02  0.43977182035E+01 -0.39174690097E+01  0.46142316952E+02  0.99999926231E+01 0.  0.
         12    1    1    2    0    0  0.44659008861E+02 -0.43977182035E+01  0.39174690097E+01  0.45045683048E+02  0.00000000000E+00 0. -1.
         11    1    3    3    0    0 -0.14620733565E+01  0.13891886837E+01 -0.85339268873E+00  0.21899276337E+01  0.51100000000E-03 0. -1.
        -11    1    3    3    0    0 -0.25261341341E+02 -0.11496387938E+01  0.22970263861E-02  0.25287487839E+02  0.51100000000E-03 0.  1.
        -12    1    3    3    0    0 -0.17935594163E+02  0.41581683136E+01 -0.30663733473E+01  0.18664901479E+02  0.00000000000E+00 0.  1.
</event>
<event>
 7    1  0.1402367E-008  0.4614231E+02  0.7816164E-02  0.1320468E+00
        -11   -1    0    0    0    0  0.00000000000E+00  0.00000000000E+00  0.45593999997E+02  0.45594000000E+02  0.51100000000E-03 0.  1.
         11   -1    0    0    0    0 -0.00000000000E+00 -0.00000000000E+00 -0.45593999997E+02  0.45594000000E+02  0.51100000000E-03 0. -1.
    9900012    2    1    2    0    0  0.27859703848E+02  0.20790155214E+02  0.28648219333E+02  0.46142310714E+02  0.99999357367E+01 0.  0.
         12    1    1    2    0    0 -0.27859703848E+02 -0.20790155214E+02 -0.28648219333E+02  0.45045689286E+02  0.00000000000E+00 0. -1.
         11    1    3    3    0    0  0.98272843156E+01  0.32990057738E+01  0.47297053486E+01  0.11394255968E+02  0.51100000000E-03 0. -1.
        -11    1    3    3    0    0  0.13139322764E+02  0.12258591986E+02  0.18257335683E+02  0.25617282969E+02  0.51100000000E-03 0.  1.
         12    1    3    3    0    0  0.48930967683E+01  0.52325574534E+01  0.56611783011E+01  0.91307717770E+01  0.00000000000E+00 0. -1.
</event>
<event>
 7    1  0.1402367E-008  0.4614232E+02  0.7816164E-02  0.1320468E+00
        -11   -1    0    0    0    0  0.00000000000E+00  0.00000000000E+00  0.45593999997E+02  0.45594000000E+02  0.51100000000E-03 0.  1.
         11   -1    0    0    0    0 -0.00000000000E+00 -0.00000000000E+00 -0.45593999997E+02  0.45594000000E+02  0.51100000000E-03 0. -1.
    9900012    2    1    2    0    0 -0.14385050875E+01  0.20496388789E+02  0.40086686353E+02  0.46142315712E+02  0.99999813104E+01 0.  0.
         12    1    1    2    0    0  0.14385050875E+01 -0.20496388789E+02 -0.40086686353E+02  0.45045684288E+02  0.00000000000E+00 0. -1.
         11    1    3    3    0    0  0.14290115699E+01  0.87447963736E+01  0.18709620086E+02  0.20701773395E+02  0.51100000000E-03 0. -1.
        -11    1    3    3    0    0 -0.12316280730E+01  0.10915296948E+02  0.13769104095E+02  0.17613882110E+02  0.51100000000E-03 0.  1.
         12    1    3    3    0    0 -0.16358885844E+01  0.83629546783E+00  0.76079621718E+01  0.78266602058E+01  0.00000000000E+00 0. -1.
</event>
<event>
 7    1  0.1402367E-008  0.4614231E+02  0.7816164E-02  0.1320468E+00
        -11   -1    0    0    0    0  0.00000000000E+00  0.00000000000E+00  0.45593999997E+02  0.45594000000E+02  0.51100000000E-03 0.  1.
         11   -1    0    0    0    0 -0.00000000000E+00 -0.00000000000E+00 -0.45593999997E+02  0.45594000000E+02  0.51100000000E-03 0. -1.
    9900012    2    1    2    0    0  0.27994235139E+02 -0.19546424806E+02  0.29383229063E+02  0.46142311262E+02  0.99999407388E+01 0.  0.
         12    1    1    2    0    0 -0.27994235139E+02  0.19546424806E+02 -0.29383229063E+02  0.45045688738E+02  0.00000000000E+00 0. -1.
         11    1    3    3    0    0  0.28264221202E+00  0.48279919854E+00  0.21169787244E+01  0.21896531385E+01  0.51100000000E-03 0. -1.
        -11    1    3    3    0    0  0.15503562547E+02 -0.13821886391E+02  0.16869909353E+02  0.26758154587E+02  0.51100000000E-03 0.  1.
         12    1    3    3    0    0  0.12208030380E+02 -0.62073376135E+01  0.10396340985E+02  0.17194503537E+02  0.00000000000E+00 0. -1.
</event>
<event>
 7    1  0.1402367E-008  0.4614232E+02  0.7816164E-02  0.1320468E+00
        -11   -1    0    0    0    0  0.00000000000E+00  0.00000000000E+00  0.45593999997E+02  0.45594000000E+02  0.51100000000E-03 0.  1.
         11   -1    0    0    0    0 -0.00000000000E+00 -0.00000000000E+00 -0.45593999997E+02  0.45594000000E+02  0.51100000000E-03 0. -1.
    9900012    2    1    2    0    0 -0.21428648530E+02 -0.23118735225E+02 -0.32178418199E+02  0.46142317699E+02  0.99999994300E+01 0.  0.
         12    1    1    2    0    0  0.21428648530E+02  0.23118735225E+02  0.32178418199E+02  0.45045682301E+02  0.00000000000E+00 0. -1.
         11    1    3    3    0    0 -0.75746410359E+01 -0.43842570490E+01 -0.57145574315E+01  0.10452419031E+02  0.51100000000E-03 0. -1.
        -11    1    3    3    0    0 -0.75514631753E+01 -0.13788122951E+02 -0.15199285318E+02  0.21866760278E+02  0.51100000000E-03 0.  1.
        -12    1    3    3    0    0 -0.63025443189E+01 -0.49463552248E+01 -0.11264575449E+02  0.13823138390E+02  0.00000000000E+00 0.  1.
</event>
<event>
 7    1  0.1402367E-008  0.4614232E+02  0.7816164E-02  0.1320468E+00
        -11   -1    0    0    0    0  0.00000000000E+00  0.00000000000E+00  0.45593999997E+02  0.45594000000E+02  0.51100000000E-03 0.  1.
         11   -1    0    0    0    0 -0.00000000000E+00 -0.00000000000E+00 -0.45593999997E+02  0.45594000000E+02  0.51100000000E-03 0. -1.
    9900012    2    1    2    0    0 -0.38728917648E+02  0.86017154390E+01  0.21335297678E+02  0.46142317658E+02  0.99999990605E+01 0.  0.
         12    1    1    2    0    0  0.38728917648E+02 -0.86017154390E+01 -0.21335297678E+02  0.45045682342E+02  0.00000000000E+00 0. -1.
         11    1    3    3    0    0 -0.57942984270E+01  0.85682503579E+00  0.66866029574E+01  0.88892464683E+01  0.51100000000E-03 0. -1.
        -11    1    3    3    0    0 -0.27580795743E+02  0.46387906673E+01  0.13034781209E+02  0.30856509753E+02  0.51100000000E-03 0.  1.
        -12    1    3    3    0    0 -0.53538234772E+01  0.31060997358E+01  0.16139135110E+01  0.63965614368E+01  0.00000000000E+00 0.  1.
</event>
<event>
 7    1  0.1402367E-008  0.4614232E+02  0.7816164E-02  0.1320468E+00
        -11   -1    0    0    0    0  0.00000000000E+00  0.00000000000E+00  0.45593999997E+02  0.45594000000E+02  0.51100000000E-03 0. -1.
         11   -1    0    0    0    0 -0.00000000000E+00 -0.00000000000E+00 -0.45593999997E+02  0.45594000000E+02  0.51100000000E-03 0.  1.
    9900012    2    1    2    0    0 -0.31310906543E+02 -0.32379731078E+02  0.54177059296E+00  0.46142319090E+02  0.10000012122E+02 0.  0.
         12    1    1    2    0    0  0.31310906543E+02  0.32379731078E+02 -0.54177059296E+00  0.45045680910E+02  0.00000000000E+00 0. -1.
         11    1    3    3    0    0  0.46361349963E+00  0.12788779016E+00  0.51296822145E-01  0.48365730533E+00  0.51100000000E-03 0. -1.
        -11    1    3    3    0    0 -0.12652892879E+02 -0.11322789314E+02 -0.15344456537E+01  0.17048629850E+02  0.51100000000E-03 0.  1.
         12    1    3    3    0    0 -0.19121627164E+02 -0.21184829554E+02  0.20249194245E+01  0.28610031935E+02  0.00000000000E+00 0. -1.
</event>
<event>
 7    1  0.1402367E-008  0.4614232E+02  0.7816164E-02  0.1320468E+00
        -11   -1    0    0    0    0  0.00000000000E+00  0.00000000000E+00  0.45593999997E+02  0.45594000000E+02  0.51100000000E-03 0. -1.
         11   -1    0    0    0    0 -0.00000000000E+00 -0.00000000000E+00 -0.45593999997E+02  0.45594000000E+02  0.51100000000E-03 0.  1.
    9900012    2    1    2    0    0  0.28821008305E+02 -0.73688315272E+01 -0.33825483768E+02  0.46142317077E+02  0.99999937657E+01 0.  0.
         12    1    1    2    0    0 -0.28821008305E+02  0.73688315272E+01  0.33825483768E+02  0.45045682923E+02  0.00000000000E+00 0. -1.
         11    1    3    3    0    0  0.10414092306E+01 -0.14584376946E+00 -0.62173650918E+01  0.63056667004E+01  0.51100000000E-03 0. -1.
        -11    1    3    3    0    0  0.45122675683E+01 -0.10831703281E+01 -0.49342041193E+01  0.67734915015E+01  0.51100000000E-03 0.  1.
         12    1    3    3    0    0  0.23267331506E+02 -0.61398174297E+01 -0.22673914557E+02  0.33063158876E+02  0.00000000000E+00 0. -1.
</event>
<event>
 7    1  0.1402367E-008  0.4614232E+02  0.7816164E-02  0.1320468E+00
        -11   -1    0    0    0    0  0.00000000000E+00  0.00000000000E+00  0.45593999997E+02  0.45594000000E+02  0.51100000000E-03 0.  1.
         11   -1    0    0    0    0 -0.00000000000E+00 -0.00000000000E+00 -0.45593999997E+02  0.45594000000E+02  0.51100000000E-03 0. -1.
    9900012    2    1    2    0    0  0.37149363843E+02  0.21051737919E+02  0.14347912736E+02  0.46142317596E+02  0.99999984935E+01 0.  0.
         12    1    1    2    0    0 -0.37149363843E+02 -0.21051737919E+02 -0.14347912736E+02  0.45045682404E+02  0.00000000000E+00 0. -1.
         11    1    3    3    0    0  0.11662878416E+02  0.79199689109E+01  0.77314619219E+01  0.16078686022E+02  0.51100000000E-03 0. -1.
        -11    1    3    3    0    0  0.25794865596E+02  0.13240043419E+02  0.64812681879E+01  0.29709942417E+02  0.51100000000E-03 0.  1.
         12    1    3    3    0    0 -0.30838016916E+00 -0.10827441043E+00  0.13518262664E+00  0.35368915622E+00  0.00000000000E+00 0. -1.
</event>
<event>
 7    1  0.1402367E-008  0.4614231E+02  0.7816164E-02  0.1320468E+00
        -11   -1    0    0    0    0  0.00000000000E+00  0.00000000000E+00  0.45593999997E+02  0.45594000000E+02  0.51100000000E-03 0.  1.
         11   -1    0    0    0    0 -0.00000000000E+00 -0.00000000000E+00 -0.45593999997E+02  0.45594000000E+02  0.51100000000E-03 0. -1.
    9900012    2    1    2    0    0  0.13394798944E+02  0.65044100375E+01  0.42513363411E+02  0.46142311447E+02  0.99999424213E+01 0.  0.
         12    1    1    2    0    0 -0.13394798944E+02 -0.65044100375E+01 -0.42513363411E+02  0.45045688553E+02  0.00000000000E+00 0. -1.
         11    1    3    3    0    0  0.53043424160E+00 -0.12802781620E+01  0.31282951356E+01  0.34215060095E+01  0.51100000000E-03 0. -1.
        -11    1    3    3    0    0  0.10694576527E+02  0.27313918327E+01  0.27048513466E+02  0.29213978665E+02  0.51100000000E-03 0.  1.
         12    1    3    3    0    0  0.21697881758E+01  0.50532963667E+01  0.12336554810E+02  0.13506826773E+02  0.00000000000E+00 0. -1.
</event>
<event>
 7    1  0.1402367E-008  0.4614232E+02  0.7816164E-02  0.1320468E+00
        -11   -1    0    0    0    0  0.00000000000E+00  0.00000000000E+00  0.45593999997E+02  0.45594000000E+02  0.51100000000E-03 0. -1.
         11   -1    0    0    0    0 -0.00000000000E+00 -0.00000000000E+00 -0.45593999997E+02  0.45594000000E+02  0.51100000000E-03 0.  1.
    9900012    2    1    2    0    0  0.33316002429E+02 -0.28658755892E+02  0.98910594406E+01  0.46142319142E+02  0.10000012594E+02 0.  0.
         12    1    1    2    0    0 -0.33316002429E+02  0.28658755892E+02 -0.98910594406E+01  0.45045680858E+02  0.00000000000E+00 0. -1.
         11    1    3    3    0    0  0.54603777096E+01 -0.55012829898E+01  0.53367353165E+01  0.94106632798E+01  0.51100000000E-03 0. -1.
        -11    1    3    3    0    0  0.12357596637E+02 -0.11932698180E+02  0.37253521470E+01  0.17577762355E+02  0.51100000000E-03 0.  1.
         12    1    3    3    0    0  0.15498028082E+02 -0.11224774722E+02  0.82897197715E+00  0.19153893508E+02  0.00000000000E+00 0. -1.
</event>
<event>
 7    1  0.1402367E-008  0.4614232E+02  0.7816164E-02  0.1320468E+00
        -11   -1    0    0    0    0  0.00000000000E+00  0.00000000000E+00  0.45593999997E+02  0.45594000000E+02  0.51100000000E-03 0. -1.
         11   -1    0    0    0    0 -0.00000000000E+00 -0.00000000000E+00 -0.45593999997E+02  0.45594000000E+02  0.51100000000E-03 0.  1.
    9900012    2    1    2    0    0  0.35385957698E+02 -0.36532351181E+01 -0.27633337735E+02  0.46142317816E+02  0.10000000498E+02 0.  0.
         12    1    1    2    0    0 -0.35385957698E+02  0.36532351181E+01  0.27633337735E+02  0.45045682184E+02  0.00000000000E+00 0. -1.
         11    1    3    3    0    0  0.77248084828E+01 -0.45509131676E+00 -0.10904801576E+02  0.13371405008E+02  0.51100000000E-03 0. -1.
        -11    1    3    3    0    0  0.82753087510E+01  0.68499128363E+00 -0.36820821993E+01  0.90833736886E+01  0.51100000000E-03 0.  1.
        -12    1    3    3    0    0  0.19385840465E+02 -0.38831350850E+01 -0.13046453960E+02  0.23687539119E+02  0.00000000000E+00 0.  1.
</event>
<event>
 7    1  0.1402367E-008  0.4614232E+02  0.7816164E-02  0.1320468E+00
        -11   -1    0    0    0    0  0.00000000000E+00  0.00000000000E+00  0.45593999997E+02  0.45594000000E+02  0.51100000000E-03 0.  1.
         11   -1    0    0    0    0 -0.00000000000E+00 -0.00000000000E+00 -0.45593999997E+02  0.45594000000E+02  0.51100000000E-03 0. -1.
    9900012    2    1    2    0    0  0.16316274078E+02  0.30701012807E+02  0.28641587358E+02  0.46142317482E+02  0.99999974507E+01 0.  0.
         12    1    1    2    0    0 -0.16316274078E+02 -0.30701012807E+02 -0.28641587358E+02  0.45045682518E+02  0.00000000000E+00 0. -1.
         11    1    3    3    0    0  0.38619430821E+01  0.23871428866E+01  0.43610360067E+01  0.62953705882E+01  0.51100000000E-03 0.  1.
        -11    1    3    3    0    0  0.64156542393E+01  0.21228500505E+02  0.18574136207E+02  0.28927640573E+02  0.51100000000E-03 0. -1.
         12    1    3    3    0    0  0.60386767562E+01  0.70853694154E+01  0.57064151441E+01  0.10919306320E+02  0.00000000000E+00 0. -1.
</event>
<event>
 7    1  0.1402367E-008  0.4614232E+02  0.7816164E-02  0.1320468E+00
        -11   -1    0    0    0    0  0.00000000000E+00  0.00000000000E+00  0.45593999997E+02  0.45594000000E+02  0.51100000000E-03 0.  1.
         11   -1    0    0    0    0 -0.00000000000E+00 -0.00000000000E+00 -0.45593999997E+02  0.45594000000E+02  0.51100000000E-03 0. -1.
    9900012    2    1    2    0    0  0.31265686388E+01  0.16156592799E+02  0.41932118612E+02  0.46142317703E+02  0.99999994676E+01 0.  0.
         12    1    1    2    0    0 -0.31265686388E+01 -0.16156592799E+02 -0.41932118612E+02  0.45045682297E+02  0.00000000000E+00 0. -1.
         11    1    3    3    0    0  0.12115773476E+01  0.15517421894E+01  0.18317195984E+01  0.26890556781E+01  0.51100000000E-03 0. -1.
        -11    1    3    3    0    0 -0.13149489484E+00  0.94663730279E+01  0.33648972356E+02  0.34955440922E+02  0.51100000000E-03 0.  1.
        -12    1    3    3    0    0  0.20464861861E+01  0.51384775814E+01  0.64514266584E+01  0.84978211026E+01  0.00000000000E+00 0.  1.
</event>
<event>
 7    1  0.1402367E-008  0.4614232E+02  0.7816164E-02  0.1320468E+00
        -11   -1    0    0    0    0  0.00000000000E+00  0.00000000000E+00  0.45593999997E+02  0.45594000000E+02  0.51100000000E-03 0.  1.
         11   -1    0    0    0    0 -0.00000000000E+00 -0.00000000000E+00 -0.45593999997E+02  0.45594000000E+02  0.51100000000E-03 0. -1.
    9900012    2    1    2    0    0 -0.29756389702E+02 -0.24686643729E+01  0.33727977998E+02  0.46142317280E+02  0.99999956169E+01 0.  0.
         12    1    1    2    0    0  0.29756389702E+02  0.24686643729E+01 -0.33727977998E+02  0.45045682720E+02  0.00000000000E+00 0. -1.
         11    1    3    3    0    0 -0.87617827467E+01 -0.16336665260E+01  0.63813999660E+01  0.10961750271E+02  0.51100000000E-03 0. -1.
        -11    1    3    3    0    0 -0.74363618371E+01 -0.17144015962E+01  0.14964656037E+02  0.16798201712E+02  0.51100000000E-03 0.  1.
        -12    1    3    3    0    0 -0.13558245118E+02  0.87940374932E+00  0.12381921995E+02  0.18382365297E+02  0.00000000000E+00 0.  1.
</event>
<event>
 7    1  0.1402367E-008  0.4614232E+02  0.7816164E-02  0.1320468E+00
        -11   -1    0    0    0    0  0.00000000000E+00  0.00000000000E+00  0.45593999997E+02  0.45594000000E+02  0.51100000000E-03 0.  1.
         11   -1    0    0    0    0 -0.00000000000E+00 -0.00000000000E+00 -0.45593999997E+02  0.45594000000E+02  0.51100000000E-03 0. -1.
    9900012    2    1    2    0    0 -0.17555066277E+02 -0.22382616903E+02  0.34927808651E+02  0.46142315317E+02  0.99999777098E+01 0.  0.
         12    1    1    2    0    0  0.17555066277E+02  0.22382616903E+02 -0.34927808651E+02  0.45045684683E+02  0.00000000000E+00 0. -1.
         11    1    3    3    0    0 -0.37769061613E+01 -0.70167816624E+01  0.39130763760E+01  0.88776354980E+01  0.51100000000E-03 0. -1.
        -11    1    3    3    0    0 -0.45775592646E+00 -0.77049045169E+00  0.14407695770E+01  0.16967655287E+01  0.51100000000E-03 0.  1.
         12    1    3    3    0    0 -0.13320404190E+02 -0.14595344789E+02  0.29573962698E+02  0.35567914290E+02  0.00000000000E+00 0. -1.
</event>
<event>
 7    1  0.1402367E-008  0.4614232E+02  0.7816164E-02  0.1320468E+00
        -11   -1    0    0    0    0  0.00000000000E+00  0.00000000000E+00  0.45593999997E+02  0.45594000000E+02  0.51100000000E-03 0. -1.
         11   -1    0    0    0    0 -0.00000000000E+00 -0.00000000000E+00 -0.45593999997E+02  0.45594000000E+02  0.51100000000E-03 0.  1.
    9900012    2    1    2    0    0 -0.90482021325E+01 -0.23773762130E+02 -0.37175956862E+02  0.46142317674E+02  0.99999992031E+01 0.  0.
         12    1    1    2    0    0  0.90482021325E+01  0.23773762130E+02  0.37175956862E+02  0.45045682326E+02  0.00000000000E+00 0. -1.
         11    1    3    3    0    0  0.25304426839E+00 -0.41345402113E-01  0.37649704714E+00  0.45551194459E+00  0.51100000000E-03 0. -1.
        -11    1    3    3    0    0 -0.74346153320E+01 -0.22498148158E+02 -0.33141013122E+02  0.40740237195E+02  0.51100000000E-03 0.  1.
         12    1    3    3    0    0 -0.18666310689E+01 -0.12342685706E+01 -0.44114407863E+01  0.49465685341E+01  0.00000000000E+00 0. -1.
</event>
<event>
 7    1  0.1402367E-008  0.4614232E+02  0.7816164E-02  0.1320468E+00
        -11   -1    0    0    0    0  0.00000000000E+00  0.00000000000E+00  0.45593999997E+02  0.45594000000E+02  0.51100000000E-03 0.  1.
         11   -1    0    0    0    0 -0.00000000000E+00 -0.00000000000E+00 -0.45593999997E+02  0.45594000000E+02  0.51100000000E-03 0. -1.
    9900012    2    1    2    0    0 -0.12527133375E+01 -0.19906401432E+02  0.40389098547E+02  0.46142318852E+02  0.10000009947E+02 0.  0.
         12    1    1    2    0    0  0.12527133375E+01  0.19906401432E+02 -0.40389098547E+02  0.45045681148E+02  0.00000000000E+00 0. -1.
         11    1    3    3    0    0  0.14679039301E+00 -0.29575024555E+01  0.14277129885E+01  0.32873595532E+01  0.51100000000E-03 0. -1.
        -11    1    3    3    0    0 -0.25267440736E+01 -0.12260168047E+02  0.23061065450E+02  0.26239453045E+02  0.51100000000E-03 0.  1.
        -12    1    3    3    0    0  0.11272403431E+01 -0.46887309297E+01  0.15900320108E+02  0.16615506254E+02  0.00000000000E+00 0.  1.
</event>
<event>
 7    1  0.1402367E-008  0.4614232E+02  0.7816164E-02  0.1320468E+00
        -11   -1    0    0    0    0  0.00000000000E+00  0.00000000000E+00  0.45593999997E+02  0.45594000000E+02  0.51100000000E-03 0.  1.
         11   -1    0    0    0    0 -0.00000000000E+00 -0.00000000000E+00 -0.45593999997E+02  0.45594000000E+02  0.51100000000E-03 0. -1.
    9900012    2    1    2    0    0  0.19481059520E+02 -0.75994425974E+01  0.39897996829E+02  0.46142319200E+02  0.10000013118E+02 0.  0.
         12    1    1    2    0    0 -0.19481059520E+02  0.75994425974E+01 -0.39897996829E+02  0.45045680800E+02  0.00000000000E+00 0. -1.
         11    1    3    3    0    0  0.90627605718E+00 -0.33222123752E+01  0.47391860269E+01  0.58581836618E+01  0.51100000000E-03 0.  1.
        -11    1    3    3    0    0  0.13413860296E+02 -0.98244974425E+00  0.22301428619E+02  0.26043244311E+02  0.51100000000E-03 0. -1.
         12    1    3    3    0    0  0.51609231668E+01 -0.32947804780E+01  0.12857382183E+02  0.14240891226E+02  0.00000000000E+00 0. -1.
</event>
<event>
 7    1  0.1402367E-008  0.4614232E+02  0.7816164E-02  0.1320468E+00
        -11   -1    0    0    0    0  0.00000000000E+00  0.00000000000E+00  0.45593999997E+02  0.45594000000E+02  0.51100000000E-03 0. -1.
         11   -1    0    0    0    0 -0.00000000000E+00 -0.00000000000E+00 -0.45593999997E+02  0.45594000000E+02  0.51100000000E-03 0.  1.
    9900012    2    1    2    0    0 -0.29493710829E+02  0.31653325888E+02 -0.12541987571E+02  0.46142317960E+02  0.10000001814E+02 0.  0.
         12    1    1    2    0    0  0.29493710829E+02 -0.31653325888E+02  0.12541987571E+02  0.45045682040E+02  0.00000000000E+00 0. -1.
         11    1    3    3    0    0 -0.21644244640E+02  0.17248294964E+02 -0.88581352991E+01  0.29059311183E+02  0.51100000000E-03 0. -1.
        -11    1    3    3    0    0 -0.62359707333E+01  0.10181551748E+02 -0.14107039509E+01  0.12022537706E+02  0.51100000000E-03 0.  1.
        -12    1    3    3    0    0 -0.16134954560E+01  0.42234791764E+01 -0.22731483206E+01  0.50604690719E+01  0.00000000000E+00 0.  1.
</event>
<event>
 7    1  0.1402367E-008  0.4614232E+02  0.7816164E-02  0.1320468E+00
        -11   -1    0    0    0    0  0.00000000000E+00  0.00000000000E+00  0.45593999997E+02  0.45594000000E+02  0.51100000000E-03 0. -1.
         11   -1    0    0    0    0 -0.00000000000E+00 -0.00000000000E+00 -0.45593999997E+02  0.45594000000E+02  0.51100000000E-03 0.  1.
    9900012    2    1    2    0    0 -0.25808505581E+02  0.16115908479E+02 -0.33216140806E+02  0.46142317894E+02  0.10000001209E+02 0.  0.
         12    1    1    2    0    0  0.25808505581E+02 -0.16115908479E+02  0.33216140806E+02  0.45045682106E+02  0.00000000000E+00 0. -1.
         11    1    3    3    0    0 -0.19119461437E+02  0.13943327039E+02 -0.23826987450E+02  0.33581177850E+02  0.51100000000E-03 0. -1.
        -11    1    3    3    0    0  0.27487329195E+00  0.12889008350E+01 -0.16711675579E+01  0.21282908534E+01  0.51100000000E-03 0.  1.
        -12    1    3    3    0    0 -0.69639174353E+01  0.88368060449E+00 -0.77179857974E+01  0.10432849190E+02  0.00000000000E+00 0.  1.
</event>
<event>
 7    1  0.1402367E-008  0.4614232E+02  0.7816164E-02  0.1320468E+00
        -11   -1    0    0    0    0  0.00000000000E+00  0.00000000000E+00  0.45593999997E+02  0.45594000000E+02  0.51100000000E-03 0.  1.
         11   -1    0    0    0    0 -0.00000000000E+00 -0.00000000000E+00 -0.45593999997E+02  0.45594000000E+02  0.51100000000E-03 0. -1.
    9900012    2    1    2    0    0  0.25084897808E+02  0.74856737421E+01  0.36658234082E+02  0.46142317239E+02  0.99999952398E+01 0.  0.
         12    1    1    2    0    0 -0.25084897808E+02 -0.74856737421E+01 -0.36658234082E+02  0.45045682761E+02  0.00000000000E+00 0. -1.
         11    1    3    3    0    0  0.21195758812E+01  0.65393891773E+00  0.16150213010E+01  0.27438170654E+01  0.51100000000E-03 0. -1.
        -11    1    3    3    0    0  0.74111057939E+01 -0.13914277948E+01  0.69754102814E+01  0.10272142389E+02  0.51100000000E-03 0.  1.
        -12    1    3    3    0    0  0.15554216132E+02  0.82231626191E+01  0.28067802499E+02  0.33126357785E+02  0.00000000000E+00 0.  1.
</event>
<event>
 7    1  0.1402367E-008  0.4614232E+02  0.7816164E-02  0.1320468E+00
        -11   -1    0    0    0    0  0.00000000000E+00  0.00000000000E+00  0.45593999997E+02  0.45594000000E+02  0.51100000000E-03 0.  1.
         11   -1    0    0    0    0 -0.00000000000E+00 -0.00000000000E+00 -0.45593999997E+02  0.45594000000E+02  0.51100000000E-03 0. -1.
    9900012    2    1    2    0    0 -0.90464879841E+01 -0.18001879292E+01  0.44091200480E+02  0.46142316731E+02  0.99999906077E+01 0.  0.
         12    1    1    2    0    0  0.90464879841E+01  0.18001879292E+01 -0.44091200480E+02  0.45045683269E+02  0.00000000000E+00 0. -1.
         11    1    3    3    0    0 -0.45133103339E+01 -0.15724507413E+01  0.11458460413E+02  0.12415268294E+02  0.51100000000E-03 0. -1.
        -11    1    3    3    0    0  0.69133472208E+00  0.38917940816E+00  0.13318186776E+00  0.80445135385E+00  0.51100000000E-03 0.  1.
        -12    1    3    3    0    0 -0.52245123722E+01 -0.61691659606E+00  0.32499558199E+02  0.32922597084E+02  0.00000000000E+00 0.  1.
</event>
<event>
 7    1  0.1402367E-008  0.4614232E+02  0.7816164E-02  0.1320468E+00
        -11   -1    0    0    0    0  0.00000000000E+00  0.00000000000E+00  0.45593999997E+02  0.45594000000E+02  0.51100000000E-03 0.  1.
         11   -1    0    0    0    0 -0.00000000000E+00 -0.00000000000E+00 -0.45593999997E+02  0.45594000000E+02  0.51100000000E-03 0. -1.
    9900012    2    1    2    0    0 -0.20807070454E+02  0.62689672415E+01  0.39457310619E+02  0.46142317716E+02  0.99999995930E+01 0.  0.
         12    1    1    2    0    0  0.20807070454E+02 -0.62689672415E+01 -0.39457310619E+02  0.45045682284E+02  0.00000000000E+00 0. -1.
         11    1    3    3    0    0 -0.74338946939E+01 -0.89181938926E+00  0.20191567997E+02  0.21535030777E+02  0.51100000000E-03 0. -1.
        -11    1    3    3    0    0 -0.96635395825E+01  0.40939330844E+01  0.13280841716E+02  0.16927050608E+02  0.51100000000E-03 0.  1.
        -12    1    3    3    0    0 -0.37096361774E+01  0.30668535464E+01  0.59849009062E+01  0.76802363310E+01  0.00000000000E+00 0.  1.
</event>
<event>
 7    1  0.1402367E-008  0.4614232E+02  0.7816164E-02  0.1320468E+00
        -11   -1    0    0    0    0  0.00000000000E+00  0.00000000000E+00  0.45593999997E+02  0.45594000000E+02  0.51100000000E-03 0. -1.
         11   -1    0    0    0    0 -0.00000000000E+00 -0.00000000000E+00 -0.45593999997E+02  0.45594000000E+02  0.51100000000E-03 0.  1.
    9900012    2    1    2    0    0 -0.32190981746E+02  0.27205600371E+02  0.15896837484E+02  0.46142318306E+02  0.10000004968E+02 0.  0.
         12    1    1    2    0    0  0.32190981746E+02 -0.27205600371E+02 -0.15896837484E+02  0.45045681694E+02  0.00000000000E+00 0. -1.
         11    1    3    3    0    0 -0.19881291982E+02  0.18006054538E+02  0.11172642018E+02  0.29057042190E+02  0.51100000000E-03 0. -1.
        -11    1    3    3    0    0 -0.11792373729E+02  0.70429735066E+01  0.25319798821E+01  0.13966906471E+02  0.51100000000E-03 0.  1.
         12    1    3    3    0    0 -0.51731603461E+00  0.21565723266E+01  0.21922155837E+01  0.31183696453E+01  0.00000000000E+00 0. -1.
</event>
<event>
 7    1  0.1402367E-008  0.4614232E+02  0.7816164E-02  0.1320468E+00
        -11   -1    0    0    0    0  0.00000000000E+00  0.00000000000E+00  0.45593999997E+02  0.45594000000E+02  0.51100000000E-03 0.  1.
         11   -1    0    0    0    0 -0.00000000000E+00 -0.00000000000E+00 -0.45593999997E+02  0.45594000000E+02  0.51100000000E-03 0. -1.
    9900012    2    1    2    0    0  0.16475000492E+02  0.14094475559E+02  0.39484600850E+02  0.46142316669E+02  0.99999900377E+01 0.  0.
         12    1    1    2    0    0 -0.16475000492E+02 -0.14094475559E+02 -0.39484600850E+02  0.45045683331E+02  0.00000000000E+00 0. -1.
         11    1    3    3    0    0 -0.10133805327E-01  0.21323795214E+01  0.19429684896E+01  0.28848348185E+01  0.51100000000E-03 0. -1.
        -11    1    3    3    0    0  0.10499051002E+02  0.52412415620E+01  0.15436603420E+02  0.19390446371E+02  0.51100000000E-03 0.  1.
        -12    1    3    3    0    0  0.59860832954E+01  0.67208544759E+01  0.22105028941E+02  0.23867035479E+02  0.00000000000E+00 0.  1.
</event>
<event>
 7    1  0.1402367E-008  0.4614232E+02  0.7816164E-02  0.1320468E+00
        -11   -1    0    0    0    0  0.00000000000E+00  0.00000000000E+00  0.45593999997E+02  0.45594000000E+02  0.51100000000E-03 0.  1.
         11   -1    0    0    0    0 -0.00000000000E+00 -0.00000000000E+00 -0.45593999997E+02  0.45594000000E+02  0.51100000000E-03 0. -1.
    9900012    2    1    2    0    0 -0.57346653760E+00  0.22854813499E+02  0.38812913298E+02  0.46142316493E+02  0.99999884322E+01 0.  0.
         12    1    1    2    0    0  0.57346653760E+00 -0.22854813499E+02 -0.38812913298E+02  0.45045683507E+02  0.00000000000E+00 0. -1.
         11    1    3    3    0    0 -0.23984523915E+01  0.57098882553E+01  0.75959233125E+01  0.98006861490E+01  0.51100000000E-03 0. -1.
        -11    1    3    3    0    0 -0.26737436186E+01  0.70821248078E+01  0.12018304893E+02  0.14203698444E+02  0.51100000000E-03 0.  1.
         12    1    3    3    0    0  0.44987294725E+01  0.10062800436E+02  0.19198685093E+02  0.22137931900E+02  0.00000000000E+00 0. -1.
</event>
<event>
 7    1  0.1402367E-008  0.4614232E+02  0.7816164E-02  0.1320468E+00
        -11   -1    0    0    0    0  0.00000000000E+00  0.00000000000E+00  0.45593999997E+02  0.45594000000E+02  0.51100000000E-03 0.  1.
         11   -1    0    0    0    0 -0.00000000000E+00 -0.00000000000E+00 -0.45593999997E+02  0.45594000000E+02  0.51100000000E-03 0. -1.
    9900012    2    1    2    0    0  0.40048168473E+02  0.18948193227E+02  0.81377912868E+01  0.46142317947E+02  0.10000001695E+02 0.  0.
         12    1    1    2    0    0 -0.40048168473E+02 -0.18948193227E+02 -0.81377912868E+01  0.45045682053E+02  0.00000000000E+00 0. -1.
         11    1    3    3    0    0  0.12975258566E+01  0.19644109297E+01  0.12657076247E+00  0.23576479950E+01  0.51100000000E-03 0. -1.
        -11    1    3    3    0    0  0.23865893989E+02  0.63807587357E+01  0.58036072657E+01  0.25376698672E+02  0.51100000000E-03 0.  1.
        -12    1    3    3    0    0  0.14884748627E+02  0.10603023561E+02  0.22076132586E+01  0.18407971280E+02  0.00000000000E+00 0.  1.
</event>
<event>
 7    1  0.1402367E-008  0.4614232E+02  0.7816164E-02  0.1320468E+00
        -11   -1    0    0    0    0  0.00000000000E+00  0.00000000000E+00  0.45593999997E+02  0.45594000000E+02  0.51100000000E-03 0.  1.
         11   -1    0    0    0    0 -0.00000000000E+00 -0.00000000000E+00 -0.45593999997E+02  0.45594000000E+02  0.51100000000E-03 0. -1.
    9900012    2    1    2    0    0  0.23145495119E+02 -0.25609256059E+02  0.28940723963E+02  0.46142318257E+02  0.10000004522E+02 0.  0.
         12    1    1    2    0    0 -0.23145495119E+02  0.25609256059E+02 -0.28940723963E+02  0.45045681743E+02  0.00000000000E+00 0. -1.
         11    1    3    3    0    0  0.22157464850E+01 -0.32714886311E+01  0.76120290349E+01  0.85764302970E+01  0.51100000000E-03 0. -1.
        -11    1    3    3    0    0  0.81560971011E+01 -0.87052634335E+01  0.57583830133E+01  0.13246226125E+02  0.51100000000E-03 0.  1.
         12    1    3    3    0    0  0.12773651533E+02 -0.13632503994E+02  0.15570311915E+02  0.24319661835E+02  0.00000000000E+00 0. -1.
</event>
<event>
 7    1  0.1402367E-008  0.4614232E+02  0.7816164E-02  0.1320468E+00
        -11   -1    0    0    0    0  0.00000000000E+00  0.00000000000E+00  0.45593999997E+02  0.45594000000E+02  0.51100000000E-03 0.  1.
         11   -1    0    0    0    0 -0.00000000000E+00 -0.00000000000E+00 -0.45593999997E+02  0.45594000000E+02  0.51100000000E-03 0. -1.
    9900012    2    1    2    0    0 -0.12766186885E+02  0.23588481059E+02  0.36190074521E+02  0.46142318075E+02  0.10000002867E+02 0.  0.
         12    1    1    2    0    0  0.12766186885E+02 -0.23588481059E+02 -0.36190074521E+02  0.45045681925E+02  0.00000000000E+00 0. -1.
         11    1    3    3    0    0 -0.61376197821E+01  0.16147502180E+02  0.22566081582E+02  0.28419011972E+02  0.51100000000E-03 0. -1.
        -11    1    3    3    0    0 -0.23651419267E+01  0.58498744787E+01  0.10333299024E+02  0.12107518190E+02  0.51100000000E-03 0.  1.
         12    1    3    3    0    0 -0.42634251763E+01  0.15911044002E+01  0.32906939148E+01  0.56157879133E+01  0.00000000000E+00 0. -1.
</event>
<event>
 7    1  0.1402367E-008  0.4614232E+02  0.7816164E-02  0.1320468E+00
        -11   -1    0    0    0    0  0.00000000000E+00  0.00000000000E+00  0.45593999997E+02  0.45594000000E+02  0.51100000000E-03 0.  1.
         11   -1    0    0    0    0 -0.00000000000E+00 -0.00000000000E+00 -0.45593999997E+02  0.45594000000E+02  0.51100000000E-03 0. -1.
    9900012    2    1    2    0    0 -0.42979123751E+02  0.56058016835E+01 -0.12267166236E+02  0.46142318094E+02  0.10000003037E+02 0.  0.
         12    1    1    2    0    0  0.42979123751E+02 -0.56058016835E+01  0.12267166236E+02  0.45045681906E+02  0.00000000000E+00 0. -1.
         11    1    3    3    0    0 -0.21127894899E+02  0.44422644213E+01 -0.16736066267E+01  0.21654621111E+02  0.51100000000E-03 0. -1.
        -11    1    3    3    0    0 -0.14993605627E+02 -0.45885681766E+00 -0.66059220948E+01  0.16390758563E+02  0.51100000000E-03 0.  1.
         12    1    3    3    0    0 -0.68576232249E+01  0.16223940798E+01 -0.39876375141E+01  0.80969384207E+01  0.00000000000E+00 0. -1.
</event>
<event>
 7    1  0.1402367E-008  0.4614232E+02  0.7816164E-02  0.1320468E+00
        -11   -1    0    0    0    0  0.00000000000E+00  0.00000000000E+00  0.45593999997E+02  0.45594000000E+02  0.51100000000E-03 0.  1.
         11   -1    0    0    0    0 -0.00000000000E+00 -0.00000000000E+00 -0.45593999997E+02  0.45594000000E+02  0.51100000000E-03 0. -1.
    9900012    2    1    2    0    0  0.17618566038E+02 -0.10693699034E+02  0.40054269052E+02  0.46142317215E+02  0.99999950246E+01 0.  0.
         12    1    1    2    0    0 -0.17618566038E+02  0.10693699034E+02 -0.40054269052E+02  0.45045682785E+02  0.00000000000E+00 0. -1.
         11    1    3    3    0    0  0.84966727349E+01 -0.87858327582E+01  0.20963561615E+02  0.24266339252E+02  0.51100000000E-03 0. -1.
        -11    1    3    3    0    0  0.53132278366E+01 -0.41842746079E+00  0.53986380440E+01  0.75862220225E+01  0.51100000000E-03 0.  1.
         12    1    3    3    0    0  0.38086654665E+01 -0.14894388153E+01  0.13692069392E+02  0.14289755941E+02  0.00000000000E+00 0. -1.
</event>
<event>
 7    1  0.1402367E-008  0.4614232E+02  0.7816164E-02  0.1320468E+00
        -11   -1    0    0    0    0  0.00000000000E+00  0.00000000000E+00  0.45593999997E+02  0.45594000000E+02  0.51100000000E-03 0.  1.
         11   -1    0    0    0    0 -0.00000000000E+00 -0.00000000000E+00 -0.45593999997E+02  0.45594000000E+02  0.51100000000E-03 0. -1.
    9900012    2    1    2    0    0 -0.27818922237E+02  0.27833858224E+02  0.21920250573E+02  0.46142317818E+02  0.10000000518E+02 0.  0.
         12    1    1    2    0    0  0.27818922237E+02 -0.27833858224E+02 -0.21920250573E+02  0.45045682182E+02  0.00000000000E+00 0. -1.
         11    1    3    3    0    0 -0.11845370341E+02  0.77223499327E+01  0.62973549397E+01  0.15479152641E+02  0.51100000000E-03 0. -1.
        -11    1    3    3    0    0 -0.15886637214E+02  0.18581322263E+02  0.13164312219E+02  0.27765984504E+02  0.51100000000E-03 0.  1.
         12    1    3    3    0    0 -0.86914681661E-01  0.15301860281E+01  0.24585834143E+01  0.28971806722E+01  0.00000000000E+00 0. -1.
</event>
<event>
 7    1  0.1402367E-008  0.4614232E+02  0.7816164E-02  0.1320468E+00
        -11   -1    0    0    0    0  0.00000000000E+00  0.00000000000E+00  0.45593999997E+02  0.45594000000E+02  0.51100000000E-03 0.  1.
         11   -1    0    0    0    0 -0.00000000000E+00 -0.00000000000E+00 -0.45593999997E+02  0.45594000000E+02  0.51100000000E-03 0. -1.
    9900012    2    1    2    0    0  0.39317107613E+01 -0.74127992811E+01  0.44257265436E+02  0.46142317781E+02  0.10000000179E+02 0.  0.
         12    1    1    2    0    0 -0.39317107613E+01  0.74127992811E+01 -0.44257265436E+02  0.45045682219E+02  0.00000000000E+00 0. -1.
         11    1    3    3    0    0  0.27617290262E+00  0.49301922673E+00  0.30916692531E+00  0.64414585219E+00  0.51100000000E-03 0. -1.
        -11    1    3    3    0    0  0.95738363621E+00 -0.53819635528E+01  0.10417334171E+02  0.11764479019E+02  0.51100000000E-03 0.  1.
        -12    1    3    3    0    0  0.26981542225E+01 -0.25238549550E+01  0.33530764340E+02  0.33733692909E+02  0.00000000000E+00 0.  1.
</event>
<event>
 7    1  0.1402367E-008  0.4614232E+02  0.7816164E-02  0.1320468E+00
        -11   -1    0    0    0    0  0.00000000000E+00  0.00000000000E+00  0.45593999997E+02  0.45594000000E+02  0.51100000000E-03 0.  1.
         11   -1    0    0    0    0 -0.00000000000E+00 -0.00000000000E+00 -0.45593999997E+02  0.45594000000E+02  0.51100000000E-03 0. -1.
    9900012    2    1    2    0    0 -0.44876342439E+02 -0.34545476318E+01  0.18148427040E+01  0.46142315811E+02  0.99999822139E+01 0.  0.
         12    1    1    2    0    0  0.44876342439E+02  0.34545476318E+01 -0.18148427040E+01  0.45045684189E+02  0.00000000000E+00 0. -1.
         11    1    3    3    0    0 -0.10263640695E+01  0.55242524724E+00  0.12710045694E+01  0.17245433406E+01  0.51100000000E-03 0.  1.
        -11    1    3    3    0    0 -0.30958694061E+02 -0.53935346516E+01 -0.27632539922E+00  0.31426220104E+02  0.51100000000E-03 0. -1.
        -12    1    3    3    0    0 -0.12891284308E+02  0.13865617726E+01  0.82016353377E+00  0.12991552366E+02  0.00000000000E+00 0.  1.
</event>
<event>
 7    1  0.1402367E-008  0.4614232E+02  0.7816164E-02  0.1320468E+00
        -11   -1    0    0    0    0  0.00000000000E+00  0.00000000000E+00  0.45593999997E+02  0.45594000000E+02  0.51100000000E-03 0. -1.
         11   -1    0    0    0    0 -0.00000000000E+00 -0.00000000000E+00 -0.45593999997E+02  0.45594000000E+02  0.51100000000E-03 0.  1.
    9900012    2    1    2    0    0 -0.26952333040E+02  0.31368542797E+02 -0.17852162978E+02  0.46142318115E+02  0.10000003228E+02 0.  0.
         12    1    1    2    0    0  0.26952333040E+02 -0.31368542797E+02  0.17852162978E+02  0.45045681885E+02  0.00000000000E+00 0. -1.
         11    1    3    3    0    0 -0.11514323829E+02  0.19007457376E+02 -0.59596160318E+01  0.23008261835E+02  0.51100000000E-03 0. -1.
        -11    1    3    3    0    0 -0.12303661438E+02  0.10622502818E+02 -0.99247525406E+01  0.19045166425E+02  0.51100000000E-03 0.  1.
         12    1    3    3    0    0 -0.31343477735E+01  0.17385826027E+01 -0.19677944053E+01  0.40888898559E+01  0.00000000000E+00 0. -1.
</event>
<event>
 7    1  0.1402367E-008  0.4614232E+02  0.7816164E-02  0.1320468E+00
        -11   -1    0    0    0    0  0.00000000000E+00  0.00000000000E+00  0.45593999997E+02  0.45594000000E+02  0.51100000000E-03 0.  1.
         11   -1    0    0    0    0 -0.00000000000E+00 -0.00000000000E+00 -0.45593999997E+02  0.45594000000E+02  0.51100000000E-03 0. -1.
    9900012    2    1    2    0    0 -0.46851894228E+01 -0.37173358003E+02  0.25006079836E+02  0.46142316811E+02  0.99999913398E+01 0.  0.
         12    1    1    2    0    0  0.46851894228E+01  0.37173358003E+02 -0.25006079836E+02  0.45045683189E+02  0.00000000000E+00 0. -1.
         11    1    3    3    0    0  0.99785163022E+00 -0.57366775855E+01  0.87894958627E+00  0.58887800292E+01  0.51100000000E-03 0. -1.
        -11    1    3    3    0    0 -0.35000273896E+01 -0.16506139714E+02  0.10182544319E+02  0.19707537874E+02  0.51100000000E-03 0.  1.
         12    1    3    3    0    0 -0.21830136634E+01 -0.14930540704E+02  0.13944585930E+02  0.20545998908E+02  0.00000000000E+00 0. -1.
</event>
<event>
 7    1  0.1402367E-008  0.4614232E+02  0.7816164E-02  0.1320468E+00
        -11   -1    0    0    0    0  0.00000000000E+00  0.00000000000E+00  0.45593999997E+02  0.45594000000E+02  0.51100000000E-03 0.  1.
         11   -1    0    0    0    0 -0.00000000000E+00 -0.00000000000E+00 -0.45593999997E+02  0.45594000000E+02  0.51100000000E-03 0. -1.
    9900012    2    1    2    0    0 -0.13180464244E+02  0.24116115821E+02  0.35690363186E+02  0.46142315364E+02  0.99999781370E+01 0.  0.
         12    1    1    2    0    0  0.13180464244E+02 -0.24116115821E+02 -0.35690363186E+02  0.45045684636E+02  0.00000000000E+00 0. -1.
         11    1    3    3    0    0 -0.67357274076E+01  0.67214012527E+01  0.17576550425E+02  0.19987055401E+02  0.51100000000E-03 0. -1.
        -11    1    3    3    0    0 -0.31742546287E+01  0.13044465180E+02  0.12902045087E+02  0.18619794090E+02  0.51100000000E-03 0.  1.
         12    1    3    3    0    0 -0.32704822082E+01  0.43502493877E+01  0.52117676749E+01  0.75354658718E+01  0.00000000000E+00 0. -1.
</event>
<event>
 7    1  0.1402367E-008  0.4614232E+02  0.7816164E-02  0.1320468E+00
        -11   -1    0    0    0    0  0.00000000000E+00  0.00000000000E+00  0.45593999997E+02  0.45594000000E+02  0.51100000000E-03 0.  1.
         11   -1    0    0    0    0 -0.00000000000E+00 -0.00000000000E+00 -0.45593999997E+02  0.45594000000E+02  0.51100000000E-03 0. -1.
    9900012    2    1    2    0    0 -0.11631600339E+02 -0.35460000016E+02  0.25227123064E+02  0.46142318013E+02  0.10000002298E+02 0.  0.
         12    1    1    2    0    0  0.11631600339E+02  0.35460000016E+02 -0.25227123064E+02  0.45045681987E+02  0.00000000000E+00 0. -1.
         11    1    3    3    0    0 -0.57335879989E+01 -0.23590315428E+02  0.15553600459E+02  0.28832126193E+02  0.51100000000E-03 0. -1.
        -11    1    3    3    0    0 -0.29883797545E+01 -0.10447458664E+02  0.87243129431E+01  0.13935330734E+02  0.51100000000E-03 0.  1.
         12    1    3    3    0    0 -0.29096325858E+01 -0.14222259244E+01  0.94920966198E+00  0.33748610855E+01  0.00000000000E+00 0. -1.
</event>
<event>
 7    1  0.1402367E-008  0.4614232E+02  0.7816164E-02  0.1320468E+00
        -11   -1    0    0    0    0  0.00000000000E+00  0.00000000000E+00  0.45593999997E+02  0.45594000000E+02  0.51100000000E-03 0.  1.
         11   -1    0    0    0    0 -0.00000000000E+00 -0.00000000000E+00 -0.45593999997E+02  0.45594000000E+02  0.51100000000E-03 0. -1.
    9900012    2    1    2    0    0  0.39618188091E+02 -0.14389267954E+02  0.15889040592E+02  0.46142317956E+02  0.10000001775E+02 0.  0.
         12    1    1    2    0    0 -0.39618188091E+02  0.14389267954E+02 -0.15889040592E+02  0.45045682044E+02  0.00000000000E+00 0. -1.
         11    1    3    3    0    0  0.68751995944E+01 -0.22582959312E+01  0.12452650306E+01  0.73429527598E+01  0.51100000000E-03 0. -1.
        -11    1    3    3    0    0  0.88741552306E+01 -0.54388147468E+01  0.80220909316E+01  0.13140977136E+02  0.51100000000E-03 0.  1.
        -12    1    3    3    0    0  0.23868833266E+02 -0.66921572759E+01  0.66216846299E+01  0.25658388060E+02  0.00000000000E+00 0.  1.
</event>
<event>
 7    1  0.1402367E-008  0.4614232E+02  0.7816164E-02  0.1320468E+00
        -11   -1    0    0    0    0  0.00000000000E+00  0.00000000000E+00  0.45593999997E+02  0.45594000000E+02  0.51100000000E-03 0.  1.
         11   -1    0    0    0    0 -0.00000000000E+00 -0.00000000000E+00 -0.45593999997E+02  0.45594000000E+02  0.51100000000E-03 0. -1.
    9900012    2    1    2    0    0  0.39096180421E+02 -0.21149095630E+02  0.73019165840E+01  0.46142317018E+02  0.99999932265E+01 0.  0.
         12    1    1    2    0    0 -0.39096180421E+02  0.21149095630E+02 -0.73019165840E+01  0.45045682982E+02  0.00000000000E+00 0. -1.
         11    1    3    3    0    0 -0.95669204195E-01  0.37778606814E-01  0.31031820824E+00  0.32692120037E+00  0.51100000000E-03 0. -1.
        -11    1    3    3    0    0  0.17981173827E+02 -0.12165552921E+02 -0.64560109337E-01  0.21710077345E+02  0.51100000000E-03 0.  1.
        -12    1    3    3    0    0  0.21210675798E+02 -0.90213213163E+01  0.70561584851E+01  0.24105318473E+02  0.00000000000E+00 0.  1.
</event>
<event>
 7    1  0.1402367E-008  0.4614232E+02  0.7816164E-02  0.1320468E+00
        -11   -1    0    0    0    0  0.00000000000E+00  0.00000000000E+00  0.45593999997E+02  0.45594000000E+02  0.51100000000E-03 0.  1.
         11   -1    0    0    0    0 -0.00000000000E+00 -0.00000000000E+00 -0.45593999997E+02  0.45594000000E+02  0.51100000000E-03 0. -1.
    9900012    2    1    2    0    0  0.22535836645E+02  0.25262929938E+02  0.29715887064E+02  0.46142317562E+02  0.99999981809E+01 0.  0.
         12    1    1    2    0    0 -0.22535836645E+02 -0.25262929938E+02 -0.29715887064E+02  0.45045682438E+02  0.00000000000E+00 0. -1.
         11    1    3    3    0    0  0.72721039276E+01  0.10095652207E+02  0.82461735444E+01  0.14926656270E+02  0.51100000000E-03 0. -1.
        -11    1    3    3    0    0  0.85963292213E+01  0.38881321042E+01  0.74061788987E+01  0.11994412594E+02  0.51100000000E-03 0.  1.
        -12    1    3    3    0    0  0.66674034957E+01  0.11279145627E+02  0.14063534621E+02  0.19221248698E+02  0.00000000000E+00 0.  1.
</event>
<event>
 7    1  0.1402367E-008  0.4614231E+02  0.7816164E-02  0.1320468E+00
        -11   -1    0    0    0    0  0.00000000000E+00  0.00000000000E+00  0.45593999997E+02  0.45594000000E+02  0.51100000000E-03 0. -1.
         11   -1    0    0    0    0 -0.00000000000E+00 -0.00000000000E+00 -0.45593999997E+02  0.45594000000E+02  0.51100000000E-03 0.  1.
    9900012    2    1    2    0    0 -0.16628015249E+02 -0.17383191196E+02 -0.38084747520E+02  0.46142309629E+02  0.99999258476E+01 0.  0.
         12    1    1    2    0    0  0.16628015249E+02  0.17383191196E+02  0.38084747520E+02  0.45045690371E+02  0.00000000000E+00 0. -1.
         11    1    3    3    0    0 -0.38250083753E+01 -0.47498232509E+01 -0.73471644065E+01  0.95484205533E+01  0.51100000000E-03 0. -1.
        -11    1    3    3    0    0  0.11188158561E+01 -0.17218892800E+01 -0.21233552938E+01  0.29538601147E+01  0.51100000000E-03 0.  1.
        -12    1    3    3    0    0 -0.13921822730E+02 -0.10911478665E+02 -0.28614227820E+02  0.33640028961E+02  0.00000000000E+00 0.  1.
</event>
<event>
 7    1  0.1402367E-008  0.4614232E+02  0.7816164E-02  0.1320468E+00
        -11   -1    0    0    0    0  0.00000000000E+00  0.00000000000E+00  0.45593999997E+02  0.45594000000E+02  0.51100000000E-03 0.  1.
         11   -1    0    0    0    0 -0.00000000000E+00 -0.00000000000E+00 -0.45593999997E+02  0.45594000000E+02  0.51100000000E-03 0. -1.
    9900012    2    1    2    0    0 -0.56728010687E+01 -0.63805415824E+01  0.44229192812E+02  0.46142317858E+02  0.10000000885E+02 0.  0.
         12    1    1    2    0    0  0.56728010687E+01  0.63805415824E+01 -0.44229192812E+02  0.45045682142E+02  0.00000000000E+00 0. -1.
         11    1    3    3    0    0  0.23735464673E+01 -0.38655208649E+01  0.18042412124E+02  0.18603886957E+02  0.51100000000E-03 0. -1.
        -11    1    3    3    0    0 -0.69751802381E+01 -0.17298220293E+01  0.22492350572E+02  0.23612523332E+02  0.51100000000E-03 0.  1.
         12    1    3    3    0    0 -0.10711672979E+01 -0.78519868820E+00  0.36944301156E+01  0.39259075688E+01  0.00000000000E+00 0. -1.
</event>
<event>
 7    1  0.1402367E-008  0.4614232E+02  0.7816164E-02  0.1320468E+00
        -11   -1    0    0    0    0  0.00000000000E+00  0.00000000000E+00  0.45593999997E+02  0.45594000000E+02  0.51100000000E-03 0. -1.
         11   -1    0    0    0    0 -0.00000000000E+00 -0.00000000000E+00 -0.45593999997E+02  0.45594000000E+02  0.51100000000E-03 0.  1.
    9900012    2    1    2    0    0 -0.34110613457E+02  0.15732279241E+02 -0.24861112678E+02  0.46142317808E+02  0.10000000427E+02 0.  0.
         12    1    1    2    0    0  0.34110613457E+02 -0.15732279241E+02  0.24861112678E+02  0.45045682192E+02  0.00000000000E+00 0. -1.
         11    1    3    3    0    0 -0.86828729261E+01  0.43099928407E+00 -0.54661987330E+01  0.10269243959E+02  0.51100000000E-03 0. -1.
        -11    1    3    3    0    0 -0.17874422988E+02  0.10592460856E+02 -0.10461776729E+02  0.23262501945E+02  0.51100000000E-03 0.  1.
         12    1    3    3    0    0 -0.75533175433E+01  0.47088191008E+01 -0.89331372165E+01  0.12610571905E+02  0.00000000000E+00 0. -1.
</event>
<event>
 7    1  0.1402367E-008  0.4614232E+02  0.7816164E-02  0.1320468E+00
        -11   -1    0    0    0    0  0.00000000000E+00  0.00000000000E+00  0.45593999997E+02  0.45594000000E+02  0.51100000000E-03 0. -1.
         11   -1    0    0    0    0 -0.00000000000E+00 -0.00000000000E+00 -0.45593999997E+02  0.45594000000E+02  0.51100000000E-03 0.  1.
    9900012    2    1    2    0    0 -0.11748947863E+02 -0.33213559665E+02  0.28070182839E+02  0.46142317786E+02  0.10000000229E+02 0.  0.
         12    1    1    2    0    0  0.11748947863E+02  0.33213559665E+02 -0.28070182839E+02  0.45045682214E+02  0.00000000000E+00 0. -1.
         11    1    3    3    0    0 -0.37645273266E+00  0.57598094980E+00  0.12423909110E+01  0.14202134175E+01  0.51100000000E-03 0. -1.
        -11    1    3    3    0    0 -0.53347237622E+01 -0.11301791452E+02  0.93595339608E+01  0.15613796587E+02  0.51100000000E-03 0.  1.
         12    1    3    3    0    0 -0.60377713678E+01 -0.22487749163E+02  0.17468257967E+02  0.29108307782E+02  0.00000000000E+00 0. -1.
</event>
<event>
 7    1  0.1402367E-008  0.4614232E+02  0.7816164E-02  0.1320468E+00
        -11   -1    0    0    0    0  0.00000000000E+00  0.00000000000E+00  0.45593999997E+02  0.45594000000E+02  0.51100000000E-03 0.  1.
         11   -1    0    0    0    0 -0.00000000000E+00 -0.00000000000E+00 -0.45593999997E+02  0.45594000000E+02  0.51100000000E-03 0. -1.
    9900012    2    1    2    0    0  0.15395343251E+02  0.35356026767E+02  0.23281932471E+02  0.46142316499E+02  0.99999884878E+01 0.  0.
         12    1    1    2    0    0 -0.15395343251E+02 -0.35356026767E+02 -0.23281932471E+02  0.45045683501E+02  0.00000000000E+00 0. -1.
         11    1    3    3    0    0  0.99667860640E+01  0.17468770729E+02  0.71355172456E+01  0.21340346339E+02  0.51100000000E-03 0. -1.
        -11    1    3    3    0    0  0.17857054203E+01  0.90193881392E+01  0.70491928280E+01  0.11585733729E+02  0.51100000000E-03 0.  1.
         12    1    3    3    0    0  0.36428517665E+01  0.88678678984E+01  0.90972223971E+01  0.13216236431E+02  0.00000000000E+00 0. -1.
</event>
<event>
 7    1  0.1402367E-008  0.4614232E+02  0.7816164E-02  0.1320468E+00
        -11   -1    0    0    0    0  0.00000000000E+00  0.00000000000E+00  0.45593999997E+02  0.45594000000E+02  0.51100000000E-03 0. -1.
         11   -1    0    0    0    0 -0.00000000000E+00 -0.00000000000E+00 -0.45593999997E+02  0.45594000000E+02  0.51100000000E-03 0.  1.
    9900012    2    1    2    0    0 -0.41920619717E+02  0.12857398650E+02  0.10318057259E+02  0.46142319151E+02  0.10000012677E+02 0.  0.
         12    1    1    2    0    0  0.41920619717E+02 -0.12857398650E+02 -0.10318057259E+02  0.45045680849E+02  0.00000000000E+00 0. -1.
         11    1    3    3    0    0 -0.76044367835E+01  0.56390708905E+01  0.32424842349E+01  0.10007011721E+02  0.51100000000E-03 0. -1.
        -11    1    3    3    0    0 -0.69640079987E+01  0.14837991802E+01  0.35831879580E+01  0.79710917456E+01  0.51100000000E-03 0.  1.
        -12    1    3    3    0    0 -0.27352174935E+02  0.57345285795E+01  0.34923850663E+01  0.28164215685E+02  0.00000000000E+00 0.  1.
</event>
<event>
 7    1  0.1402367E-008  0.4614232E+02  0.7816164E-02  0.1320468E+00
        -11   -1    0    0    0    0  0.00000000000E+00  0.00000000000E+00  0.45593999997E+02  0.45594000000E+02  0.51100000000E-03 0.  1.
         11   -1    0    0    0    0 -0.00000000000E+00 -0.00000000000E+00 -0.45593999997E+02  0.45594000000E+02  0.51100000000E-03 0. -1.
    9900012    2    1    2    0    0 -0.13848183487E+01 -0.14691416038E+02  0.42560052515E+02  0.46142317664E+02  0.99999991123E+01 0.  0.
         12    1    1    2    0    0  0.13848183487E+01  0.14691416038E+02 -0.42560052515E+02  0.45045682336E+02  0.00000000000E+00 0. -1.
         11    1    3    3    0    0 -0.13984525888E+00  0.50656379344E+00  0.15898735590E+01  0.16744735794E+01  0.51100000000E-03 0. -1.
        -11    1    3    3    0    0 -0.11562723367E+01 -0.64162677410E+01  0.78561328661E+01  0.10209029401E+02  0.51100000000E-03 0.  1.
        -12    1    3    3    0    0 -0.88700753086E-01 -0.87817120901E+01  0.33114046090E+02  0.34258814683E+02  0.00000000000E+00 0.  1.
</event>
<event>
 7    1  0.1402367E-008  0.4614232E+02  0.7816164E-02  0.1320468E+00
        -11   -1    0    0    0    0  0.00000000000E+00  0.00000000000E+00  0.45593999997E+02  0.45594000000E+02  0.51100000000E-03 0. -1.
         11   -1    0    0    0    0 -0.00000000000E+00 -0.00000000000E+00 -0.45593999997E+02  0.45594000000E+02  0.51100000000E-03 0.  1.
    9900012    2    1    2    0    0 -0.25558863282E+02  0.37085590206E+02  0.71904790621E+00  0.46142317376E+02  0.99999964892E+01 0.  0.
         12    1    1    2    0    0  0.25558863282E+02 -0.37085590206E+02 -0.71904790621E+00  0.45045682624E+02  0.00000000000E+00 0. -1.
         11    1    3    3    0    0 -0.14409889143E+02  0.28535607956E+02 -0.61949336459E+00  0.31973576572E+02  0.51100000000E-03 0. -1.
        -11    1    3    3    0    0 -0.93837861584E+01  0.74115408741E+01  0.15496990508E+01  0.12057692491E+02  0.51100000000E-03 0.  1.
         12    1    3    3    0    0 -0.17651879804E+01  0.11384413755E+01 -0.21115777999E+00  0.21110483130E+01  0.00000000000E+00 0. -1.
</event>
<event>
 7    1  0.1402367E-008  0.4614231E+02  0.7816164E-02  0.1320468E+00
        -11   -1    0    0    0    0  0.00000000000E+00  0.00000000000E+00  0.45593999997E+02  0.45594000000E+02  0.51100000000E-03 0. -1.
         11   -1    0    0    0    0 -0.00000000000E+00 -0.00000000000E+00 -0.45593999997E+02  0.45594000000E+02  0.51100000000E-03 0.  1.
    9900012    2    1    2    0    0 -0.18881423071E+02  0.40242489257E+02  0.72902531404E+01  0.46142313529E+02  0.99999614109E+01 0.  0.
         12    1    1    2    0    0  0.18881423071E+02 -0.40242489257E+02 -0.72902531404E+01  0.45045686471E+02  0.00000000000E+00 0. -1.
         11    1    3    3    0    0 -0.11990503198E+01  0.12996198662E+02  0.21574426324E+01  0.13228509376E+02  0.51100000000E-03 0. -1.
        -11    1    3    3    0    0 -0.16843819432E+02  0.26154082357E+02  0.51749380879E+01  0.31536173856E+02  0.51100000000E-03 0.  1.
         12    1    3    3    0    0 -0.83855331910E+00  0.10922082372E+01 -0.42127579903E-01  0.13776302970E+01  0.00000000000E+00 0. -1.
</event>
<event>
 7    1  0.1402367E-008  0.4614232E+02  0.7816164E-02  0.1320468E+00
        -11   -1    0    0    0    0  0.00000000000E+00  0.00000000000E+00  0.45593999997E+02  0.45594000000E+02  0.51100000000E-03 0. -1.
         11   -1    0    0    0    0 -0.00000000000E+00 -0.00000000000E+00 -0.45593999997E+02  0.45594000000E+02  0.51100000000E-03 0.  1.
    9900012    2    1    2    0    0 -0.88368436192E+01 -0.35543467066E+02  0.26223759996E+02  0.46142318247E+02  0.10000004432E+02 0.  0.
         12    1    1    2    0    0  0.88368436192E+01  0.35543467066E+02 -0.26223759996E+02  0.45045681753E+02  0.00000000000E+00 0. -1.
         11    1    3    3    0    0 -0.35844949788E+01 -0.20070269794E+02  0.10889248026E+02  0.23113633568E+02  0.51100000000E-03 0. -1.
        -11    1    3    3    0    0 -0.36907193531E+01 -0.12271222299E+02  0.14535979220E+02  0.19377796526E+02  0.51100000000E-03 0.  1.
        -12    1    3    3    0    0 -0.15616292873E+01 -0.32019749729E+01  0.79853275089E+00  0.36508881539E+01  0.00000000000E+00 0.  1.
</event>
<event>
 7    1  0.1402367E-008  0.4614232E+02  0.7816164E-02  0.1320468E+00
        -11   -1    0    0    0    0  0.00000000000E+00  0.00000000000E+00  0.45593999997E+02  0.45594000000E+02  0.51100000000E-03 0. -1.
         11   -1    0    0    0    0 -0.00000000000E+00 -0.00000000000E+00 -0.45593999997E+02  0.45594000000E+02  0.51100000000E-03 0.  1.
    9900012    2    1    2    0    0  0.27140519787E+02 -0.26672726154E+02 -0.24105422179E+02  0.46142317485E+02  0.99999974845E+01 0.  0.
         12    1    1    2    0    0 -0.27140519787E+02  0.26672726154E+02  0.24105422179E+02  0.45045682515E+02  0.00000000000E+00 0. -1.
         11    1    3    3    0    0  0.13429198779E+02 -0.10396874440E+02 -0.12191717370E+02  0.20906371054E+02  0.51100000000E-03 0. -1.
        -11    1    3    3    0    0  0.39091143617E+01 -0.23849135175E+01 -0.18760346484E+00  0.45830320640E+01  0.51100000000E-03 0.  1.
        -12    1    3    3    0    0  0.98022066462E+01 -0.13890938196E+02 -0.11726101345E+02  0.20652914367E+02  0.00000000000E+00 0.  1.
</event>
<event>
 7    1  0.1402367E-008  0.4614232E+02  0.7816164E-02  0.1320468E+00
        -11   -1    0    0    0    0  0.00000000000E+00  0.00000000000E+00  0.45593999997E+02  0.45594000000E+02  0.51100000000E-03 0.  1.
         11   -1    0    0    0    0 -0.00000000000E+00 -0.00000000000E+00 -0.45593999997E+02  0.45594000000E+02  0.51100000000E-03 0. -1.
    9900012    2    1    2    0    0  0.89477744451E+01 -0.43822029264E+02 -0.53553810221E+01  0.46142322935E+02  0.10000047180E+02 0.  0.
         12    1    1    2    0    0 -0.89477744451E+01  0.43822029264E+02  0.53553810221E+01  0.45045677065E+02  0.00000000000E+00 0. -1.
         11    1    3    3    0    0  0.69284646857E+01 -0.30684881763E+02 -0.43089242494E+01  0.31751101086E+02  0.51100000000E-03 0.  1.
        -11    1    3    3    0    0 -0.13303602896E+01 -0.81946941209E+01  0.14335879553E+00  0.83032175836E+01  0.51100000000E-03 0. -1.
         12    1    3    3    0    0  0.33496700489E+01 -0.49424533802E+01 -0.11898155682E+01  0.60880042657E+01  0.00000000000E+00 0. -1.
</event>
<event>
 7    1  0.1402367E-008  0.4614232E+02  0.7816164E-02  0.1320468E+00
        -11   -1    0    0    0    0  0.00000000000E+00  0.00000000000E+00  0.45593999997E+02  0.45594000000E+02  0.51100000000E-03 0.  1.
         11   -1    0    0    0    0 -0.00000000000E+00 -0.00000000000E+00 -0.45593999997E+02  0.45594000000E+02  0.51100000000E-03 0. -1.
    9900012    2    1    2    0    0  0.47090779743E+01 -0.30807260900E+02  0.32524617486E+02  0.46142317830E+02  0.10000000628E+02 0.  0.
         12    1    1    2    0    0 -0.47090779743E+01  0.30807260900E+02 -0.32524617486E+02  0.45045682170E+02  0.00000000000E+00 0. -1.
         11    1    3    3    0    0  0.40109093461E+01 -0.18844163776E+02  0.18698202587E+02  0.26847954902E+02  0.51100000000E-03 0.  1.
        -11    1    3    3    0    0 -0.18641970958E+00 -0.11376438566E+02  0.94484706397E+01  0.14789580943E+02  0.51100000000E-03 0. -1.
        -12    1    3    3    0    0  0.88458833771E+00 -0.58665855747E+00  0.43779442599E+01  0.45047819851E+01  0.00000000000E+00 0.  1.
</event>
<event>
 7    1  0.1402367E-008  0.4614232E+02  0.7816164E-02  0.1320468E+00
        -11   -1    0    0    0    0  0.00000000000E+00  0.00000000000E+00  0.45593999997E+02  0.45594000000E+02  0.51100000000E-03 0. -1.
         11   -1    0    0    0    0 -0.00000000000E+00 -0.00000000000E+00 -0.45593999997E+02  0.45594000000E+02  0.51100000000E-03 0.  1.
    9900012    2    1    2    0    0  0.32624844683E+02 -0.75739885052E+01 -0.30122545633E+02  0.46142317100E+02  0.99999939737E+01 0.  0.
         12    1    1    2    0    0 -0.32624844683E+02  0.75739885052E+01  0.30122545633E+02  0.45045682900E+02  0.00000000000E+00 0. -1.
         11    1    3    3    0    0 -0.54813324253E+00 -0.55078003184E-02 -0.53168409110E+00  0.76365477886E+00  0.51100000000E-03 0. -1.
        -11    1    3    3    0    0  0.26508912159E+02 -0.56926253973E+01 -0.26062765362E+02  0.37608458442E+02  0.51100000000E-03 0.  1.
        -12    1    3    3    0    0  0.66640657664E+01 -0.18758553076E+01 -0.35280961796E+01  0.77702038793E+01  0.00000000000E+00 0.  1.
</event>
<event>
 7    1  0.1402367E-008  0.4614231E+02  0.7816164E-02  0.1320468E+00
        -11   -1    0    0    0    0  0.00000000000E+00  0.00000000000E+00  0.45593999997E+02  0.45594000000E+02  0.51100000000E-03 0.  1.
         11   -1    0    0    0    0 -0.00000000000E+00 -0.00000000000E+00 -0.45593999997E+02  0.45594000000E+02  0.51100000000E-03 0. -1.
    9900012    2    1    2    0    0  0.14852670601E+02 -0.26510141835E+02  0.33252433707E+02  0.46142314396E+02  0.99999693120E+01 0.  0.
         12    1    1    2    0    0 -0.14852670601E+02  0.26510141835E+02 -0.33252433707E+02  0.45045685604E+02  0.00000000000E+00 0. -1.
         11    1    3    3    0    0  0.91415567197E+01 -0.91143152650E+01  0.16350464134E+02  0.20832102142E+02  0.51100000000E-03 0. -1.
        -11    1    3    3    0    0  0.29968735170E+01 -0.14680028454E+02  0.13009447824E+02  0.19842636399E+02  0.51100000000E-03 0.  1.
        -12    1    3    3    0    0  0.27142403645E+01 -0.27157981155E+01  0.38925217497E+01  0.54675758552E+01  0.00000000000E+00 0.  1.
</event>
<event>
 7    1  0.1402367E-008  0.4614232E+02  0.7816164E-02  0.1320468E+00
        -11   -1    0    0    0    0  0.00000000000E+00  0.00000000000E+00  0.45593999997E+02  0.45594000000E+02  0.51100000000E-03 0.  1.
         11   -1    0    0    0    0 -0.00000000000E+00 -0.00000000000E+00 -0.45593999997E+02  0.45594000000E+02  0.51100000000E-03 0. -1.
    9900012    2    1    2    0    0  0.28984596240E+02 -0.34103980825E+02 -0.50916785774E+01  0.46142317432E+02  0.99999969953E+01 0.  0.
         12    1    1    2    0    0 -0.28984596240E+02  0.34103980825E+02  0.50916785774E+01  0.45045682568E+02  0.00000000000E+00 0. -1.
         11    1    3    3    0    0  0.50261708707E+01 -0.28548636104E+01  0.10456784162E+01  0.58741878985E+01  0.51100000000E-03 0. -1.
        -11    1    3    3    0    0  0.18297964453E+02 -0.24253189276E+02 -0.71522669047E+01  0.31211978715E+02  0.51100000000E-03 0.  1.
        -12    1    3    3    0    0  0.56604609168E+01 -0.69959279384E+01  0.10149099111E+01  0.90561508179E+01  0.00000000000E+00 0.  1.
</event>
<event>
 7    1  0.1402367E-008  0.4614232E+02  0.7816164E-02  0.1320468E+00
        -11   -1    0    0    0    0  0.00000000000E+00  0.00000000000E+00  0.45593999997E+02  0.45594000000E+02  0.51100000000E-03 0. -1.
         11   -1    0    0    0    0 -0.00000000000E+00 -0.00000000000E+00 -0.45593999997E+02  0.45594000000E+02  0.51100000000E-03 0.  1.
    9900012    2    1    2    0    0  0.40726313430E+02  0.16727485108E+02 -0.95221844863E+01  0.46142319174E+02  0.10000012886E+02 0.  0.
         12    1    1    2    0    0 -0.40726313430E+02 -0.16727485108E+02  0.95221844863E+01  0.45045680826E+02  0.00000000000E+00 0. -1.
         11    1    3    3    0    0  0.14887827351E+02  0.83271141312E+01 -0.40570812479E+00  0.17063201116E+02  0.51100000000E-03 0. -1.
        -11    1    3    3    0    0  0.19608036131E+01 -0.60347557847E+00 -0.11162576662E+01  0.23355866547E+01  0.51100000000E-03 0.  1.
        -12    1    3    3    0    0  0.23877682466E+02  0.90038465550E+01 -0.80002186953E+01  0.26743531403E+02  0.00000000000E+00 0.  1.
</event>
<event>
 7    1  0.1402367E-008  0.4614232E+02  0.7816164E-02  0.1320468E+00
        -11   -1    0    0    0    0  0.00000000000E+00  0.00000000000E+00  0.45593999997E+02  0.45594000000E+02  0.51100000000E-03 0.  1.
         11   -1    0    0    0    0 -0.00000000000E+00 -0.00000000000E+00 -0.45593999997E+02  0.45594000000E+02  0.51100000000E-03 0. -1.
    9900012    2    1    2    0    0  0.48654304437E+01  0.44408153550E+02 -0.57755518287E+01  0.46142317476E+02  0.99999973978E+01 0.  0.
         12    1    1    2    0    0 -0.48654304437E+01 -0.44408153550E+02  0.57755518287E+01  0.45045682524E+02  0.00000000000E+00 0. -1.
         11    1    3    3    0    0  0.22507268901E+01  0.10571162647E+02  0.55690827668E+00  0.10822448814E+02  0.51100000000E-03 0.  1.
        -11    1    3    3    0    0  0.53930565765E+00  0.99660412356E+00 -0.17664778802E+01  0.20986935779E+01  0.51100000000E-03 0. -1.
         12    1    3    3    0    0  0.20753978960E+01  0.32840386779E+02 -0.45659822252E+01  0.33221175083E+02  0.00000000000E+00 0. -1.
</event>
<event>
 7    1  0.1402367E-008  0.4614232E+02  0.7816164E-02  0.1320468E+00
        -11   -1    0    0    0    0  0.00000000000E+00  0.00000000000E+00  0.45593999997E+02  0.45594000000E+02  0.51100000000E-03 0.  1.
         11   -1    0    0    0    0 -0.00000000000E+00 -0.00000000000E+00 -0.45593999997E+02  0.45594000000E+02  0.51100000000E-03 0. -1.
    9900012    2    1    2    0    0  0.27632562809E+02  0.12438504339E+02  0.33329246009E+02  0.46142316998E+02  0.99999930440E+01 0.  0.
         12    1    1    2    0    0 -0.27632562809E+02 -0.12438504339E+02 -0.33329246009E+02  0.45045683002E+02  0.00000000000E+00 0. -1.
         11    1    3    3    0    0  0.47345601746E+01  0.53864880394E+01  0.78677590513E+01  0.10645747799E+02  0.51100000000E-03 0. -1.
        -11    1    3    3    0    0  0.15339468471E+02  0.18136181356E+01  0.17402327699E+02  0.23268637977E+02  0.51100000000E-03 0.  1.
         12    1    3    3    0    0  0.75585341627E+01  0.52383981640E+01  0.80591592592E+01  0.12227931222E+02  0.00000000000E+00 0. -1.
</event>
<event>
 7    1  0.1402367E-008  0.4614232E+02  0.7816164E-02  0.1320468E+00
        -11   -1    0    0    0    0  0.00000000000E+00  0.00000000000E+00  0.45593999997E+02  0.45594000000E+02  0.51100000000E-03 0.  1.
         11   -1    0    0    0    0 -0.00000000000E+00 -0.00000000000E+00 -0.45593999997E+02  0.45594000000E+02  0.51100000000E-03 0. -1.
    9900012    2    1    2    0    0 -0.30567191139E+01 -0.39781215804E+02  0.20909919175E+02  0.46142318936E+02  0.10000010715E+02 0.  0.
         12    1    1    2    0    0  0.30567191139E+01  0.39781215804E+02 -0.20909919175E+02  0.45045681064E+02  0.00000000000E+00 0. -1.
         11    1    3    3    0    0 -0.77869358975E+00 -0.40068692097E+01  0.46435209390E+01  0.61825279249E+01  0.51100000000E-03 0. -1.
        -11    1    3    3    0    0 -0.30143864976E+01 -0.25564776878E+02  0.84933149168E+01  0.27106839383E+02  0.51100000000E-03 0.  1.
         12    1    3    3    0    0  0.73636097349E+00 -0.10209569717E+02  0.77730833188E+01  0.12852951628E+02  0.00000000000E+00 0. -1.
</event>
<event>
 7    1  0.1402367E-008  0.4614232E+02  0.7816164E-02  0.1320468E+00
        -11   -1    0    0    0    0  0.00000000000E+00  0.00000000000E+00  0.45593999997E+02  0.45594000000E+02  0.51100000000E-03 0. -1.
         11   -1    0    0    0    0 -0.00000000000E+00 -0.00000000000E+00 -0.45593999997E+02  0.45594000000E+02  0.51100000000E-03 0.  1.
    9900012    2    1    2    0    0  0.63081926293E+01  0.31506179771E+02 -0.31570251087E+02  0.46142318612E+02  0.10000007756E+02 0.  0.
         12    1    1    2    0    0 -0.63081926293E+01 -0.31506179771E+02  0.31570251087E+02  0.45045681388E+02  0.00000000000E+00 0. -1.
         11    1    3    3    0    0  0.20097258966E+01  0.18875246230E+01 -0.37475584077E+01  0.46525199260E+01  0.51100000000E-03 0. -1.
        -11    1    3    3    0    0  0.45276697283E+00  0.20898738318E+02 -0.16119076309E+02  0.26396721056E+02  0.51100000000E-03 0.  1.
        -12    1    3    3    0    0  0.38456997599E+01  0.87199168306E+01 -0.11703616371E+02  0.15093077630E+02  0.00000000000E+00 0.  1.
</event>
<event>
 7    1  0.1402367E-008  0.4614232E+02  0.7816164E-02  0.1320468E+00
        -11   -1    0    0    0    0  0.00000000000E+00  0.00000000000E+00  0.45593999997E+02  0.45594000000E+02  0.51100000000E-03 0. -1.
         11   -1    0    0    0    0 -0.00000000000E+00 -0.00000000000E+00 -0.45593999997E+02  0.45594000000E+02  0.51100000000E-03 0.  1.
    9900012    2    1    2    0    0 -0.41833661409E+02  0.14826660097E+02 -0.76960024415E+01  0.46142317298E+02  0.99999957729E+01 0.  0.
         12    1    1    2    0    0  0.41833661409E+02 -0.14826660097E+02  0.76960024415E+01  0.45045682702E+02  0.00000000000E+00 0. -1.
         11    1    3    3    0    0 -0.50588826931E+01  0.25495246966E+01 -0.39476782192E+01  0.69048196113E+01  0.51100000000E-03 0. -1.
        -11    1    3    3    0    0 -0.15643685215E+02  0.65846066690E+01 -0.36099966735E+01  0.17352636927E+02  0.51100000000E-03 0.  1.
         12    1    3    3    0    0 -0.21131093502E+02  0.56925287315E+01 -0.13832754870E+00  0.21884860759E+02  0.00000000000E+00 0. -1.
</event>
<event>
 7    1  0.1402367E-008  0.4614232E+02  0.7816164E-02  0.1320468E+00
        -11   -1    0    0    0    0  0.00000000000E+00  0.00000000000E+00  0.45593999997E+02  0.45594000000E+02  0.51100000000E-03 0. -1.
         11   -1    0    0    0    0 -0.00000000000E+00 -0.00000000000E+00 -0.45593999997E+02  0.45594000000E+02  0.51100000000E-03 0.  1.
    9900012    2    1    2    0    0  0.98549878692E+01  0.17871251178E+02 -0.40157328344E+02  0.46142318473E+02  0.10000006489E+02 0.  0.
         12    1    1    2    0    0 -0.98549878692E+01 -0.17871251178E+02  0.40157328344E+02  0.45045681527E+02  0.00000000000E+00 0. -1.
         11    1    3    3    0    0 -0.15686478407E+01  0.53565307225E+01 -0.10648370496E+02  0.12022515208E+02  0.51100000000E-03 0. -1.
        -11    1    3    3    0    0  0.57207191032E+01  0.77687262141E+01 -0.15238422268E+02  0.18035776877E+02  0.51100000000E-03 0.  1.
         12    1    3    3    0    0  0.57029166066E+01  0.47459942414E+01 -0.14270535579E+02  0.16084026388E+02  0.00000000000E+00 0. -1.
</event>
<event>
 7    1  0.1402367E-008  0.4614232E+02  0.7816164E-02  0.1320468E+00
        -11   -1    0    0    0    0  0.00000000000E+00  0.00000000000E+00  0.45593999997E+02  0.45594000000E+02  0.51100000000E-03 0.  1.
         11   -1    0    0    0    0 -0.00000000000E+00 -0.00000000000E+00 -0.45593999997E+02  0.45594000000E+02  0.51100000000E-03 0. -1.
    9900012    2    1    2    0    0 -0.98694008438E+01 -0.43738965309E+02  0.43140859090E+01  0.46142317670E+02  0.99999991725E+01 0.  0.
         12    1    1    2    0    0  0.98694008438E+01  0.43738965309E+02 -0.43140859090E+01  0.45045682330E+02  0.00000000000E+00 0. -1.
         11    1    3    3    0    0 -0.75415590944E+01 -0.23414658048E+02  0.68862223240E+00  0.24608850561E+02  0.51100000000E-03 0. -1.
        -11    1    3    3    0    0  0.15522757818E+01 -0.54895618443E+01  0.22701387690E+01  0.61399006211E+01  0.51100000000E-03 0.  1.
        -12    1    3    3    0    0 -0.38801175313E+01 -0.14834745417E+02  0.13553249075E+01  0.15393566489E+02  0.00000000000E+00 0.  1.
</event>
<event>
 7    1  0.1402367E-008  0.4614232E+02  0.7816164E-02  0.1320468E+00
        -11   -1    0    0    0    0  0.00000000000E+00  0.00000000000E+00  0.45593999997E+02  0.45594000000E+02  0.51100000000E-03 0.  1.
         11   -1    0    0    0    0 -0.00000000000E+00 -0.00000000000E+00 -0.45593999997E+02  0.45594000000E+02  0.51100000000E-03 0. -1.
    9900012    2    1    2    0    0 -0.39441081172E+02 -0.38116134058E+01  0.21423963691E+02  0.46142317620E+02  0.99999987161E+01 0.  0.
         12    1    1    2    0    0  0.39441081172E+02  0.38116134058E+01 -0.21423963691E+02  0.45045682380E+02  0.00000000000E+00 0. -1.
         11    1    3    3    0    0 -0.15813080049E+01  0.92866879509E+00 -0.70426365743E+00  0.19644206010E+01  0.51100000000E-03 0. -1.
        -11    1    3    3    0    0 -0.10090376966E+02 -0.88308780855E+00  0.46989820693E+01  0.11165840056E+02  0.51100000000E-03 0.  1.
         12    1    3    3    0    0 -0.27769396201E+02 -0.38571943923E+01  0.17429245280E+02  0.33012056964E+02  0.00000000000E+00 0. -1.
</event>
<event>
 7    1  0.1402367E-008  0.4614232E+02  0.7816164E-02  0.1320468E+00
        -11   -1    0    0    0    0  0.00000000000E+00  0.00000000000E+00  0.45593999997E+02  0.45594000000E+02  0.51100000000E-03 0.  1.
         11   -1    0    0    0    0 -0.00000000000E+00 -0.00000000000E+00 -0.45593999997E+02  0.45594000000E+02  0.51100000000E-03 0. -1.
    9900012    2    1    2    0    0 -0.26923327002E+02 -0.31233313511E+02  0.18130861975E+02  0.46142316903E+02  0.99999921779E+01 0.  0.
         12    1    1    2    0    0  0.26923327002E+02  0.31233313511E+02 -0.18130861975E+02  0.45045683097E+02  0.00000000000E+00 0. -1.
         11    1    3    3    0    0 -0.45878386101E+01 -0.67163240336E+01  0.48832957350E+00  0.81483579739E+01  0.51100000000E-03 0. -1.
        -11    1    3    3    0    0 -0.17720038708E+02 -0.19163499829E+02  0.16377252081E+02  0.30813209562E+02  0.51100000000E-03 0.  1.
        -12    1    3    3    0    0 -0.46154496834E+01 -0.53534896481E+01  0.12652803204E+01  0.71807493677E+01  0.00000000000E+00 0.  1.
</event>
<event>
 7    1  0.1402367E-008  0.4614232E+02  0.7816164E-02  0.1320468E+00
        -11   -1    0    0    0    0  0.00000000000E+00  0.00000000000E+00  0.45593999997E+02  0.45594000000E+02  0.51100000000E-03 0. -1.
         11   -1    0    0    0    0 -0.00000000000E+00 -0.00000000000E+00 -0.45593999997E+02  0.45594000000E+02  0.51100000000E-03 0.  1.
    9900012    2    1    2    0    0  0.26487144068E+01 -0.40727088883E+02 -0.19063105679E+02  0.46142318132E+02  0.10000003378E+02 0.  0.
         12    1    1    2    0    0 -0.26487144068E+01  0.40727088883E+02  0.19063105679E+02  0.45045681868E+02  0.00000000000E+00 0. -1.
         11    1    3    3    0    0  0.28596511897E+01 -0.35040471875E+01 -0.18636305807E+01  0.48917349500E+01  0.51100000000E-03 0. -1.
        -11    1    3    3    0    0 -0.33838359121E+00 -0.33258404237E+02 -0.13737006397E+02  0.35985292841E+02  0.51100000000E-03 0.  1.
        -12    1    3    3    0    0  0.12744680838E+00 -0.39646374583E+01 -0.34624687009E+01  0.52652903405E+01  0.00000000000E+00 0.  1.
</event>
<event>
 7    1  0.1402367E-008  0.4614231E+02  0.7816164E-02  0.1320468E+00
        -11   -1    0    0    0    0  0.00000000000E+00  0.00000000000E+00  0.45593999997E+02  0.45594000000E+02  0.51100000000E-03 0.  1.
         11   -1    0    0    0    0 -0.00000000000E+00 -0.00000000000E+00 -0.45593999997E+02  0.45594000000E+02  0.51100000000E-03 0. -1.
    9900012    2    1    2    0    0  0.41592018588E+02 -0.44912058396E+01  0.16704694193E+02  0.46142314877E+02  0.99999736977E+01 0.  0.
         12    1    1    2    0    0 -0.41592018588E+02  0.44912058396E+01 -0.16704694193E+02  0.45045685123E+02  0.00000000000E+00 0. -1.
         11    1    3    3    0    0  0.13855889434E+02  0.54106678216E+00  0.90164448433E+01  0.16540093807E+02  0.51100000000E-03 0. -1.
        -11    1    3    3    0    0  0.95733610051E+01 -0.38996924175E+01  0.36402291546E+01  0.10959384583E+02  0.51100000000E-03 0.  1.
         12    1    3    3    0    0  0.18162768149E+02 -0.11325802043E+01  0.40480201949E+01  0.18642836486E+02  0.00000000000E+00 0. -1.
</event>
<event>
 7    1  0.1402367E-008  0.4614232E+02  0.7816164E-02  0.1320468E+00
        -11   -1    0    0    0    0  0.00000000000E+00  0.00000000000E+00  0.45593999997E+02  0.45594000000E+02  0.51100000000E-03 0.  1.
         11   -1    0    0    0    0 -0.00000000000E+00 -0.00000000000E+00 -0.45593999997E+02  0.45594000000E+02  0.51100000000E-03 0. -1.
    9900012    2    1    2    0    0  0.23581911314E+02  0.25705150714E+02  0.28500037612E+02  0.46142318094E+02  0.10000003037E+02 0.  0.
         12    1    1    2    0    0 -0.23581911314E+02 -0.25705150714E+02 -0.28500037612E+02  0.45045681906E+02  0.00000000000E+00 0. -1.
         11    1    3    3    0    0  0.47006194266E+01  0.74817448561E+01  0.27682261251E+01  0.92593415115E+01  0.51100000000E-03 0. -1.
        -11    1    3    3    0    0  0.18582325253E+02  0.18048323883E+02  0.24693774303E+02  0.35788647590E+02  0.51100000000E-03 0.  1.
        -12    1    3    3    0    0  0.29896663458E+00  0.17508197548E+00  0.10380371846E+01  0.10943289923E+01  0.00000000000E+00 0.  1.
</event>
<event>
 7    1  0.1402367E-008  0.4614232E+02  0.7816164E-02  0.1320468E+00
        -11   -1    0    0    0    0  0.00000000000E+00  0.00000000000E+00  0.45593999997E+02  0.45594000000E+02  0.51100000000E-03 0. -1.
         11   -1    0    0    0    0 -0.00000000000E+00 -0.00000000000E+00 -0.45593999997E+02  0.45594000000E+02  0.51100000000E-03 0.  1.
    9900012    2    1    2    0    0  0.28961982127E+02 -0.10948723877E+02 -0.32717621588E+02  0.46142315127E+02  0.99999759815E+01 0.  0.
         12    1    1    2    0    0 -0.28961982127E+02  0.10948723877E+02  0.32717621588E+02  0.45045684873E+02  0.00000000000E+00 0. -1.
         11    1    3    3    0    0  0.17791533818E+02 -0.87899004651E+01 -0.17188244520E+02  0.26253319328E+02  0.51100000000E-03 0. -1.
        -11    1    3    3    0    0  0.37353757107E+00  0.89953216500E+00 -0.25583235633E+01  0.27374638168E+01  0.51100000000E-03 0.  1.
        -12    1    3    3    0    0  0.10796910738E+02 -0.30583555770E+01 -0.12971053505E+02  0.17151531982E+02  0.00000000000E+00 0.  1.
</event>
<event>
 7    1  0.1402367E-008  0.4614232E+02  0.7816164E-02  0.1320468E+00
        -11   -1    0    0    0    0  0.00000000000E+00  0.00000000000E+00  0.45593999997E+02  0.45594000000E+02  0.51100000000E-03 0.  1.
         11   -1    0    0    0    0 -0.00000000000E+00 -0.00000000000E+00 -0.45593999997E+02  0.45594000000E+02  0.51100000000E-03 0. -1.
    9900012    2    1    2    0    0 -0.39425779895E+01  0.15660810806E+02  0.42051260312E+02  0.46142318630E+02  0.10000007920E+02 0.  0.
         12    1    1    2    0    0  0.39425779895E+01 -0.15660810806E+02 -0.42051260312E+02  0.45045681370E+02  0.00000000000E+00 0. -1.
         11    1    3    3    0    0 -0.11157203970E+01  0.65794795121E+00  0.10176128928E+02  0.10258232193E+02  0.51100000000E-03 0. -1.
        -11    1    3    3    0    0 -0.44710579124E+01  0.88336885951E+01  0.21994986846E+02  0.24120610682E+02  0.51100000000E-03 0.  1.
        -12    1    3    3    0    0  0.16442003199E+01  0.61691742597E+01  0.98801445380E+01  0.11763475755E+02  0.00000000000E+00 0.  1.
</event>
<event>
 7    1  0.1402367E-008  0.4614232E+02  0.7816164E-02  0.1320468E+00
        -11   -1    0    0    0    0  0.00000000000E+00  0.00000000000E+00  0.45593999997E+02  0.45594000000E+02  0.51100000000E-03 0.  1.
         11   -1    0    0    0    0 -0.00000000000E+00 -0.00000000000E+00 -0.45593999997E+02  0.45594000000E+02  0.51100000000E-03 0. -1.
    9900012    2    1    2    0    0  0.23517162101E+02  0.14170984308E+00  0.38419214935E+02  0.46142322392E+02  0.10000042225E+02 0.  0.
         12    1    1    2    0    0 -0.23517162101E+02 -0.14170984308E+00 -0.38419214935E+02  0.45045677608E+02  0.00000000000E+00 0. -1.
         11    1    3    3    0    0  0.37298039301E+01 -0.35912195330E+01  0.65782241897E+01  0.83714591824E+01  0.51100000000E-03 0. -1.
        -11    1    3    3    0    0  0.19148614890E+02  0.32282715167E+01  0.29747892981E+02  0.35525038019E+02  0.51100000000E-03 0.  1.
        -12    1    3    3    0    0  0.63874328144E+00  0.50465785938E+00  0.20930977647E+01  0.22458251907E+01  0.00000000000E+00 0.  1.
</event>
<event>
 7    1  0.1402367E-008  0.4614232E+02  0.7816164E-02  0.1320468E+00
        -11   -1    0    0    0    0  0.00000000000E+00  0.00000000000E+00  0.45593999997E+02  0.45594000000E+02  0.51100000000E-03 0.  1.
         11   -1    0    0    0    0 -0.00000000000E+00 -0.00000000000E+00 -0.45593999997E+02  0.45594000000E+02  0.51100000000E-03 0. -1.
    9900012    2    1    2    0    0  0.19918791304E+02 -0.37763843779E+02  0.14361315369E+02  0.46142317376E+02  0.99999964867E+01 0.  0.
         12    1    1    2    0    0 -0.19918791304E+02  0.37763843779E+02 -0.14361315369E+02  0.45045682624E+02  0.00000000000E+00 0. -1.
         11    1    3    3    0    0  0.44950053783E+01 -0.52311280538E+01  0.15751103662E+01  0.70746552561E+01  0.51100000000E-03 0. -1.
        -11    1    3    3    0    0  0.14089319628E+02 -0.25133162402E+02  0.12849948160E+02  0.31548469818E+02  0.51100000000E-03 0.  1.
         12    1    3    3    0    0  0.13344662983E+01 -0.73995533225E+01 -0.63743157310E-01  0.75191923013E+01  0.00000000000E+00 0. -1.
</event>
<event>
 7    1  0.1402367E-008  0.4614232E+02  0.7816164E-02  0.1320468E+00
        -11   -1    0    0    0    0  0.00000000000E+00  0.00000000000E+00  0.45593999997E+02  0.45594000000E+02  0.51100000000E-03 0.  1.
         11   -1    0    0    0    0 -0.00000000000E+00 -0.00000000000E+00 -0.45593999997E+02  0.45594000000E+02  0.51100000000E-03 0. -1.
    9900012    2    1    2    0    0 -0.57876569470E+01 -0.34111134068E+02  0.28845225930E+02  0.46142317640E+02  0.99999988991E+01 0.  0.
         12    1    1    2    0    0  0.57876569470E+01  0.34111134068E+02 -0.28845225930E+02  0.45045682360E+02  0.00000000000E+00 0. -1.
         11    1    3    3    0    0 -0.36504975232E+01 -0.59923758169E+01  0.63430244522E+01  0.94587874255E+01  0.51100000000E-03 0.  1.
        -11    1    3    3    0    0  0.47548707159E+00 -0.14617578428E+02  0.78891444647E+01  0.16617409176E+02  0.51100000000E-03 0. -1.
         12    1    3    3    0    0 -0.26126464954E+01 -0.13501179822E+02  0.14613057013E+02  0.20066121039E+02  0.00000000000E+00 0. -1.
</event>
<event>
 7    1  0.1402367E-008  0.4614232E+02  0.7816164E-02  0.1320468E+00
        -11   -1    0    0    0    0  0.00000000000E+00  0.00000000000E+00  0.45593999997E+02  0.45594000000E+02  0.51100000000E-03 0. -1.
         11   -1    0    0    0    0 -0.00000000000E+00 -0.00000000000E+00 -0.45593999997E+02  0.45594000000E+02  0.51100000000E-03 0.  1.
    9900012    2    1    2    0    0  0.85625480171E+01 -0.44201617899E+02 -0.14188973211E+01  0.46142317376E+02  0.99999964896E+01 0.  0.
         12    1    1    2    0    0 -0.85625480171E+01  0.44201617899E+02  0.14188973211E+01  0.45045682624E+02  0.00000000000E+00 0. -1.
         11    1    3    3    0    0  0.26248926520E+01 -0.11377760021E+02  0.30294148792E+01  0.12063201868E+02  0.51100000000E-03 0. -1.
        -11    1    3    3    0    0  0.67345575727E+01 -0.28644035442E+02 -0.47812706141E+01  0.29810997653E+02  0.51100000000E-03 0.  1.
         12    1    3    3    0    0 -0.79690220749E+00 -0.41798224359E+01  0.33295841380E+00  0.42681178556E+01  0.00000000000E+00 0. -1.
</event>
<event>
 7    1  0.1402367E-008  0.4614232E+02  0.7816164E-02  0.1320468E+00
        -11   -1    0    0    0    0  0.00000000000E+00  0.00000000000E+00  0.45593999997E+02  0.45594000000E+02  0.51100000000E-03 0.  1.
         11   -1    0    0    0    0 -0.00000000000E+00 -0.00000000000E+00 -0.45593999997E+02  0.45594000000E+02  0.51100000000E-03 0. -1.
    9900012    2    1    2    0    0  0.59781050258E+01 -0.12868873618E+02  0.42752398805E+02  0.46142320390E+02  0.10000023973E+02 0.  0.
         12    1    1    2    0    0 -0.59781050258E+01  0.12868873618E+02 -0.42752398805E+02  0.45045679610E+02  0.00000000000E+00 0. -1.
         11    1    3    3    0    0 -0.97216753133E+00  0.67376782643E+00  0.59437011052E+01  0.60602521302E+01  0.51100000000E-03 0. -1.
        -11    1    3    3    0    0  0.75860544694E+01 -0.12780200833E+02  0.34828640676E+02  0.37867082900E+02  0.51100000000E-03 0.  1.
         12    1    3    3    0    0 -0.63578191226E+00 -0.76244061186E+00  0.19800570242E+01  0.22149853601E+01  0.00000000000E+00 0. -1.
</event>
<event>
 7    1  0.1402367E-008  0.4614232E+02  0.7816164E-02  0.1320468E+00
        -11   -1    0    0    0    0  0.00000000000E+00  0.00000000000E+00  0.45593999997E+02  0.45594000000E+02  0.51100000000E-03 0. -1.
         11   -1    0    0    0    0 -0.00000000000E+00 -0.00000000000E+00 -0.45593999997E+02  0.45594000000E+02  0.51100000000E-03 0.  1.
    9900012    2    1    2    0    0  0.21930484869E+02  0.18982605775E+02 -0.34464882695E+02  0.46142316214E+02  0.99999858900E+01 0.  0.
         12    1    1    2    0    0 -0.21930484869E+02 -0.18982605775E+02  0.34464882695E+02  0.45045683786E+02  0.00000000000E+00 0. -1.
         11    1    3    3    0    0  0.11873100569E+02  0.81235103764E+01 -0.10160258479E+02  0.17612290895E+02  0.51100000000E-03 0. -1.
        -11    1    3    3    0    0  0.30332458437E+01  0.35436487160E+01 -0.95193666247E+01  0.10600772036E+02  0.51100000000E-03 0.  1.
         12    1    3    3    0    0  0.70241384557E+01  0.73154466828E+01 -0.14785257591E+02  0.17929253282E+02  0.00000000000E+00 0. -1.
</event>
<event>
 7    1  0.1402367E-008  0.4614232E+02  0.7816164E-02  0.1320468E+00
        -11   -1    0    0    0    0  0.00000000000E+00  0.00000000000E+00  0.45593999997E+02  0.45594000000E+02  0.51100000000E-03 0. -1.
         11   -1    0    0    0    0 -0.00000000000E+00 -0.00000000000E+00 -0.45593999997E+02  0.45594000000E+02  0.51100000000E-03 0.  1.
    9900012    2    1    2    0    0  0.34103068126E+02  0.19873376966E+02 -0.21705833832E+02  0.46142316633E+02  0.99999897166E+01 0.  0.
         12    1    1    2    0    0 -0.34103068126E+02 -0.19873376966E+02  0.21705833832E+02  0.45045683367E+02  0.00000000000E+00 0. -1.
         11    1    3    3    0    0  0.81032318810E+01  0.47068323215E+01 -0.99474049878E+01  0.13666290780E+02  0.51100000000E-03 0. -1.
        -11    1    3    3    0    0  0.17248581475E+02  0.11746281404E+02 -0.84600004819E+01  0.22517999425E+02  0.51100000000E-03 0.  1.
         12    1    3    3    0    0  0.87512547703E+01  0.34202632405E+01 -0.32984283620E+01  0.99580264284E+01  0.00000000000E+00 0. -1.
</event>
<event>
 7    1  0.1402367E-008  0.4614232E+02  0.7816164E-02  0.1320468E+00
        -11   -1    0    0    0    0  0.00000000000E+00  0.00000000000E+00  0.45593999997E+02  0.45594000000E+02  0.51100000000E-03 0. -1.
         11   -1    0    0    0    0 -0.00000000000E+00 -0.00000000000E+00 -0.45593999997E+02  0.45594000000E+02  0.51100000000E-03 0.  1.
    9900012    2    1    2    0    0  0.25007511905E+02 -0.26735378516E+02  0.26247997286E+02  0.46142317880E+02  0.10000001086E+02 0.  0.
         12    1    1    2    0    0 -0.25007511905E+02  0.26735378516E+02 -0.26247997286E+02  0.45045682120E+02  0.00000000000E+00 0. -1.
         11    1    3    3    0    0  0.11410084281E+02 -0.11594508705E+02  0.68610458275E+01  0.17654931479E+02  0.51100000000E-03 0. -1.
        -11    1    3    3    0    0  0.13423500812E+02 -0.15448017158E+02  0.18734157953E+02  0.27745274961E+02  0.51100000000E-03 0.  1.
         12    1    3    3    0    0  0.17392681201E+00  0.30714734743E+00  0.65279350560E+00  0.74211144037E+00  0.00000000000E+00 0. -1.
</event>
<event>
 7    1  0.1402367E-008  0.4614232E+02  0.7816164E-02  0.1320468E+00
        -11   -1    0    0    0    0  0.00000000000E+00  0.00000000000E+00  0.45593999997E+02  0.45594000000E+02  0.51100000000E-03 0. -1.
         11   -1    0    0    0    0 -0.00000000000E+00 -0.00000000000E+00 -0.45593999997E+02  0.45594000000E+02  0.51100000000E-03 0.  1.
    9900012    2    1    2    0    0  0.15451532684E+02 -0.34080989017E+02 -0.25076878103E+02  0.46142317742E+02  0.99999998283E+01 0.  0.
         12    1    1    2    0    0 -0.15451532684E+02  0.34080989017E+02  0.25076878103E+02  0.45045682258E+02  0.00000000000E+00 0. -1.
         11    1    3    3    0    0  0.32039785401E+01 -0.65915191736E+01 -0.76215472351E+01  0.10573626909E+02  0.51100000000E-03 0. -1.
        -11    1    3    3    0    0  0.75169676916E+01 -0.23156387143E+02 -0.11976016821E+02  0.27132048356E+02  0.51100000000E-03 0.  1.
        -12    1    3    3    0    0  0.47305864524E+01 -0.43330827006E+01 -0.54793140461E+01  0.84366424773E+01  0.00000000000E+00 0.  1.
</event>
<event>
 7    1  0.1402367E-008  0.4614232E+02  0.7816164E-02  0.1320468E+00
        -11   -1    0    0    0    0  0.00000000000E+00  0.00000000000E+00  0.45593999997E+02  0.45594000000E+02  0.51100000000E-03 0.  1.
         11   -1    0    0    0    0 -0.00000000000E+00 -0.00000000000E+00 -0.45593999997E+02  0.45594000000E+02  0.51100000000E-03 0. -1.
    9900012    2    1    2    0    0 -0.66239602436E+01  0.37952818924E+02  0.23341383480E+02  0.46142317673E+02  0.99999991940E+01 0.  0.
         12    1    1    2    0    0  0.66239602436E+01 -0.37952818924E+02 -0.23341383480E+02  0.45045682327E+02  0.00000000000E+00 0. -1.
         11    1    3    3    0    0 -0.18813368127E+01  0.87309992048E+01  0.37824755958E+01  0.96993245750E+01  0.51100000000E-03 0. -1.
        -11    1    3    3    0    0 -0.18649028302E+00 -0.50429825944E+00 -0.52508924942E-01  0.54023403119E+00  0.51100000000E-03 0.  1.
        -12    1    3    3    0    0 -0.45561331479E+01  0.29726117978E+02  0.19611416809E+02  0.35902759067E+02  0.00000000000E+00 0.  1.
</event>
<event>
 7    1  0.1402367E-008  0.4614232E+02  0.7816164E-02  0.1320468E+00
        -11   -1    0    0    0    0  0.00000000000E+00  0.00000000000E+00  0.45593999997E+02  0.45594000000E+02  0.51100000000E-03 0.  1.
         11   -1    0    0    0    0 -0.00000000000E+00 -0.00000000000E+00 -0.45593999997E+02  0.45594000000E+02  0.51100000000E-03 0. -1.
    9900012    2    1    2    0    0  0.31554520198E+02 -0.12360423757E+02  0.29675676393E+02  0.46142316636E+02  0.99999897384E+01 0.  0.
         12    1    1    2    0    0 -0.31554520198E+02  0.12360423757E+02 -0.29675676393E+02  0.45045683364E+02  0.00000000000E+00 0. -1.
         11    1    3    3    0    0  0.10683345600E+01 -0.17722266696E+01 -0.19425327397E+00  0.20784274575E+01  0.51100000000E-03 0. -1.
        -11    1    3    3    0    0  0.30166854882E+02 -0.10205185263E+02  0.29057320331E+02  0.43110472101E+02  0.51100000000E-03 0.  1.
         12    1    3    3    0    0  0.31933075547E+00 -0.38301182402E+00  0.81260933678E+00  0.95341707712E+00  0.00000000000E+00 0. -1.
</event>
<event>
 7    1  0.1402367E-008  0.4614232E+02  0.7816164E-02  0.1320468E+00
        -11   -1    0    0    0    0  0.00000000000E+00  0.00000000000E+00  0.45593999997E+02  0.45594000000E+02  0.51100000000E-03 0. -1.
         11   -1    0    0    0    0 -0.00000000000E+00 -0.00000000000E+00 -0.45593999997E+02  0.45594000000E+02  0.51100000000E-03 0.  1.
    9900012    2    1    2    0    0 -0.39987272174E+02  0.20208268234E+02 -0.46644593952E+01  0.46142320713E+02  0.10000026920E+02 0.  0.
         12    1    1    2    0    0  0.39987272174E+02 -0.20208268234E+02  0.46644593952E+01  0.45045679287E+02  0.00000000000E+00 0. -1.
         11    1    3    3    0    0 -0.31189789186E+01  0.61471719544E-01  0.88729473731E+00  0.32433162780E+01  0.51100000000E-03 0. -1.
        -11    1    3    3    0    0 -0.17744966184E+02  0.68358224656E+01 -0.46765579865E+01  0.19582708916E+02  0.51100000000E-03 0.  1.
        -12    1    3    3    0    0 -0.19123327072E+02  0.13310974049E+02 -0.87519614600E+00  0.23316295519E+02  0.00000000000E+00 0.  1.
</event>
<event>
 7    1  0.1402367E-008  0.4614232E+02  0.7816164E-02  0.1320468E+00
        -11   -1    0    0    0    0  0.00000000000E+00  0.00000000000E+00  0.45593999997E+02  0.45594000000E+02  0.51100000000E-03 0.  1.
         11   -1    0    0    0    0 -0.00000000000E+00 -0.00000000000E+00 -0.45593999997E+02  0.45594000000E+02  0.51100000000E-03 0. -1.
    9900012    2    1    2    0    0 -0.20430331891E+02  0.33020957725E+02 -0.22832681631E+02  0.46142318068E+02  0.10000002799E+02 0.  0.
         12    1    1    2    0    0  0.20430331891E+02 -0.33020957725E+02  0.22832681631E+02  0.45045681932E+02  0.00000000000E+00 0. -1.
         11    1    3    3    0    0 -0.19258278644E+02  0.26481516638E+02 -0.18726427292E+02  0.37720433443E+02  0.51100000000E-03 0.  1.
        -11    1    3    3    0    0 -0.11312188906E+00  0.35735291543E+01 -0.38623986169E+01  0.52631768463E+01  0.51100000000E-03 0. -1.
        -12    1    3    3    0    0 -0.10589313576E+01  0.29659119336E+01 -0.24385572169E+00  0.31587077787E+01  0.00000000000E+00 0.  1.
</event>
<event>
 7    1  0.1402367E-008  0.4614232E+02  0.7816164E-02  0.1320468E+00
        -11   -1    0    0    0    0  0.00000000000E+00  0.00000000000E+00  0.45593999997E+02  0.45594000000E+02  0.51100000000E-03 0. -1.
         11   -1    0    0    0    0 -0.00000000000E+00 -0.00000000000E+00 -0.45593999997E+02  0.45594000000E+02  0.51100000000E-03 0.  1.
    9900012    2    1    2    0    0 -0.23991460020E+02 -0.36222417447E+02 -0.11893689559E+02  0.46142317289E+02  0.99999956960E+01 0.  0.
         12    1    1    2    0    0  0.23991460020E+02  0.36222417447E+02  0.11893689559E+02  0.45045682711E+02  0.00000000000E+00 0. -1.
         11    1    3    3    0    0 -0.18107664472E+02 -0.19485039638E+02 -0.64751993488E+01  0.27376677833E+02  0.51100000000E-03 0. -1.
        -11    1    3    3    0    0 -0.38565673573E+01 -0.76972229886E+01 -0.16614416005E+01  0.87681663973E+01  0.51100000000E-03 0.  1.
         12    1    3    3    0    0 -0.20272281912E+01 -0.90401548195E+01 -0.37570486093E+01  0.99974730583E+01  0.00000000000E+00 0. -1.
</event>
<event>
 7    1  0.1402367E-008  0.4614232E+02  0.7816164E-02  0.1320468E+00
        -11   -1    0    0    0    0  0.00000000000E+00  0.00000000000E+00  0.45593999997E+02  0.45594000000E+02  0.51100000000E-03 0.  1.
         11   -1    0    0    0    0 -0.00000000000E+00 -0.00000000000E+00 -0.45593999997E+02  0.45594000000E+02  0.51100000000E-03 0. -1.
    9900012    2    1    2    0    0 -0.42479876949E+02 -0.94620390943E+01  0.11620810951E+02  0.46142319002E+02  0.10000011315E+02 0.  0.
         12    1    1    2    0    0  0.42479876949E+02  0.94620390943E+01 -0.11620810951E+02  0.45045680998E+02  0.00000000000E+00 0. -1.
         11    1    3    3    0    0 -0.22199170887E+01 -0.25266009913E+01  0.30702423618E+00  0.33772782818E+01  0.51100000000E-03 0. -1.
        -11    1    3    3    0    0 -0.24534815570E+02 -0.50730666017E+01  0.96296033153E+01  0.26840686282E+02  0.51100000000E-03 0.  1.
        -12    1    3    3    0    0 -0.15725144290E+02 -0.18623715014E+01  0.16841833993E+01  0.15924354438E+02  0.00000000000E+00 0.  1.
</event>
<event>
 7    1  0.1402367E-008  0.4614232E+02  0.7816164E-02  0.1320468E+00
        -11   -1    0    0    0    0  0.00000000000E+00  0.00000000000E+00  0.45593999997E+02  0.45594000000E+02  0.51100000000E-03 0.  1.
         11   -1    0    0    0    0 -0.00000000000E+00 -0.00000000000E+00 -0.45593999997E+02  0.45594000000E+02  0.51100000000E-03 0. -1.
    9900012    2    1    2    0    0 -0.15354508297E+02  0.41491613273E+02  0.84734066602E+01  0.46142317438E+02  0.99999970517E+01 0.  0.
         12    1    1    2    0    0  0.15354508297E+02 -0.41491613273E+02 -0.84734066602E+01  0.45045682562E+02  0.00000000000E+00 0. -1.
         11    1    3    3    0    0 -0.87719537796E+00  0.76611159487E+01 -0.30671304587E+00  0.77172691067E+01  0.51100000000E-03 0. -1.
        -11    1    3    3    0    0 -0.12026376348E+02  0.26532425275E+02  0.41064156500E+01  0.29418802981E+02  0.51100000000E-03 0.  1.
        -12    1    3    3    0    0 -0.24509365709E+01  0.72980720494E+01  0.46737040560E+01  0.90062453506E+01  0.00000000000E+00 0.  1.
</event>
<event>
 7    1  0.1402367E-008  0.4614232E+02  0.7816164E-02  0.1320468E+00
        -11   -1    0    0    0    0  0.00000000000E+00  0.00000000000E+00  0.45593999997E+02  0.45594000000E+02  0.51100000000E-03 0. -1.
         11   -1    0    0    0    0 -0.00000000000E+00 -0.00000000000E+00 -0.45593999997E+02  0.45594000000E+02  0.51100000000E-03 0.  1.
    9900012    2    1    2    0    0  0.36715098496E+02 -0.21053195907E+02 -0.15423294926E+02  0.46142317167E+02  0.99999945857E+01 0.  0.
         12    1    1    2    0    0 -0.36715098496E+02  0.21053195907E+02  0.15423294926E+02  0.45045682833E+02  0.00000000000E+00 0. -1.
         11    1    3    3    0    0  0.20650676150E+02 -0.78911137416E+01 -0.50036962492E+01  0.22666210048E+02  0.51100000000E-03 0.  1.
        -11    1    3    3    0    0  0.69786180217E+01 -0.67493559134E+01 -0.32218916805E+01  0.10229149574E+02  0.51100000000E-03 0. -1.
        -12    1    3    3    0    0  0.90858043247E+01 -0.64127262517E+01 -0.71977069966E+01  0.13246957546E+02  0.00000000000E+00 0.  1.
</event>
<event>
 7    1  0.1402367E-008  0.4614232E+02  0.7816164E-02  0.1320468E+00
        -11   -1    0    0    0    0  0.00000000000E+00  0.00000000000E+00  0.45593999997E+02  0.45594000000E+02  0.51100000000E-03 0.  1.
         11   -1    0    0    0    0 -0.00000000000E+00 -0.00000000000E+00 -0.45593999997E+02  0.45594000000E+02  0.51100000000E-03 0. -1.
    9900012    2    1    2    0    0 -0.10739127303E+00 -0.27326407042E+01  0.44962592282E+02  0.46142316935E+02  0.99999924634E+01 0.  0.
         12    1    1    2    0    0  0.10739127303E+00  0.27326407042E+01 -0.44962592282E+02  0.45045683065E+02  0.00000000000E+00 0. -1.
         11    1    3    3    0    0 -0.13478024063E+01 -0.33323102778E+01  0.54280214712E+01  0.65103210725E+01  0.51100000000E-03 0. -1.
        -11    1    3    3    0    0  0.19693185862E+01  0.50683867251E+00  0.27579931388E+02  0.27654795548E+02  0.51100000000E-03 0.  1.
         12    1    3    3    0    0 -0.72890745289E+00  0.92830901142E-01  0.11954639423E+02  0.11977200315E+02  0.00000000000E+00 0. -1.
</event>
<event>
 7    1  0.1402367E-008  0.4614232E+02  0.7816164E-02  0.1320468E+00
        -11   -1    0    0    0    0  0.00000000000E+00  0.00000000000E+00  0.45593999997E+02  0.45594000000E+02  0.51100000000E-03 0.  1.
         11   -1    0    0    0    0 -0.00000000000E+00 -0.00000000000E+00 -0.45593999997E+02  0.45594000000E+02  0.51100000000E-03 0. -1.
    9900012    2    1    2    0    0 -0.43489173380E+02 -0.14966434362E+01  0.11643253002E+02  0.46142317817E+02  0.10000000511E+02 0.  0.
         12    1    1    2    0    0  0.43489173380E+02  0.14966434362E+01 -0.11643253002E+02  0.45045682183E+02  0.00000000000E+00 0. -1.
         11    1    3    3    0    0 -0.12311303317E+02  0.14528878064E+01  0.65696379008E+01  0.14029939941E+02  0.51100000000E-03 0. -1.
        -11    1    3    3    0    0 -0.14060704238E+02 -0.38043794286E+01  0.20688836423E+01  0.14712477232E+02  0.51100000000E-03 0.  1.
         12    1    3    3    0    0 -0.17117165824E+02  0.85484818602E+00  0.30047314592E+01  0.17399900644E+02  0.00000000000E+00 0. -1.
</event>
<event>
 7    1  0.1402367E-008  0.4614231E+02  0.7816164E-02  0.1320468E+00
        -11   -1    0    0    0    0  0.00000000000E+00  0.00000000000E+00  0.45593999997E+02  0.45594000000E+02  0.51100000000E-03 0. -1.
         11   -1    0    0    0    0 -0.00000000000E+00 -0.00000000000E+00 -0.45593999997E+02  0.45594000000E+02  0.51100000000E-03 0.  1.
    9900012    2    1    2    0    0 -0.96463330553E+01  0.37888812130E+02 -0.22371859012E+02  0.46142313174E+02  0.99999581691E+01 0.  0.
         12    1    1    2    0    0  0.96463330553E+01 -0.37888812130E+02  0.22371859012E+02  0.45045686826E+02  0.00000000000E+00 0. -1.
         11    1    3    3    0    0 -0.27094760471E+01  0.31016910464E+01 -0.35715967630E+01  0.54514265560E+01  0.51100000000E-03 0. -1.
        -11    1    3    3    0    0 -0.22966368540E+01  0.13725349303E+02 -0.38171094978E+01  0.14430179469E+02  0.51100000000E-03 0.  1.
         12    1    3    3    0    0 -0.46402201542E+01  0.21061771780E+02 -0.14983152751E+02  0.26260707149E+02  0.00000000000E+00 0. -1.
</event>
<event>
 7    1  0.1402367E-008  0.4614232E+02  0.7816164E-02  0.1320468E+00
        -11   -1    0    0    0    0  0.00000000000E+00  0.00000000000E+00  0.45593999997E+02  0.45594000000E+02  0.51100000000E-03 0.  1.
         11   -1    0    0    0    0 -0.00000000000E+00 -0.00000000000E+00 -0.45593999997E+02  0.45594000000E+02  0.51100000000E-03 0. -1.
    9900012    2    1    2    0    0 -0.17546502987E+02 -0.32330557998E+02  0.25999398563E+02  0.46142317929E+02  0.10000001533E+02 0.  0.
         12    1    1    2    0    0  0.17546502987E+02  0.32330557998E+02 -0.25999398563E+02  0.45045682071E+02  0.00000000000E+00 0. -1.
         11    1    3    3    0    0 -0.10420508117E+02 -0.21780664956E+02  0.18113698884E+02  0.30184274761E+02  0.51100000000E-03 0. -1.
        -11    1    3    3    0    0 -0.75928983288E+01 -0.10675800319E+02  0.67796095171E+01  0.14750861769E+02  0.51100000000E-03 0.  1.
        -12    1    3    3    0    0  0.46690345870E+00  0.12590727617E+00  0.11060901624E+01  0.12071813987E+01  0.00000000000E+00 0.  1.
</event>
<event>
 7    1  0.1402367E-008  0.4614232E+02  0.7816164E-02  0.1320468E+00
        -11   -1    0    0    0    0  0.00000000000E+00  0.00000000000E+00  0.45593999997E+02  0.45594000000E+02  0.51100000000E-03 0. -1.
         11   -1    0    0    0    0 -0.00000000000E+00 -0.00000000000E+00 -0.45593999997E+02  0.45594000000E+02  0.51100000000E-03 0.  1.
    9900012    2    1    2    0    0  0.10295026486E+02  0.27661574125E+02 -0.34028857611E+02  0.46142318701E+02  0.10000008570E+02 0.  0.
         12    1    1    2    0    0 -0.10295026486E+02 -0.27661574125E+02  0.34028857611E+02  0.45045681299E+02  0.00000000000E+00 0. -1.
         11    1    3    3    0    0 -0.27467282573E+00  0.42246613063E+01 -0.72948976673E+01  0.84343784923E+01  0.51100000000E-03 0. -1.
        -11    1    3    3    0    0  0.90870844283E+01  0.23398781184E+02 -0.25016235336E+02  0.35438539684E+02  0.51100000000E-03 0.  1.
         12    1    3    3    0    0  0.14826148837E+01  0.38131634808E-01 -0.17177246071E+01  0.22694005246E+01  0.00000000000E+00 0. -1.
</event>
<event>
 7    1  0.1402367E-008  0.4614232E+02  0.7816164E-02  0.1320468E+00
        -11   -1    0    0    0    0  0.00000000000E+00  0.00000000000E+00  0.45593999997E+02  0.45594000000E+02  0.51100000000E-03 0.  1.
         11   -1    0    0    0    0 -0.00000000000E+00 -0.00000000000E+00 -0.45593999997E+02  0.45594000000E+02  0.51100000000E-03 0. -1.
    9900012    2    1    2    0    0 -0.33236665231E+02 -0.19023385590E+02  0.23718102704E+02  0.46142317511E+02  0.99999977198E+01 0.  0.
         12    1    1    2    0    0  0.33236665231E+02  0.19023385590E+02 -0.23718102704E+02  0.45045682489E+02  0.00000000000E+00 0. -1.
         11    1    3    3    0    0 -0.19274530487E+01 -0.36248286916E+01  0.39193461310E+01  0.56758904723E+01  0.51100000000E-03 0.  1.
        -11    1    3    3    0    0 -0.64310998291E+01 -0.38560403940E+01  0.67746383458E+01  0.10105632959E+02  0.51100000000E-03 0. -1.
         12    1    3    3    0    0 -0.24878112353E+02 -0.11542516505E+02  0.13024118228E+02  0.30360794079E+02  0.00000000000E+00 0. -1.
</event>
<event>
 7    1  0.1402367E-008  0.4614232E+02  0.7816164E-02  0.1320468E+00
        -11   -1    0    0    0    0  0.00000000000E+00  0.00000000000E+00  0.45593999997E+02  0.45594000000E+02  0.51100000000E-03 0.  1.
         11   -1    0    0    0    0 -0.00000000000E+00 -0.00000000000E+00 -0.45593999997E+02  0.45594000000E+02  0.51100000000E-03 0. -1.
    9900012    2    1    2    0    0 -0.22282844134E+02 -0.38593088432E+02 -0.65697675747E+01  0.46142318038E+02  0.10000002525E+02 0.  0.
         12    1    1    2    0    0  0.22282844134E+02  0.38593088432E+02  0.65697675747E+01  0.45045681962E+02  0.00000000000E+00 0. -1.
         11    1    3    3    0    0 -0.60065500358E+01 -0.16684080540E+02  0.12845949793E+00  0.17732842099E+02  0.51100000000E-03 0. -1.
        -11    1    3    3    0    0 -0.11366339466E+02 -0.13872669080E+02 -0.25349628404E+01  0.18112720864E+02  0.51100000000E-03 0.  1.
         12    1    3    3    0    0 -0.49099546329E+01 -0.80363388121E+01 -0.41632642323E+01  0.10296755075E+02  0.00000000000E+00 0. -1.
</event>
<event>
 7    1  0.1402367E-008  0.4614232E+02  0.7816164E-02  0.1320468E+00
        -11   -1    0    0    0    0  0.00000000000E+00  0.00000000000E+00  0.45593999997E+02  0.45594000000E+02  0.51100000000E-03 0. -1.
         11   -1    0    0    0    0 -0.00000000000E+00 -0.00000000000E+00 -0.45593999997E+02  0.45594000000E+02  0.51100000000E-03 0.  1.
    9900012    2    1    2    0    0  0.23174979994E+02 -0.38170583568E+02 -0.59194799936E+01  0.46142318841E+02  0.10000009849E+02 0.  0.
         12    1    1    2    0    0 -0.23174979994E+02  0.38170583568E+02  0.59194799936E+01  0.45045681159E+02  0.00000000000E+00 0. -1.
         11    1    3    3    0    0  0.31666277626E+01 -0.18056813512E+01 -0.23296253980E+01  0.43261034760E+01  0.51100000000E-03 0.  1.
        -11    1    3    3    0    0  0.14652240657E+02 -0.29554211466E+02 -0.24635583586E+01  0.33078825428E+02  0.51100000000E-03 0. -1.
        -12    1    3    3    0    0  0.53561115741E+01 -0.68106907514E+01 -0.11262962370E+01  0.87373899375E+01  0.00000000000E+00 0.  1.
</event>
<event>
 7    1  0.1402367E-008  0.4614232E+02  0.7816164E-02  0.1320468E+00
        -11   -1    0    0    0    0  0.00000000000E+00  0.00000000000E+00  0.45593999997E+02  0.45594000000E+02  0.51100000000E-03 0.  1.
         11   -1    0    0    0    0 -0.00000000000E+00 -0.00000000000E+00 -0.45593999997E+02  0.45594000000E+02  0.51100000000E-03 0. -1.
    9900012    2    1    2    0    0  0.22030483941E+02 -0.24092998997E+02  0.31037051107E+02  0.46142319133E+02  0.10000012512E+02 0.  0.
         12    1    1    2    0    0 -0.22030483941E+02  0.24092998997E+02 -0.31037051107E+02  0.45045680867E+02  0.00000000000E+00 0. -1.
         11    1    3    3    0    0  0.26249714605E+01 -0.31478330247E+01  0.70867533096E+01  0.81866599203E+01  0.51100000000E-03 0. -1.
        -11    1    3    3    0    0  0.15628156207E+02 -0.18671430656E+02  0.16895352623E+02  0.29636371736E+02  0.51100000000E-03 0.  1.
        -12    1    3    3    0    0  0.37773562740E+01 -0.22737353164E+01  0.70549451745E+01  0.83192874770E+01  0.00000000000E+00 0.  1.
</event>
<event>
 7    1  0.1402367E-008  0.4614232E+02  0.7816164E-02  0.1320468E+00
        -11   -1    0    0    0    0  0.00000000000E+00  0.00000000000E+00  0.45593999997E+02  0.45594000000E+02  0.51100000000E-03 0.  1.
         11   -1    0    0    0    0 -0.00000000000E+00 -0.00000000000E+00 -0.45593999997E+02  0.45594000000E+02  0.51100000000E-03 0. -1.
    9900012    2    1    2    0    0 -0.16338545422E+02  0.27358304892E+02  0.31838466432E+02  0.46142324760E+02  0.10000063823E+02 0.  0.
         12    1    1    2    0    0  0.16338545422E+02 -0.27358304892E+02 -0.31838466432E+02  0.45045675240E+02  0.00000000000E+00 0. -1.
         11    1    3    3    0    0 -0.88583433650E+01  0.11319085724E+02  0.18036241297E+02  0.23062912852E+02  0.51100000000E-03 0. -1.
        -11    1    3    3    0    0 -0.82323642861E+01  0.15430393205E+02  0.13395552574E+02  0.22029745464E+02  0.51100000000E-03 0.  1.
        -12    1    3    3    0    0  0.75216222921E+00  0.60882596333E+00  0.40667255984E+00  0.10496664440E+01  0.00000000000E+00 0.  1.
</event>
<event>
 7    1  0.1402367E-008  0.4614232E+02  0.7816164E-02  0.1320468E+00
        -11   -1    0    0    0    0  0.00000000000E+00  0.00000000000E+00  0.45593999997E+02  0.45594000000E+02  0.51100000000E-03 0.  1.
         11   -1    0    0    0    0 -0.00000000000E+00 -0.00000000000E+00 -0.45593999997E+02  0.45594000000E+02  0.51100000000E-03 0. -1.
    9900012    2    1    2    0    0  0.76596268221E+00  0.27285929438E+02  0.35833015889E+02  0.46142315725E+02  0.99999814330E+01 0.  0.
         12    1    1    2    0    0 -0.76596268221E+00 -0.27285929438E+02 -0.35833015889E+02  0.45045684275E+02  0.00000000000E+00 0. -1.
         11    1    3    3    0    0 -0.11879430199E+01  0.19691391272E+02  0.24345279691E+02  0.31334561467E+02  0.51100000000E-03 0. -1.
        -11    1    3    3    0    0 -0.16450059615E+01  0.23577302733E+01  0.25591276537E+01  0.38489052033E+01  0.51100000000E-03 0.  1.
         12    1    3    3    0    0  0.35989116636E+01  0.52368078924E+01  0.89286085447E+01  0.10958849055E+02  0.00000000000E+00 0. -1.
</event>
<event>
 7    1  0.1402367E-008  0.4614232E+02  0.7816164E-02  0.1320468E+00
        -11   -1    0    0    0    0  0.00000000000E+00  0.00000000000E+00  0.45593999997E+02  0.45594000000E+02  0.51100000000E-03 0. -1.
         11   -1    0    0    0    0 -0.00000000000E+00 -0.00000000000E+00 -0.45593999997E+02  0.45594000000E+02  0.51100000000E-03 0.  1.
    9900012    2    1    2    0    0  0.12349045573E+02 -0.39881235905E+02 -0.16914538345E+02  0.46142317506E+02  0.99999976769E+01 0.  0.
         12    1    1    2    0    0 -0.12349045573E+02  0.39881235905E+02  0.16914538345E+02  0.45045682494E+02  0.00000000000E+00 0. -1.
         11    1    3    3    0    0  0.85179199620E+01 -0.22499148577E+02 -0.13298160201E+02  0.27488319559E+02  0.51100000000E-03 0. -1.
        -11    1    3    3    0    0  0.28945007350E+01 -0.49938233265E+01 -0.20816887542E+01  0.61359460763E+01  0.51100000000E-03 0.  1.
         12    1    3    3    0    0  0.93662487605E+00 -0.12388264001E+02 -0.15346893902E+01  0.12518051871E+02  0.00000000000E+00 0. -1.
</event>
<event>
 7    1  0.1549642E-008  0.4614232E+02  0.7816164E-02  0.1320468E+00
        -11   -1    0    0    0    0  0.00000000000E+00  0.00000000000E+00  0.45593999997E+02  0.45594000000E+02  0.51100000000E-03 0. -1.
         11   -1    0    0    0    0 -0.00000000000E+00 -0.00000000000E+00 -0.45593999997E+02  0.45594000000E+02  0.51100000000E-03 0.  1.
    9900012    2    1    2    0    0 -0.64688778012E+01 -0.17891038128E+02 -0.40831091433E+02  0.46142315935E+02  0.99999833456E+01 0.  0.
         12    1    1    2    0    0  0.64688778012E+01  0.17891038128E+02  0.40831091433E+02  0.45045684065E+02  0.00000000000E+00 0. -1.
         11    1    3    3    0    0 -0.61833057140E+01 -0.50176183462E+01 -0.21301772393E+02  0.22741487875E+02  0.51100000000E-03 0. -1.
        -11    1    3    3    0    0 -0.32494785903E+00 -0.98092957058E+01 -0.14425161566E+02  0.17447439922E+02  0.51100000000E-03 0.  1.
         12    1    3    3    0    0  0.39375771827E-01 -0.30641240762E+01 -0.51041574738E+01  0.59533881381E+01  0.00000000000E+00 0. -1.
</event>
<event>
 7    1  0.1598600E-008  0.4614232E+02  0.7816164E-02  0.1320468E+00
        -11   -1    0    0    0    0  0.00000000000E+00  0.00000000000E+00  0.45593999997E+02  0.45594000000E+02  0.51100000000E-03 0.  1.
         11   -1    0    0    0    0 -0.00000000000E+00 -0.00000000000E+00 -0.45593999997E+02  0.45594000000E+02  0.51100000000E-03 0. -1.
    9900012    2    1    2    0    0 -0.14141281559E+01  0.38703168655E+02  0.23003878073E+02  0.46142318422E+02  0.10000006028E+02 0.  0.
         12    1    1    2    0    0  0.14141281559E+01 -0.38703168655E+02 -0.23003878073E+02  0.45045681578E+02  0.00000000000E+00 0. -1.
         11    1    3    3    0    0 -0.45998616147E+00 -0.31055258411E+00  0.23724627829E+00  0.60358614457E+00  0.51100000000E-03 0. -1.
        -11    1    3    3    0    0 -0.14050711774E+01  0.27385205484E+02  0.13002413219E+02  0.30347758635E+02  0.51100000000E-03 0.  1.
        -12    1    3    3    0    0  0.45092918298E+00  0.11628515755E+02  0.97642185757E+01  0.15190973642E+02  0.00000000000E+00 0.  1.
</event>
<event>
 7    1  0.1402367E-008  0.4614232E+02  0.7816164E-02  0.1320468E+00
        -11   -1    0    0    0    0  0.00000000000E+00  0.00000000000E+00  0.45593999997E+02  0.45594000000E+02  0.51100000000E-03 0.  1.
         11   -1    0    0    0    0 -0.00000000000E+00 -0.00000000000E+00 -0.45593999997E+02  0.45594000000E+02  0.51100000000E-03 0. -1.
    9900012    2    1    2    0    0 -0.37787316383E+02  0.23080832700E+02  0.82769162249E+01  0.46142318079E+02  0.10000002897E+02 0.  0.
         12    1    1    2    0    0  0.37787316383E+02 -0.23080832700E+02 -0.82769162249E+01  0.45045681921E+02  0.00000000000E+00 0. -1.
         11    1    3    3    0    0 -0.29598958809E+01  0.48720510921E+01  0.13576521615E-01  0.57007061012E+01  0.51100000000E-03 0. -1.
        -11    1    3    3    0    0 -0.31945248716E+02  0.16633432396E+02  0.61545180683E+01  0.36538309782E+02  0.51100000000E-03 0.  1.
        -12    1    3    3    0    0 -0.28821717865E+01  0.15753492115E+01  0.21088216350E+01  0.39033021960E+01  0.00000000000E+00 0.  1.
</event>
<event>
 7    1  0.1402367E-008  0.4614232E+02  0.7816164E-02  0.1320468E+00
        -11   -1    0    0    0    0  0.00000000000E+00  0.00000000000E+00  0.45593999997E+02  0.45594000000E+02  0.51100000000E-03 0. -1.
         11   -1    0    0    0    0 -0.00000000000E+00 -0.00000000000E+00 -0.45593999997E+02  0.45594000000E+02  0.51100000000E-03 0.  1.
    9900012    2    1    2    0    0  0.51655034751E+01 -0.29372284345E+02 -0.33759442961E+02  0.46142317600E+02  0.99999985345E+01 0.  0.
         12    1    1    2    0    0 -0.51655034751E+01  0.29372284345E+02  0.33759442961E+02  0.45045682400E+02  0.00000000000E+00 0. -1.
         11    1    3    3    0    0 -0.96307407977E+00 -0.86662550060E+01 -0.95395191598E+01  0.12924160072E+02  0.51100000000E-03 0. -1.
        -11    1    3    3    0    0  0.49826093250E+01 -0.15878854805E+02 -0.13585170837E+02  0.21483046631E+02  0.51100000000E-03 0.  1.
        -12    1    3    3    0    0  0.11459682299E+01 -0.48271745341E+01 -0.10634752964E+02  0.11735110897E+02  0.00000000000E+00 0.  1.
</event>
<event>
 7    1  0.1402367E-008  0.4614232E+02  0.7816164E-02  0.1320468E+00
        -11   -1    0    0    0    0  0.00000000000E+00  0.00000000000E+00  0.45593999997E+02  0.45594000000E+02  0.51100000000E-03 0.  1.
         11   -1    0    0    0    0 -0.00000000000E+00 -0.00000000000E+00 -0.45593999997E+02  0.45594000000E+02  0.51100000000E-03 0. -1.
    9900012    2    1    2    0    0 -0.12257923610E+02 -0.42824136778E+02  0.67044856324E+01  0.46142317525E+02  0.99999978504E+01 0.  0.
         12    1    1    2    0    0  0.12257923610E+02  0.42824136778E+02 -0.67044856324E+01  0.45045682475E+02  0.00000000000E+00 0. -1.
         11    1    3    3    0    0 -0.38930342039E+01 -0.81665767707E+01  0.41012106060E+01  0.99332079491E+01  0.51100000000E-03 0. -1.
        -11    1    3    3    0    0 -0.68946383280E+01 -0.26505513427E+02 -0.42083742616E+00  0.27390790133E+02  0.51100000000E-03 0.  1.
         12    1    3    3    0    0 -0.14702510782E+01 -0.81520465805E+01  0.30241124526E+01  0.88183194437E+01  0.00000000000E+00 0. -1.
</event>
<event>
 7    1  0.1402367E-008  0.4614232E+02  0.7816164E-02  0.1320468E+00
        -11   -1    0    0    0    0  0.00000000000E+00  0.00000000000E+00  0.45593999997E+02  0.45594000000E+02  0.51100000000E-03 0.  1.
         11   -1    0    0    0    0 -0.00000000000E+00 -0.00000000000E+00 -0.45593999997E+02  0.45594000000E+02  0.51100000000E-03 0. -1.
    9900012    2    1    2    0    0  0.22456473377E+02 -0.33040143381E+02  0.20812718650E+02  0.46142317313E+02  0.99999959125E+01 0.  0.
         12    1    1    2    0    0 -0.22456473377E+02  0.33040143381E+02 -0.20812718650E+02  0.45045682687E+02  0.00000000000E+00 0. -1.
         11    1    3    3    0    0  0.92078123370E+01 -0.13540681300E+02  0.37692070191E+01  0.16802999135E+02  0.51100000000E-03 0. -1.
        -11    1    3    3    0    0  0.82263358364E+01 -0.13422325907E+02  0.13314036344E+02  0.20617832041E+02  0.51100000000E-03 0.  1.
         12    1    3    3    0    0  0.50223252034E+01 -0.60771361734E+01  0.37294752869E+01  0.87214861368E+01  0.00000000000E+00 0. -1.
</event>
<event>
 7    1  0.1402367E-008  0.4614232E+02  0.7816164E-02  0.1320468E+00
        -11   -1    0    0    0    0  0.00000000000E+00  0.00000000000E+00  0.45593999997E+02  0.45594000000E+02  0.51100000000E-03 0.  1.
         11   -1    0    0    0    0 -0.00000000000E+00 -0.00000000000E+00 -0.45593999997E+02  0.45594000000E+02  0.51100000000E-03 0. -1.
    9900012    2    1    2    0    0 -0.41177121204E+02 -0.15710192682E+02  0.93138638590E+01  0.46142317357E+02  0.99999963144E+01 0.  0.
         12    1    1    2    0    0  0.41177121204E+02  0.15710192682E+02 -0.93138638590E+01  0.45045682643E+02  0.00000000000E+00 0. -1.
         11    1    3    3    0    0 -0.12283848300E+02 -0.34355685084E+01  0.45490212915E+01  0.13542143663E+02  0.51100000000E-03 0.  1.
        -11    1    3    3    0    0 -0.10656635306E+02 -0.13463619649E+01 -0.29741195731E+00  0.10745465123E+02  0.51100000000E-03 0. -1.
        -12    1    3    3    0    0 -0.18236637599E+02 -0.10928262209E+02  0.50622545248E+01  0.21854708570E+02  0.00000000000E+00 0.  1.
</event>
<event>
 7    1  0.1402367E-008  0.4614232E+02  0.7816164E-02  0.1320468E+00
        -11   -1    0    0    0    0  0.00000000000E+00  0.00000000000E+00  0.45593999997E+02  0.45594000000E+02  0.51100000000E-03 0. -1.
         11   -1    0    0    0    0 -0.00000000000E+00 -0.00000000000E+00 -0.45593999997E+02  0.45594000000E+02  0.51100000000E-03 0.  1.
    9900012    2    1    2    0    0 -0.88719041325E+01 -0.43966162990E+02 -0.41688425427E+01  0.46142318529E+02  0.10000007006E+02 0.  0.
         12    1    1    2    0    0  0.88719041325E+01  0.43966162990E+02  0.41688425427E+01  0.45045681471E+02  0.00000000000E+00 0. -1.
         11    1    3    3    0    0 -0.31198327215E+01 -0.27275686504E+02 -0.26696961645E+01  0.27583032980E+02  0.51100000000E-03 0. -1.
        -11    1    3    3    0    0 -0.21012466436E+01 -0.13417782648E+02 -0.14237993040E+01  0.13655743603E+02  0.51100000000E-03 0.  1.
         12    1    3    3    0    0 -0.36508247674E+01 -0.32726938381E+01 -0.75347074231E-01  0.49035419465E+01  0.00000000000E+00 0. -1.
</event>
<event>
 7    1  0.1402367E-008  0.4614232E+02  0.7816164E-02  0.1320468E+00
        -11   -1    0    0    0    0  0.00000000000E+00  0.00000000000E+00  0.45593999997E+02  0.45594000000E+02  0.51100000000E-03 0.  1.
         11   -1    0    0    0    0 -0.00000000000E+00 -0.00000000000E+00 -0.45593999997E+02  0.45594000000E+02  0.51100000000E-03 0. -1.
    9900012    2    1    2    0    0 -0.25309202801E+02 -0.36438914048E+02  0.77950815611E+01  0.46142317632E+02  0.99999988245E+01 0.  0.
         12    1    1    2    0    0  0.25309202801E+02  0.36438914048E+02 -0.77950815611E+01  0.45045682368E+02  0.00000000000E+00 0. -1.
         11    1    3    3    0    0 -0.21389513933E+02 -0.27794240972E+02  0.89499166795E+01  0.36195747628E+02  0.51100000000E-03 0. -1.
        -11    1    3    3    0    0 -0.43221332441E+01 -0.74013082679E+01 -0.10613564246E+01  0.86363578885E+01  0.51100000000E-03 0.  1.
        -12    1    3    3    0    0  0.40244437620E+00 -0.12433648083E+01 -0.93478693804E-01  0.13102121159E+01  0.00000000000E+00 0.  1.
</event>
<event>
 7    1  0.1402367E-008  0.4614232E+02  0.7816164E-02  0.1320468E+00
        -11   -1    0    0    0    0  0.00000000000E+00  0.00000000000E+00  0.45593999997E+02  0.45594000000E+02  0.51100000000E-03 0.  1.
         11   -1    0    0    0    0 -0.00000000000E+00 -0.00000000000E+00 -0.45593999997E+02  0.45594000000E+02  0.51100000000E-03 0. -1.
    9900012    2    1    2    0    0  0.63648116840E+01  0.13707094611E+02  0.42434869373E+02  0.46142318641E+02  0.10000008024E+02 0.  0.
         12    1    1    2    0    0 -0.63648116840E+01 -0.13707094611E+02 -0.42434869373E+02  0.45045681359E+02  0.00000000000E+00 0. -1.
         11    1    3    3    0    0  0.52480711463E+01  0.61456350481E+01  0.17259410809E+02  0.19057763317E+02  0.51100000000E-03 0. -1.
        -11    1    3    3    0    0 -0.97640538724E+00  0.66716471951E+01  0.12461320204E+02  0.14168583036E+02  0.51100000000E-03 0.  1.
        -12    1    3    3    0    0  0.20931459250E+01  0.88981236727E+00  0.12714138360E+02  0.12915972288E+02  0.00000000000E+00 0.  1.
</event>
<event>
 7    1  0.1402367E-008  0.4614232E+02  0.7816164E-02  0.1320468E+00
        -11   -1    0    0    0    0  0.00000000000E+00  0.00000000000E+00  0.45593999997E+02  0.45594000000E+02  0.51100000000E-03 0.  1.
         11   -1    0    0    0    0 -0.00000000000E+00 -0.00000000000E+00 -0.45593999997E+02  0.45594000000E+02  0.51100000000E-03 0. -1.
    9900012    2    1    2    0    0  0.20000690129E+02  0.15090721729E+02  0.37434688824E+02  0.46142318573E+02  0.10000007400E+02 0.  0.
         12    1    1    2    0    0 -0.20000690129E+02 -0.15090721729E+02 -0.37434688824E+02  0.45045681427E+02  0.00000000000E+00 0. -1.
         11    1    3    3    0    0  0.10364333761E+02  0.92002403797E+01  0.17272786897E+02  0.22145270484E+02  0.51100000000E-03 0. -1.
        -11    1    3    3    0    0 -0.71116013924E+00  0.10214945941E+01  0.40662165395E+01  0.42524483721E+01  0.51100000000E-03 0.  1.
        -12    1    3    3    0    0  0.10347516507E+02  0.48689867550E+01  0.16095685387E+02  0.19744599717E+02  0.00000000000E+00 0.  1.
</event>
<event>
 7    1  0.1402367E-008  0.4614232E+02  0.7816164E-02  0.1320468E+00
        -11   -1    0    0    0    0  0.00000000000E+00  0.00000000000E+00  0.45593999997E+02  0.45594000000E+02  0.51100000000E-03 0. -1.
         11   -1    0    0    0    0 -0.00000000000E+00 -0.00000000000E+00 -0.45593999997E+02  0.45594000000E+02  0.51100000000E-03 0.  1.
    9900012    2    1    2    0    0 -0.33564740420E+02  0.16089716421E+02 -0.25370114102E+02  0.46142318036E+02  0.10000002510E+02 0.  0.
         12    1    1    2    0    0  0.33564740420E+02 -0.16089716421E+02  0.25370114102E+02  0.45045681964E+02  0.00000000000E+00 0. -1.
         11    1    3    3    0    0 -0.15622247577E+02  0.65793154221E+01 -0.88444060651E+01  0.19119768034E+02  0.51100000000E-03 0. -1.
        -11    1    3    3    0    0 -0.16036544331E+02  0.92724243517E+01 -0.16889116602E+02  0.25067725611E+02  0.51100000000E-03 0.  1.
         12    1    3    3    0    0 -0.19059485126E+01  0.23797664764E+00  0.36340856459E+00  0.19548243917E+01  0.00000000000E+00 0. -1.
</event>
<event>
 7    1  0.1419299E-008  0.4614232E+02  0.7816164E-02  0.1320468E+00
        -11   -1    0    0    0    0  0.00000000000E+00  0.00000000000E+00  0.45593999997E+02  0.45594000000E+02  0.51100000000E-03 0. -1.
         11   -1    0    0    0    0 -0.00000000000E+00 -0.00000000000E+00 -0.45593999997E+02  0.45594000000E+02  0.51100000000E-03 0.  1.
    9900012    2    1    2    0    0  0.43992400059E+01 -0.34162197234E+02 -0.29029372657E+02  0.46142317528E+02  0.99999978758E+01 0.  0.
         12    1    1    2    0    0 -0.43992400059E+01  0.34162197234E+02  0.29029372657E+02  0.45045682472E+02  0.00000000000E+00 0. -1.
         11    1    3    3    0    0  0.20159174619E+00  0.28141780003E+00 -0.61199299800E-01  0.35154064590E+00  0.51100000000E-03 0. -1.
        -11    1    3    3    0    0  0.17142860604E+01 -0.25602087665E+02 -0.24870511688E+02  0.35734409487E+02  0.51100000000E-03 0.  1.
        -12    1    3    3    0    0  0.24833621993E+01 -0.88415273693E+01 -0.40976616694E+01  0.10056367395E+02  0.00000000000E+00 0.  1.
</event>
<event>
 7    1  0.1402367E-008  0.4614232E+02  0.7816164E-02  0.1320468E+00
        -11   -1    0    0    0    0  0.00000000000E+00  0.00000000000E+00  0.45593999997E+02  0.45594000000E+02  0.51100000000E-03 0.  1.
         11   -1    0    0    0    0 -0.00000000000E+00 -0.00000000000E+00 -0.45593999997E+02  0.45594000000E+02  0.51100000000E-03 0. -1.
    9900012    2    1    2    0    0  0.26909087540E+02  0.22061633912E+02  0.28605922224E+02  0.46142317972E+02  0.10000001925E+02 0.  0.
         12    1    1    2    0    0 -0.26909087540E+02 -0.22061633912E+02 -0.28605922224E+02  0.45045682028E+02  0.00000000000E+00 0. -1.
         11    1    3    3    0    0  0.78743108794E+01  0.86130316118E+01  0.83063874018E+01  0.14324285577E+02  0.51100000000E-03 0. -1.
        -11    1    3    3    0    0  0.14266379618E+02  0.69085768304E+01  0.16488094435E+02  0.22871713525E+02  0.51100000000E-03 0.  1.
        -12    1    3    3    0    0  0.47683970426E+01  0.65400254696E+01  0.38114403872E+01  0.89463188700E+01  0.00000000000E+00 0.  1.
</event>
<event>
 7    1  0.1402367E-008  0.4614232E+02  0.7816164E-02  0.1320468E+00
        -11   -1    0    0    0    0  0.00000000000E+00  0.00000000000E+00  0.45593999997E+02  0.45594000000E+02  0.51100000000E-03 0. -1.
         11   -1    0    0    0    0 -0.00000000000E+00 -0.00000000000E+00 -0.45593999997E+02  0.45594000000E+02  0.51100000000E-03 0.  1.
    9900012    2    1    2    0    0  0.40351974514E+02 -0.16165384953E+02 -0.11811518758E+02  0.46142317707E+02  0.99999995056E+01 0.  0.
         12    1    1    2    0    0 -0.40351974514E+02  0.16165384953E+02  0.11811518758E+02  0.45045682293E+02  0.00000000000E+00 0. -1.
         11    1    3    3    0    0  0.67317308487E+01 -0.56693529712E+01 -0.46972013172E+01  0.99760444970E+01  0.51100000000E-03 0. -1.
        -11    1    3    3    0    0  0.18355657452E+02 -0.69043598381E+01 -0.56914679539E+01  0.20420410206E+02  0.51100000000E-03 0.  1.
         12    1    3    3    0    0  0.15264586214E+02 -0.35916721439E+01 -0.14228494871E+01  0.15745863004E+02  0.00000000000E+00 0. -1.
</event>
<event>
 7    1  0.1402367E-008  0.4614232E+02  0.7816164E-02  0.1320468E+00
        -11   -1    0    0    0    0  0.00000000000E+00  0.00000000000E+00  0.45593999997E+02  0.45594000000E+02  0.51100000000E-03 0.  1.
         11   -1    0    0    0    0 -0.00000000000E+00 -0.00000000000E+00 -0.45593999997E+02  0.45594000000E+02  0.51100000000E-03 0. -1.
    9900012    2    1    2    0    0 -0.89010322939E+01 -0.30387072297E+02  0.32039208485E+02  0.46142318531E+02  0.10000007017E+02 0.  0.
         12    1    1    2    0    0  0.89010322939E+01  0.30387072297E+02 -0.32039208485E+02  0.45045681469E+02  0.00000000000E+00 0. -1.
         11    1    3    3    0    0 -0.71098272631E+01 -0.11899272731E+02  0.17640815957E+02  0.22435256253E+02  0.51100000000E-03 0. -1.
        -11    1    3    3    0    0 -0.46094168976E+00 -0.24750679636E+00  0.22670281117E+00  0.57019407338E+00  0.51100000000E-03 0.  1.
         12    1    3    3    0    0 -0.13302633411E+01 -0.18240292769E+02  0.14171689717E+02  0.23136868204E+02  0.00000000000E+00 0. -1.
</event>
<event>
 7    1  0.1402367E-008  0.4614232E+02  0.7816164E-02  0.1320468E+00
        -11   -1    0    0    0    0  0.00000000000E+00  0.00000000000E+00  0.45593999997E+02  0.45594000000E+02  0.51100000000E-03 0.  1.
         11   -1    0    0    0    0 -0.00000000000E+00 -0.00000000000E+00 -0.45593999997E+02  0.45594000000E+02  0.51100000000E-03 0. -1.
    9900012    2    1    2    0    0 -0.42805194316E+02 -0.11616969721E+00  0.14029090599E+02  0.46142317200E+02  0.99999948873E+01 0.  0.
         12    1    1    2    0    0  0.42805194316E+02  0.11616969721E+00 -0.14029090599E+02  0.45045682800E+02  0.00000000000E+00 0. -1.
         11    1    3    3    0    0 -0.27132344645E+02 -0.42919316118E+01  0.69751018865E+01  0.28341433441E+02  0.51100000000E-03 0. -1.
        -11    1    3    3    0    0 -0.82166362303E+01  0.13433769696E+01  0.42382259000E+01  0.93423943218E+01  0.51100000000E-03 0.  1.
         12    1    3    3    0    0 -0.74562134411E+01  0.28323849450E+01  0.28157628130E+01  0.84584894381E+01  0.00000000000E+00 0. -1.
</event>
<event>
 7    1  0.1402367E-008  0.4614232E+02  0.7816164E-02  0.1320468E+00
        -11   -1    0    0    0    0  0.00000000000E+00  0.00000000000E+00  0.45593999997E+02  0.45594000000E+02  0.51100000000E-03 0.  1.
         11   -1    0    0    0    0 -0.00000000000E+00 -0.00000000000E+00 -0.45593999997E+02  0.45594000000E+02  0.51100000000E-03 0. -1.
    9900012    2    1    2    0    0 -0.28886036867E+02 -0.51097085031E+01  0.34184809806E+02  0.46142317983E+02  0.10000002026E+02 0.  0.
         12    1    1    2    0    0  0.28886036867E+02  0.51097085031E+01 -0.34184809806E+02  0.45045682017E+02  0.00000000000E+00 0. -1.
         11    1    3    3    0    0 -0.10734727309E+02 -0.27940681757E+01  0.67839070854E+01  0.13002406815E+02  0.51100000000E-03 0. -1.
        -11    1    3    3    0    0 -0.16985907768E+02 -0.12125162991E+01  0.24797201528E+02  0.30081430524E+02  0.51100000000E-03 0.  1.
        -12    1    3    3    0    0 -0.11654017903E+01 -0.11031240283E+01  0.26037011925E+01  0.30584806448E+01  0.00000000000E+00 0.  1.
</event>
<event>
 7    1  0.1402367E-008  0.4614232E+02  0.7816164E-02  0.1320468E+00
        -11   -1    0    0    0    0  0.00000000000E+00  0.00000000000E+00  0.45593999997E+02  0.45594000000E+02  0.51100000000E-03 0.  1.
         11   -1    0    0    0    0 -0.00000000000E+00 -0.00000000000E+00 -0.45593999997E+02  0.45594000000E+02  0.51100000000E-03 0. -1.
    9900012    2    1    2    0    0  0.62656412477E+01  0.14197931557E+02  0.42287988538E+02  0.46142317684E+02  0.99999992939E+01 0.  0.
         12    1    1    2    0    0 -0.62656412477E+01 -0.14197931557E+02 -0.42287988538E+02  0.45045682316E+02  0.00000000000E+00 0. -1.
         11    1    3    3    0    0 -0.95882050977E+00  0.66532338182E+01  0.15610590446E+02  0.16996334644E+02  0.51100000000E-03 0. -1.
        -11    1    3    3    0    0  0.20580547587E+01 -0.11300562275E+00  0.23612280704E+01  0.31342874664E+01  0.51100000000E-03 0.  1.
        -12    1    3    3    0    0  0.51664069988E+01  0.76577033612E+01  0.24316170022E+02  0.26011695573E+02  0.00000000000E+00 0.  1.
</event>
<event>
 7    1  0.1402367E-008  0.4614232E+02  0.7816164E-02  0.1320468E+00
        -11   -1    0    0    0    0  0.00000000000E+00  0.00000000000E+00  0.45593999997E+02  0.45594000000E+02  0.51100000000E-03 0. -1.
         11   -1    0    0    0    0 -0.00000000000E+00 -0.00000000000E+00 -0.45593999997E+02  0.45594000000E+02  0.51100000000E-03 0.  1.
    9900012    2    1    2    0    0  0.10771670608E+01 -0.40501369702E+02 -0.19687362819E+02  0.46142317727E+02  0.99999996904E+01 0.  0.
         12    1    1    2    0    0 -0.10771670608E+01  0.40501369702E+02  0.19687362819E+02  0.45045682273E+02  0.00000000000E+00 0. -1.
         11    1    3    3    0    0 -0.12235076064E+01 -0.71082744370E+01 -0.76905456137E+01  0.10543672436E+02  0.51100000000E-03 0. -1.
        -11    1    3    3    0    0  0.16811381877E+01 -0.29147693743E+02 -0.10953675029E+02  0.31183285155E+02  0.51100000000E-03 0.  1.
         12    1    3    3    0    0  0.61953647942E+00 -0.42454015227E+01 -0.10431421765E+01  0.44153601369E+01  0.00000000000E+00 0. -1.
</event>
<event>
 7    1  0.1402367E-008  0.4614232E+02  0.7816164E-02  0.1320468E+00
        -11   -1    0    0    0    0  0.00000000000E+00  0.00000000000E+00  0.45593999997E+02  0.45594000000E+02  0.51100000000E-03 0. -1.
         11   -1    0    0    0    0 -0.00000000000E+00 -0.00000000000E+00 -0.45593999997E+02  0.45594000000E+02  0.51100000000E-03 0.  1.
    9900012    2    1    2    0    0 -0.25345825517E+02 -0.37048049686E+02 -0.37608798534E+01  0.46142322361E+02  0.10000041946E+02 0.  0.
         12    1    1    2    0    0  0.25345825517E+02  0.37048049686E+02  0.37608798534E+01  0.45045677639E+02  0.00000000000E+00 0. -1.
         11    1    3    3    0    0 -0.61073961541E+00 -0.17903478547E+01 -0.73668072976E+00  0.20300362256E+01  0.51100000000E-03 0. -1.
        -11    1    3    3    0    0 -0.25303140443E+02 -0.34266469766E+02 -0.21089483912E+01  0.42648417674E+02  0.51100000000E-03 0.  1.
        -12    1    3    3    0    0  0.56805454143E+00 -0.99123206542E+00 -0.91525073245E+00  0.14638684616E+01  0.00000000000E+00 0.  1.
</event>
<event>
 7    1  0.1402367E-008  0.4614232E+02  0.7816164E-02  0.1320468E+00
        -11   -1    0    0    0    0  0.00000000000E+00  0.00000000000E+00  0.45593999997E+02  0.45594000000E+02  0.51100000000E-03 0.  1.
         11   -1    0    0    0    0 -0.00000000000E+00 -0.00000000000E+00 -0.45593999997E+02  0.45594000000E+02  0.51100000000E-03 0. -1.
    9900012    2    1    2    0    0 -0.25221280208E+02  0.34885776189E+02 -0.13265863730E+02  0.46142317675E+02  0.99999992132E+01 0.  0.
         12    1    1    2    0    0  0.25221280208E+02 -0.34885776189E+02  0.13265863730E+02  0.45045682325E+02  0.00000000000E+00 0. -1.
         11    1    3    3    0    0 -0.29443956916E+01  0.74918520284E+01 -0.59610486524E+01  0.10016556998E+02  0.51100000000E-03 0. -1.
        -11    1    3    3    0    0 -0.60834565548E+01  0.70774467262E+01 -0.96134054791E+00  0.93820505076E+01  0.51100000000E-03 0.  1.
         12    1    3    3    0    0 -0.16193427961E+02  0.20316477435E+02 -0.63434745298E+01  0.26743710169E+02  0.00000000000E+00 0. -1.
</event>
<event>
 7    1  0.1402367E-008  0.4614232E+02  0.7816164E-02  0.1320468E+00
        -11   -1    0    0    0    0  0.00000000000E+00  0.00000000000E+00  0.45593999997E+02  0.45594000000E+02  0.51100000000E-03 0.  1.
         11   -1    0    0    0    0 -0.00000000000E+00 -0.00000000000E+00 -0.45593999997E+02  0.45594000000E+02  0.51100000000E-03 0. -1.
    9900012    2    1    2    0    0  0.16067861125E+02  0.40954863132E+02  0.96765970287E+01  0.46142317572E+02  0.99999982771E+01 0.  0.
         12    1    1    2    0    0 -0.16067861125E+02 -0.40954863132E+02 -0.96765970287E+01  0.45045682428E+02  0.00000000000E+00 0. -1.
         11    1    3    3    0    0  0.78040299760E+01  0.17117649587E+02  0.58451652645E+01  0.19699816458E+02  0.51100000000E-03 0. -1.
        -11    1    3    3    0    0  0.20663798346E+01  0.15823453151E+02  0.33167678155E+01  0.16298851010E+02  0.51100000000E-03 0.  1.
         12    1    3    3    0    0  0.61974513144E+01  0.80137603940E+01  0.51466394871E+00  0.10143650104E+02  0.00000000000E+00 0. -1.
</event>
<event>
 7    1  0.1402367E-008  0.4614232E+02  0.7816164E-02  0.1320468E+00
        -11   -1    0    0    0    0  0.00000000000E+00  0.00000000000E+00  0.45593999997E+02  0.45594000000E+02  0.51100000000E-03 0.  1.
         11   -1    0    0    0    0 -0.00000000000E+00 -0.00000000000E+00 -0.45593999997E+02  0.45594000000E+02  0.51100000000E-03 0. -1.
    9900012    2    1    2    0    0 -0.65953650821E+01 -0.31766541984E+02  0.31249019455E+02  0.46142320439E+02  0.10000024419E+02 0.  0.
         12    1    1    2    0    0  0.65953650821E+01  0.31766541984E+02 -0.31249019455E+02  0.45045679561E+02  0.00000000000E+00 0. -1.
         11    1    3    3    0    0  0.10264227429E+01 -0.47556877657E+01  0.79524736497E+01  0.93226577317E+01  0.51100000000E-03 0. -1.
        -11    1    3    3    0    0  0.18104032986E+00 -0.27778027422E+01  0.93918784904E+00  0.29378627866E+01  0.51100000000E-03 0.  1.
         12    1    3    3    0    0 -0.78028281548E+01 -0.24233051476E+02  0.22357357956E+02  0.33881799921E+02  0.00000000000E+00 0. -1.
</event>
<event>
 7    1  0.1402367E-008  0.4614232E+02  0.7816164E-02  0.1320468E+00
        -11   -1    0    0    0    0  0.00000000000E+00  0.00000000000E+00  0.45593999997E+02  0.45594000000E+02  0.51100000000E-03 0.  1.
         11   -1    0    0    0    0 -0.00000000000E+00 -0.00000000000E+00 -0.45593999997E+02  0.45594000000E+02  0.51100000000E-03 0. -1.
    9900012    2    1    2    0    0 -0.10189887623E+02 -0.62092648370E+01  0.43436444258E+02  0.46142317972E+02  0.10000001921E+02 0.  0.
         12    1    1    2    0    0  0.10189887623E+02  0.62092648370E+01 -0.43436444258E+02  0.45045682028E+02  0.00000000000E+00 0. -1.
         11    1    3    3    0    0  0.13195015279E+01  0.30009893478E-01  0.13359733549E+01  0.18779802827E+01  0.51100000000E-03 0. -1.
        -11    1    3    3    0    0 -0.14218855997E+01 -0.23577242218E+00  0.96263579361E+01  0.97336588531E+01  0.51100000000E-03 0.  1.
         12    1    3    3    0    0 -0.10087503551E+02 -0.60035023083E+01  0.32474112967E+02  0.34530678836E+02  0.00000000000E+00 0. -1.
</event>
<event>
 7    1  0.1402367E-008  0.4614232E+02  0.7816164E-02  0.1320468E+00
        -11   -1    0    0    0    0  0.00000000000E+00  0.00000000000E+00  0.45593999997E+02  0.45594000000E+02  0.51100000000E-03 0.  1.
         11   -1    0    0    0    0 -0.00000000000E+00 -0.00000000000E+00 -0.45593999997E+02  0.45594000000E+02  0.51100000000E-03 0. -1.
    9900012    2    1    2    0    0  0.39453393784E+02  0.41298104449E+01  0.21342160435E+02  0.46142318437E+02  0.10000006167E+02 0.  0.
         12    1    1    2    0    0 -0.39453393784E+02 -0.41298104449E+01 -0.21342160435E+02  0.45045681563E+02  0.00000000000E+00 0. -1.
         11    1    3    3    0    0  0.90353673371E+01 -0.16367424751E+01  0.74763662537E+01  0.11841150344E+02  0.51100000000E-03 0. -1.
        -11    1    3    3    0    0  0.29772184855E+02  0.55795152117E+01  0.12479700377E+02  0.32760599854E+02  0.51100000000E-03 0.  1.
        -12    1    3    3    0    0  0.64584159216E+00  0.18703770828E+00  0.13860938039E+01  0.15405682392E+01  0.00000000000E+00 0.  1.
</event>
<event>
 7    1  0.1402367E-008  0.4614232E+02  0.7816164E-02  0.1320468E+00
        -11   -1    0    0    0    0  0.00000000000E+00  0.00000000000E+00  0.45593999997E+02  0.45594000000E+02  0.51100000000E-03 0. -1.
         11   -1    0    0    0    0 -0.00000000000E+00 -0.00000000000E+00 -0.45593999997E+02  0.45594000000E+02  0.51100000000E-03 0.  1.
    9900012    2    1    2    0    0  0.91281840888E+01  0.16344819110E+02 -0.40971168495E+02  0.46142317584E+02  0.99999983853E+01 0.  0.
         12    1    1    2    0    0 -0.91281840888E+01 -0.16344819110E+02  0.40971168495E+02  0.45045682416E+02  0.00000000000E+00 0. -1.
         11    1    3    3    0    0  0.84580719870E+01  0.51371123375E+01 -0.17292370801E+02  0.19923729397E+02  0.51100000000E-03 0. -1.
        -11    1    3    3    0    0  0.19785637414E-01  0.14778675946E+01 -0.37845049962E+01  0.40628761273E+01  0.51100000000E-03 0.  1.
         12    1    3    3    0    0  0.65032646433E+00  0.97298391775E+01 -0.19894292697E+02  0.22155712059E+02  0.00000000000E+00 0. -1.
</event>
<event>
 7    1  0.1402367E-008  0.4614232E+02  0.7816164E-02  0.1320468E+00
        -11   -1    0    0    0    0  0.00000000000E+00  0.00000000000E+00  0.45593999997E+02  0.45594000000E+02  0.51100000000E-03 0.  1.
         11   -1    0    0    0    0 -0.00000000000E+00 -0.00000000000E+00 -0.45593999997E+02  0.45594000000E+02  0.51100000000E-03 0. -1.
    9900012    2    1    2    0    0 -0.12902298045E+02  0.30223402818E+02  0.30808926511E+02  0.46142319568E+02  0.10000016481E+02 0.  0.
         12    1    1    2    0    0  0.12902298045E+02 -0.30223402818E+02 -0.30808926511E+02  0.45045680432E+02  0.00000000000E+00 0. -1.
         11    1    3    3    0    0 -0.45854662641E+01  0.14455321580E+02  0.95964473784E+01  0.17946437680E+02  0.51100000000E-03 0. -1.
        -11    1    3    3    0    0 -0.55158518258E+01  0.13607793211E+02  0.14655406684E+02  0.20745544167E+02  0.51100000000E-03 0.  1.
         12    1    3    3    0    0 -0.28009799554E+01  0.21602880270E+01  0.65570724492E+01  0.74503377221E+01  0.00000000000E+00 0. -1.
</event>
<event>
 7    1  0.1402367E-008  0.4614232E+02  0.7816164E-02  0.1320468E+00
        -11   -1    0    0    0    0  0.00000000000E+00  0.00000000000E+00  0.45593999997E+02  0.45594000000E+02  0.51100000000E-03 0. -1.
         11   -1    0    0    0    0 -0.00000000000E+00 -0.00000000000E+00 -0.45593999997E+02  0.45594000000E+02  0.51100000000E-03 0.  1.
    9900012    2    1    2    0    0  0.43214105210E+02  0.65779588737E+01  0.10880486113E+02  0.46142318629E+02  0.10000007918E+02 0.  0.
         12    1    1    2    0    0 -0.43214105210E+02 -0.65779588737E+01 -0.10880486113E+02  0.45045681371E+02  0.00000000000E+00 0. -1.
         11    1    3    3    0    0  0.10215288459E+02  0.76685363131E+00  0.45935450703E+00  0.10254325410E+02  0.51100000000E-03 0. -1.
        -11    1    3    3    0    0  0.13089282653E+01  0.19101069617E+01  0.47668145146E-01  0.23160471329E+01  0.51100000000E-03 0.  1.
        -12    1    3    3    0    0  0.31689888486E+02  0.39009982807E+01  0.10373463461E+02  0.33571946087E+02  0.00000000000E+00 0.  1.
</event>
<event>
 7    1  0.1402367E-008  0.4614232E+02  0.7816164E-02  0.1320468E+00
        -11   -1    0    0    0    0  0.00000000000E+00  0.00000000000E+00  0.45593999997E+02  0.45594000000E+02  0.51100000000E-03 0.  1.
         11   -1    0    0    0    0 -0.00000000000E+00 -0.00000000000E+00 -0.45593999997E+02  0.45594000000E+02  0.51100000000E-03 0. -1.
    9900012    2    1    2    0    0 -0.40289131695E+02 -0.97929374413E+01  0.17606751755E+02  0.46142318034E+02  0.10000002485E+02 0.  0.
         12    1    1    2    0    0  0.40289131695E+02  0.97929374413E+01 -0.17606751755E+02  0.45045681966E+02  0.00000000000E+00 0. -1.
         11    1    3    3    0    0 -0.26156186429E+02 -0.89534793647E+01  0.87799377918E+01  0.29006864517E+02  0.51100000000E-03 0. -1.
        -11    1    3    3    0    0 -0.12366474167E+02 -0.18147002485E+01  0.66147991184E+01  0.14141371502E+02  0.51100000000E-03 0.  1.
         12    1    3    3    0    0 -0.17664710997E+01  0.97524217189E+00  0.22120148444E+01  0.29940820149E+01  0.00000000000E+00 0. -1.
</event>
<event>
 7    1  0.1402367E-008  0.4614232E+02  0.7816164E-02  0.1320468E+00
        -11   -1    0    0    0    0  0.00000000000E+00  0.00000000000E+00  0.45593999997E+02  0.45594000000E+02  0.51100000000E-03 0.  1.
         11   -1    0    0    0    0 -0.00000000000E+00 -0.00000000000E+00 -0.45593999997E+02  0.45594000000E+02  0.51100000000E-03 0. -1.
    9900012    2    1    2    0    0 -0.38782489396E+02 -0.14523986656E+02  0.17722466564E+02  0.46142317707E+02  0.99999995039E+01 0.  0.
         12    1    1    2    0    0  0.38782489396E+02  0.14523986656E+02 -0.17722466564E+02  0.45045682293E+02  0.00000000000E+00 0. -1.
         11    1    3    3    0    0 -0.94649134131E+01 -0.58888479620E+01  0.72241249795E+01  0.13283489685E+02  0.51100000000E-03 0. -1.
        -11    1    3    3    0    0 -0.23812714517E+02 -0.45207451045E+01  0.76169106563E+01  0.25406688828E+02  0.51100000000E-03 0.  1.
        -12    1    3    3    0    0 -0.55048614660E+01 -0.41143935899E+01  0.28814309277E+01  0.74521391938E+01  0.00000000000E+00 0.  1.
</event>
<event>
 7    1  0.1402367E-008  0.4614232E+02  0.7816164E-02  0.1320468E+00
        -11   -1    0    0    0    0  0.00000000000E+00  0.00000000000E+00  0.45593999997E+02  0.45594000000E+02  0.51100000000E-03 0.  1.
         11   -1    0    0    0    0 -0.00000000000E+00 -0.00000000000E+00 -0.45593999997E+02  0.45594000000E+02  0.51100000000E-03 0. -1.
    9900012    2    1    2    0    0  0.21832431013E+02  0.29664579449E+02  0.25932047860E+02  0.46142318475E+02  0.10000006512E+02 0.  0.
         12    1    1    2    0    0 -0.21832431013E+02 -0.29664579449E+02 -0.25932047860E+02  0.45045681525E+02  0.00000000000E+00 0. -1.
         11    1    3    3    0    0  0.16285777340E+02  0.22621976416E+02  0.20008582257E+02  0.34312151269E+02  0.51100000000E-03 0. -1.
        -11    1    3    3    0    0  0.35198524281E+01  0.72912844203E+01  0.53668492377E+01  0.97136636042E+01  0.51100000000E-03 0.  1.
         12    1    3    3    0    0  0.20268012450E+01 -0.24868138742E+00  0.55661636575E+00  0.21165036021E+01  0.00000000000E+00 0. -1.
</event>
<event>
 7    1  0.1402367E-008  0.4614232E+02  0.7816164E-02  0.1320468E+00
        -11   -1    0    0    0    0  0.00000000000E+00  0.00000000000E+00  0.45593999997E+02  0.45594000000E+02  0.51100000000E-03 0.  1.
         11   -1    0    0    0    0 -0.00000000000E+00 -0.00000000000E+00 -0.45593999997E+02  0.45594000000E+02  0.51100000000E-03 0. -1.
    9900012    2    1    2    0    0  0.29426975641E+02 -0.17089977155E+02  0.29514390958E+02  0.46142317764E+02  0.10000000023E+02 0.  0.
         12    1    1    2    0    0 -0.29426975641E+02  0.17089977155E+02 -0.29514390958E+02  0.45045682236E+02  0.00000000000E+00 0. -1.
         11    1    3    3    0    0  0.40225655203E+01 -0.15587364219E+01  0.71949238056E+01  0.83891371086E+01  0.51100000000E-03 0. -1.
        -11    1    3    3    0    0  0.11684834834E+02 -0.42001996285E+01  0.68838296625E+01  0.14197329083E+02  0.51100000000E-03 0.  1.
         12    1    3    3    0    0  0.13719575286E+02 -0.11331041105E+02  0.15435637490E+02  0.23555851572E+02  0.00000000000E+00 0. -1.
</event>
<event>
 7    1  0.1402367E-008  0.4614232E+02  0.7816164E-02  0.1320468E+00
        -11   -1    0    0    0    0  0.00000000000E+00  0.00000000000E+00  0.45593999997E+02  0.45594000000E+02  0.51100000000E-03 0. -1.
         11   -1    0    0    0    0 -0.00000000000E+00 -0.00000000000E+00 -0.45593999997E+02  0.45594000000E+02  0.51100000000E-03 0.  1.
    9900012    2    1    2    0    0  0.44409094627E+02 -0.74334225352E+01  0.12999716039E+01  0.46142318938E+02  0.10000010735E+02 0.  0.
         12    1    1    2    0    0 -0.44409094627E+02  0.74334225352E+01 -0.12999716039E+01  0.45045681062E+02  0.00000000000E+00 0. -1.
         11    1    3    3    0    0  0.17545828644E+02 -0.12299992740E+01 -0.38449870416E+01  0.18004247461E+02  0.51100000000E-03 0. -1.
        -11    1    3    3    0    0  0.15526675925E+02 -0.30004283374E+01  0.39318686727E+01  0.16295392815E+02  0.51100000000E-03 0.  1.
         12    1    3    3    0    0  0.11336590058E+02 -0.32029949238E+01  0.12130899728E+01  0.11842678662E+02  0.00000000000E+00 0. -1.
</event>
<event>
 7    1  0.1402367E-008  0.4614232E+02  0.7816164E-02  0.1320468E+00
        -11   -1    0    0    0    0  0.00000000000E+00  0.00000000000E+00  0.45593999997E+02  0.45594000000E+02  0.51100000000E-03 0.  1.
         11   -1    0    0    0    0 -0.00000000000E+00 -0.00000000000E+00 -0.45593999997E+02  0.45594000000E+02  0.51100000000E-03 0. -1.
    9900012    2    1    2    0    0 -0.32144797237E+02  0.96769871216E+01  0.30036335447E+02  0.46142317452E+02  0.99999971801E+01 0.  0.
         12    1    1    2    0    0  0.32144797237E+02 -0.96769871216E+01 -0.30036335447E+02  0.45045682548E+02  0.00000000000E+00 0. -1.
         11    1    3    3    0    0 -0.52543759015E+01  0.37977397002E+00  0.81395545056E+00  0.53305926612E+01  0.51100000000E-03 0. -1.
        -11    1    3    3    0    0 -0.24149063154E+02  0.80536872935E+01  0.26614766519E+02  0.36829131504E+02  0.51100000000E-03 0.  1.
         12    1    3    3    0    0 -0.27413581818E+01  0.12435258581E+01  0.26076134775E+01  0.39825932869E+01  0.00000000000E+00 0. -1.
</event>
<event>
 7    1  0.1402367E-008  0.4614232E+02  0.7816164E-02  0.1320468E+00
        -11   -1    0    0    0    0  0.00000000000E+00  0.00000000000E+00  0.45593999997E+02  0.45594000000E+02  0.51100000000E-03 0.  1.
         11   -1    0    0    0    0 -0.00000000000E+00 -0.00000000000E+00 -0.45593999997E+02  0.45594000000E+02  0.51100000000E-03 0. -1.
    9900012    2    1    2    0    0  0.23486858854E+02  0.23593574157E+02  0.30345085280E+02  0.46142317844E+02  0.10000000752E+02 0.  0.
         12    1    1    2    0    0 -0.23486858854E+02 -0.23593574157E+02 -0.30345085280E+02  0.45045682156E+02  0.00000000000E+00 0. -1.
         11    1    3    3    0    0  0.15422885388E+01 -0.16258540140E+00 -0.19033686537E+00  0.15624712263E+01  0.51100000000E-03 0. -1.
        -11    1    3    3    0    0  0.69579672990E+01  0.88318101044E+01  0.90766491944E+01  0.14449904481E+02  0.51100000000E-03 0.  1.
        -12    1    3    3    0    0  0.14986603016E+02  0.14924349454E+02  0.21458772951E+02  0.30129942136E+02  0.00000000000E+00 0.  1.
</event>
<event>
 7    1  0.1402367E-008  0.4614232E+02  0.7816164E-02  0.1320468E+00
        -11   -1    0    0    0    0  0.00000000000E+00  0.00000000000E+00  0.45593999997E+02  0.45594000000E+02  0.51100000000E-03 0.  1.
         11   -1    0    0    0    0 -0.00000000000E+00 -0.00000000000E+00 -0.45593999997E+02  0.45594000000E+02  0.51100000000E-03 0. -1.
    9900012    2    1    2    0    0 -0.37858340158E+02  0.21790208152E+01 -0.24312787509E+02  0.46142315549E+02  0.99999798249E+01 0.  0.
         12    1    1    2    0    0  0.37858340158E+02 -0.21790208152E+01  0.24312787509E+02  0.45045684451E+02  0.00000000000E+00 0. -1.
         11    1    3    3    0    0 -0.19135687068E+01 -0.10342317010E+01 -0.23391758943E+01  0.31942330116E+01  0.51100000000E-03 0. -1.
        -11    1    3    3    0    0 -0.27777443091E+01 -0.17586659310E+01 -0.12103953185E+01  0.35034021168E+01  0.51100000000E-03 0.  1.
        -12    1    3    3    0    0 -0.33167027142E+02  0.49719184472E+01 -0.20763216296E+02  0.39444680420E+02  0.00000000000E+00 0.  1.
</event>
<event>
 7    1  0.1402367E-008  0.4614232E+02  0.7816164E-02  0.1320468E+00
        -11   -1    0    0    0    0  0.00000000000E+00  0.00000000000E+00  0.45593999997E+02  0.45594000000E+02  0.51100000000E-03 0.  1.
         11   -1    0    0    0    0 -0.00000000000E+00 -0.00000000000E+00 -0.45593999997E+02  0.45594000000E+02  0.51100000000E-03 0. -1.
    9900012    2    1    2    0    0  0.33593824502E+02 -0.28928498425E+02  0.79818795241E+01  0.46142318004E+02  0.10000002213E+02 0.  0.
         12    1    1    2    0    0 -0.33593824502E+02  0.28928498425E+02 -0.79818795241E+01  0.45045681996E+02  0.00000000000E+00 0. -1.
         11    1    3    3    0    0  0.13067990311E+01 -0.37398962525E+01  0.14085485803E+01  0.42045876197E+01  0.51100000000E-03 0. -1.
        -11    1    3    3    0    0  0.19210416709E+02 -0.11954025371E+02  0.16172833927E+01  0.22683792420E+02  0.51100000000E-03 0.  1.
        -12    1    3    3    0    0  0.13076608762E+02 -0.13234576801E+02  0.49560475510E+01  0.19253937965E+02  0.00000000000E+00 0.  1.
</event>
<event>
 7    1  0.1402367E-008  0.4614232E+02  0.7816164E-02  0.1320468E+00
        -11   -1    0    0    0    0  0.00000000000E+00  0.00000000000E+00  0.45593999997E+02  0.45594000000E+02  0.51100000000E-03 0. -1.
         11   -1    0    0    0    0 -0.00000000000E+00 -0.00000000000E+00 -0.45593999997E+02  0.45594000000E+02  0.51100000000E-03 0.  1.
    9900012    2    1    2    0    0 -0.10308834867E+02  0.26851334819E+02 -0.34667668026E+02  0.46142318029E+02  0.10000002441E+02 0.  0.
         12    1    1    2    0    0  0.10308834867E+02 -0.26851334819E+02  0.34667668026E+02  0.45045681971E+02  0.00000000000E+00 0. -1.
         11    1    3    3    0    0 -0.62545972094E+01  0.12490130741E+02 -0.19498270094E+02  0.23985534997E+02  0.51100000000E-03 0. -1.
        -11    1    3    3    0    0 -0.48676145180E+01  0.13232273993E+02 -0.15242494673E+02  0.20763438787E+02  0.51100000000E-03 0.  1.
         12    1    3    3    0    0  0.81337686034E+00  0.11289300845E+01  0.73096740364E-01  0.13933442454E+01  0.00000000000E+00 0. -1.
</event>
<event>
 7    1  0.1402367E-008  0.4614232E+02  0.7816164E-02  0.1320468E+00
        -11   -1    0    0    0    0  0.00000000000E+00  0.00000000000E+00  0.45593999997E+02  0.45594000000E+02  0.51100000000E-03 0.  1.
         11   -1    0    0    0    0 -0.00000000000E+00 -0.00000000000E+00 -0.45593999997E+02  0.45594000000E+02  0.51100000000E-03 0. -1.
    9900012    2    1    2    0    0 -0.36920837549E+01  0.11324480298E+02  0.43442354308E+02  0.46142317806E+02  0.10000000408E+02 0.  0.
         12    1    1    2    0    0  0.36920837549E+01 -0.11324480298E+02 -0.43442354308E+02  0.45045682194E+02  0.00000000000E+00 0. -1.
         11    1    3    3    0    0 -0.50663855053E+00 -0.15203563387E+01  0.71362832653E+01  0.73140074598E+01  0.51100000000E-03 0. -1.
        -11    1    3    3    0    0 -0.31549482120E+01  0.96475467197E+01  0.31142603776E+02  0.32755009176E+02  0.51100000000E-03 0.  1.
         12    1    3    3    0    0 -0.30496992339E-01  0.31972899171E+01  0.51634672669E+01  0.60733011697E+01  0.00000000000E+00 0. -1.
</event>
<event>
 7    1  0.1402367E-008  0.4614232E+02  0.7816164E-02  0.1320468E+00
        -11   -1    0    0    0    0  0.00000000000E+00  0.00000000000E+00  0.45593999997E+02  0.45594000000E+02  0.51100000000E-03 0. -1.
         11   -1    0    0    0    0 -0.00000000000E+00 -0.00000000000E+00 -0.45593999997E+02  0.45594000000E+02  0.51100000000E-03 0.  1.
    9900012    2    1    2    0    0  0.13861919700E+02  0.24318566409E+02 -0.35292604350E+02  0.46142318611E+02  0.10000007753E+02 0.  0.
         12    1    1    2    0    0 -0.13861919700E+02 -0.24318566409E+02  0.35292604350E+02  0.45045681389E+02  0.00000000000E+00 0. -1.
         11    1    3    3    0    0  0.12322899915E+01  0.49330983874E+01 -0.46534801652E+01  0.68926682955E+01  0.51100000000E-03 0. -1.
        -11    1    3    3    0    0  0.12629441794E+02  0.14216953063E+02 -0.26557465790E+02  0.32663795613E+02  0.51100000000E-03 0.  1.
        -12    1    3    3    0    0  0.18791539875E-03  0.51685149587E+01 -0.40816583948E+01  0.65858547028E+01  0.00000000000E+00 0.  1.
</event>
<event>
 7    1  0.1402367E-008  0.4614232E+02  0.7816164E-02  0.1320468E+00
        -11   -1    0    0    0    0  0.00000000000E+00  0.00000000000E+00  0.45593999997E+02  0.45594000000E+02  0.51100000000E-03 0.  1.
         11   -1    0    0    0    0 -0.00000000000E+00 -0.00000000000E+00 -0.45593999997E+02  0.45594000000E+02  0.51100000000E-03 0. -1.
    9900012    2    1    2    0    0  0.37813106301E+02 -0.11064867136E+02  0.21836921770E+02  0.46142318239E+02  0.10000004362E+02 0.  0.
         12    1    1    2    0    0 -0.37813106301E+02  0.11064867136E+02 -0.21836921770E+02  0.45045681761E+02  0.00000000000E+00 0. -1.
         11    1    3    3    0    0  0.60662072321E+01 -0.50951297617E+01  0.62929194546E+01  0.10117314515E+02  0.51100000000E-03 0. -1.
        -11    1    3    3    0    0  0.52387917689E+01 -0.22613075933E+01  0.32961263427E+01  0.65896054781E+01  0.51100000000E-03 0.  1.
         12    1    3    3    0    0  0.26508107300E+02 -0.37084297815E+01  0.12247875973E+02  0.29435398246E+02  0.00000000000E+00 0. -1.
</event>
<event>
 7    1  0.1402367E-008  0.4614232E+02  0.7816164E-02  0.1320468E+00
        -11   -1    0    0    0    0  0.00000000000E+00  0.00000000000E+00  0.45593999997E+02  0.45594000000E+02  0.51100000000E-03 0.  1.
         11   -1    0    0    0    0 -0.00000000000E+00 -0.00000000000E+00 -0.45593999997E+02  0.45594000000E+02  0.51100000000E-03 0. -1.
    9900012    2    1    2    0    0 -0.23346360916E+02  0.15154026807E+02  0.35417739847E+02  0.46142318828E+02  0.10000009725E+02 0.  0.
         12    1    1    2    0    0  0.23346360916E+02 -0.15154026807E+02 -0.35417739847E+02  0.45045681172E+02  0.00000000000E+00 0. -1.
         11    1    3    3    0    0 -0.79333081759E+00 -0.50216543453E+00  0.14073080110E+01  0.16917623972E+01  0.51100000000E-03 0. -1.
        -11    1    3    3    0    0 -0.15153935177E+02  0.13761312307E+02  0.20748590535E+02  0.29146517411E+02  0.51100000000E-03 0.  1.
        -12    1    3    3    0    0 -0.73990949208E+01  0.18948799344E+01  0.13261841301E+02  0.15304039019E+02  0.00000000000E+00 0.  1.
</event>
<event>
 7    1  0.1402367E-008  0.4614232E+02  0.7816164E-02  0.1320468E+00
        -11   -1    0    0    0    0  0.00000000000E+00  0.00000000000E+00  0.45593999997E+02  0.45594000000E+02  0.51100000000E-03 0.  1.
         11   -1    0    0    0    0 -0.00000000000E+00 -0.00000000000E+00 -0.45593999997E+02  0.45594000000E+02  0.51100000000E-03 0. -1.
    9900012    2    1    2    0    0  0.39038794583E+02  0.13196627848E+02  0.18191619368E+02  0.46142317806E+02  0.10000000414E+02 0.  0.
         12    1    1    2    0    0 -0.39038794583E+02 -0.13196627848E+02 -0.18191619368E+02  0.45045682194E+02  0.00000000000E+00 0. -1.
         11    1    3    3    0    0  0.33524872958E+02  0.83561862037E+01  0.15365432944E+02  0.37813218383E+02  0.51100000000E-03 0. -1.
        -11    1    3    3    0    0  0.54560641789E+01  0.50371944122E+01  0.23149089320E+01  0.77782239293E+01  0.51100000000E-03 0.  1.
         12    1    3    3    0    0  0.57857446302E-01 -0.19675276752E+00  0.51127749203E+00  0.55087549363E+00  0.00000000000E+00 0. -1.
</event>
<event>
 7    1  0.1402367E-008  0.4614232E+02  0.7816164E-02  0.1320468E+00
        -11   -1    0    0    0    0  0.00000000000E+00  0.00000000000E+00  0.45593999997E+02  0.45594000000E+02  0.51100000000E-03 0. -1.
         11   -1    0    0    0    0 -0.00000000000E+00 -0.00000000000E+00 -0.45593999997E+02  0.45594000000E+02  0.51100000000E-03 0.  1.
    9900012    2    1    2    0    0  0.25781920025E+02  0.34980431862E+02  0.11864889596E+02  0.46142316316E+02  0.99999868232E+01 0.  0.
         12    1    1    2    0    0 -0.25781920025E+02 -0.34980431862E+02 -0.11864889596E+02  0.45045683684E+02  0.00000000000E+00 0. -1.
         11    1    3    3    0    0  0.11041884809E+01  0.19546149550E+01 -0.64621406988E+00  0.23360960402E+01  0.51100000000E-03 0. -1.
        -11    1    3    3    0    0  0.12772691291E+02  0.17390913259E+02  0.10662141850E+02  0.24067961606E+02  0.51100000000E-03 0.  1.
        -12    1    3    3    0    0  0.11905040253E+02  0.15634903648E+02  0.18489618161E+01  0.19738258670E+02  0.00000000000E+00 0.  1.
</event>
<event>
 7    1  0.1402367E-008  0.4614232E+02  0.7816164E-02  0.1320468E+00
        -11   -1    0    0    0    0  0.00000000000E+00  0.00000000000E+00  0.45593999997E+02  0.45594000000E+02  0.51100000000E-03 0.  1.
         11   -1    0    0    0    0 -0.00000000000E+00 -0.00000000000E+00 -0.45593999997E+02  0.45594000000E+02  0.51100000000E-03 0. -1.
    9900012    2    1    2    0    0 -0.32422017658E+01  0.26425345325E+02  0.36335968055E+02  0.46142319604E+02  0.10000016805E+02 0.  0.
         12    1    1    2    0    0  0.32422017658E+01 -0.26425345325E+02 -0.36335968055E+02  0.45045680396E+02  0.00000000000E+00 0. -1.
         11    1    3    3    0    0 -0.23041075370E+01  0.16842028276E+02  0.15199228416E+02  0.22803056214E+02  0.51100000000E-03 0. -1.
        -11    1    3    3    0    0  0.41047408210E+00  0.67189887716E+01  0.14395945602E+02  0.15892027848E+02  0.51100000000E-03 0.  1.
         12    1    3    3    0    0 -0.13485683109E+01  0.28643282776E+01  0.67407940363E+01  0.74472355415E+01  0.00000000000E+00 0. -1.
</event>
<event>
 7    1  0.1402367E-008  0.4614232E+02  0.7816164E-02  0.1320468E+00
        -11   -1    0    0    0    0  0.00000000000E+00  0.00000000000E+00  0.45593999997E+02  0.45594000000E+02  0.51100000000E-03 0.  1.
         11   -1    0    0    0    0 -0.00000000000E+00 -0.00000000000E+00 -0.45593999997E+02  0.45594000000E+02  0.51100000000E-03 0. -1.
    9900012    2    1    2    0    0 -0.40848553997E+01 -0.10446621946E+02  0.43626776458E+02  0.46142316769E+02  0.99999909488E+01 0.  0.
         12    1    1    2    0    0  0.40848553997E+01  0.10446621946E+02 -0.43626776458E+02  0.45045683231E+02  0.00000000000E+00 0. -1.
         11    1    3    3    0    0 -0.22275301763E+01 -0.10645248647E+01  0.24325750699E+01  0.34659090590E+01  0.51100000000E-03 0. -1.
        -11    1    3    3    0    0  0.19769516549E+01 -0.37355591090E+01  0.18581121476E+02  0.19055729198E+02  0.51100000000E-03 0.  1.
         12    1    3    3    0    0 -0.38342768783E+01 -0.56465379720E+01  0.22613079912E+02  0.23620678511E+02  0.00000000000E+00 0. -1.
</event>
<event>
 7    1  0.1402367E-008  0.4614232E+02  0.7816164E-02  0.1320468E+00
        -11   -1    0    0    0    0  0.00000000000E+00  0.00000000000E+00  0.45593999997E+02  0.45594000000E+02  0.51100000000E-03 0.  1.
         11   -1    0    0    0    0 -0.00000000000E+00 -0.00000000000E+00 -0.45593999997E+02  0.45594000000E+02  0.51100000000E-03 0. -1.
    9900012    2    1    2    0    0 -0.55342522452E+01  0.59311104236E+01  0.44309226014E+02  0.46142317314E+02  0.99999959190E+01 0.  0.
         12    1    1    2    0    0  0.55342522452E+01 -0.59311104236E+01 -0.44309226014E+02  0.45045682686E+02  0.00000000000E+00 0. -1.
         11    1    3    3    0    0 -0.53713729647E+00  0.57760126754E+00 -0.28168535457E+00  0.83754796855E+00  0.51100000000E-03 0. -1.
        -11    1    3    3    0    0 -0.38952717002E+01  0.18224868703E+01  0.22767436555E+02  0.23170040301E+02  0.51100000000E-03 0.  1.
         12    1    3    3    0    0 -0.11018432485E+01  0.35310222858E+01  0.21823474813E+02  0.22134729044E+02  0.00000000000E+00 0. -1.
</event>
<event>
 7    1  0.1402367E-008  0.4614232E+02  0.7816164E-02  0.1320468E+00
        -11   -1    0    0    0    0  0.00000000000E+00  0.00000000000E+00  0.45593999997E+02  0.45594000000E+02  0.51100000000E-03 0.  1.
         11   -1    0    0    0    0 -0.00000000000E+00 -0.00000000000E+00 -0.45593999997E+02  0.45594000000E+02  0.51100000000E-03 0. -1.
    9900012    2    1    2    0    0  0.10854245923E+02 -0.85326317783E+00  0.43710076192E+02  0.46142317929E+02  0.10000001528E+02 0.  0.
         12    1    1    2    0    0 -0.10854245923E+02  0.85326317783E+00 -0.43710076192E+02  0.45045682071E+02  0.00000000000E+00 0. -1.
         11    1    3    3    0    0  0.16008125713E+01  0.19798182350E+01  0.21231057893E+02  0.21383173306E+02  0.51100000000E-03 0. -1.
        -11    1    3    3    0    0  0.77430805374E+01 -0.71394928656E+00  0.16885367537E+02  0.18589799808E+02  0.51100000000E-03 0.  1.
         12    1    3    3    0    0  0.15103528139E+01 -0.21191321262E+01  0.55936507616E+01  0.61693448140E+01  0.00000000000E+00 0. -1.
</event>
<event>
 7    1  0.1402367E-008  0.4614232E+02  0.7816164E-02  0.1320468E+00
        -11   -1    0    0    0    0  0.00000000000E+00  0.00000000000E+00  0.45593999997E+02  0.45594000000E+02  0.51100000000E-03 0.  1.
         11   -1    0    0    0    0 -0.00000000000E+00 -0.00000000000E+00 -0.45593999997E+02  0.45594000000E+02  0.51100000000E-03 0. -1.
    9900012    2    1    2    0    0 -0.14249144397E+02 -0.37333418089E+02  0.20791616623E+02  0.46142317143E+02  0.99999943600E+01 0.  0.
         12    1    1    2    0    0  0.14249144397E+02  0.37333418089E+02 -0.20791616623E+02  0.45045682857E+02  0.00000000000E+00 0. -1.
         11    1    3    3    0    0  0.26390842089E+00 -0.46839985447E+00 -0.80080380616E+00  0.96453775218E+00  0.51100000000E-03 0. -1.
        -11    1    3    3    0    0 -0.11759820786E+02 -0.31721834499E+02  0.17920549173E+02  0.38284647730E+02  0.51100000000E-03 0.  1.
         12    1    3    3    0    0 -0.27532320317E+01 -0.51431837363E+01  0.36718712567E+01  0.68931316607E+01  0.00000000000E+00 0. -1.
</event>
<event>
 7    1  0.1402367E-008  0.4614231E+02  0.7816164E-02  0.1320468E+00
        -11   -1    0    0    0    0  0.00000000000E+00  0.00000000000E+00  0.45593999997E+02  0.45594000000E+02  0.51100000000E-03 0.  1.
         11   -1    0    0    0    0 -0.00000000000E+00 -0.00000000000E+00 -0.45593999997E+02  0.45594000000E+02  0.51100000000E-03 0. -1.
    9900012    2    1    2    0    0 -0.19435949948E+02  0.27024764937E+02  0.30348311350E+02  0.46142311282E+02  0.99999409205E+01 0.  0.
         12    1    1    2    0    0  0.19435949948E+02 -0.27024764937E+02 -0.30348311350E+02  0.45045688718E+02  0.00000000000E+00 0. -1.
         11    1    3    3    0    0 -0.86330031526E+01  0.93888572328E+01  0.68167431062E+01  0.14461928309E+02  0.51100000000E-03 0. -1.
        -11    1    3    3    0    0 -0.97029369625E+01  0.11835743137E+02  0.17216337029E+02  0.23035495703E+02  0.51100000000E-03 0.  1.
         12    1    3    3    0    0 -0.11000098332E+01  0.58001645665E+01  0.63152312144E+01  0.86448872707E+01  0.00000000000E+00 0. -1.
</event>
<event>
 7    1  0.1402367E-008  0.4614232E+02  0.7816164E-02  0.1320468E+00
        -11   -1    0    0    0    0  0.00000000000E+00  0.00000000000E+00  0.45593999997E+02  0.45594000000E+02  0.51100000000E-03 0. -1.
         11   -1    0    0    0    0 -0.00000000000E+00 -0.00000000000E+00 -0.45593999997E+02  0.45594000000E+02  0.51100000000E-03 0.  1.
    9900012    2    1    2    0    0 -0.20456654570E+02  0.39980810438E+02  0.34890797056E+01  0.46142316559E+02  0.99999890359E+01 0.  0.
         12    1    1    2    0    0  0.20456654570E+02 -0.39980810438E+02 -0.34890797056E+01  0.45045683441E+02  0.00000000000E+00 0. -1.
         11    1    3    3    0    0 -0.11309128538E+01  0.99617195318E+01  0.22583993322E+01  0.10276925013E+02  0.51100000000E-03 0. -1.
        -11    1    3    3    0    0 -0.12528570087E+02  0.16564114381E+02  0.56509017723E+00  0.20776291315E+02  0.51100000000E-03 0.  1.
         12    1    3    3    0    0 -0.67971716294E+01  0.13454976526E+02  0.66559019610E+00  0.15089100231E+02  0.00000000000E+00 0. -1.
</event>
<event>
 7    1  0.1402367E-008  0.4614232E+02  0.7816164E-02  0.1320468E+00
        -11   -1    0    0    0    0  0.00000000000E+00  0.00000000000E+00  0.45593999997E+02  0.45594000000E+02  0.51100000000E-03 0.  1.
         11   -1    0    0    0    0 -0.00000000000E+00 -0.00000000000E+00 -0.45593999997E+02  0.45594000000E+02  0.51100000000E-03 0. -1.
    9900012    2    1    2    0    0  0.41637982040E+02 -0.14086146372E+02  0.98474500085E+01  0.46142319412E+02  0.10000015054E+02 0.  0.
         12    1    1    2    0    0 -0.41637982040E+02  0.14086146372E+02 -0.98474500085E+01  0.45045680588E+02  0.00000000000E+00 0. -1.
         11    1    3    3    0    0  0.76199904258E+01 -0.17685245146E+00  0.27774011854E+01  0.81123047579E+01  0.51100000000E-03 0. -1.
        -11    1    3    3    0    0  0.21909404132E+02 -0.56517633770E+01  0.30409054388E+01  0.22830057486E+02  0.51100000000E-03 0.  1.
         12    1    3    3    0    0  0.12108587482E+02 -0.82575305434E+01  0.40291433842E+01  0.15199957168E+02  0.00000000000E+00 0. -1.
</event>
<event>
 7    1  0.1402367E-008  0.4614232E+02  0.7816164E-02  0.1320468E+00
        -11   -1    0    0    0    0  0.00000000000E+00  0.00000000000E+00  0.45593999997E+02  0.45594000000E+02  0.51100000000E-03 0.  1.
         11   -1    0    0    0    0 -0.00000000000E+00 -0.00000000000E+00 -0.45593999997E+02  0.45594000000E+02  0.51100000000E-03 0. -1.
    9900012    2    1    2    0    0 -0.37541079623E+02 -0.21299269262E+02  0.12888832894E+02  0.46142317147E+02  0.99999943967E+01 0.  0.
         12    1    1    2    0    0  0.37541079623E+02  0.21299269262E+02 -0.12888832894E+02  0.45045682853E+02  0.00000000000E+00 0. -1.
         11    1    3    3    0    0 -0.33380638602E+02 -0.18468947931E+02  0.99848055850E+01  0.39434317719E+02  0.51100000000E-03 0. -1.
        -11    1    3    3    0    0 -0.81679769497E-01 -0.10566829091E+01  0.18578795729E+01  0.21389172784E+01  0.51100000000E-03 0.  1.
         12    1    3    3    0    0 -0.40787612518E+01 -0.17736384223E+01  0.10461477361E+01  0.45690821494E+01  0.00000000000E+00 0. -1.
</event>
<event>
 7    1  0.1402367E-008  0.4614232E+02  0.7816164E-02  0.1320468E+00
        -11   -1    0    0    0    0  0.00000000000E+00  0.00000000000E+00  0.45593999997E+02  0.45594000000E+02  0.51100000000E-03 0.  1.
         11   -1    0    0    0    0 -0.00000000000E+00 -0.00000000000E+00 -0.45593999997E+02  0.45594000000E+02  0.51100000000E-03 0. -1.
    9900012    2    1    2    0    0 -0.45182683306E+01 -0.42477547482E+02  0.14295334371E+02  0.46142319035E+02  0.10000011615E+02 0.  0.
         12    1    1    2    0    0  0.45182683306E+01  0.42477547482E+02 -0.14295334371E+02  0.45045680965E+02  0.00000000000E+00 0. -1.
         11    1    3    3    0    0 -0.11389030695E+00 -0.23853225606E+02  0.77875250534E+01  0.25092526567E+02  0.51100000000E-03 0. -1.
        -11    1    3    3    0    0  0.55894913625E+00 -0.80082220547E+01  0.43608382596E+01  0.91356967552E+01  0.51100000000E-03 0.  1.
        -12    1    3    3    0    0 -0.49633271599E+01 -0.10616099822E+02  0.21469710580E+01  0.11914095713E+02  0.00000000000E+00 0.  1.
</event>
<event>
 7    1  0.1402367E-008  0.4614232E+02  0.7816164E-02  0.1320468E+00
        -11   -1    0    0    0    0  0.00000000000E+00  0.00000000000E+00  0.45593999997E+02  0.45594000000E+02  0.51100000000E-03 0.  1.
         11   -1    0    0    0    0 -0.00000000000E+00 -0.00000000000E+00 -0.45593999997E+02  0.45594000000E+02  0.51100000000E-03 0. -1.
    9900012    2    1    2    0    0 -0.48077597930E+01 -0.25532828559E+02  0.36797738575E+02  0.46142318157E+02  0.10000003607E+02 0.  0.
         12    1    1    2    0    0  0.48077597930E+01  0.25532828559E+02 -0.36797738575E+02  0.45045681843E+02  0.00000000000E+00 0. -1.
         11    1    3    3    0    0 -0.87915611922E+00 -0.12509655922E+02  0.19523940452E+02  0.23204496499E+02  0.51100000000E-03 0.  1.
        -11    1    3    3    0    0  0.93815340695E+00 -0.81387415095E+01  0.96399629553E+01  0.12651013051E+02  0.51100000000E-03 0. -1.
        -12    1    3    3    0    0 -0.48667570807E+01 -0.48844311281E+01  0.76338351685E+01  0.10286808607E+02  0.00000000000E+00 0.  1.
</event>
<event>
 7    1  0.1402367E-008  0.4614232E+02  0.7816164E-02  0.1320468E+00
        -11   -1    0    0    0    0  0.00000000000E+00  0.00000000000E+00  0.45593999997E+02  0.45594000000E+02  0.51100000000E-03 0. -1.
         11   -1    0    0    0    0 -0.00000000000E+00 -0.00000000000E+00 -0.45593999997E+02  0.45594000000E+02  0.51100000000E-03 0.  1.
    9900012    2    1    2    0    0 -0.34251934793E+02  0.28859856551E+02  0.47986733072E+01  0.46142316270E+02  0.99999864007E+01 0.  0.
         12    1    1    2    0    0  0.34251934793E+02 -0.28859856551E+02 -0.47986733072E+01  0.45045683730E+02  0.00000000000E+00 0. -1.
         11    1    3    3    0    0 -0.14713085884E+02  0.16083498625E+02 -0.72918480617E+00  0.21810216298E+02  0.51100000000E-03 0.  1.
        -11    1    3    3    0    0 -0.18836295189E+02  0.12285119648E+02  0.43990380713E+01  0.22914661626E+02  0.51100000000E-03 0. -1.
         12    1    3    3    0    0 -0.70255372010E+00  0.49123827797E+00  0.11288200421E+01  0.14174383453E+01  0.00000000000E+00 0. -1.
</event>
<event>
 7    1  0.1402367E-008  0.4614232E+02  0.7816164E-02  0.1320468E+00
        -11   -1    0    0    0    0  0.00000000000E+00  0.00000000000E+00  0.45593999997E+02  0.45594000000E+02  0.51100000000E-03 0.  1.
         11   -1    0    0    0    0 -0.00000000000E+00 -0.00000000000E+00 -0.45593999997E+02  0.45594000000E+02  0.51100000000E-03 0. -1.
    9900012    2    1    2    0    0 -0.26679823347E+02  0.80272775290E+01  0.35395810677E+02  0.46142316835E+02  0.99999915541E+01 0.  0.
         12    1    1    2    0    0  0.26679823347E+02 -0.80272775290E+01 -0.35395810677E+02  0.45045683165E+02  0.00000000000E+00 0. -1.
         11    1    3    3    0    0 -0.20190791165E+01  0.79919898689E+00  0.13009608799E+01  0.25313828180E+01  0.51100000000E-03 0.  1.
        -11    1    3    3    0    0 -0.29306063976E+01  0.23179660524E+00  0.48232126345E+00  0.29790632062E+01  0.51100000000E-03 0. -1.
        -12    1    3    3    0    0 -0.21730137833E+02  0.69962819369E+01  0.33612528533E+02  0.40631870811E+02  0.00000000000E+00 0.  1.
</event>
<event>
 7    1  0.1402367E-008  0.4614232E+02  0.7816164E-02  0.1320468E+00
        -11   -1    0    0    0    0  0.00000000000E+00  0.00000000000E+00  0.45593999997E+02  0.45594000000E+02  0.51100000000E-03 0. -1.
         11   -1    0    0    0    0 -0.00000000000E+00 -0.00000000000E+00 -0.45593999997E+02  0.45594000000E+02  0.51100000000E-03 0.  1.
    9900012    2    1    2    0    0 -0.33032422491E+02 -0.30045413068E+02  0.59368107332E+01  0.46142317591E+02  0.99999984457E+01 0.  0.
         12    1    1    2    0    0  0.33032422491E+02  0.30045413068E+02 -0.59368107332E+01  0.45045682409E+02  0.00000000000E+00 0. -1.
         11    1    3    3    0    0 -0.68097696883E+01 -0.30546683477E+01  0.23332675560E+00  0.74671549842E+01  0.51100000000E-03 0. -1.
        -11    1    3    3    0    0 -0.15375300331E+02 -0.14737736333E+02  0.65681669174E+01  0.22287699509E+02  0.51100000000E-03 0.  1.
        -12    1    3    3    0    0 -0.10847352472E+02 -0.12253008388E+02 -0.86468293979E+00  0.16387463098E+02  0.00000000000E+00 0.  1.
</event>
<event>
 7    1  0.1402367E-008  0.4614232E+02  0.7816164E-02  0.1320468E+00
        -11   -1    0    0    0    0  0.00000000000E+00  0.00000000000E+00  0.45593999997E+02  0.45594000000E+02  0.51100000000E-03 0.  1.
         11   -1    0    0    0    0 -0.00000000000E+00 -0.00000000000E+00 -0.45593999997E+02  0.45594000000E+02  0.51100000000E-03 0. -1.
    9900012    2    1    2    0    0  0.62892485452E+01 -0.41697462373E+02  0.15839207048E+02  0.46142317681E+02  0.99999992719E+01 0.  0.
         12    1    1    2    0    0 -0.62892485452E+01  0.41697462373E+02 -0.15839207048E+02  0.45045682319E+02  0.00000000000E+00 0. -1.
         11    1    3    3    0    0  0.23341140126E+01 -0.45385113039E+01  0.64630221374E+00  0.51443055791E+01  0.51100000000E-03 0. -1.
        -11    1    3    3    0    0  0.96108947986E+00 -0.24735579103E+02  0.66685759078E+01  0.25636740656E+02  0.51100000000E-03 0.  1.
        -12    1    3    3    0    0  0.29940450527E+01 -0.12423371966E+02  0.85243289269E+01  0.15361271446E+02  0.00000000000E+00 0.  1.
</event>
<event>
 7    1  0.1402367E-008  0.4614232E+02  0.7816164E-02  0.1320468E+00
        -11   -1    0    0    0    0  0.00000000000E+00  0.00000000000E+00  0.45593999997E+02  0.45594000000E+02  0.51100000000E-03 0. -1.
         11   -1    0    0    0    0 -0.00000000000E+00 -0.00000000000E+00 -0.45593999997E+02  0.45594000000E+02  0.51100000000E-03 0.  1.
    9900012    2    1    2    0    0  0.40742603578E+02  0.46996319845E+01 -0.18629738804E+02  0.46142318131E+02  0.10000003372E+02 0.  0.
         12    1    1    2    0    0 -0.40742603578E+02 -0.46996319845E+01  0.18629738804E+02  0.45045681869E+02  0.00000000000E+00 0. -1.
         11    1    3    3    0    0  0.24921104072E+02  0.12193021207E+01 -0.77490180223E+01  0.26126526872E+02  0.51100000000E-03 0. -1.
        -11    1    3    3    0    0  0.10545656621E+02  0.36153782223E+00 -0.80118709608E+01  0.13248836165E+02  0.51100000000E-03 0.  1.
         12    1    3    3    0    0  0.52758428857E+01  0.31187920415E+01 -0.28688498211E+01  0.67669550943E+01  0.00000000000E+00 0. -1.
</event>
<event>
 7    1  0.1402367E-008  0.4614232E+02  0.7816164E-02  0.1320468E+00
        -11   -1    0    0    0    0  0.00000000000E+00  0.00000000000E+00  0.45593999997E+02  0.45594000000E+02  0.51100000000E-03 0.  1.
         11   -1    0    0    0    0 -0.00000000000E+00 -0.00000000000E+00 -0.45593999997E+02  0.45594000000E+02  0.51100000000E-03 0. -1.
    9900012    2    1    2    0    0 -0.57924165370E+01  0.34506673693E+02  0.28369893742E+02  0.46142317747E+02  0.99999998732E+01 0.  0.
         12    1    1    2    0    0  0.57924165370E+01 -0.34506673693E+02 -0.28369893742E+02  0.45045682253E+02  0.00000000000E+00 0. -1.
         11    1    3    3    0    0  0.70535524083E+00  0.51564867151E+01  0.38758785450E+01  0.64891691314E+01  0.51100000000E-03 0. -1.
        -11    1    3    3    0    0 -0.46993816696E+01  0.25074046416E+02  0.16410394376E+02  0.30333035383E+02  0.51100000000E-03 0.  1.
        -12    1    3    3    0    0 -0.17983901082E+01  0.42761405621E+01  0.80836208210E+01  0.93201132325E+01  0.00000000000E+00 0.  1.
</event>
<event>
 7    1  0.1402367E-008  0.4614232E+02  0.7816164E-02  0.1320468E+00
        -11   -1    0    0    0    0  0.00000000000E+00  0.00000000000E+00  0.45593999997E+02  0.45594000000E+02  0.51100000000E-03 0.  1.
         11   -1    0    0    0    0 -0.00000000000E+00 -0.00000000000E+00 -0.45593999997E+02  0.45594000000E+02  0.51100000000E-03 0. -1.
    9900012    2    1    2    0    0  0.40267221762E+02 -0.15021500390E+02  0.13491437519E+02  0.46142317535E+02  0.99999979371E+01 0.  0.
         12    1    1    2    0    0 -0.40267221762E+02  0.15021500390E+02 -0.13491437519E+02  0.45045682465E+02  0.00000000000E+00 0. -1.
         11    1    3    3    0    0  0.12646137644E+02 -0.75816585097E+01  0.13102218131E+01  0.14802804617E+02  0.51100000000E-03 0. -1.
        -11    1    3    3    0    0  0.20811688810E+02 -0.60631969217E+01  0.10944483167E+02  0.24283131184E+02  0.51100000000E-03 0.  1.
        -12    1    3    3    0    0  0.68093953080E+01 -0.13766449589E+01  0.12367325394E+01  0.70563817341E+01  0.00000000000E+00 0.  1.
</event>
<event>
 7    1  0.1402367E-008  0.4614232E+02  0.7816164E-02  0.1320468E+00
        -11   -1    0    0    0    0  0.00000000000E+00  0.00000000000E+00  0.45593999997E+02  0.45594000000E+02  0.51100000000E-03 0. -1.
         11   -1    0    0    0    0 -0.00000000000E+00 -0.00000000000E+00 -0.45593999997E+02  0.45594000000E+02  0.51100000000E-03 0.  1.
    9900012    2    1    2    0    0  0.20410127465E+02 -0.79797491345E-01 -0.40156367191E+02  0.46142317668E+02  0.99999991555E+01 0.  0.
         12    1    1    2    0    0 -0.20410127465E+02  0.79797491345E-01  0.40156367191E+02  0.45045682332E+02  0.00000000000E+00 0. -1.
         11    1    3    3    0    0  0.13322863019E+01 -0.20606970127E+01 -0.32631070631E+01  0.40828087066E+01  0.51100000000E-03 0. -1.
        -11    1    3    3    0    0  0.43158070917E+01 -0.11697661864E+01 -0.13479957853E+02  0.14202246575E+02  0.51100000000E-03 0.  1.
         12    1    3    3    0    0  0.14762034071E+02  0.31506657078E+01 -0.23413302274E+02  0.27857262387E+02  0.00000000000E+00 0. -1.
</event>
<event>
 7    1  0.1402367E-008  0.4614231E+02  0.7816164E-02  0.1320468E+00
        -11   -1    0    0    0    0  0.00000000000E+00  0.00000000000E+00  0.45593999997E+02  0.45594000000E+02  0.51100000000E-03 0.  1.
         11   -1    0    0    0    0 -0.00000000000E+00 -0.00000000000E+00 -0.45593999997E+02  0.45594000000E+02  0.51100000000E-03 0. -1.
    9900012    2    1    2    0    0 -0.42414184687E+02 -0.14529961782E+02 -0.43624922874E+01  0.46142309962E+02  0.99999288801E+01 0.  0.
         12    1    1    2    0    0  0.42414184687E+02  0.14529961782E+02  0.43624922874E+01  0.45045690038E+02  0.00000000000E+00 0. -1.
         11    1    3    3    0    0 -0.28105539901E+02 -0.92886571658E+01 -0.55580729556E+01  0.30117979685E+02  0.51100000000E-03 0. -1.
        -11    1    3    3    0    0 -0.35484137211E+01 -0.36369636211E+01  0.74775817780E+00  0.51359406997E+01  0.51100000000E-03 0.  1.
        -12    1    3    3    0    0 -0.10760231065E+02 -0.16043409952E+01  0.44782249042E+00  0.10888389577E+02  0.00000000000E+00 0.  1.
</event>
<event>
 7    1  0.1402367E-008  0.4614232E+02  0.7816164E-02  0.1320468E+00
        -11   -1    0    0    0    0  0.00000000000E+00  0.00000000000E+00  0.45593999997E+02  0.45594000000E+02  0.51100000000E-03 0.  1.
         11   -1    0    0    0    0 -0.00000000000E+00 -0.00000000000E+00 -0.45593999997E+02  0.45594000000E+02  0.51100000000E-03 0. -1.
    9900012    2    1    2    0    0  0.25171359953E+02 -0.36443270597E+02  0.82100053964E+01  0.46142317384E+02  0.99999965633E+01 0.  0.
         12    1    1    2    0    0 -0.25171359953E+02  0.36443270597E+02 -0.82100053964E+01  0.45045682616E+02  0.00000000000E+00 0. -1.
         11    1    3    3    0    0  0.23886828626E+00 -0.93357057210E+00  0.17309168502E+01  0.19810818950E+01  0.51100000000E-03 0. -1.
        -11    1    3    3    0    0  0.24682406634E+02 -0.34948926406E+02  0.56920854990E+01  0.43163045441E+02  0.51100000000E-03 0.  1.
        -12    1    3    3    0    0  0.25008503290E+00 -0.56077361923E+00  0.78700304720E+00  0.99819004804E+00  0.00000000000E+00 0.  1.
</event>
<event>
 7    1  0.1402367E-008  0.4614232E+02  0.7816164E-02  0.1320468E+00
        -11   -1    0    0    0    0  0.00000000000E+00  0.00000000000E+00  0.45593999997E+02  0.45594000000E+02  0.51100000000E-03 0. -1.
         11   -1    0    0    0    0 -0.00000000000E+00 -0.00000000000E+00 -0.45593999997E+02  0.45594000000E+02  0.51100000000E-03 0.  1.
    9900012    2    1    2    0    0 -0.10426933896E+02  0.43565668402E+02  0.47355111867E+01  0.46142317854E+02  0.10000000846E+02 0.  0.
         12    1    1    2    0    0  0.10426933896E+02 -0.43565668402E+02 -0.47355111867E+01  0.45045682146E+02  0.00000000000E+00 0. -1.
         11    1    3    3    0    0 -0.43614297806E+01  0.52030641488E+01  0.19552217704E+00  0.67920670970E+01  0.51100000000E-03 0. -1.
        -11    1    3    3    0    0 -0.52732412383E+01  0.23746233760E+02  0.13078252240E+01  0.24359825492E+02  0.51100000000E-03 0.  1.
         12    1    3    3    0    0 -0.79226287711E+00  0.14616370494E+02  0.32321637857E+01  0.14990425265E+02  0.00000000000E+00 0. -1.
</event>
<event>
 7    1  0.1402367E-008  0.4614232E+02  0.7816164E-02  0.1320468E+00
        -11   -1    0    0    0    0  0.00000000000E+00  0.00000000000E+00  0.45593999997E+02  0.45594000000E+02  0.51100000000E-03 0.  1.
         11   -1    0    0    0    0 -0.00000000000E+00 -0.00000000000E+00 -0.45593999997E+02  0.45594000000E+02  0.51100000000E-03 0. -1.
    9900012    2    1    2    0    0 -0.39309070301E+02 -0.20617446757E+01  0.21901134251E+02  0.46142317849E+02  0.10000000797E+02 0.  0.
         12    1    1    2    0    0  0.39309070301E+02  0.20617446757E+01 -0.21901134251E+02  0.45045682151E+02  0.00000000000E+00 0. -1.
         11    1    3    3    0    0 -0.15958738348E+01  0.17590984963E+01  0.18884342818E+01  0.30343739246E+01  0.51100000000E-03 0. -1.
        -11    1    3    3    0    0 -0.24779864453E+02 -0.19694047967E+01  0.15454306675E+02  0.29270391740E+02  0.51100000000E-03 0.  1.
        -12    1    3    3    0    0 -0.12933332013E+02 -0.18514383753E+01  0.45583932939E+01  0.13837552184E+02  0.00000000000E+00 0.  1.
</event>
<event>
 7    1  0.1402367E-008  0.4614232E+02  0.7816164E-02  0.1320468E+00
        -11   -1    0    0    0    0  0.00000000000E+00  0.00000000000E+00  0.45593999997E+02  0.45594000000E+02  0.51100000000E-03 0. -1.
         11   -1    0    0    0    0 -0.00000000000E+00 -0.00000000000E+00 -0.45593999997E+02  0.45594000000E+02  0.51100000000E-03 0.  1.
    9900012    2    1    2    0    0  0.30759546073E+02  0.24980539113E+02  0.21422803512E+02  0.46142317418E+02  0.99999968712E+01 0.  0.
         12    1    1    2    0    0 -0.30759546073E+02 -0.24980539113E+02 -0.21422803512E+02  0.45045682582E+02  0.00000000000E+00 0. -1.
         11    1    3    3    0    0  0.10041465341E+02  0.10183540037E+02  0.11033451949E+02  0.18063016804E+02  0.51100000000E-03 0. -1.
        -11    1    3    3    0    0  0.20631267967E+01  0.39146737472E+01  0.10411471507E+01  0.45458937930E+01  0.51100000000E-03 0.  1.
        -12    1    3    3    0    0  0.18654953936E+02  0.10882325328E+02  0.93482044117E+01  0.23533406821E+02  0.00000000000E+00 0.  1.
</event>
<event>
 7    1  0.1402367E-008  0.4614232E+02  0.7816164E-02  0.1320468E+00
        -11   -1    0    0    0    0  0.00000000000E+00  0.00000000000E+00  0.45593999997E+02  0.45594000000E+02  0.51100000000E-03 0. -1.
         11   -1    0    0    0    0 -0.00000000000E+00 -0.00000000000E+00 -0.45593999997E+02  0.45594000000E+02  0.51100000000E-03 0.  1.
    9900012    2    1    2    0    0 -0.22610819247E+02 -0.66154206108E+01 -0.38394017356E+02  0.46142317570E+02  0.99999982586E+01 0.  0.
         12    1    1    2    0    0  0.22610819247E+02  0.66154206108E+01  0.38394017356E+02  0.45045682430E+02  0.00000000000E+00 0. -1.
         11    1    3    3    0    0 -0.45616622520E+01 -0.19984662010E+01 -0.27103952064E+01  0.56699975391E+01  0.51100000000E-03 0. -1.
        -11    1    3    3    0    0 -0.64005369436E+01 -0.26208310147E+01 -0.17139087020E+02  0.18481989409E+02  0.51100000000E-03 0.  1.
         12    1    3    3    0    0 -0.11648620051E+02 -0.19961233951E+01 -0.18544535129E+02  0.21990330622E+02  0.00000000000E+00 0. -1.
</event>
<event>
 7    1  0.1402367E-008  0.4614232E+02  0.7816164E-02  0.1320468E+00
        -11   -1    0    0    0    0  0.00000000000E+00  0.00000000000E+00  0.45593999997E+02  0.45594000000E+02  0.51100000000E-03 0. -1.
         11   -1    0    0    0    0 -0.00000000000E+00 -0.00000000000E+00 -0.45593999997E+02  0.45594000000E+02  0.51100000000E-03 0.  1.
    9900012    2    1    2    0    0  0.34548531408E+02  0.25359203668E+02  0.13871674252E+02  0.46142316748E+02  0.99999907598E+01 0.  0.
         12    1    1    2    0    0 -0.34548531408E+02 -0.25359203668E+02 -0.13871674252E+02  0.45045683252E+02  0.00000000000E+00 0. -1.
         11    1    3    3    0    0  0.17520641328E+02  0.10437305878E+02  0.55550899630E+01  0.21136916788E+02  0.51100000000E-03 0. -1.
        -11    1    3    3    0    0  0.51721325919E+01  0.51345952664E+01  0.60369782228E+01  0.94636214222E+01  0.51100000000E-03 0.  1.
        -12    1    3    3    0    0  0.11855757487E+02  0.97873025244E+01  0.22796060658E+01  0.15541778538E+02  0.00000000000E+00 0.  1.
</event>
<event>
 7    1  0.1402367E-008  0.4614232E+02  0.7816164E-02  0.1320468E+00
        -11   -1    0    0    0    0  0.00000000000E+00  0.00000000000E+00  0.45593999997E+02  0.45594000000E+02  0.51100000000E-03 0.  1.
         11   -1    0    0    0    0 -0.00000000000E+00 -0.00000000000E+00 -0.45593999997E+02  0.45594000000E+02  0.51100000000E-03 0. -1.
    9900012    2    1    2    0    0 -0.10968029931E+02 -0.38855301967E+02  0.19977022253E+02  0.46142316637E+02  0.99999897487E+01 0.  0.
         12    1    1    2    0    0  0.10968029931E+02  0.38855301967E+02 -0.19977022253E+02  0.45045683363E+02  0.00000000000E+00 0. -1.
         11    1    3    3    0    0 -0.96353187723E+01 -0.21659597288E+02  0.10305235163E+02  0.25849088853E+02  0.51100000000E-03 0. -1.
        -11    1    3    3    0    0  0.64277397251E+00 -0.10454626002E+02  0.76908715622E+01  0.12994686178E+02  0.51100000000E-03 0.  1.
        -12    1    3    3    0    0 -0.19754851310E+01 -0.67410786773E+01  0.19809155284E+01  0.72985416055E+01  0.00000000000E+00 0.  1.
</event>
<event>
 7    1  0.1402367E-008  0.4614232E+02  0.7816164E-02  0.1320468E+00
        -11   -1    0    0    0    0  0.00000000000E+00  0.00000000000E+00  0.45593999997E+02  0.45594000000E+02  0.51100000000E-03 0.  1.
         11   -1    0    0    0    0 -0.00000000000E+00 -0.00000000000E+00 -0.45593999997E+02  0.45594000000E+02  0.51100000000E-03 0. -1.
    9900012    2    1    2    0    0  0.16023192832E+02  0.41126112186E+02  0.90007607657E+01  0.46142317561E+02  0.99999981733E+01 0.  0.
         12    1    1    2    0    0 -0.16023192832E+02 -0.41126112186E+02 -0.90007607657E+01  0.45045682439E+02  0.00000000000E+00 0. -1.
         11    1    3    3    0    0  0.26777486154E+01  0.18866712359E+02  0.55239831830E+01  0.19840301494E+02  0.51100000000E-03 0. -1.
        -11    1    3    3    0    0  0.13101626950E+02  0.22252382119E+02  0.34904628824E+01  0.26057714215E+02  0.51100000000E-03 0.  1.
         12    1    3    3    0    0  0.24381726668E+00  0.70177078976E-02 -0.13685299669E-01  0.24430185259E+00  0.00000000000E+00 0. -1.
</event>
<event>
 7    1  0.1402367E-008  0.4614232E+02  0.7816164E-02  0.1320468E+00
        -11   -1    0    0    0    0  0.00000000000E+00  0.00000000000E+00  0.45593999997E+02  0.45594000000E+02  0.51100000000E-03 0. -1.
         11   -1    0    0    0    0 -0.00000000000E+00 -0.00000000000E+00 -0.45593999997E+02  0.45594000000E+02  0.51100000000E-03 0.  1.
    9900012    2    1    2    0    0 -0.11861840499E+01  0.37117598646E+02 -0.25494910310E+02  0.46142316371E+02  0.99999873250E+01 0.  0.
         12    1    1    2    0    0  0.11861840499E+01 -0.37117598646E+02  0.25494910310E+02  0.45045683629E+02  0.00000000000E+00 0. -1.
         11    1    3    3    0    0 -0.12762079624E+01  0.14068523522E+01 -0.19041443174E+01  0.26895550090E+01  0.51100000000E-03 0. -1.
        -11    1    3    3    0    0 -0.14645282581E+01  0.26735282253E+02 -0.13958142676E+02  0.30195196761E+02  0.51100000000E-03 0.  1.
        -12    1    3    3    0    0  0.15545521705E+01  0.89754640405E+01 -0.96326233170E+01  0.13257564601E+02  0.00000000000E+00 0.  1.
</event>
<event>
 7    1  0.1402367E-008  0.4614232E+02  0.7816164E-02  0.1320468E+00
        -11   -1    0    0    0    0  0.00000000000E+00  0.00000000000E+00  0.45593999997E+02  0.45594000000E+02  0.51100000000E-03 0.  1.
         11   -1    0    0    0    0 -0.00000000000E+00 -0.00000000000E+00 -0.45593999997E+02  0.45594000000E+02  0.51100000000E-03 0. -1.
    9900012    2    1    2    0    0 -0.21857374439E+02  0.15806671699E+02  0.36076554571E+02  0.46142317884E+02  0.10000001124E+02 0.  0.
         12    1    1    2    0    0  0.21857374439E+02 -0.15806671699E+02 -0.36076554571E+02  0.45045682116E+02  0.00000000000E+00 0. -1.
         11    1    3    3    0    0 -0.76095370819E+01  0.10538048439E+02  0.16844861944E+02  0.21276862872E+02  0.51100000000E-03 0. -1.
        -11    1    3    3    0    0 -0.96504897636E+01  0.28597465563E+01  0.95220604413E+01  0.13855675312E+02  0.51100000000E-03 0.  1.
         12    1    3    3    0    0 -0.45973475936E+01  0.24088767029E+01  0.97096321854E+01  0.11009779700E+02  0.00000000000E+00 0. -1.
</event>
<event>
 7    1  0.1402367E-008  0.4614232E+02  0.7816164E-02  0.1320468E+00
        -11   -1    0    0    0    0  0.00000000000E+00  0.00000000000E+00  0.45593999997E+02  0.45594000000E+02  0.51100000000E-03 0. -1.
         11   -1    0    0    0    0 -0.00000000000E+00 -0.00000000000E+00 -0.45593999997E+02  0.45594000000E+02  0.51100000000E-03 0.  1.
    9900012    2    1    2    0    0  0.19242792167E+02 -0.40670761750E+02 -0.21719984598E+01  0.46142317754E+02  0.99999999333E+01 0.  0.
         12    1    1    2    0    0 -0.19242792167E+02  0.40670761750E+02  0.21719984598E+01  0.45045682246E+02  0.00000000000E+00 0. -1.
         11    1    3    3    0    0  0.21949603552E+01 -0.29742201781E+01 -0.11520590064E+01  0.38718312003E+01  0.51100000000E-03 0. -1.
        -11    1    3    3    0    0  0.12931056331E+01 -0.44973718259E+01  0.25854438002E+01  0.53463067088E+01  0.51100000000E-03 0.  1.
        -12    1    3    3    0    0  0.15754726179E+02 -0.33199169746E+02 -0.36053832537E+01  0.36924179845E+02  0.00000000000E+00 0.  1.
</event>
<event>
 7    1  0.1402367E-008  0.4614231E+02  0.7816164E-02  0.1320468E+00
        -11   -1    0    0    0    0  0.00000000000E+00  0.00000000000E+00  0.45593999997E+02  0.45594000000E+02  0.51100000000E-03 0.  1.
         11   -1    0    0    0    0 -0.00000000000E+00 -0.00000000000E+00 -0.45593999997E+02  0.45594000000E+02  0.51100000000E-03 0. -1.
    9900012    2    1    2    0    0 -0.24561182646E+02 -0.12413373526E+02  0.35661891480E+02  0.46142311647E+02  0.99999442442E+01 0.  0.
         12    1    1    2    0    0  0.24561182646E+02  0.12413373526E+02 -0.35661891480E+02  0.45045688353E+02  0.00000000000E+00 0. -1.
         11    1    3    3    0    0 -0.82791822359E+01 -0.40545474947E+01  0.63446273812E+01  0.11191001329E+02  0.51100000000E-03 0. -1.
        -11    1    3    3    0    0 -0.23315384594E+01 -0.35149772891E+01  0.55698719196E+01  0.69867453362E+01  0.51100000000E-03 0.  1.
        -12    1    3    3    0    0 -0.13950461950E+02 -0.48438487426E+01  0.23747392179E+02  0.27964564981E+02  0.00000000000E+00 0.  1.
</event>
<event>
 7    1  0.1402367E-008  0.4614232E+02  0.7816164E-02  0.1320468E+00
        -11   -1    0    0    0    0  0.00000000000E+00  0.00000000000E+00  0.45593999997E+02  0.45594000000E+02  0.51100000000E-03 0.  1.
         11   -1    0    0    0    0 -0.00000000000E+00 -0.00000000000E+00 -0.45593999997E+02  0.45594000000E+02  0.51100000000E-03 0. -1.
    9900012    2    1    2    0    0  0.30672535487E+01  0.85585711816E+01  0.44118658575E+02  0.46142320746E+02  0.10000027221E+02 0.  0.
         12    1    1    2    0    0 -0.30672535487E+01 -0.85585711816E+01 -0.44118658575E+02  0.45045679254E+02  0.00000000000E+00 0. -1.
         11    1    3    3    0    0  0.24809045110E+01 -0.49885110146E-01  0.10893307837E+02  0.11172355688E+02  0.51100000000E-03 0. -1.
        -11    1    3    3    0    0 -0.30400056404E+01  0.41454013828E+01  0.14730099035E+02  0.15601339839E+02  0.51100000000E-03 0.  1.
        -12    1    3    3    0    0  0.36263546780E+01  0.44630549090E+01  0.18495251702E+02  0.19368625219E+02  0.00000000000E+00 0.  1.
</event>
<event>
 7    1  0.1402367E-008  0.4614232E+02  0.7816164E-02  0.1320468E+00
        -11   -1    0    0    0    0  0.00000000000E+00  0.00000000000E+00  0.45593999997E+02  0.45594000000E+02  0.51100000000E-03 0.  1.
         11   -1    0    0    0    0 -0.00000000000E+00 -0.00000000000E+00 -0.45593999997E+02  0.45594000000E+02  0.51100000000E-03 0. -1.
    9900012    2    1    2    0    0  0.41566525083E+02 -0.16642895183E+02 -0.49347345898E+01  0.46142316821E+02  0.99999914308E+01 0.  0.
         12    1    1    2    0    0 -0.41566525083E+02  0.16642895183E+02  0.49347345898E+01  0.45045683179E+02  0.00000000000E+00 0. -1.
         11    1    3    3    0    0  0.35886459107E+01 -0.28509512744E+01  0.20286002201E+01  0.50121374438E+01  0.51100000000E-03 0. -1.
        -11    1    3    3    0    0  0.57942723946E+01 -0.10349965821E+01 -0.45064859919E+00  0.59032105612E+01  0.51100000000E-03 0.  1.
         12    1    3    3    0    0  0.32183606778E+02 -0.12756947326E+02 -0.65126862107E+01  0.35226968816E+02  0.00000000000E+00 0. -1.
</event>
<event>
 7    1  0.1402367E-008  0.4614232E+02  0.7816164E-02  0.1320468E+00
        -11   -1    0    0    0    0  0.00000000000E+00  0.00000000000E+00  0.45593999997E+02  0.45594000000E+02  0.51100000000E-03 0.  1.
         11   -1    0    0    0    0 -0.00000000000E+00 -0.00000000000E+00 -0.45593999997E+02  0.45594000000E+02  0.51100000000E-03 0. -1.
    9900012    2    1    2    0    0  0.28867308535E+02 -0.72846587553E+01  0.33804226370E+02  0.46142317902E+02  0.10000001281E+02 0.  0.
         12    1    1    2    0    0 -0.28867308535E+02  0.72846587553E+01 -0.33804226370E+02  0.45045682098E+02  0.00000000000E+00 0. -1.
         11    1    3    3    0    0  0.36907208183E+01 -0.28416497082E+00  0.22762595211E+01  0.43455181001E+01  0.51100000000E-03 0. -1.
        -11    1    3    3    0    0  0.14363569924E+02 -0.82335151536E+01  0.18851275573E+02  0.25089310548E+02  0.51100000000E-03 0.  1.
        -12    1    3    3    0    0  0.10813017793E+02  0.12330213690E+01  0.12676691275E+02  0.16707489254E+02  0.00000000000E+00 0.  1.
</event>
<event>
 7    1  0.1402367E-008  0.4614232E+02  0.7816164E-02  0.1320468E+00
        -11   -1    0    0    0    0  0.00000000000E+00  0.00000000000E+00  0.45593999997E+02  0.45594000000E+02  0.51100000000E-03 0.  1.
         11   -1    0    0    0    0 -0.00000000000E+00 -0.00000000000E+00 -0.45593999997E+02  0.45594000000E+02  0.51100000000E-03 0. -1.
    9900012    2    1    2    0    0 -0.19926389988E+01  0.44981218151E+02  0.13538261911E+01  0.46142318277E+02  0.10000004704E+02 0.  0.
         12    1    1    2    0    0  0.19926389988E+01 -0.44981218151E+02 -0.13538261911E+01  0.45045681723E+02  0.00000000000E+00 0. -1.
         11    1    3    3    0    0 -0.13320386771E+01  0.17537704771E+02 -0.36365525466E+01  0.17960231912E+02  0.51100000000E-03 0.  1.
        -11    1    3    3    0    0  0.22117184655E+00  0.13234216506E+02  0.43444273264E+01  0.13930809473E+02  0.51100000000E-03 0. -1.
         12    1    3    3    0    0 -0.88177216826E+00  0.14209296874E+02  0.64595141129E+00  0.14251276892E+02  0.00000000000E+00 0. -1.
</event>
<event>
 7    1  0.1402367E-008  0.4614232E+02  0.7816164E-02  0.1320468E+00
        -11   -1    0    0    0    0  0.00000000000E+00  0.00000000000E+00  0.45593999997E+02  0.45594000000E+02  0.51100000000E-03 0.  1.
         11   -1    0    0    0    0 -0.00000000000E+00 -0.00000000000E+00 -0.45593999997E+02  0.45594000000E+02  0.51100000000E-03 0. -1.
    9900012    2    1    2    0    0 -0.10847064013E+02  0.30833270337E+02  0.30996195351E+02  0.46142317814E+02  0.10000000479E+02 0.  0.
         12    1    1    2    0    0  0.10847064013E+02 -0.30833270337E+02 -0.30996195351E+02  0.45045682186E+02  0.00000000000E+00 0. -1.
         11    1    3    3    0    0 -0.79713905428E+01  0.11760620125E+02  0.11020707489E+02  0.17980857786E+02  0.51100000000E-03 0. -1.
        -11    1    3    3    0    0 -0.30636351951E+01  0.18338844900E+02  0.20114338432E+02  0.27391343590E+02  0.51100000000E-03 0.  1.
        -12    1    3    3    0    0  0.18796172454E+00  0.73380531250E+00 -0.13885056960E+00  0.77011643745E+00  0.00000000000E+00 0.  1.
</event>
<event>
 7    1  0.1402367E-008  0.4614232E+02  0.7816164E-02  0.1320468E+00
        -11   -1    0    0    0    0  0.00000000000E+00  0.00000000000E+00  0.45593999997E+02  0.45594000000E+02  0.51100000000E-03 0.  1.
         11   -1    0    0    0    0 -0.00000000000E+00 -0.00000000000E+00 -0.45593999997E+02  0.45594000000E+02  0.51100000000E-03 0. -1.
    9900012    2    1    2    0    0 -0.20336173394E+02 -0.29590280032E+02  0.27202370921E+02  0.46142316473E+02  0.99999882510E+01 0.  0.
         12    1    1    2    0    0  0.20336173394E+02  0.29590280032E+02 -0.27202370921E+02  0.45045683527E+02  0.00000000000E+00 0. -1.
         11    1    3    3    0    0 -0.90739004842E+01 -0.15143860842E+02  0.12663953443E+02  0.21726663532E+02  0.51100000000E-03 0. -1.
        -11    1    3    3    0    0 -0.12083275381E+02 -0.12060201268E+02  0.13022506904E+02  0.21471834688E+02  0.51100000000E-03 0.  1.
         12    1    3    3    0    0  0.82100247061E+00 -0.23862179230E+01  0.15159105739E+01  0.29438182520E+01  0.00000000000E+00 0. -1.
</event>
<event>
 7    1  0.1402367E-008  0.4614232E+02  0.7816164E-02  0.1320468E+00
        -11   -1    0    0    0    0  0.00000000000E+00  0.00000000000E+00  0.45593999997E+02  0.45594000000E+02  0.51100000000E-03 0.  1.
         11   -1    0    0    0    0 -0.00000000000E+00 -0.00000000000E+00 -0.45593999997E+02  0.45594000000E+02  0.51100000000E-03 0. -1.
    9900012    2    1    2    0    0 -0.28373984169E+02 -0.30078055354E+00  0.34984852802E+02  0.46142319051E+02  0.10000011765E+02 0.  0.
         12    1    1    2    0    0  0.28373984169E+02  0.30078055354E+00 -0.34984852802E+02  0.45045680949E+02  0.00000000000E+00 0. -1.
         11    1    3    3    0    0 -0.23229176905E+01 -0.11822699496E+01  0.19922752491E+01  0.32806812951E+01  0.51100000000E-03 0. -1.
        -11    1    3    3    0    0 -0.10088417901E+01 -0.53259830217E+00  0.56225001388E+01  0.57370663915E+01  0.51100000000E-03 0.  1.
        -12    1    3    3    0    0 -0.25042224689E+02  0.14140876982E+01  0.27370077414E+02  0.37124571365E+02  0.00000000000E+00 0.  1.
</event>
<event>
 7    1  0.1402367E-008  0.4614232E+02  0.7816164E-02  0.1320468E+00
        -11   -1    0    0    0    0  0.00000000000E+00  0.00000000000E+00  0.45593999997E+02  0.45594000000E+02  0.51100000000E-03 0.  1.
         11   -1    0    0    0    0 -0.00000000000E+00 -0.00000000000E+00 -0.45593999997E+02  0.45594000000E+02  0.51100000000E-03 0. -1.
    9900012    2    1    2    0    0 -0.38430001346E+02 -0.45125608459E+01  0.23062638418E+02  0.46142317636E+02  0.99999988600E+01 0.  0.
         12    1    1    2    0    0  0.38430001346E+02  0.45125608459E+01 -0.23062638418E+02  0.45045682364E+02  0.00000000000E+00 0. -1.
         11    1    3    3    0    0 -0.22902496575E+02  0.17567171038E+01  0.12134847302E+02  0.25978162438E+02  0.51100000000E-03 0. -1.
        -11    1    3    3    0    0 -0.75842247255E+01 -0.20273374730E+01  0.40538765670E+01  0.88354104261E+01  0.51100000000E-03 0.  1.
         12    1    3    3    0    0 -0.79432800460E+01 -0.42419404766E+01  0.68739145482E+01  0.11328744772E+02  0.00000000000E+00 0. -1.
</event>
<event>
 7    1  0.1402367E-008  0.4614232E+02  0.7816164E-02  0.1320468E+00
        -11   -1    0    0    0    0  0.00000000000E+00  0.00000000000E+00  0.45593999997E+02  0.45594000000E+02  0.51100000000E-03 0.  1.
         11   -1    0    0    0    0 -0.00000000000E+00 -0.00000000000E+00 -0.45593999997E+02  0.45594000000E+02  0.51100000000E-03 0. -1.
    9900012    2    1    2    0    0 -0.17306068642E+02  0.36087785574E+02  0.20670878259E+02  0.46142317771E+02  0.10000000089E+02 0.  0.
         12    1    1    2    0    0  0.17306068642E+02 -0.36087785574E+02 -0.20670878259E+02  0.45045682229E+02  0.00000000000E+00 0. -1.
         11    1    3    3    0    0 -0.27239952753E+01  0.20195623568E+01  0.14838586729E+01  0.37014347482E+01  0.51100000000E-03 0. -1.
        -11    1    3    3    0    0 -0.78585381456E+01  0.23148547704E+02  0.16034175011E+02  0.29235366445E+02  0.51100000000E-03 0.  1.
         12    1    3    3    0    0 -0.67235352210E+01  0.10919675513E+02  0.31528445753E+01  0.13205516578E+02  0.00000000000E+00 0. -1.
</event>
<event>
 7    1  0.1402367E-008  0.4614232E+02  0.7816164E-02  0.1320468E+00
        -11   -1    0    0    0    0  0.00000000000E+00  0.00000000000E+00  0.45593999997E+02  0.45594000000E+02  0.51100000000E-03 0. -1.
         11   -1    0    0    0    0 -0.00000000000E+00 -0.00000000000E+00 -0.45593999997E+02  0.45594000000E+02  0.51100000000E-03 0.  1.
    9900012    2    1    2    0    0 -0.27782453983E+02 -0.46279089845E+01 -0.35154391530E+02  0.46142317246E+02  0.99999953068E+01 0.  0.
         12    1    1    2    0    0  0.27782453983E+02  0.46279089845E+01  0.35154391530E+02  0.45045682754E+02  0.00000000000E+00 0. -1.
         11    1    3    3    0    0 -0.15306009867E+02  0.10188259539E+01 -0.16973873080E+02  0.22878468305E+02  0.51100000000E-03 0. -1.
        -11    1    3    3    0    0 -0.85185564625E+01 -0.61735812845E+01 -0.13030666049E+02  0.16747452583E+02  0.51100000000E-03 0.  1.
        -12    1    3    3    0    0 -0.39578876533E+01  0.52684634605E+00 -0.51498524012E+01  0.65163963586E+01  0.00000000000E+00 0.  1.
</event>
<event>
 7    1  0.1402367E-008  0.4614232E+02  0.7816164E-02  0.1320468E+00
        -11   -1    0    0    0    0  0.00000000000E+00  0.00000000000E+00  0.45593999997E+02  0.45594000000E+02  0.51100000000E-03 0.  1.
         11   -1    0    0    0    0 -0.00000000000E+00 -0.00000000000E+00 -0.45593999997E+02  0.45594000000E+02  0.51100000000E-03 0. -1.
    9900012    2    1    2    0    0  0.12180341141E+02  0.41300407220E+02  0.13229859152E+02  0.46142317410E+02  0.99999967980E+01 0.  0.
         12    1    1    2    0    0 -0.12180341141E+02 -0.41300407220E+02 -0.13229859152E+02  0.45045682590E+02  0.00000000000E+00 0. -1.
         11    1    3    3    0    0  0.16097237996E+01  0.19915733417E+02  0.76956899005E+01  0.21411475698E+02  0.51100000000E-03 0. -1.
        -11    1    3    3    0    0  0.35702546369E+01  0.81085593848E+01  0.40173593893E+00  0.88688694598E+01  0.51100000000E-03 0.  1.
        -12    1    3    3    0    0  0.70003627042E+01  0.13276114418E+02  0.51324333129E+01  0.15861972252E+02  0.00000000000E+00 0.  1.
</event>
<event>
 7    1  0.1402367E-008  0.4614232E+02  0.7816164E-02  0.1320468E+00
        -11   -1    0    0    0    0  0.00000000000E+00  0.00000000000E+00  0.45593999997E+02  0.45594000000E+02  0.51100000000E-03 0.  1.
         11   -1    0    0    0    0 -0.00000000000E+00 -0.00000000000E+00 -0.45593999997E+02  0.45594000000E+02  0.51100000000E-03 0. -1.
    9900012    2    1    2    0    0 -0.20438417673E+02 -0.39069452281E+02  0.92175128233E+01  0.46142316953E+02  0.99999926327E+01 0.  0.
         12    1    1    2    0    0  0.20438417673E+02  0.39069452281E+02 -0.92175128233E+01  0.45045683047E+02  0.00000000000E+00 0. -1.
         11    1    3    3    0    0 -0.46074800913E+01 -0.91664132216E+01  0.10867397516E+01  0.10316637422E+02  0.51100000000E-03 0. -1.
        -11    1    3    3    0    0 -0.93123287926E+01 -0.25163230765E+02  0.62843792960E+01  0.27557232689E+02  0.51100000000E-03 0.  1.
        -12    1    3    3    0    0 -0.65186087893E+01 -0.47398082941E+01  0.18463937756E+01  0.82684468425E+01  0.00000000000E+00 0.  1.
</event>
<event>
 7    1  0.1402367E-008  0.4614232E+02  0.7816164E-02  0.1320468E+00
        -11   -1    0    0    0    0  0.00000000000E+00  0.00000000000E+00  0.45593999997E+02  0.45594000000E+02  0.51100000000E-03 0. -1.
         11   -1    0    0    0    0 -0.00000000000E+00 -0.00000000000E+00 -0.45593999997E+02  0.45594000000E+02  0.51100000000E-03 0.  1.
    9900012    2    1    2    0    0  0.36254448400E+02 -0.98743263655E+01 -0.24844036416E+02  0.46142317683E+02  0.99999992913E+01 0.  0.
         12    1    1    2    0    0 -0.36254448400E+02  0.98743263655E+01  0.24844036416E+02  0.45045682317E+02  0.00000000000E+00 0. -1.
         11    1    3    3    0    0  0.61188807564E+01  0.83534096319E+00 -0.28763029842E+01  0.68126070894E+01  0.51100000000E-03 0. -1.
        -11    1    3    3    0    0  0.15587403515E+02 -0.77930379734E+01 -0.89492820976E+01  0.19590514019E+02  0.51100000000E-03 0.  1.
        -12    1    3    3    0    0  0.14548164128E+02 -0.29166293552E+01 -0.13018451334E+02  0.19739196575E+02  0.00000000000E+00 0.  1.
</event>
<event>
 7    1  0.1402367E-008  0.4614232E+02  0.7816164E-02  0.1320468E+00
        -11   -1    0    0    0    0  0.00000000000E+00  0.00000000000E+00  0.45593999997E+02  0.45594000000E+02  0.51100000000E-03 0.  1.
         11   -1    0    0    0    0 -0.00000000000E+00 -0.00000000000E+00 -0.45593999997E+02  0.45594000000E+02  0.51100000000E-03 0. -1.
    9900012    2    1    2    0    0 -0.13691933990E+02  0.63096643078E-01  0.42914338590E+02  0.46142317696E+02  0.99999994063E+01 0.  0.
         12    1    1    2    0    0  0.13691933990E+02 -0.63096643078E-01 -0.42914338590E+02  0.45045682304E+02  0.00000000000E+00 0. -1.
         11    1    3    3    0    0 -0.79694814708E+00 -0.13503044232E+01  0.21457086836E+01  0.26575391625E+01  0.51100000000E-03 0. -1.
        -11    1    3    3    0    0 -0.10867861150E+02  0.18908027557E+00  0.39113074530E+02  0.40595304615E+02  0.51100000000E-03 0.  1.
        -12    1    3    3    0    0 -0.20271246928E+01  0.12243207907E+01  0.16555553765E+01  0.28894739181E+01  0.00000000000E+00 0.  1.
</event>
<event>
 7    1  0.1402367E-008  0.4614232E+02  0.7816164E-02  0.1320468E+00
        -11   -1    0    0    0    0  0.00000000000E+00  0.00000000000E+00  0.45593999997E+02  0.45594000000E+02  0.51100000000E-03 0.  1.
         11   -1    0    0    0    0 -0.00000000000E+00 -0.00000000000E+00 -0.45593999997E+02  0.45594000000E+02  0.51100000000E-03 0. -1.
    9900012    2    1    2    0    0  0.12743035540E+02  0.33775127890E+02  0.26943816789E+02  0.46142317833E+02  0.10000000654E+02 0.  0.
         12    1    1    2    0    0 -0.12743035540E+02 -0.33775127890E+02 -0.26943816789E+02  0.45045682167E+02  0.00000000000E+00 0. -1.
         11    1    3    3    0    0  0.37711022580E+01  0.17287049208E+02  0.13498233437E+02  0.22254563324E+02  0.51100000000E-03 0. -1.
        -11    1    3    3    0    0  0.75073208561E+01  0.15423848673E+02  0.96485517916E+01  0.19681197277E+02  0.51100000000E-03 0.  1.
         12    1    3    3    0    0  0.14646124257E+01  0.10642300081E+01  0.37970315610E+01  0.42065572316E+01  0.00000000000E+00 0. -1.
</event>
<event>
 7    1  0.1402367E-008  0.4614232E+02  0.7816164E-02  0.1320468E+00
        -11   -1    0    0    0    0  0.00000000000E+00  0.00000000000E+00  0.45593999997E+02  0.45594000000E+02  0.51100000000E-03 0.  1.
         11   -1    0    0    0    0 -0.00000000000E+00 -0.00000000000E+00 -0.45593999997E+02  0.45594000000E+02  0.51100000000E-03 0. -1.
    9900012    2    1    2    0    0  0.23583736500E+02 -0.25564932315E+02  0.28624380250E+02  0.46142317229E+02  0.99999951516E+01 0.  0.
         12    1    1    2    0    0 -0.23583736500E+02  0.25564932315E+02 -0.28624380250E+02  0.45045682771E+02  0.00000000000E+00 0. -1.
         11    1    3    3    0    0  0.21749204389E+01 -0.28633540559E+01  0.25443195250E+01  0.44048425025E+01  0.51100000000E-03 0. -1.
        -11    1    3    3    0    0  0.11382172898E+02 -0.98606894614E+01  0.18251801068E+02  0.23662529430E+02  0.51100000000E-03 0.  1.
         12    1    3    3    0    0  0.10026643163E+02 -0.12840888797E+02  0.78282596571E+01  0.18074945297E+02  0.00000000000E+00 0. -1.
</event>
<event>
 7    1  0.1402367E-008  0.4614232E+02  0.7816164E-02  0.1320468E+00
        -11   -1    0    0    0    0  0.00000000000E+00  0.00000000000E+00  0.45593999997E+02  0.45594000000E+02  0.51100000000E-03 0.  1.
         11   -1    0    0    0    0 -0.00000000000E+00 -0.00000000000E+00 -0.45593999997E+02  0.45594000000E+02  0.51100000000E-03 0. -1.
    9900012    2    1    2    0    0  0.11172910052E+02 -0.18242594716E+02  0.39641989689E+02  0.46142317327E+02  0.99999960397E+01 0.  0.
         12    1    1    2    0    0 -0.11172910052E+02  0.18242594716E+02 -0.39641989689E+02  0.45045682673E+02  0.00000000000E+00 0. -1.
         11    1    3    3    0    0  0.47295970357E+01 -0.16246563285E+01  0.59568734132E+01  0.77777205805E+01  0.51100000000E-03 0.  1.
        -11    1    3    3    0    0  0.59597003677E+00 -0.65453512088E+01  0.14516748094E+02  0.15935268376E+02  0.51100000000E-03 0. -1.
        -12    1    3    3    0    0  0.58473429795E+01 -0.10072587179E+02  0.19168368181E+02  0.22429328370E+02  0.00000000000E+00 0.  1.
</event>
<event>
 7    1  0.1402367E-008  0.4614232E+02  0.7816164E-02  0.1320468E+00
        -11   -1    0    0    0    0  0.00000000000E+00  0.00000000000E+00  0.45593999997E+02  0.45594000000E+02  0.51100000000E-03 0.  1.
         11   -1    0    0    0    0 -0.00000000000E+00 -0.00000000000E+00 -0.45593999997E+02  0.45594000000E+02  0.51100000000E-03 0. -1.
    9900012    2    1    2    0    0 -0.37988591384E+02 -0.22396476186E+02  0.91857628399E+01  0.46142318078E+02  0.10000002886E+02 0.  0.
         12    1    1    2    0    0  0.37988591384E+02  0.22396476186E+02 -0.91857628399E+01  0.45045681922E+02  0.00000000000E+00 0. -1.
         11    1    3    3    0    0 -0.61638901220E+01 -0.41011729178E+01 -0.10232808166E+01  0.74739724798E+01  0.51100000000E-03 0. -1.
        -11    1    3    3    0    0 -0.16521341067E+02 -0.67509631296E+01  0.25636605422E+01  0.18030600918E+02  0.51100000000E-03 0.  1.
         12    1    3    3    0    0 -0.15303360195E+02 -0.11544340138E+02  0.76453831144E+01  0.20637744680E+02  0.00000000000E+00 0. -1.
</event>
<event>
 7    1  0.1402367E-008  0.4614232E+02  0.7816164E-02  0.1320468E+00
        -11   -1    0    0    0    0  0.00000000000E+00  0.00000000000E+00  0.45593999997E+02  0.45594000000E+02  0.51100000000E-03 0.  1.
         11   -1    0    0    0    0 -0.00000000000E+00 -0.00000000000E+00 -0.45593999997E+02  0.45594000000E+02  0.51100000000E-03 0. -1.
    9900012    2    1    2    0    0  0.18134101039E+02 -0.41234149536E+02 -0.11219351605E+00  0.46142319898E+02  0.10000019489E+02 0.  0.
         12    1    1    2    0    0 -0.18134101039E+02  0.41234149536E+02  0.11219351605E+00  0.45045680102E+02  0.00000000000E+00 0. -1.
         11    1    3    3    0    0  0.17780443741E+01 -0.34028120208E+01  0.14795920128E+01  0.41145794720E+01  0.51100000000E-03 0. -1.
        -11    1    3    3    0    0  0.70561939176E+01 -0.22590579916E+02 -0.40311227584E+01  0.24007792995E+02  0.51100000000E-03 0.  1.
        -12    1    3    3    0    0  0.92998627471E+01 -0.15240757599E+02  0.24393372295E+01  0.18019947431E+02  0.00000000000E+00 0.  1.
</event>
<event>
 7    1  0.1402367E-008  0.4614232E+02  0.7816164E-02  0.1320468E+00
        -11   -1    0    0    0    0  0.00000000000E+00  0.00000000000E+00  0.45593999997E+02  0.45594000000E+02  0.51100000000E-03 0. -1.
         11   -1    0    0    0    0 -0.00000000000E+00 -0.00000000000E+00 -0.45593999997E+02  0.45594000000E+02  0.51100000000E-03 0.  1.
    9900012    2    1    2    0    0  0.13132333503E+02  0.17919822060E+02 -0.39185906538E+02  0.46142317887E+02  0.10000001143E+02 0.  0.
         12    1    1    2    0    0 -0.13132333503E+02 -0.17919822060E+02  0.39185906538E+02  0.45045682113E+02  0.00000000000E+00 0. -1.
         11    1    3    3    0    0  0.17185856765E+01  0.52003374306E+01 -0.41609642545E+01  0.68782752132E+01  0.51100000000E-03 0. -1.
        -11    1    3    3    0    0  0.11070700357E+02  0.10256542654E+02 -0.27939302674E+02  0.31754711584E+02  0.51100000000E-03 0.  1.
        -12    1    3    3    0    0  0.34304746969E+00  0.24629419750E+01 -0.70856396092E+01  0.75093310894E+01  0.00000000000E+00 0.  1.
</event>
<event>
 7    1  0.1420251E-008  0.4614232E+02  0.7816164E-02  0.1320468E+00
        -11   -1    0    0    0    0  0.00000000000E+00  0.00000000000E+00  0.45593999997E+02  0.45594000000E+02  0.51100000000E-03 0. -1.
         11   -1    0    0    0    0 -0.00000000000E+00 -0.00000000000E+00 -0.45593999997E+02  0.45594000000E+02  0.51100000000E-03 0.  1.
    9900012    2    1    2    0    0  0.18813344728E+02 -0.40680537401E+02  0.45017276624E+01  0.46142316355E+02  0.99999871815E+01 0.  0.
         12    1    1    2    0    0 -0.18813344728E+02  0.40680537401E+02 -0.45017276624E+01  0.45045683645E+02  0.00000000000E+00 0. -1.
         11    1    3    3    0    0  0.95181461341E-01 -0.46790766200E-01 -0.10114778385E+01  0.10170233848E+01  0.51100000000E-03 0. -1.
        -11    1    3    3    0    0  0.14043722071E+02 -0.30318435011E+02  0.50338301794E+01  0.33790132844E+02  0.51100000000E-03 0.  1.
         12    1    3    3    0    0  0.46744411963E+01 -0.10315311623E+02  0.47937532150E+00  0.11335160126E+02  0.00000000000E+00 0. -1.
</event>
<event>
 7    1  0.1402367E-008  0.4614232E+02  0.7816164E-02  0.1320468E+00
        -11   -1    0    0    0    0  0.00000000000E+00  0.00000000000E+00  0.45593999997E+02  0.45594000000E+02  0.51100000000E-03 0.  1.
         11   -1    0    0    0    0 -0.00000000000E+00 -0.00000000000E+00 -0.45593999997E+02  0.45594000000E+02  0.51100000000E-03 0. -1.
    9900012    2    1    2    0    0 -0.10100208513E+02 -0.27834973446E+02  0.33945743022E+02  0.46142318431E+02  0.10000006105E+02 0.  0.
         12    1    1    2    0    0  0.10100208513E+02  0.27834973446E+02 -0.33945743022E+02  0.45045681569E+02  0.00000000000E+00 0. -1.
         11    1    3    3    0    0 -0.74623796926E+01 -0.12187177647E+02  0.12947587846E+02  0.19283527710E+02  0.51100000000E-03 0. -1.
        -11    1    3    3    0    0 -0.40729722075E+01 -0.11131729336E+02  0.16569503975E+02  0.20372848668E+02  0.51100000000E-03 0.  1.
         12    1    3    3    0    0  0.14351433874E+01 -0.45160664632E+01  0.44286512014E+01  0.64859420523E+01  0.00000000000E+00 0. -1.
</event>
<event>
 7    1  0.1402367E-008  0.4614232E+02  0.7816164E-02  0.1320468E+00
        -11   -1    0    0    0    0  0.00000000000E+00  0.00000000000E+00  0.45593999997E+02  0.45594000000E+02  0.51100000000E-03 0.  1.
         11   -1    0    0    0    0 -0.00000000000E+00 -0.00000000000E+00 -0.45593999997E+02  0.45594000000E+02  0.51100000000E-03 0. -1.
    9900012    2    1    2    0    0  0.14454033431E+02 -0.24412859081E+02  0.34988664311E+02  0.46142318728E+02  0.10000008821E+02 0.  0.
         12    1    1    2    0    0 -0.14454033431E+02  0.24412859081E+02 -0.34988664311E+02  0.45045681272E+02  0.00000000000E+00 0. -1.
         11    1    3    3    0    0  0.44146391998E+01 -0.11331671983E+02  0.21782367837E+02  0.24947291998E+02  0.51100000000E-03 0. -1.
        -11    1    3    3    0    0  0.32464395356E+01 -0.55977115607E+01  0.51358230760E+01  0.82613814404E+01  0.51100000000E-03 0.  1.
         12    1    3    3    0    0  0.67929546954E+01 -0.74834755373E+01  0.80704733983E+01  0.12933645290E+02  0.00000000000E+00 0. -1.
</event>
<event>
 7    1  0.1402367E-008  0.4614232E+02  0.7816164E-02  0.1320468E+00
        -11   -1    0    0    0    0  0.00000000000E+00  0.00000000000E+00  0.45593999997E+02  0.45594000000E+02  0.51100000000E-03 0.  1.
         11   -1    0    0    0    0 -0.00000000000E+00 -0.00000000000E+00 -0.45593999997E+02  0.45594000000E+02  0.51100000000E-03 0. -1.
    9900012    2    1    2    0    0 -0.18253124522E+02 -0.26359844016E+02  0.31640093782E+02  0.46142318011E+02  0.10000002274E+02 0.  0.
         12    1    1    2    0    0  0.18253124522E+02  0.26359844016E+02 -0.31640093782E+02  0.45045681989E+02  0.00000000000E+00 0. -1.
         11    1    3    3    0    0 -0.70745531959E+01 -0.10160129094E+02  0.18823260119E+02  0.22529816864E+02  0.51100000000E-03 0. -1.
        -11    1    3    3    0    0 -0.51482011182E+01 -0.93241394278E+01  0.75916180700E+01  0.13079610698E+02  0.51100000000E-03 0.  1.
         12    1    3    3    0    0 -0.60303702079E+01 -0.68755754946E+01  0.52252155926E+01  0.10532890449E+02  0.00000000000E+00 0. -1.
</event>
<event>
 7    1  0.1402367E-008  0.4614232E+02  0.7816164E-02  0.1320468E+00
        -11   -1    0    0    0    0  0.00000000000E+00  0.00000000000E+00  0.45593999997E+02  0.45594000000E+02  0.51100000000E-03 0. -1.
         11   -1    0    0    0    0 -0.00000000000E+00 -0.00000000000E+00 -0.45593999997E+02  0.45594000000E+02  0.51100000000E-03 0.  1.
    9900012    2    1    2    0    0  0.22847548827E+02  0.26927875866E+02 -0.27964122627E+02  0.46142321625E+02  0.10000035230E+02 0.  0.
         12    1    1    2    0    0 -0.22847548827E+02 -0.26927875866E+02  0.27964122627E+02  0.45045678375E+02  0.00000000000E+00 0. -1.
         11    1    3    3    0    0  0.36051529659E+01  0.20444663221E+01 -0.56849968348E+00  0.41833195672E+01  0.51100000000E-03 0. -1.
        -11    1    3    3    0    0  0.13123701653E+02  0.14857800491E+02 -0.14817033584E+02  0.24749348779E+02  0.51100000000E-03 0.  1.
        -12    1    3    3    0    0  0.61186942075E+01  0.10025609053E+02 -0.12578589359E+02  0.17209653278E+02  0.00000000000E+00 0.  1.
</event>
<event>
 7    1  0.1402367E-008  0.4614232E+02  0.7816164E-02  0.1320468E+00
        -11   -1    0    0    0    0  0.00000000000E+00  0.00000000000E+00  0.45593999997E+02  0.45594000000E+02  0.51100000000E-03 0.  1.
         11   -1    0    0    0    0 -0.00000000000E+00 -0.00000000000E+00 -0.45593999997E+02  0.45594000000E+02  0.51100000000E-03 0. -1.
    9900012    2    1    2    0    0  0.12699158761E+02  0.17089519887E+02  0.39696261372E+02  0.46142317742E+02  0.99999998278E+01 0.  0.
         12    1    1    2    0    0 -0.12699158761E+02 -0.17089519887E+02 -0.39696261372E+02  0.45045682258E+02  0.00000000000E+00 0. -1.
         11    1    3    3    0    0 -0.34356250039E+00  0.32851475968E+01  0.38986351291E+01  0.51097540112E+01  0.51100000000E-03 0. -1.
        -11    1    3    3    0    0  0.11975169148E+02  0.93788482208E+01  0.30226313995E+02  0.33837812105E+02  0.51100000000E-03 0.  1.
        -12    1    3    3    0    0  0.10675521131E+01  0.44255240691E+01  0.55713122480E+01  0.71947516263E+01  0.00000000000E+00 0.  1.
</event>
<event>
 7    1  0.1402367E-008  0.4614232E+02  0.7816164E-02  0.1320468E+00
        -11   -1    0    0    0    0  0.00000000000E+00  0.00000000000E+00  0.45593999997E+02  0.45594000000E+02  0.51100000000E-03 0.  1.
         11   -1    0    0    0    0 -0.00000000000E+00 -0.00000000000E+00 -0.45593999997E+02  0.45594000000E+02  0.51100000000E-03 0. -1.
    9900012    2    1    2    0    0  0.38607008435E+02 -0.21586289908E+02  0.85231745316E+01  0.46142317450E+02  0.99999971601E+01 0.  0.
         12    1    1    2    0    0 -0.38607008435E+02  0.21586289908E+02 -0.85231745316E+01  0.45045682550E+02  0.00000000000E+00 0. -1.
         11    1    3    3    0    0  0.13448691863E+01 -0.13349146922E+01 -0.10995022289E+01  0.21907934124E+01  0.51100000000E-03 0. -1.
        -11    1    3    3    0    0  0.13857924908E+02 -0.10971107461E+02  0.48211645892E+01  0.18320778093E+02  0.51100000000E-03 0.  1.
        -12    1    3    3    0    0  0.23404214341E+02 -0.92802677554E+01  0.48015121713E+01  0.25630745944E+02  0.00000000000E+00 0.  1.
</event>
<event>
 7    1  0.1402367E-008  0.4614232E+02  0.7816164E-02  0.1320468E+00
        -11   -1    0    0    0    0  0.00000000000E+00  0.00000000000E+00  0.45593999997E+02  0.45594000000E+02  0.51100000000E-03 0.  1.
         11   -1    0    0    0    0 -0.00000000000E+00 -0.00000000000E+00 -0.45593999997E+02  0.45594000000E+02  0.51100000000E-03 0. -1.
    9900012    2    1    2    0    0 -0.48442844711E+00 -0.25638797624E+02  0.37034182871E+02  0.46142319680E+02  0.10000017499E+02 0.  0.
         12    1    1    2    0    0  0.48442844711E+00  0.25638797624E+02 -0.37034182871E+02  0.45045680320E+02  0.00000000000E+00 0. -1.
         11    1    3    3    0    0 -0.43977007090E+00 -0.10795410355E+02  0.22136421165E+02  0.24632405987E+02  0.51100000000E-03 0. -1.
        -11    1    3    3    0    0  0.22899441352E+00 -0.15006644749E+02  0.13877532644E+02  0.20441079659E+02  0.51100000000E-03 0.  1.
         12    1    3    3    0    0 -0.27365278972E+00  0.16325747959E+00  0.10202290619E+01  0.10688340342E+01  0.00000000000E+00 0. -1.
</event>
<event>
 7    1  0.1402367E-008  0.4614232E+02  0.7816164E-02  0.1320468E+00
        -11   -1    0    0    0    0  0.00000000000E+00  0.00000000000E+00  0.45593999997E+02  0.45594000000E+02  0.51100000000E-03 0. -1.
         11   -1    0    0    0    0 -0.00000000000E+00 -0.00000000000E+00 -0.45593999997E+02  0.45594000000E+02  0.51100000000E-03 0.  1.
    9900012    2    1    2    0    0  0.16721915743E+02 -0.35597038010E+02 -0.21962284947E+02  0.46142317174E+02  0.99999946447E+01 0.  0.
         12    1    1    2    0    0 -0.16721915743E+02  0.35597038010E+02  0.21962284947E+02  0.45045682826E+02  0.00000000000E+00 0. -1.
         11    1    3    3    0    0  0.82172267839E+01 -0.15384229819E+02 -0.74203531608E+01  0.18954128427E+02  0.51100000000E-03 0. -1.
        -11    1    3    3    0    0  0.53979184146E+01 -0.18225114235E+02 -0.10494507539E+02  0.21712369766E+02  0.51100000000E-03 0.  1.
         12    1    3    3    0    0  0.31067705445E+01 -0.19876939558E+01 -0.40474242467E+01  0.54758189808E+01  0.00000000000E+00 0. -1.
</event>
<event>
 7    1  0.1402367E-008  0.4614232E+02  0.7816164E-02  0.1320468E+00
        -11   -1    0    0    0    0  0.00000000000E+00  0.00000000000E+00  0.45593999997E+02  0.45594000000E+02  0.51100000000E-03 0.  1.
         11   -1    0    0    0    0 -0.00000000000E+00 -0.00000000000E+00 -0.45593999997E+02  0.45594000000E+02  0.51100000000E-03 0. -1.
    9900012    2    1    2    0    0 -0.44148366248E+02 -0.79857431177E+01 -0.40327716770E+01  0.46142316712E+02  0.99999904316E+01 0.  0.
         12    1    1    2    0    0  0.44148366248E+02  0.79857431177E+01  0.40327716770E+01  0.45045683288E+02  0.00000000000E+00 0. -1.
         11    1    3    3    0    0 -0.10781260848E+02 -0.23642543445E+01 -0.43056893245E+01  0.11847541724E+02  0.51100000000E-03 0. -1.
        -11    1    3    3    0    0 -0.21169273766E+02 -0.17348608510E+01 -0.18388878940E+01  0.21319695188E+02  0.51100000000E-03 0.  1.
         12    1    3    3    0    0 -0.12197831634E+02 -0.38866279223E+01  0.21118055415E+01  0.12975079800E+02  0.00000000000E+00 0. -1.
</event>
<event>
 7    1  0.1402367E-008  0.4614232E+02  0.7816164E-02  0.1320468E+00
        -11   -1    0    0    0    0  0.00000000000E+00  0.00000000000E+00  0.45593999997E+02  0.45594000000E+02  0.51100000000E-03 0. -1.
         11   -1    0    0    0    0 -0.00000000000E+00 -0.00000000000E+00 -0.45593999997E+02  0.45594000000E+02  0.51100000000E-03 0.  1.
    9900012    2    1    2    0    0  0.62091892122E+00 -0.14417355007E+02 -0.42671627900E+02  0.46142317706E+02  0.99999995004E+01 0.  0.
         12    1    1    2    0    0 -0.62091892122E+00  0.14417355007E+02  0.42671627900E+02  0.45045682294E+02  0.00000000000E+00 0. -1.
         11    1    3    3    0    0  0.13352863039E+01 -0.10270005492E+02 -0.17269810576E+02  0.20137089162E+02  0.51100000000E-03 0. -1.
        -11    1    3    3    0    0 -0.14366687562E+01 -0.57063568158E+00 -0.12569575744E+02  0.12664275615E+02  0.51100000000E-03 0.  1.
         12    1    3    3    0    0  0.72230137356E+00 -0.35767138329E+01 -0.12832241579E+02  0.13340952930E+02  0.00000000000E+00 0. -1.
</event>
<event>
 7    1  0.1402367E-008  0.4614232E+02  0.7816164E-02  0.1320468E+00
        -11   -1    0    0    0    0  0.00000000000E+00  0.00000000000E+00  0.45593999997E+02  0.45594000000E+02  0.51100000000E-03 0. -1.
         11   -1    0    0    0    0 -0.00000000000E+00 -0.00000000000E+00 -0.45593999997E+02  0.45594000000E+02  0.51100000000E-03 0.  1.
    9900012    2    1    2    0    0 -0.33284566372E+02 -0.34175110474E+01 -0.30159104737E+02  0.46142319421E+02  0.10000015134E+02 0.  0.
         12    1    1    2    0    0  0.33284566372E+02  0.34175110474E+01  0.30159104737E+02  0.45045680579E+02  0.00000000000E+00 0. -1.
         11    1    3    3    0    0 -0.67357089815E+01  0.11822019042E+01 -0.10737237738E+02  0.12730108064E+02  0.51100000000E-03 0. -1.
        -11    1    3    3    0    0 -0.71019374759E+01  0.71415203744E-01 -0.39546482890E+01  0.81290749408E+01  0.51100000000E-03 0.  1.
        -12    1    3    3    0    0 -0.19446919914E+02 -0.46711281554E+01 -0.15467218710E+02  0.25283136416E+02  0.00000000000E+00 0.  1.
</event>
<event>
 7    1  0.1402367E-008  0.4614232E+02  0.7816164E-02  0.1320468E+00
        -11   -1    0    0    0    0  0.00000000000E+00  0.00000000000E+00  0.45593999997E+02  0.45594000000E+02  0.51100000000E-03 0.  1.
         11   -1    0    0    0    0 -0.00000000000E+00 -0.00000000000E+00 -0.45593999997E+02  0.45594000000E+02  0.51100000000E-03 0. -1.
    9900012    2    1    2    0    0  0.11383589538E+01 -0.70596490758E+01  0.44474474940E+02  0.46142318438E+02  0.10000006173E+02 0.  0.
         12    1    1    2    0    0 -0.11383589538E+01  0.70596490758E+01 -0.44474474940E+02  0.45045681562E+02  0.00000000000E+00 0. -1.
         11    1    3    3    0    0 -0.61573841382E+00  0.15538890020E+01  0.66619177079E+01  0.68683952007E+01  0.51100000000E-03 0. -1.
        -11    1    3    3    0    0  0.28652795118E+01 -0.31358145661E+01  0.24006145734E+02  0.24379052339E+02  0.51100000000E-03 0.  1.
        -12    1    3    3    0    0 -0.11111821442E+01 -0.54777235117E+01  0.13806411498E+02  0.14894870899E+02  0.00000000000E+00 0.  1.
</event>
<event>
 7    1  0.1402367E-008  0.4614231E+02  0.7816164E-02  0.1320468E+00
        -11   -1    0    0    0    0  0.00000000000E+00  0.00000000000E+00  0.45593999997E+02  0.45594000000E+02  0.51100000000E-03 0. -1.
         11   -1    0    0    0    0 -0.00000000000E+00 -0.00000000000E+00 -0.45593999997E+02  0.45594000000E+02  0.51100000000E-03 0.  1.
    9900012    2    1    2    0    0 -0.36996313863E+02 -0.25538267406E+02 -0.28607911842E+01  0.46142306890E+02  0.99999008682E+01 0.  0.
         12    1    1    2    0    0  0.36996313863E+02  0.25538267406E+02  0.28607911842E+01  0.45045693110E+02  0.00000000000E+00 0. -1.
         11    1    3    3    0    0 -0.43260863231E+01 -0.53932265127E+01 -0.24039203481E+01  0.73198871845E+01  0.51100000000E-03 0.  1.
        -11    1    3    3    0    0 -0.57885392546E+01 -0.48282558285E+01  0.19616325424E+01  0.77889179955E+01  0.51100000000E-03 0. -1.
         12    1    3    3    0    0 -0.26881688286E+02 -0.15316785065E+02 -0.24185033785E+01  0.31033501710E+02  0.00000000000E+00 0. -1.
</event>
<event>
 7    1  0.1402367E-008  0.4614232E+02  0.7816164E-02  0.1320468E+00
        -11   -1    0    0    0    0  0.00000000000E+00  0.00000000000E+00  0.45593999997E+02  0.45594000000E+02  0.51100000000E-03 0. -1.
         11   -1    0    0    0    0 -0.00000000000E+00 -0.00000000000E+00 -0.45593999997E+02  0.45594000000E+02  0.51100000000E-03 0.  1.
    9900012    2    1    2    0    0  0.41952386617E+01 -0.41015712079E+01 -0.44661959100E+02  0.46142317583E+02  0.99999983717E+01 0.  0.
         12    1    1    2    0    0 -0.41952386617E+01  0.41015712079E+01  0.44661959100E+02  0.45045682417E+02  0.00000000000E+00 0. -1.
         11    1    3    3    0    0 -0.12736029503E+01  0.20971659580E+01 -0.11153489778E+02  0.11420179684E+02  0.51100000000E-03 0. -1.
        -11    1    3    3    0    0  0.15409922010E+01 -0.45971776367E+01 -0.17075878081E+02  0.17750896081E+02  0.51100000000E-03 0.  1.
         12    1    3    3    0    0  0.39278494110E+01 -0.16015595292E+01 -0.16432591241E+02  0.16971241817E+02  0.00000000000E+00 0. -1.
</event>
<event>
 7    1  0.1402367E-008  0.4614232E+02  0.7816164E-02  0.1320468E+00
        -11   -1    0    0    0    0  0.00000000000E+00  0.00000000000E+00  0.45593999997E+02  0.45594000000E+02  0.51100000000E-03 0. -1.
         11   -1    0    0    0    0 -0.00000000000E+00 -0.00000000000E+00 -0.45593999997E+02  0.45594000000E+02  0.51100000000E-03 0.  1.
    9900012    2    1    2    0    0 -0.44059738916E+02  0.46474111020E+01  0.81396893177E+01  0.46142316905E+02  0.99999921907E+01 0.  0.
         12    1    1    2    0    0  0.44059738916E+02 -0.46474111020E+01 -0.81396893177E+01  0.45045683095E+02  0.00000000000E+00 0. -1.
         11    1    3    3    0    0 -0.11135267000E+01  0.18496254261E+01  0.73898367294E+00  0.22819187230E+01  0.51100000000E-03 0. -1.
        -11    1    3    3    0    0 -0.30524631513E+02  0.15802091687E+00  0.48537686721E+01  0.30908529085E+02  0.51100000000E-03 0.  1.
        -12    1    3    3    0    0 -0.12421580703E+02  0.26397647590E+01  0.25469369727E+01  0.12951869096E+02  0.00000000000E+00 0.  1.
</event>
<event>
 7    1  0.1402367E-008  0.4614232E+02  0.7816164E-02  0.1320468E+00
        -11   -1    0    0    0    0  0.00000000000E+00  0.00000000000E+00  0.45593999997E+02  0.45594000000E+02  0.51100000000E-03 0. -1.
         11   -1    0    0    0    0 -0.00000000000E+00 -0.00000000000E+00 -0.45593999997E+02  0.45594000000E+02  0.51100000000E-03 0.  1.
    9900012    2    1    2    0    0  0.95617215563E+01 -0.40622949603E+02  0.16954733061E+02  0.46142317335E+02  0.99999961171E+01 0.  0.
         12    1    1    2    0    0 -0.95617215563E+01  0.40622949603E+02 -0.16954733061E+02  0.45045682665E+02  0.00000000000E+00 0. -1.
         11    1    3    3    0    0  0.77708694480E+01 -0.33436008912E+02  0.14574868386E+02  0.37293161473E+02  0.51100000000E-03 0.  1.
        -11    1    3    3    0    0  0.22923039383E+01 -0.32158036431E+01 -0.40961115736E+00  0.39703692496E+01  0.51100000000E-03 0. -1.
        -12    1    3    3    0    0 -0.50145183001E+00 -0.39711370479E+01  0.27894758327E+01  0.48787866127E+01  0.00000000000E+00 0.  1.
</event>
<event>
 7    1  0.1402367E-008  0.4614232E+02  0.7816164E-02  0.1320468E+00
        -11   -1    0    0    0    0  0.00000000000E+00  0.00000000000E+00  0.45593999997E+02  0.45594000000E+02  0.51100000000E-03 0.  1.
         11   -1    0    0    0    0 -0.00000000000E+00 -0.00000000000E+00 -0.45593999997E+02  0.45594000000E+02  0.51100000000E-03 0. -1.
    9900012    2    1    2    0    0 -0.73012651620E+01  0.20592362435E+02  0.39392380779E+02  0.46142317332E+02  0.99999960843E+01 0.  0.
         12    1    1    2    0    0  0.73012651620E+01 -0.20592362435E+02 -0.39392380779E+02  0.45045682668E+02  0.00000000000E+00 0. -1.
         11    1    3    3    0    0  0.58192499009E+00  0.33025048443E+00  0.17202837472E+01  0.18458273236E+01  0.51100000000E-03 0. -1.
        -11    1    3    3    0    0 -0.10963719072E+01  0.30207520800E+01  0.12804163533E+01  0.34592543686E+01  0.51100000000E-03 0.  1.
        -12    1    3    3    0    0 -0.67868182448E+01  0.17241359871E+02  0.36391680678E+02  0.40837235640E+02  0.00000000000E+00 0.  1.
</event>
<event>
 7    1  0.1402367E-008  0.4614232E+02  0.7816164E-02  0.1320468E+00
        -11   -1    0    0    0    0  0.00000000000E+00  0.00000000000E+00  0.45593999997E+02  0.45594000000E+02  0.51100000000E-03 0.  1.
         11   -1    0    0    0    0 -0.00000000000E+00 -0.00000000000E+00 -0.45593999997E+02  0.45594000000E+02  0.51100000000E-03 0. -1.
    9900012    2    1    2    0    0 -0.21740593028E+02  0.28216476951E+02  0.27573365220E+02  0.46142318450E+02  0.10000006281E+02 0.  0.
         12    1    1    2    0    0  0.21740593028E+02 -0.28216476951E+02 -0.27573365220E+02  0.45045681550E+02  0.00000000000E+00 0. -1.
         11    1    3    3    0    0 -0.40159914378E+01  0.10014837440E+02  0.11156807737E+02  0.15520937965E+02  0.51100000000E-03 0. -1.
        -11    1    3    3    0    0 -0.20726456859E+01  0.34284423227E+00  0.14114572952E+01  0.25309315013E+01  0.51100000000E-03 0.  1.
         12    1    3    3    0    0 -0.15651955904E+02  0.17858795279E+02  0.15005100188E+02  0.28090448983E+02  0.00000000000E+00 0. -1.
</event>
<event>
 7    1  0.1402367E-008  0.4614231E+02  0.7816164E-02  0.1320468E+00
        -11   -1    0    0    0    0  0.00000000000E+00  0.00000000000E+00  0.45593999997E+02  0.45594000000E+02  0.51100000000E-03 0.  1.
         11   -1    0    0    0    0 -0.00000000000E+00 -0.00000000000E+00 -0.45593999997E+02  0.45594000000E+02  0.51100000000E-03 0. -1.
    9900012    2    1    2    0    0 -0.17296144333E+02  0.34819198284E+02  0.22750398189E+02  0.46142314350E+02  0.99999688937E+01 0.  0.
         12    1    1    2    0    0  0.17296144333E+02 -0.34819198284E+02 -0.22750398189E+02  0.45045685650E+02  0.00000000000E+00 0. -1.
         11    1    3    3    0    0 -0.10244885888E+02  0.12813463522E+02  0.10013509510E+02  0.19220117254E+02  0.51100000000E-03 0. -1.
        -11    1    3    3    0    0  0.42363445975E+00  0.59127963291E+01  0.39328116509E+01  0.71139042957E+01  0.51100000000E-03 0.  1.
        -12    1    3    3    0    0 -0.74748929047E+01  0.16092938433E+02  0.88040770282E+01  0.19808292800E+02  0.00000000000E+00 0.  1.
</event>
<event>
 7    1  0.1402367E-008  0.4614232E+02  0.7816164E-02  0.1320468E+00
        -11   -1    0    0    0    0  0.00000000000E+00  0.00000000000E+00  0.45593999997E+02  0.45594000000E+02  0.51100000000E-03 0. -1.
         11   -1    0    0    0    0 -0.00000000000E+00 -0.00000000000E+00 -0.45593999997E+02  0.45594000000E+02  0.51100000000E-03 0.  1.
    9900012    2    1    2    0    0 -0.27051639132E+02 -0.29444325526E+02  0.20744968477E+02  0.46142320934E+02  0.10000028932E+02 0.  0.
         12    1    1    2    0    0  0.27051639132E+02  0.29444325526E+02 -0.20744968477E+02  0.45045679066E+02  0.00000000000E+00 0. -1.
         11    1    3    3    0    0 -0.11256258794E+02 -0.19156183404E+02  0.10818279492E+02  0.24712302525E+02  0.51100000000E-03 0.  1.
        -11    1    3    3    0    0 -0.15311917027E+02 -0.10288095761E+02  0.93627608087E+01  0.20687218461E+02  0.51100000000E-03 0. -1.
         12    1    3    3    0    0 -0.48346331106E+00 -0.46361298206E-04  0.56392817606E+00  0.74279994820E+00  0.00000000000E+00 0. -1.
</event>
<event>
 7    1  0.1402367E-008  0.4614232E+02  0.7816164E-02  0.1320468E+00
        -11   -1    0    0    0    0  0.00000000000E+00  0.00000000000E+00  0.45593999997E+02  0.45594000000E+02  0.51100000000E-03 0.  1.
         11   -1    0    0    0    0 -0.00000000000E+00 -0.00000000000E+00 -0.45593999997E+02  0.45594000000E+02  0.51100000000E-03 0. -1.
    9900012    2    1    2    0    0 -0.13621496273E+02 -0.13019563961E+02  0.40915269623E+02  0.46142317690E+02  0.99999993518E+01 0.  0.
         12    1    1    2    0    0  0.13621496273E+02  0.13019563961E+02 -0.40915269623E+02  0.45045682310E+02  0.00000000000E+00 0. -1.
         11    1    3    3    0    0 -0.12178555400E+02 -0.10990466168E+02  0.29162350319E+02  0.33459680731E+02  0.51100000000E-03 0.  1.
        -11    1    3    3    0    0  0.11717418217E+01 -0.43543485863E+00  0.13564083644E+01  0.18445667039E+01  0.51100000000E-03 0. -1.
        -12    1    3    3    0    0 -0.26146826948E+01 -0.15936629342E+01  0.10396510939E+02  0.10838070255E+02  0.00000000000E+00 0.  1.
</event>
<event>
 7    1  0.1402367E-008  0.4614232E+02  0.7816164E-02  0.1320468E+00
        -11   -1    0    0    0    0  0.00000000000E+00  0.00000000000E+00  0.45593999997E+02  0.45594000000E+02  0.51100000000E-03 0.  1.
         11   -1    0    0    0    0 -0.00000000000E+00 -0.00000000000E+00 -0.45593999997E+02  0.45594000000E+02  0.51100000000E-03 0. -1.
    9900012    2    1    2    0    0 -0.30900012995E+01  0.27674088869E+02  0.35407769626E+02  0.46142318157E+02  0.10000003612E+02 0.  0.
         12    1    1    2    0    0  0.30900012995E+01 -0.27674088869E+02 -0.35407769626E+02  0.45045681843E+02  0.00000000000E+00 0. -1.
         11    1    3    3    0    0  0.22236811495E+01  0.36287569651E+01  0.41133632640E+01  0.59188168217E+01  0.51100000000E-03 0. -1.
        -11    1    3    3    0    0 -0.10520215098E+01  0.14861219243E+02  0.21329951153E+02  0.26017866998E+02  0.51100000000E-03 0.  1.
        -12    1    3    3    0    0 -0.42616609392E+01  0.91841126606E+01  0.99644552093E+01  0.14205634338E+02  0.00000000000E+00 0.  1.
</event>
<event>
 7    1  0.1402367E-008  0.4614232E+02  0.7816164E-02  0.1320468E+00
        -11   -1    0    0    0    0  0.00000000000E+00  0.00000000000E+00  0.45593999997E+02  0.45594000000E+02  0.51100000000E-03 0.  1.
         11   -1    0    0    0    0 -0.00000000000E+00 -0.00000000000E+00 -0.45593999997E+02  0.45594000000E+02  0.51100000000E-03 0. -1.
    9900012    2    1    2    0    0  0.32943273814E+02  0.16200446134E+02  0.26103632674E+02  0.46142318927E+02  0.10000010634E+02 0.  0.
         12    1    1    2    0    0 -0.32943273814E+02 -0.16200446134E+02 -0.26103632674E+02  0.45045681073E+02  0.00000000000E+00 0. -1.
         11    1    3    3    0    0  0.27079533781E+01 -0.82746276219E+00  0.35837366993E+01  0.45673707001E+01  0.51100000000E-03 0. -1.
        -11    1    3    3    0    0  0.22157104936E+02  0.10330825835E+02  0.15369973850E+02  0.28877315630E+02  0.51100000000E-03 0.  1.
        -12    1    3    3    0    0  0.80782155001E+01  0.66970830607E+01  0.71499221246E+01  0.12697632597E+02  0.00000000000E+00 0.  1.
</event>
<event>
 7    1  0.1402367E-008  0.4614232E+02  0.7816164E-02  0.1320468E+00
        -11   -1    0    0    0    0  0.00000000000E+00  0.00000000000E+00  0.45593999997E+02  0.45594000000E+02  0.51100000000E-03 0.  1.
         11   -1    0    0    0    0 -0.00000000000E+00 -0.00000000000E+00 -0.45593999997E+02  0.45594000000E+02  0.51100000000E-03 0. -1.
    9900012    2    1    2    0    0 -0.95263239160E+01  0.41138733122E+02  0.15683344677E+02  0.46142317516E+02  0.99999977624E+01 0.  0.
         12    1    1    2    0    0  0.95263239160E+01 -0.41138733122E+02 -0.15683344677E+02  0.45045682484E+02  0.00000000000E+00 0. -1.
         11    1    3    3    0    0 -0.68113587601E+01  0.13610271433E+02  0.64363440338E+01  0.16524546028E+02  0.51100000000E-03 0. -1.
        -11    1    3    3    0    0  0.12445103176E+01  0.13603101334E+02  0.45056823905E+01  0.14383822367E+02  0.51100000000E-03 0.  1.
         12    1    3    3    0    0 -0.39594754735E+01  0.13925360355E+02  0.47413182527E+01  0.15233949121E+02  0.00000000000E+00 0. -1.
</event>
<event>
 7    1  0.1402367E-008  0.4614232E+02  0.7816164E-02  0.1320468E+00
        -11   -1    0    0    0    0  0.00000000000E+00  0.00000000000E+00  0.45593999997E+02  0.45594000000E+02  0.51100000000E-03 0.  1.
         11   -1    0    0    0    0 -0.00000000000E+00 -0.00000000000E+00 -0.45593999997E+02  0.45594000000E+02  0.51100000000E-03 0. -1.
    9900012    2    1    2    0    0 -0.30426233773E+02  0.78144634070E+01  0.32284546780E+02  0.46142317623E+02  0.99999987440E+01 0.  0.
         12    1    1    2    0    0  0.30426233773E+02 -0.78144634070E+01 -0.32284546780E+02  0.45045682377E+02  0.00000000000E+00 0. -1.
         11    1    3    3    0    0 -0.13338851118E+02 -0.68241347720E+00  0.12339647350E+02  0.18183991154E+02  0.51100000000E-03 0. -1.
        -11    1    3    3    0    0 -0.83068837733E+01  0.58466394126E+01  0.12746397894E+02  0.16299023590E+02  0.51100000000E-03 0.  1.
         12    1    3    3    0    0 -0.87804988822E+01  0.26502374715E+01  0.71985015357E+01  0.11659302879E+02  0.00000000000E+00 0. -1.
</event>
<event>
 7    1  0.1402367E-008  0.4614232E+02  0.7816164E-02  0.1320468E+00
        -11   -1    0    0    0    0  0.00000000000E+00  0.00000000000E+00  0.45593999997E+02  0.45594000000E+02  0.51100000000E-03 0. -1.
         11   -1    0    0    0    0 -0.00000000000E+00 -0.00000000000E+00 -0.45593999997E+02  0.45594000000E+02  0.51100000000E-03 0.  1.
    9900012    2    1    2    0    0  0.27313798381E+02  0.31058262816E+02 -0.17845285910E+02  0.46142317628E+02  0.99999987858E+01 0.  0.
         12    1    1    2    0    0 -0.27313798381E+02 -0.31058262816E+02  0.17845285910E+02  0.45045682372E+02  0.00000000000E+00 0. -1.
         11    1    3    3    0    0  0.32337944089E+01  0.26913658940E+00 -0.20741297205E+01  0.38512173584E+01  0.51100000000E-03 0. -1.
        -11    1    3    3    0    0  0.18753635569E+02  0.21481321150E+02 -0.11355686705E+02  0.30693608882E+02  0.51100000000E-03 0.  1.
         12    1    3    3    0    0  0.53263684029E+01  0.93078050771E+01 -0.44154694844E+01  0.11597491388E+02  0.00000000000E+00 0. -1.
</event>
<event>
 7    1  0.1402367E-008  0.4614232E+02  0.7816164E-02  0.1320468E+00
        -11   -1    0    0    0    0  0.00000000000E+00  0.00000000000E+00  0.45593999997E+02  0.45594000000E+02  0.51100000000E-03 0. -1.
         11   -1    0    0    0    0 -0.00000000000E+00 -0.00000000000E+00 -0.45593999997E+02  0.45594000000E+02  0.51100000000E-03 0.  1.
    9900012    2    1    2    0    0  0.38081689766E+02  0.23532097325E+02  0.50138842049E+01  0.46142315026E+02  0.99999750604E+01 0.  0.
         12    1    1    2    0    0 -0.38081689766E+02 -0.23532097325E+02 -0.50138842049E+01  0.45045684974E+02  0.00000000000E+00 0. -1.
         11    1    3    3    0    0  0.19242375344E+02  0.12466844690E+02  0.75422201778E+01  0.24136617635E+02  0.51100000000E-03 0. -1.
        -11    1    3    3    0    0  0.16977463842E+02  0.10159529909E+02 -0.21590464226E+01  0.19902557830E+02  0.51100000000E-03 0.  1.
         12    1    3    3    0    0  0.18618505804E+01  0.90572272599E+00 -0.36928955016E+00  0.21031395608E+01  0.00000000000E+00 0. -1.
</event>
<event>
 7    1  0.1402367E-008  0.4614232E+02  0.7816164E-02  0.1320468E+00
        -11   -1    0    0    0    0  0.00000000000E+00  0.00000000000E+00  0.45593999997E+02  0.45594000000E+02  0.51100000000E-03 0. -1.
         11   -1    0    0    0    0 -0.00000000000E+00 -0.00000000000E+00 -0.45593999997E+02  0.45594000000E+02  0.51100000000E-03 0.  1.
    9900012    2    1    2    0    0 -0.42586940909E+02 -0.99278770226E+00  0.14645147907E+02  0.46142317403E+02  0.99999967369E+01 0.  0.
         12    1    1    2    0    0  0.42586940909E+02  0.99278770226E+00 -0.14645147907E+02  0.45045682597E+02  0.00000000000E+00 0. -1.
         11    1    3    3    0    0 -0.15739472494E+02 -0.44691276343E+01  0.65110125670E+01  0.17609582082E+02  0.51100000000E-03 0.  1.
        -11    1    3    3    0    0 -0.33601058551E+01 -0.67396518747E+00  0.35694908625E+00  0.34455701041E+01  0.51100000000E-03 0. -1.
         12    1    3    3    0    0 -0.23487362560E+02  0.41503051195E+01  0.77771862535E+01  0.25087165217E+02  0.00000000000E+00 0. -1.
</event>
<event>
 7    1  0.1402367E-008  0.4614232E+02  0.7816164E-02  0.1320468E+00
        -11   -1    0    0    0    0  0.00000000000E+00  0.00000000000E+00  0.45593999997E+02  0.45594000000E+02  0.51100000000E-03 0. -1.
         11   -1    0    0    0    0 -0.00000000000E+00 -0.00000000000E+00 -0.45593999997E+02  0.45594000000E+02  0.51100000000E-03 0.  1.
    9900012    2    1    2    0    0 -0.16271354498E+02 -0.19331557099E+01 -0.41959735357E+02  0.46142318082E+02  0.10000002928E+02 0.  0.
         12    1    1    2    0    0  0.16271354498E+02  0.19331557099E+01  0.41959735357E+02  0.45045681918E+02  0.00000000000E+00 0. -1.
         11    1    3    3    0    0 -0.29607052152E+01 -0.18913952749E+01 -0.22418061982E+01  0.41675948398E+01  0.51100000000E-03 0. -1.
        -11    1    3    3    0    0 -0.62126090413E+01  0.11169917749E+01 -0.20760209277E+02  0.21698628326E+02  0.51100000000E-03 0.  1.
         12    1    3    3    0    0 -0.70980402414E+01 -0.11587522099E+01 -0.18957719882E+02  0.20276094917E+02  0.00000000000E+00 0. -1.
</event>
<event>
 7    1  0.1402367E-008  0.4614232E+02  0.7816164E-02  0.1320468E+00
        -11   -1    0    0    0    0  0.00000000000E+00  0.00000000000E+00  0.45593999997E+02  0.45594000000E+02  0.51100000000E-03 0.  1.
         11   -1    0    0    0    0 -0.00000000000E+00 -0.00000000000E+00 -0.45593999997E+02  0.45594000000E+02  0.51100000000E-03 0. -1.
    9900012    2    1    2    0    0 -0.70933551727E+01 -0.23316026107E+02  0.37883515554E+02  0.46142317501E+02  0.99999976320E+01 0.  0.
         12    1    1    2    0    0  0.70933551727E+01  0.23316026107E+02 -0.37883515554E+02  0.45045682499E+02  0.00000000000E+00 0. -1.
         11    1    3    3    0    0  0.23091886186E+01 -0.35394280057E+01  0.43528214726E+01  0.60668738010E+01  0.51100000000E-03 0. -1.
        -11    1    3    3    0    0 -0.89158462956E+01 -0.19100024268E+02  0.32649964776E+02  0.38862880006E+02  0.51100000000E-03 0.  1.
        -12    1    3    3    0    0 -0.48669749570E+00 -0.67657383325E+00  0.88072930536E+00  0.12125636946E+01  0.00000000000E+00 0.  1.
</event>
<event>
 7    1  0.1402367E-008  0.4614232E+02  0.7816164E-02  0.1320468E+00
        -11   -1    0    0    0    0  0.00000000000E+00  0.00000000000E+00  0.45593999997E+02  0.45594000000E+02  0.51100000000E-03 0.  1.
         11   -1    0    0    0    0 -0.00000000000E+00 -0.00000000000E+00 -0.45593999997E+02  0.45594000000E+02  0.51100000000E-03 0. -1.
    9900012    2    1    2    0    0 -0.31432641883E+02 -0.17046874646E+02  0.27395371552E+02  0.46142319925E+02  0.10000019733E+02 0.  0.
         12    1    1    2    0    0  0.31432641883E+02  0.17046874646E+02 -0.27395371552E+02  0.45045680075E+02  0.00000000000E+00 0. -1.
         11    1    3    3    0    0 -0.12168679354E+02 -0.49375248116E+01  0.86013186442E+01  0.15698362691E+02  0.51100000000E-03 0. -1.
        -11    1    3    3    0    0 -0.14384795263E+01 -0.41732916940E+01  0.29524389497E+01  0.53106009946E+01  0.51100000000E-03 0.  1.
        -12    1    3    3    0    0 -0.17825483002E+02 -0.79360581406E+01  0.15841613958E+02  0.25133356240E+02  0.00000000000E+00 0.  1.
</event>
<event>
 7    1  0.1402367E-008  0.4614232E+02  0.7816164E-02  0.1320468E+00
        -11   -1    0    0    0    0  0.00000000000E+00  0.00000000000E+00  0.45593999997E+02  0.45594000000E+02  0.51100000000E-03 0.  1.
         11   -1    0    0    0    0 -0.00000000000E+00 -0.00000000000E+00 -0.45593999997E+02  0.45594000000E+02  0.51100000000E-03 0. -1.
    9900012    2    1    2    0    0  0.31440772278E+02 -0.31482833874E+02  0.70301223499E+01  0.46142316406E+02  0.99999876432E+01 0.  0.
         12    1    1    2    0    0 -0.31440772278E+02  0.31482833874E+02 -0.70301223499E+01  0.45045683594E+02  0.00000000000E+00 0. -1.
         11    1    3    3    0    0  0.41535290445E+01 -0.59832120654E+01 -0.97557451391E+00  0.73486308954E+01  0.51100000000E-03 0. -1.
        -11    1    3    3    0    0  0.11004347919E+02 -0.12416804904E+02  0.66096668996E+01  0.17859462868E+02  0.51100000000E-03 0.  1.
         12    1    3    3    0    0  0.16282895315E+02 -0.13082816904E+02  0.13960299642E+01  0.20934222643E+02  0.00000000000E+00 0. -1.
</event>
<event>
 7    1  0.1402367E-008  0.4614232E+02  0.7816164E-02  0.1320468E+00
        -11   -1    0    0    0    0  0.00000000000E+00  0.00000000000E+00  0.45593999997E+02  0.45594000000E+02  0.51100000000E-03 0.  1.
         11   -1    0    0    0    0 -0.00000000000E+00 -0.00000000000E+00 -0.45593999997E+02  0.45594000000E+02  0.51100000000E-03 0. -1.
    9900012    2    1    2    0    0 -0.43964084265E+02 -0.98104306273E+01  0.16786599693E+00  0.46142318372E+02  0.10000005572E+02 0.  0.
         12    1    1    2    0    0  0.43964084265E+02  0.98104306273E+01 -0.16786599693E+00  0.45045681628E+02  0.00000000000E+00 0. -1.
         11    1    3    3    0    0 -0.62642074258E+01 -0.38002483236E+01 -0.43249501327E+00  0.73395663490E+01  0.51100000000E-03 0. -1.
        -11    1    3    3    0    0 -0.32046881806E+02 -0.74450231433E+01 -0.29832041507E+00  0.32901671666E+02  0.51100000000E-03 0.  1.
        -12    1    3    3    0    0 -0.56529950326E+01  0.14348408396E+01  0.89868142527E+00  0.59010803568E+01  0.00000000000E+00 0.  1.
</event>
<event>
 7    1  0.1402367E-008  0.4614232E+02  0.7816164E-02  0.1320468E+00
        -11   -1    0    0    0    0  0.00000000000E+00  0.00000000000E+00  0.45593999997E+02  0.45594000000E+02  0.51100000000E-03 0.  1.
         11   -1    0    0    0    0 -0.00000000000E+00 -0.00000000000E+00 -0.45593999997E+02  0.45594000000E+02  0.51100000000E-03 0. -1.
    9900012    2    1    2    0    0  0.32340706977E+02 -0.26699485168E+02  0.16441705189E+02  0.46142317570E+02  0.99999982582E+01 0.  0.
         12    1    1    2    0    0 -0.32340706977E+02  0.26699485168E+02 -0.16441705189E+02  0.45045682430E+02  0.00000000000E+00 0. -1.
         11    1    3    3    0    0  0.10858923118E+01 -0.90979707529E+00 -0.84383446967E+00  0.16489238018E+01  0.51100000000E-03 0. -1.
        -11    1    3    3    0    0  0.21983277219E+02 -0.21259149549E+02  0.11568374565E+02  0.32696226191E+02  0.51100000000E-03 0.  1.
        -12    1    3    3    0    0  0.92715374467E+01 -0.45305385444E+01  0.57171650943E+01  0.11797167577E+02  0.00000000000E+00 0.  1.
</event>
<event>
 7    1  0.1402367E-008  0.4614232E+02  0.7816164E-02  0.1320468E+00
        -11   -1    0    0    0    0  0.00000000000E+00  0.00000000000E+00  0.45593999997E+02  0.45594000000E+02  0.51100000000E-03 0. -1.
         11   -1    0    0    0    0 -0.00000000000E+00 -0.00000000000E+00 -0.45593999997E+02  0.45594000000E+02  0.51100000000E-03 0.  1.
    9900012    2    1    2    0    0 -0.10740933508E+02 -0.94018372968E+01 -0.42724130861E+02  0.46142317022E+02  0.99999932584E+01 0.  0.
         12    1    1    2    0    0  0.10740933508E+02  0.94018372968E+01  0.42724130861E+02  0.45045682978E+02  0.00000000000E+00 0. -1.
         11    1    3    3    0    0 -0.16795300306E+01 -0.62315030619E+01 -0.21118926632E+02  0.22083059432E+02  0.51100000000E-03 0. -1.
        -11    1    3    3    0    0 -0.91709773360E+01 -0.34046353197E+01 -0.21684277187E+02  0.23788784003E+02  0.51100000000E-03 0.  1.
        -12    1    3    3    0    0  0.10957385832E+00  0.23430108475E+00  0.79072957852E-01  0.27047358726E+00  0.00000000000E+00 0.  1.
</event>
<event>
 7    1  0.1402367E-008  0.4614232E+02  0.7816164E-02  0.1320468E+00
        -11   -1    0    0    0    0  0.00000000000E+00  0.00000000000E+00  0.45593999997E+02  0.45594000000E+02  0.51100000000E-03 0.  1.
         11   -1    0    0    0    0 -0.00000000000E+00 -0.00000000000E+00 -0.45593999997E+02  0.45594000000E+02  0.51100000000E-03 0. -1.
    9900012    2    1    2    0    0  0.33226196992E+02 -0.17560204127E+02  0.24834907277E+02  0.46142317022E+02  0.99999932591E+01 0.  0.
         12    1    1    2    0    0 -0.33226196992E+02  0.17560204127E+02 -0.24834907277E+02  0.45045682978E+02  0.00000000000E+00 0. -1.
         11    1    3    3    0    0  0.16614223041E+02 -0.74335201271E+01  0.16795689672E+02  0.24766606965E+02  0.51100000000E-03 0. -1.
        -11    1    3    3    0    0  0.44636021041E+01 -0.10388128422E+01  0.25306911271E+01  0.52351956703E+01  0.51100000000E-03 0.  1.
         12    1    3    3    0    0  0.12148371847E+02 -0.90878711578E+01  0.55085264774E+01  0.16140514386E+02  0.00000000000E+00 0. -1.
</event>
<event>
 7    1  0.1402367E-008  0.4614232E+02  0.7816164E-02  0.1320468E+00
        -11   -1    0    0    0    0  0.00000000000E+00  0.00000000000E+00  0.45593999997E+02  0.45594000000E+02  0.51100000000E-03 0.  1.
         11   -1    0    0    0    0 -0.00000000000E+00 -0.00000000000E+00 -0.45593999997E+02  0.45594000000E+02  0.51100000000E-03 0. -1.
    9900012    2    1    2    0    0  0.10313086297E+02 -0.76230855380E+01  0.43181504245E+02  0.46142317732E+02  0.99999997362E+01 0.  0.
         12    1    1    2    0    0 -0.10313086297E+02  0.76230855380E+01 -0.43181504245E+02  0.45045682268E+02  0.00000000000E+00 0. -1.
         11    1    3    3    0    0  0.59842394851E+01  0.47961948462E+00  0.13175925572E+02  0.14479163374E+02  0.51100000000E-03 0. -1.
        -11    1    3    3    0    0  0.56278659023E+00 -0.32196140411E+01  0.16439598629E+02  0.16761355752E+02  0.51100000000E-03 0.  1.
         12    1    3    3    0    0  0.37660602217E+01 -0.48830909815E+01  0.13565980044E+02  0.14901798606E+02  0.00000000000E+00 0. -1.
</event>
<event>
 7    1  0.1402367E-008  0.4614232E+02  0.7816164E-02  0.1320468E+00
        -11   -1    0    0    0    0  0.00000000000E+00  0.00000000000E+00  0.45593999997E+02  0.45594000000E+02  0.51100000000E-03 0.  1.
         11   -1    0    0    0    0 -0.00000000000E+00 -0.00000000000E+00 -0.45593999997E+02  0.45594000000E+02  0.51100000000E-03 0. -1.
    9900012    2    1    2    0    0 -0.27946604946E+02 -0.84307504164E+00  0.35318408751E+02  0.46142317629E+02  0.99999987957E+01 0.  0.
         12    1    1    2    0    0  0.27946604946E+02  0.84307504164E+00 -0.35318408751E+02  0.45045682371E+02  0.00000000000E+00 0. -1.
         11    1    3    3    0    0 -0.21120772069E+02  0.27605023441E+01  0.27815582809E+02  0.35034469216E+02  0.51100000000E-03 0.  1.
        -11    1    3    3    0    0 -0.64332333737E+01 -0.39192510486E+01  0.74607096807E+01  0.10602320955E+02  0.51100000000E-03 0. -1.
         12    1    3    3    0    0 -0.39259950381E+00  0.31567366286E+00  0.42116261329E-01  0.50552745848E+00  0.00000000000E+00 0. -1.
</event>
<event>
 7    1  0.1402367E-008  0.4614232E+02  0.7816164E-02  0.1320468E+00
        -11   -1    0    0    0    0  0.00000000000E+00  0.00000000000E+00  0.45593999997E+02  0.45594000000E+02  0.51100000000E-03 0.  1.
         11   -1    0    0    0    0 -0.00000000000E+00 -0.00000000000E+00 -0.45593999997E+02  0.45594000000E+02  0.51100000000E-03 0. -1.
    9900012    2    1    2    0    0  0.27399110832E+01  0.56196573396E+01  0.44609706513E+02  0.46142316782E+02  0.99999910722E+01 0.  0.
         12    1    1    2    0    0 -0.27399110832E+01 -0.56196573396E+01 -0.44609706513E+02  0.45045683218E+02  0.00000000000E+00 0. -1.
         11    1    3    3    0    0  0.93081102470E+00  0.24952945825E+00  0.18483450279E+01  0.20844792437E+01  0.51100000000E-03 0. -1.
        -11    1    3    3    0    0 -0.19893169755E+00  0.32326924706E+01  0.39650379638E+02  0.39782439343E+02  0.51100000000E-03 0.  1.
        -12    1    3    3    0    0  0.20080317560E+01  0.21374354108E+01  0.31109818480E+01  0.42753981952E+01  0.00000000000E+00 0.  1.
</event>
<event>
 7    1  0.1402367E-008  0.4614232E+02  0.7816164E-02  0.1320468E+00
        -11   -1    0    0    0    0  0.00000000000E+00  0.00000000000E+00  0.45593999997E+02  0.45594000000E+02  0.51100000000E-03 0.  1.
         11   -1    0    0    0    0 -0.00000000000E+00 -0.00000000000E+00 -0.45593999997E+02  0.45594000000E+02  0.51100000000E-03 0. -1.
    9900012    2    1    2    0    0 -0.36919152663E+02 -0.77693246460E+01  0.24611528050E+02  0.46142317058E+02  0.99999935843E+01 0.  0.
         12    1    1    2    0    0  0.36919152663E+02  0.77693246460E+01 -0.24611528050E+02  0.45045682942E+02  0.00000000000E+00 0. -1.
         11    1    3    3    0    0 -0.22612233290E+01  0.24318722715E+00  0.41930868961E+01  0.47701413973E+01  0.51100000000E-03 0. -1.
        -11    1    3    3    0    0 -0.12383337079E+02 -0.22655371776E+00  0.68828578696E+01  0.14169407063E+02  0.51100000000E-03 0.  1.
        -12    1    3    3    0    0 -0.22274592254E+02 -0.77859581554E+01  0.13535583285E+02  0.27202768597E+02  0.00000000000E+00 0.  1.
</event>
<event>
 7    1  0.1402367E-008  0.4614232E+02  0.7816164E-02  0.1320468E+00
        -11   -1    0    0    0    0  0.00000000000E+00  0.00000000000E+00  0.45593999997E+02  0.45594000000E+02  0.51100000000E-03 0. -1.
         11   -1    0    0    0    0 -0.00000000000E+00 -0.00000000000E+00 -0.45593999997E+02  0.45594000000E+02  0.51100000000E-03 0.  1.
    9900012    2    1    2    0    0 -0.40142667790E+02  0.20368529330E+02  0.16741356341E+01  0.46142317693E+02  0.99999993797E+01 0.  0.
         12    1    1    2    0    0  0.40142667790E+02 -0.20368529330E+02 -0.16741356341E+01  0.45045682307E+02  0.00000000000E+00 0. -1.
         11    1    3    3    0    0 -0.14985029841E+02  0.76923808724E+01 -0.71744011281E+00  0.16859376127E+02  0.51100000000E-03 0.  1.
        -11    1    3    3    0    0 -0.12485216933E+02  0.51605314477E+01 -0.25393040735E+01  0.13746264661E+02  0.51100000000E-03 0. -1.
        -12    1    3    3    0    0 -0.12672421017E+02  0.75156170103E+01  0.49308798204E+01  0.15536676906E+02  0.00000000000E+00 0.  1.
</event>
<event>
 7    1  0.1402367E-008  0.4614232E+02  0.7816164E-02  0.1320468E+00
        -11   -1    0    0    0    0  0.00000000000E+00  0.00000000000E+00  0.45593999997E+02  0.45594000000E+02  0.51100000000E-03 0.  1.
         11   -1    0    0    0    0 -0.00000000000E+00 -0.00000000000E+00 -0.45593999997E+02  0.45594000000E+02  0.51100000000E-03 0. -1.
    9900012    2    1    2    0    0 -0.28413780908E+02 -0.33388504208E+02  0.10343034127E+02  0.46142317481E+02  0.99999974419E+01 0.  0.
         12    1    1    2    0    0  0.28413780908E+02  0.33388504208E+02 -0.10343034127E+02  0.45045682519E+02  0.00000000000E+00 0. -1.
         11    1    3    3    0    0 -0.14615067288E+02 -0.14198917561E+02  0.40543636709E+01  0.20776123719E+02  0.51100000000E-03 0. -1.
        -11    1    3    3    0    0 -0.13535643338E+02 -0.17022219587E+02  0.73265109221E+01  0.22948798722E+02  0.51100000000E-03 0.  1.
         12    1    3    3    0    0 -0.26307028133E+00 -0.21673670594E+01 -0.10378404661E+01  0.24173950394E+01  0.00000000000E+00 0. -1.
</event>
<event>
 7    1  0.1402367E-008  0.4614232E+02  0.7816164E-02  0.1320468E+00
        -11   -1    0    0    0    0  0.00000000000E+00  0.00000000000E+00  0.45593999997E+02  0.45594000000E+02  0.51100000000E-03 0. -1.
         11   -1    0    0    0    0 -0.00000000000E+00 -0.00000000000E+00 -0.45593999997E+02  0.45594000000E+02  0.51100000000E-03 0.  1.
    9900012    2    1    2    0    0 -0.26657408367E+02 -0.35977247898E+02  0.49126012685E+01  0.46142318316E+02  0.10000005057E+02 0.  0.
         12    1    1    2    0    0  0.26657408367E+02  0.35977247898E+02 -0.49126012685E+01  0.45045681684E+02  0.00000000000E+00 0. -1.
         11    1    3    3    0    0 -0.14874453253E+02 -0.13589805485E+02  0.35506679717E+01  0.20458235897E+02  0.51100000000E-03 0. -1.
        -11    1    3    3    0    0 -0.11585660014E+02 -0.19294497168E+02  0.16816194523E+01  0.22568406748E+02  0.51100000000E-03 0.  1.
         12    1    3    3    0    0 -0.19729510016E+00 -0.30929452452E+01 -0.31968615543E+00  0.31156756706E+01  0.00000000000E+00 0. -1.
</event>
<event>
 7    1  0.1402367E-008  0.4614232E+02  0.7816164E-02  0.1320468E+00
        -11   -1    0    0    0    0  0.00000000000E+00  0.00000000000E+00  0.45593999997E+02  0.45594000000E+02  0.51100000000E-03 0.  1.
         11   -1    0    0    0    0 -0.00000000000E+00 -0.00000000000E+00 -0.45593999997E+02  0.45594000000E+02  0.51100000000E-03 0. -1.
    9900012    2    1    2    0    0 -0.43992790250E+02 -0.70827614298E+01  0.66016855083E+01  0.46142319242E+02  0.10000013500E+02 0.  0.
         12    1    1    2    0    0  0.43992790250E+02  0.70827614298E+01 -0.66016855083E+01  0.45045680758E+02  0.00000000000E+00 0. -1.
         11    1    3    3    0    0 -0.11034994532E+02  0.46093085675E+00 -0.17102988578E+00  0.11045941022E+02  0.51100000000E-03 0. -1.
        -11    1    3    3    0    0 -0.52026475640E+01 -0.37597671381E+01  0.10121848210E+01  0.64983004687E+01  0.51100000000E-03 0.  1.
         12    1    3    3    0    0 -0.27755148154E+02 -0.37839251484E+01  0.57605305731E+01  0.28598077751E+02  0.00000000000E+00 0. -1.
</event>
<event>
 7    1  0.1402367E-008  0.4614232E+02  0.7816164E-02  0.1320468E+00
        -11   -1    0    0    0    0  0.00000000000E+00  0.00000000000E+00  0.45593999997E+02  0.45594000000E+02  0.51100000000E-03 0.  1.
         11   -1    0    0    0    0 -0.00000000000E+00 -0.00000000000E+00 -0.45593999997E+02  0.45594000000E+02  0.51100000000E-03 0. -1.
    9900012    2    1    2    0    0  0.33908920602E+02 -0.25010400744E+02 -0.15930423786E+02  0.46142318257E+02  0.10000004520E+02 0.  0.
         12    1    1    2    0    0 -0.33908920602E+02  0.25010400744E+02  0.15930423786E+02  0.45045681743E+02  0.00000000000E+00 0. -1.
         11    1    3    3    0    0  0.59862129960E+01 -0.50725027780E+01 -0.46724671002E+01  0.91321946722E+01  0.51100000000E-03 0. -1.
        -11    1    3    3    0    0  0.13670688404E+02 -0.13200033134E+02 -0.30822765865E+01  0.19251727855E+02  0.51100000000E-03 0.  1.
        -12    1    3    3    0    0  0.14252019202E+02 -0.67378648313E+01 -0.81756800990E+01  0.17758395730E+02  0.00000000000E+00 0.  1.
</event>
<event>
 7    1  0.1402367E-008  0.4614232E+02  0.7816164E-02  0.1320468E+00
        -11   -1    0    0    0    0  0.00000000000E+00  0.00000000000E+00  0.45593999997E+02  0.45594000000E+02  0.51100000000E-03 0.  1.
         11   -1    0    0    0    0 -0.00000000000E+00 -0.00000000000E+00 -0.45593999997E+02  0.45594000000E+02  0.51100000000E-03 0. -1.
    9900012    2    1    2    0    0 -0.22112346630E+02  0.17576932999E+02  0.35088588626E+02  0.46142317644E+02  0.99999989347E+01 0.  0.
         12    1    1    2    0    0  0.22112346630E+02 -0.17576932999E+02 -0.35088588626E+02  0.45045682356E+02  0.00000000000E+00 0. -1.
         11    1    3    3    0    0 -0.51758116994E+00  0.76659376818E+00  0.54847652779E-01  0.92658771793E+00  0.51100000000E-03 0. -1.
        -11    1    3    3    0    0 -0.10352805732E+01  0.28274188511E+01  0.76861065926E+01  0.82548372508E+01  0.51100000000E-03 0.  1.
        -12    1    3    3    0    0 -0.20559484887E+02  0.13982920379E+02  0.27347634381E+02  0.36960892676E+02  0.00000000000E+00 0.  1.
</event>
<event>
 7    1  0.1402367E-008  0.4614232E+02  0.7816164E-02  0.1320468E+00
        -11   -1    0    0    0    0  0.00000000000E+00  0.00000000000E+00  0.45593999997E+02  0.45594000000E+02  0.51100000000E-03 0.  1.
         11   -1    0    0    0    0 -0.00000000000E+00 -0.00000000000E+00 -0.45593999997E+02  0.45594000000E+02  0.51100000000E-03 0. -1.
    9900012    2    1    2    0    0  0.31386158196E+02  0.30505061798E+02 -0.10651936256E+02  0.46142317992E+02  0.10000002104E+02 0.  0.
         12    1    1    2    0    0 -0.31386158196E+02 -0.30505061798E+02  0.10651936256E+02  0.45045682008E+02  0.00000000000E+00 0. -1.
         11    1    3    3    0    0  0.21613582110E+00  0.83723828150E+00 -0.13131635496E+01  0.15722854074E+01  0.51100000000E-03 0. -1.
        -11    1    3    3    0    0  0.19060134734E+02  0.18683944629E+02 -0.23628279573E+01  0.26794803212E+02  0.51100000000E-03 0.  1.
        -12    1    3    3    0    0  0.12109887641E+02  0.10983878887E+02 -0.69759447491E+01  0.17775229372E+02  0.00000000000E+00 0.  1.
</event>
<event>
 7    1  0.1402367E-008  0.4614232E+02  0.7816164E-02  0.1320468E+00
        -11   -1    0    0    0    0  0.00000000000E+00  0.00000000000E+00  0.45593999997E+02  0.45594000000E+02  0.51100000000E-03 0.  1.
         11   -1    0    0    0    0 -0.00000000000E+00 -0.00000000000E+00 -0.45593999997E+02  0.45594000000E+02  0.51100000000E-03 0. -1.
    9900012    2    1    2    0    0  0.16168154284E+02  0.15241263698E+02  0.39184282590E+02  0.46142319472E+02  0.10000015605E+02 0.  0.
         12    1    1    2    0    0 -0.16168154284E+02 -0.15241263698E+02 -0.39184282590E+02  0.45045680528E+02  0.00000000000E+00 0. -1.
         11    1    3    3    0    0  0.22576957060E+00  0.15046940991E+01  0.41929597661E+00  0.15782539745E+01  0.51100000000E-03 0. -1.
        -11    1    3    3    0    0  0.11034207046E+02  0.10496672347E+02  0.21674166843E+02  0.26489684107E+02  0.51100000000E-03 0.  1.
         12    1    3    3    0    0  0.49081776679E+01  0.32398972512E+01  0.17090819771E+02  0.18074381391E+02  0.00000000000E+00 0. -1.
</event>
<event>
 7    1  0.1402367E-008  0.4614232E+02  0.7816164E-02  0.1320468E+00
        -11   -1    0    0    0    0  0.00000000000E+00  0.00000000000E+00  0.45593999997E+02  0.45594000000E+02  0.51100000000E-03 0.  1.
         11   -1    0    0    0    0 -0.00000000000E+00 -0.00000000000E+00 -0.45593999997E+02  0.45594000000E+02  0.51100000000E-03 0. -1.
    9900012    2    1    2    0    0  0.37924879461E+02  0.18589774967E+02  0.15660052749E+02  0.46142317992E+02  0.10000002104E+02 0.  0.
         12    1    1    2    0    0 -0.37924879461E+02 -0.18589774967E+02 -0.15660052749E+02  0.45045682008E+02  0.00000000000E+00 0. -1.
         11    1    3    3    0    0  0.54996219274E+01  0.64211056883E+00  0.23056330552E+01  0.59978405591E+01  0.51100000000E-03 0. -1.
        -11    1    3    3    0    0  0.19691799858E+02  0.84374421132E+01  0.42909142629E+01  0.21848783868E+02  0.51100000000E-03 0.  1.
        -12    1    3    3    0    0  0.12733457676E+02  0.95102222853E+01  0.90635054312E+01  0.18295693564E+02  0.00000000000E+00 0.  1.
</event>
<event>
 7    1  0.1402367E-008  0.4614233E+02  0.7816164E-02  0.1320468E+00
        -11   -1    0    0    0    0  0.00000000000E+00  0.00000000000E+00  0.45593999997E+02  0.45594000000E+02  0.51100000000E-03 0.  1.
         11   -1    0    0    0    0 -0.00000000000E+00 -0.00000000000E+00 -0.45593999997E+02  0.45594000000E+02  0.51100000000E-03 0. -1.
    9900012    2    1    2    0    0 -0.24456024473E+01 -0.36067958028E+02  0.26874407805E+02  0.46142330258E+02  0.10000113952E+02 0.  0.
         12    1    1    2    0    0  0.24456024473E+01  0.36067958028E+02 -0.26874407805E+02  0.45045669742E+02  0.00000000000E+00 0. -1.
         11    1    3    3    0    0  0.77879317126E+00  0.17403605602E+00  0.11230514215E+01  0.13776981196E+01  0.51100000000E-03 0. -1.
        -11    1    3    3    0    0 -0.34357863419E+00 -0.23006260203E+02  0.17452111754E+02  0.28878751007E+02  0.51100000000E-03 0.  1.
        -12    1    3    3    0    0 -0.28808169843E+01 -0.13235733882E+02  0.82992446298E+01  0.15885881131E+02  0.00000000000E+00 0.  1.
</event>
<event>
 7    1  0.1402367E-008  0.4614232E+02  0.7816164E-02  0.1320468E+00
        -11   -1    0    0    0    0  0.00000000000E+00  0.00000000000E+00  0.45593999997E+02  0.45594000000E+02  0.51100000000E-03 0. -1.
         11   -1    0    0    0    0 -0.00000000000E+00 -0.00000000000E+00 -0.45593999997E+02  0.45594000000E+02  0.51100000000E-03 0.  1.
    9900012    2    1    2    0    0 -0.15004450955E+02  0.29127232421E+02 -0.30912523728E+02  0.46142319405E+02  0.10000014995E+02 0.  0.
         12    1    1    2    0    0  0.15004450955E+02 -0.29127232421E+02  0.30912523728E+02  0.45045680595E+02  0.00000000000E+00 0. -1.
         11    1    3    3    0    0 -0.49385721183E+01  0.48927533491E+01 -0.72291844204E+01  0.10029438546E+02  0.51100000000E-03 0. -1.
        -11    1    3    3    0    0 -0.10604313055E+02  0.24046746962E+02 -0.21802249905E+02  0.34147263376E+02  0.51100000000E-03 0.  1.
         12    1    3    3    0    0  0.53843421812E+00  0.18773210916E+00 -0.18810894026E+01  0.19656174838E+01  0.00000000000E+00 0. -1.
</event>
<event>
 7    1  0.1402367E-008  0.4614232E+02  0.7816164E-02  0.1320468E+00
        -11   -1    0    0    0    0  0.00000000000E+00  0.00000000000E+00  0.45593999997E+02  0.45594000000E+02  0.51100000000E-03 0. -1.
         11   -1    0    0    0    0 -0.00000000000E+00 -0.00000000000E+00 -0.45593999997E+02  0.45594000000E+02  0.51100000000E-03 0.  1.
    9900012    2    1    2    0    0 -0.39032215585E+02  0.20203290800E+02  0.98704984672E+01  0.46142317048E+02  0.99999934946E+01 0.  0.
         12    1    1    2    0    0  0.39032215585E+02 -0.20203290800E+02 -0.98704984672E+01  0.45045682952E+02  0.00000000000E+00 0. -1.
         11    1    3    3    0    0 -0.29228632887E+02  0.15749708121E+02  0.54373889435E+01  0.33644189470E+02  0.51100000000E-03 0. -1.
        -11    1    3    3    0    0 -0.10110181209E+02  0.36778293113E+01  0.44994349615E+01  0.11661351026E+02  0.51100000000E-03 0.  1.
         12    1    3    3    0    0  0.30659851008E+00  0.77575336737E+00 -0.66325437771E-01  0.83677655146E+00  0.00000000000E+00 0. -1.
</event>
<event>
 7    1  0.1402367E-008  0.4614232E+02  0.7816164E-02  0.1320468E+00
        -11   -1    0    0    0    0  0.00000000000E+00  0.00000000000E+00  0.45593999997E+02  0.45594000000E+02  0.51100000000E-03 0.  1.
         11   -1    0    0    0    0 -0.00000000000E+00 -0.00000000000E+00 -0.45593999997E+02  0.45594000000E+02  0.51100000000E-03 0. -1.
    9900012    2    1    2    0    0  0.30110095204E+02 -0.63860136574E+01  0.32889427796E+02  0.46142318027E+02  0.10000002424E+02 0.  0.
         12    1    1    2    0    0 -0.30110095204E+02  0.63860136574E+01 -0.32889427796E+02  0.45045681973E+02  0.00000000000E+00 0. -1.
         11    1    3    3    0    0  0.34773338854E+01  0.20430879869E+01  0.30580889829E+01  0.50614195598E+01  0.51100000000E-03 0. -1.
        -11    1    3    3    0    0  0.22722607427E+02 -0.65228874003E+01  0.23004612510E+02  0.32986014390E+02  0.51100000000E-03 0.  1.
        -12    1    3    3    0    0  0.39101538917E+01 -0.19062142440E+01  0.68267263036E+01  0.80948840773E+01  0.00000000000E+00 0.  1.
</event>
<event>
 7    1  0.1402367E-008  0.4614232E+02  0.7816164E-02  0.1320468E+00
        -11   -1    0    0    0    0  0.00000000000E+00  0.00000000000E+00  0.45593999997E+02  0.45594000000E+02  0.51100000000E-03 0.  1.
         11   -1    0    0    0    0 -0.00000000000E+00 -0.00000000000E+00 -0.45593999997E+02  0.45594000000E+02  0.51100000000E-03 0. -1.
    9900012    2    1    2    0    0  0.44004886673E+01 -0.87518230246E+01  0.43967654350E+02  0.46142319454E+02  0.10000015438E+02 0.  0.
         12    1    1    2    0    0 -0.44004886673E+01  0.87518230246E+01 -0.43967654350E+02  0.45045680546E+02  0.00000000000E+00 0. -1.
         11    1    3    3    0    0 -0.84848124714E+00 -0.38674634526E+01  0.21594635725E+02  0.21954623347E+02  0.51100000000E-03 0. -1.
        -11    1    3    3    0    0  0.14217982072E+01  0.25350216559E+00  0.11323258677E+02  0.11414988428E+02  0.51100000000E-03 0.  1.
        -12    1    3    3    0    0  0.38271717073E+01 -0.51378617376E+01  0.11049759948E+02  0.12772707678E+02  0.00000000000E+00 0.  1.
</event>
<event>
 7    1  0.1402367E-008  0.4614232E+02  0.7816164E-02  0.1320468E+00
        -11   -1    0    0    0    0  0.00000000000E+00  0.00000000000E+00  0.45593999997E+02  0.45594000000E+02  0.51100000000E-03 0. -1.
         11   -1    0    0    0    0 -0.00000000000E+00 -0.00000000000E+00 -0.45593999997E+02  0.45594000000E+02  0.51100000000E-03 0.  1.
    9900012    2    1    2    0    0 -0.21956255219E+02  0.23702137454E+02 -0.31388610961E+02  0.46142319173E+02  0.10000012872E+02 0.  0.
         12    1    1    2    0    0  0.21956255219E+02 -0.23702137454E+02  0.31388610961E+02  0.45045680827E+02  0.00000000000E+00 0. -1.
         11    1    3    3    0    0 -0.26356002714E+00  0.35652338971E+01 -0.36957538652E+01  0.51418822937E+01  0.51100000000E-03 0. -1.
        -11    1    3    3    0    0 -0.10658699699E+02  0.74705733274E+01 -0.87585124699E+01  0.15688495341E+02  0.51100000000E-03 0.  1.
        -12    1    3    3    0    0 -0.11033995493E+02  0.12666330230E+02 -0.18934344626E+02  0.25311941538E+02  0.00000000000E+00 0.  1.
</event>
<event>
 7    1  0.1402367E-008  0.4614232E+02  0.7816164E-02  0.1320468E+00
        -11   -1    0    0    0    0  0.00000000000E+00  0.00000000000E+00  0.45593999997E+02  0.45594000000E+02  0.51100000000E-03 0.  1.
         11   -1    0    0    0    0 -0.00000000000E+00 -0.00000000000E+00 -0.45593999997E+02  0.45594000000E+02  0.51100000000E-03 0. -1.
    9900012    2    1    2    0    0 -0.43165132532E+02 -0.76312905464E+01  0.10375366033E+02  0.46142317830E+02  0.10000000624E+02 0.  0.
         12    1    1    2    0    0  0.43165132532E+02  0.76312905464E+01 -0.10375366033E+02  0.45045682170E+02  0.00000000000E+00 0. -1.
         11    1    3    3    0    0 -0.10914923291E+02  0.99836487697E+00  0.20760650855E+00  0.10962453357E+02  0.51100000000E-03 0. -1.
        -11    1    3    3    0    0 -0.31341979402E+02 -0.91138611548E+01  0.97137905552E+01  0.34054953607E+02  0.51100000000E-03 0.  1.
        -12    1    3    3    0    0 -0.90822983911E+00  0.48420573148E+00  0.45396896962E+00  0.11249108660E+01  0.00000000000E+00 0.  1.
</event>
<event>
 7    1  0.1402367E-008  0.4614232E+02  0.7816164E-02  0.1320468E+00
        -11   -1    0    0    0    0  0.00000000000E+00  0.00000000000E+00  0.45593999997E+02  0.45594000000E+02  0.51100000000E-03 0. -1.
         11   -1    0    0    0    0 -0.00000000000E+00 -0.00000000000E+00 -0.45593999997E+02  0.45594000000E+02  0.51100000000E-03 0.  1.
    9900012    2    1    2    0    0  0.11620652171E+02  0.13815297186E+02 -0.41269985459E+02  0.46142315490E+02  0.99999792866E+01 0.  0.
         12    1    1    2    0    0 -0.11620652171E+02 -0.13815297186E+02  0.41269985459E+02  0.45045684510E+02  0.00000000000E+00 0. -1.
         11    1    3    3    0    0 -0.31093937953E-01  0.26238439559E+01 -0.25215926749E+01  0.36392243428E+01  0.51100000000E-03 0. -1.
        -11    1    3    3    0    0  0.89175165452E+01  0.10184683761E+02 -0.24803939106E+02  0.28257481843E+02  0.51100000000E-03 0.  1.
        -12    1    3    3    0    0  0.27342295641E+01  0.10067694695E+01 -0.13944453678E+02  0.14245609304E+02  0.00000000000E+00 0.  1.
</event>
<event>
 7    1  0.1402367E-008  0.4614232E+02  0.7816164E-02  0.1320468E+00
        -11   -1    0    0    0    0  0.00000000000E+00  0.00000000000E+00  0.45593999997E+02  0.45594000000E+02  0.51100000000E-03 0. -1.
         11   -1    0    0    0    0 -0.00000000000E+00 -0.00000000000E+00 -0.45593999997E+02  0.45594000000E+02  0.51100000000E-03 0.  1.
    9900012    2    1    2    0    0  0.44779933277E+02 -0.12119243689E+01 -0.47331011099E+01  0.46142318397E+02  0.10000005802E+02 0.  0.
         12    1    1    2    0    0 -0.44779933277E+02  0.12119243689E+01  0.47331011099E+01  0.45045681603E+02  0.00000000000E+00 0. -1.
         11    1    3    3    0    0  0.65459345917E+01 -0.13365930667E+01 -0.10211116980E+01  0.67585804771E+01  0.51100000000E-03 0. -1.
        -11    1    3    3    0    0  0.82472471539E+01 -0.21815862301E+01  0.20206658030E+01  0.87669546962E+01  0.51100000000E-03 0.  1.
        -12    1    3    3    0    0  0.29986751531E+02  0.23062549279E+01 -0.57326552148E+01  0.30616783224E+02  0.00000000000E+00 0.  1.
</event>
<event>
 7    1  0.1402367E-008  0.4614232E+02  0.7816164E-02  0.1320468E+00
        -11   -1    0    0    0    0  0.00000000000E+00  0.00000000000E+00  0.45593999997E+02  0.45594000000E+02  0.51100000000E-03 0.  1.
         11   -1    0    0    0    0 -0.00000000000E+00 -0.00000000000E+00 -0.45593999997E+02  0.45594000000E+02  0.51100000000E-03 0. -1.
    9900012    2    1    2    0    0  0.41884039179E+02  0.21676164598E+01  0.16436001502E+02  0.46142318249E+02  0.10000004448E+02 0.  0.
         12    1    1    2    0    0 -0.41884039179E+02 -0.21676164598E+01 -0.16436001502E+02  0.45045681751E+02  0.00000000000E+00 0. -1.
         11    1    3    3    0    0  0.35225772004E+02  0.27131913108E+01  0.10205663702E+02  0.36774610701E+02  0.51100000000E-03 0.  1.
        -11    1    3    3    0    0  0.11993516442E+01  0.34406105902E+00  0.21817871204E+01  0.25133677961E+01  0.51100000000E-03 0. -1.
         12    1    3    3    0    0  0.54589155308E+01 -0.88963590996E+00  0.40485506800E+01  0.68543397519E+01  0.00000000000E+00 0. -1.
</event>
<event>
 7    1  0.1402367E-008  0.4614232E+02  0.7816164E-02  0.1320468E+00
        -11   -1    0    0    0    0  0.00000000000E+00  0.00000000000E+00  0.45593999997E+02  0.45594000000E+02  0.51100000000E-03 0. -1.
         11   -1    0    0    0    0 -0.00000000000E+00 -0.00000000000E+00 -0.45593999997E+02  0.45594000000E+02  0.51100000000E-03 0.  1.
    9900012    2    1    2    0    0  0.20862094837E+02 -0.38664009816E+02  0.99489101612E+01  0.46142317972E+02  0.10000001919E+02 0.  0.
         12    1    1    2    0    0 -0.20862094837E+02  0.38664009816E+02 -0.99489101612E+01  0.45045682028E+02  0.00000000000E+00 0. -1.
         11    1    3    3    0    0  0.78471124964E+01 -0.17957812591E+02  0.60700971526E+00  0.19606852594E+02  0.51100000000E-03 0. -1.
        -11    1    3    3    0    0  0.98099392491E+01 -0.18436096919E+02  0.82958777488E+01  0.22471007222E+02  0.51100000000E-03 0.  1.
         12    1    3    3    0    0  0.32050430917E+01 -0.22701003053E+01  0.10460226972E+01  0.40644581556E+01  0.00000000000E+00 0. -1.
</event>
<event>
 7    1  0.1402367E-008  0.4614232E+02  0.7816164E-02  0.1320468E+00
        -11   -1    0    0    0    0  0.00000000000E+00  0.00000000000E+00  0.45593999997E+02  0.45594000000E+02  0.51100000000E-03 0.  1.
         11   -1    0    0    0    0 -0.00000000000E+00 -0.00000000000E+00 -0.45593999997E+02  0.45594000000E+02  0.51100000000E-03 0. -1.
    9900012    2    1    2    0    0 -0.11111136523E+01  0.35443659563E+02  0.27778153431E+02  0.46142318911E+02  0.10000010483E+02 0.  0.
         12    1    1    2    0    0  0.11111136523E+01 -0.35443659563E+02 -0.27778153431E+02  0.45045681089E+02  0.00000000000E+00 0. -1.
         11    1    3    3    0    0 -0.96796518261E+00  0.37392232015E+01 -0.14696870165E+00  0.38652744800E+01  0.51100000000E-03 0. -1.
        -11    1    3    3    0    0 -0.69276022707E+00  0.10339430368E+02  0.95377821325E+01  0.14083785902E+02  0.51100000000E-03 0.  1.
         12    1    3    3    0    0  0.54961175736E+00  0.21365005994E+02  0.18387340000E+02  0.28193258529E+02  0.00000000000E+00 0. -1.
</event>
<event>
 7    1  0.1402367E-008  0.4614232E+02  0.7816164E-02  0.1320468E+00
        -11   -1    0    0    0    0  0.00000000000E+00  0.00000000000E+00  0.45593999997E+02  0.45594000000E+02  0.51100000000E-03 0. -1.
         11   -1    0    0    0    0 -0.00000000000E+00 -0.00000000000E+00 -0.45593999997E+02  0.45594000000E+02  0.51100000000E-03 0.  1.
    9900012    2    1    2    0    0  0.22630981894E+02 -0.28604251393E+02 -0.26433859835E+02  0.46142317798E+02  0.10000000341E+02 0.  0.
         12    1    1    2    0    0 -0.22630981894E+02  0.28604251393E+02  0.26433859835E+02  0.45045682202E+02  0.00000000000E+00 0. -1.
         11    1    3    3    0    0  0.14818044325E+02 -0.11332012663E+02 -0.12327178736E+02  0.22359523350E+02  0.51100000000E-03 0. -1.
        -11    1    3    3    0    0  0.75725112135E+01 -0.15138384580E+02 -0.13137800373E+02  0.21426978617E+02  0.51100000000E-03 0.  1.
         12    1    3    3    0    0  0.24042635572E+00 -0.21338541510E+01 -0.96888072548E+00  0.23558158312E+01  0.00000000000E+00 0. -1.
</event>
<event>
 7    1  0.1402367E-008  0.4614232E+02  0.7816164E-02  0.1320468E+00
        -11   -1    0    0    0    0  0.00000000000E+00  0.00000000000E+00  0.45593999997E+02  0.45594000000E+02  0.51100000000E-03 0.  1.
         11   -1    0    0    0    0 -0.00000000000E+00 -0.00000000000E+00 -0.45593999997E+02  0.45594000000E+02  0.51100000000E-03 0. -1.
    9900012    2    1    2    0    0 -0.44981865399E+02  0.20278522577E+01  0.12779178865E+01  0.46142317924E+02  0.10000001490E+02 0.  0.
         12    1    1    2    0    0  0.44981865399E+02 -0.20278522577E+01 -0.12779178865E+01  0.45045682076E+02  0.00000000000E+00 0. -1.
         11    1    3    3    0    0 -0.23582129358E+02 -0.16327741621E+01  0.41832242388E+01  0.24005877235E+02  0.51100000000E-03 0. -1.
        -11    1    3    3    0    0 -0.17073256197E+02  0.18890404626E+01 -0.31105076866E+01  0.17456798371E+02  0.51100000000E-03 0.  1.
         12    1    3    3    0    0 -0.43264798432E+01  0.17715859572E+01  0.20520133424E+00  0.46796423181E+01  0.00000000000E+00 0. -1.
</event>
<event>
 7    1  0.1402367E-008  0.4614232E+02  0.7816164E-02  0.1320468E+00
        -11   -1    0    0    0    0  0.00000000000E+00  0.00000000000E+00  0.45593999997E+02  0.45594000000E+02  0.51100000000E-03 0.  1.
         11   -1    0    0    0    0 -0.00000000000E+00 -0.00000000000E+00 -0.45593999997E+02  0.45594000000E+02  0.51100000000E-03 0. -1.
    9900012    2    1    2    0    0  0.20361951032E+02 -0.32384860088E+02  0.23784981017E+02  0.46142317247E+02  0.99999953097E+01 0.  0.
         12    1    1    2    0    0 -0.20361951032E+02  0.32384860088E+02 -0.23784981017E+02  0.45045682753E+02  0.00000000000E+00 0. -1.
         11    1    3    3    0    0  0.66366371322E+01 -0.14743922466E+02  0.88462609681E+01  0.18430532696E+02  0.51100000000E-03 0. -1.
        -11    1    3    3    0    0  0.39622177420E+00 -0.16231384517E+01  0.36453265333E+01  0.40099845290E+01  0.51100000000E-03 0.  1.
        -12    1    3    3    0    0  0.13329092125E+02 -0.16017799170E+02  0.11293393516E+02  0.23701800021E+02  0.00000000000E+00 0.  1.
</event>
<event>
 7    1  0.1402367E-008  0.4614232E+02  0.7816164E-02  0.1320468E+00
        -11   -1    0    0    0    0  0.00000000000E+00  0.00000000000E+00  0.45593999997E+02  0.45594000000E+02  0.51100000000E-03 0.  1.
         11   -1    0    0    0    0 -0.00000000000E+00 -0.00000000000E+00 -0.45593999997E+02  0.45594000000E+02  0.51100000000E-03 0. -1.
    9900012    2    1    2    0    0  0.28948098069E+02  0.15209090003E+02  0.30980714681E+02  0.46142317824E+02  0.10000000577E+02 0.  0.
         12    1    1    2    0    0 -0.28948098069E+02 -0.15209090003E+02 -0.30980714681E+02  0.45045682176E+02  0.00000000000E+00 0. -1.
         11    1    3    3    0    0  0.16600529899E+02  0.10554733749E+02  0.12646805734E+02  0.23386356984E+02  0.51100000000E-03 0. -1.
        -11    1    3    3    0    0  0.71668063080E+01  0.33190494365E+01  0.12931927641E+02  0.15153018003E+02  0.51100000000E-03 0.  1.
        -12    1    3    3    0    0  0.51807618617E+01  0.13353068178E+01  0.54019813059E+01  0.76029428378E+01  0.00000000000E+00 0.  1.
</event>
<event>
 7    1  0.1402367E-008  0.4614232E+02  0.7816164E-02  0.1320468E+00
        -11   -1    0    0    0    0  0.00000000000E+00  0.00000000000E+00  0.45593999997E+02  0.45594000000E+02  0.51100000000E-03 0. -1.
         11   -1    0    0    0    0 -0.00000000000E+00 -0.00000000000E+00 -0.45593999997E+02  0.45594000000E+02  0.51100000000E-03 0.  1.
    9900012    2    1    2    0    0 -0.31955926823E+02 -0.31011490439E+02 -0.67985060835E+01  0.46142317817E+02  0.10000000507E+02 0.  0.
         12    1    1    2    0    0  0.31955926823E+02  0.31011490439E+02  0.67985060835E+01  0.45045682183E+02  0.00000000000E+00 0. -1.
         11    1    3    3    0    0 -0.40455338070E+01 -0.47801461213E+01 -0.34216722931E+01  0.71361041379E+01  0.51100000000E-03 0. -1.
        -11    1    3    3    0    0 -0.27321279238E+02 -0.24399837434E+02 -0.42818566396E+01  0.36880057790E+02  0.51100000000E-03 0.  1.
        -12    1    3    3    0    0 -0.58911377845E+00 -0.18315068833E+01  0.90502284924E+00  0.21261558892E+01  0.00000000000E+00 0.  1.
</event>
<event>
 7    1  0.1402367E-008  0.4614232E+02  0.7816164E-02  0.1320468E+00
        -11   -1    0    0    0    0  0.00000000000E+00  0.00000000000E+00  0.45593999997E+02  0.45594000000E+02  0.51100000000E-03 0. -1.
         11   -1    0    0    0    0 -0.00000000000E+00 -0.00000000000E+00 -0.45593999997E+02  0.45594000000E+02  0.51100000000E-03 0.  1.
    9900012    2    1    2    0    0 -0.30790477565E+02  0.32879431454E+02 -0.53171913364E-01  0.46142319312E+02  0.10000014142E+02 0.  0.
         12    1    1    2    0    0  0.30790477565E+02 -0.32879431454E+02  0.53171913364E-01  0.45045680688E+02  0.00000000000E+00 0. -1.
         11    1    3    3    0    0 -0.50113564138E+01  0.59603300350E+01  0.24737092614E+01  0.81705853526E+01  0.51100000000E-03 0. -1.
        -11    1    3    3    0    0 -0.26084621896E+02  0.26991520883E+02 -0.23456112067E+01  0.37609195568E+02  0.51100000000E-03 0.  1.
        -12    1    3    3    0    0  0.30550074526E+00 -0.72419464385E-01 -0.18126996807E+00  0.36253839176E+00  0.00000000000E+00 0.  1.
</event>
<event>
 7    1  0.1402367E-008  0.4614231E+02  0.7816164E-02  0.1320468E+00
        -11   -1    0    0    0    0  0.00000000000E+00  0.00000000000E+00  0.45593999997E+02  0.45594000000E+02  0.51100000000E-03 0. -1.
         11   -1    0    0    0    0 -0.00000000000E+00 -0.00000000000E+00 -0.45593999997E+02  0.45594000000E+02  0.51100000000E-03 0.  1.
    9900012    2    1    2    0    0  0.40309324680E+02  0.19938708554E+02 -0.25923010177E+01  0.46142314529E+02  0.99999705307E+01 0.  0.
         12    1    1    2    0    0 -0.40309324680E+02 -0.19938708554E+02  0.25923010177E+01  0.45045685471E+02  0.00000000000E+00 0. -1.
         11    1    3    3    0    0  0.26618082347E+02  0.13056549356E+02  0.33997600586E+00  0.29649812357E+02  0.51100000000E-03 0. -1.
        -11    1    3    3    0    0  0.14020784401E+02  0.62013491124E+01 -0.22917031853E+01  0.15501323485E+02  0.51100000000E-03 0.  1.
         12    1    3    3    0    0 -0.32954206763E+00  0.68081008614E+00 -0.64057383825E+00  0.99117868721E+00  0.00000000000E+00 0. -1.
</event>
<event>
 7    1  0.1402367E-008  0.4614232E+02  0.7816164E-02  0.1320468E+00
        -11   -1    0    0    0    0  0.00000000000E+00  0.00000000000E+00  0.45593999997E+02  0.45594000000E+02  0.51100000000E-03 0.  1.
         11   -1    0    0    0    0 -0.00000000000E+00 -0.00000000000E+00 -0.45593999997E+02  0.45594000000E+02  0.51100000000E-03 0. -1.
    9900012    2    1    2    0    0  0.13697988775E+01 -0.15987403494E+02  0.42090854737E+02  0.46142317943E+02  0.10000001662E+02 0.  0.
         12    1    1    2    0    0 -0.13697988775E+01  0.15987403494E+02 -0.42090854737E+02  0.45045682057E+02  0.00000000000E+00 0. -1.
         11    1    3    3    0    0 -0.38646675023E+00 -0.30716638953E+00 -0.31374888647E+00  0.58493278654E+00  0.51100000000E-03 0. -1.
        -11    1    3    3    0    0 -0.90313928744E+00 -0.66724100339E+01  0.23539690440E+02  0.24483744454E+02  0.51100000000E-03 0.  1.
        -12    1    3    3    0    0  0.26594049152E+01 -0.90078270702E+01  0.18864913184E+02  0.21073640703E+02  0.00000000000E+00 0.  1.
</event>
<event>
 7    1  0.1402367E-008  0.4614231E+02  0.7816164E-02  0.1320468E+00
        -11   -1    0    0    0    0  0.00000000000E+00  0.00000000000E+00  0.45593999997E+02  0.45594000000E+02  0.51100000000E-03 0.  1.
         11   -1    0    0    0    0 -0.00000000000E+00 -0.00000000000E+00 -0.45593999997E+02  0.45594000000E+02  0.51100000000E-03 0. -1.
    9900012    2    1    2    0    0 -0.42400299949E+02 -0.64635463026E+01  0.13767756737E+02  0.46142312169E+02  0.99999490103E+01 0.  0.
         12    1    1    2    0    0  0.42400299949E+02  0.64635463026E+01 -0.13767756737E+02  0.45045687831E+02  0.00000000000E+00 0. -1.
         11    1    3    3    0    0 -0.13675737584E+02  0.21430442360E+01  0.39420681305E+01  0.14392996160E+02  0.51100000000E-03 0. -1.
        -11    1    3    3    0    0 -0.84580591348E+01 -0.35271133433E+01  0.43854713549E+01  0.10159313566E+02  0.51100000000E-03 0.  1.
         12    1    3    3    0    0 -0.20266503231E+02 -0.50794771954E+01  0.54402172513E+01  0.21590002444E+02  0.00000000000E+00 0. -1.
</event>
<event>
 7    1  0.1402367E-008  0.4614232E+02  0.7816164E-02  0.1320468E+00
        -11   -1    0    0    0    0  0.00000000000E+00  0.00000000000E+00  0.45593999997E+02  0.45594000000E+02  0.51100000000E-03 0.  1.
         11   -1    0    0    0    0 -0.00000000000E+00 -0.00000000000E+00 -0.45593999997E+02  0.45594000000E+02  0.51100000000E-03 0. -1.
    9900012    2    1    2    0    0  0.21381575742E+01 -0.10806158692E+02  0.43678011430E+02  0.46142318010E+02  0.10000002270E+02 0.  0.
         12    1    1    2    0    0 -0.21381575742E+01  0.10806158692E+02 -0.43678011430E+02  0.45045681990E+02  0.00000000000E+00 0. -1.
         11    1    3    3    0    0  0.34501949365E+01 -0.50446866878E+00  0.90093692359E+01  0.96605935650E+01  0.51100000000E-03 0. -1.
        -11    1    3    3    0    0 -0.29793538344E+01 -0.78129591525E+01  0.25676432485E+02  0.27003667629E+02  0.51100000000E-03 0.  1.
        -12    1    3    3    0    0  0.16673164721E+01 -0.24887308705E+01  0.89922097085E+01  0.94780568159E+01  0.00000000000E+00 0.  1.
</event>
<event>
 7    1  0.1402367E-008  0.4614232E+02  0.7816164E-02  0.1320468E+00
        -11   -1    0    0    0    0  0.00000000000E+00  0.00000000000E+00  0.45593999997E+02  0.45594000000E+02  0.51100000000E-03 0.  1.
         11   -1    0    0    0    0 -0.00000000000E+00 -0.00000000000E+00 -0.45593999997E+02  0.45594000000E+02  0.51100000000E-03 0. -1.
    9900012    2    1    2    0    0  0.19718927671E+02 -0.20337175886E+02  0.35023947090E+02  0.46142315398E+02  0.99999784546E+01 0.  0.
         12    1    1    2    0    0 -0.19718927671E+02  0.20337175886E+02 -0.35023947090E+02  0.45045684602E+02  0.00000000000E+00 0. -1.
         11    1    3    3    0    0  0.11555487081E+02 -0.14697703609E+02  0.28541157673E+02  0.34119634445E+02  0.51100000000E-03 0. -1.
        -11    1    3    3    0    0  0.54124977480E+01 -0.48203800852E+01  0.48432821202E+01  0.87171427655E+01  0.51100000000E-03 0.  1.
         12    1    3    3    0    0  0.27509428421E+01 -0.81909219141E+00  0.16395072961E+01  0.33055381880E+01  0.00000000000E+00 0. -1.
</event>
<event>
 7    1  0.1402367E-008  0.4614232E+02  0.7816164E-02  0.1320468E+00
        -11   -1    0    0    0    0  0.00000000000E+00  0.00000000000E+00  0.45593999997E+02  0.45594000000E+02  0.51100000000E-03 0.  1.
         11   -1    0    0    0    0 -0.00000000000E+00 -0.00000000000E+00 -0.45593999997E+02  0.45594000000E+02  0.51100000000E-03 0. -1.
    9900012    2    1    2    0    0  0.44809073220E+02  0.30942557255E+01  0.34184892559E+01  0.46142317298E+02  0.99999957776E+01 0.  0.
         12    1    1    2    0    0 -0.44809073220E+02 -0.30942557255E+01 -0.34184892559E+01  0.45045682702E+02  0.00000000000E+00 0. -1.
         11    1    3    3    0    0  0.11516108000E+02  0.27031243361E+01  0.24491793576E+00  0.11831635969E+02  0.51100000000E-03 0. -1.
        -11    1    3    3    0    0  0.33596625077E+02  0.40745588515E+00  0.26477548909E+01  0.33703261609E+02  0.51100000000E-03 0.  1.
        -12    1    3    3    0    0 -0.30365985798E+00 -0.16324495836E-01  0.52581642923E+00  0.60741971960E+00  0.00000000000E+00 0.  1.
</event>
<event>
 7    1  0.1402367E-008  0.4614231E+02  0.7816164E-02  0.1320468E+00
        -11   -1    0    0    0    0  0.00000000000E+00  0.00000000000E+00  0.45593999997E+02  0.45594000000E+02  0.51100000000E-03 0.  1.
         11   -1    0    0    0    0 -0.00000000000E+00 -0.00000000000E+00 -0.45593999997E+02  0.45594000000E+02  0.51100000000E-03 0. -1.
    9900012    2    1    2    0    0 -0.15502465890E+02 -0.56586194852E+00  0.42290274384E+02  0.46142312572E+02  0.99999526823E+01 0.  0.
         12    1    1    2    0    0  0.15502465890E+02  0.56586194852E+00 -0.42290274384E+02  0.45045687428E+02  0.00000000000E+00 0. -1.
         11    1    3    3    0    0 -0.15466203180E+02 -0.58981692746E+00  0.32205039094E+02  0.35731161024E+02  0.51100000000E-03 0. -1.
        -11    1    3    3    0    0  0.74178939532E+00  0.63548689119E+00  0.84017847699E+01  0.84583735243E+01  0.51100000000E-03 0.  1.
         12    1    3    3    0    0 -0.77805210472E+00 -0.61153191225E+00  0.16834505201E+01  0.19527780240E+01  0.00000000000E+00 0. -1.
</event>
<event>
 7    1  0.1402367E-008  0.4614231E+02  0.7816164E-02  0.1320468E+00
        -11   -1    0    0    0    0  0.00000000000E+00  0.00000000000E+00  0.45593999997E+02  0.45594000000E+02  0.51100000000E-03 0.  1.
         11   -1    0    0    0    0 -0.00000000000E+00 -0.00000000000E+00 -0.45593999997E+02  0.45594000000E+02  0.51100000000E-03 0. -1.
    9900012    2    1    2    0    0  0.13675088452E+02 -0.42713215435E+02 -0.42055868408E+01  0.46142314550E+02  0.99999707171E+01 0.  0.
         12    1    1    2    0    0 -0.13675088452E+02  0.42713215435E+02  0.42055868408E+01  0.45045685450E+02  0.00000000000E+00 0. -1.
         11    1    3    3    0    0  0.53080730837E+01 -0.12685826624E+02  0.29159600016E+01  0.14057334740E+02  0.51100000000E-03 0. -1.
        -11    1    3    3    0    0  0.16955920668E+01 -0.98334459376E+01 -0.15338108527E+01  0.10095754923E+02  0.51100000000E-03 0.  1.
         12    1    3    3    0    0  0.66714233013E+01 -0.20193942874E+02 -0.55877359898E+01  0.21989224888E+02  0.00000000000E+00 0. -1.
</event>
<event>
 7    1  0.1402367E-008  0.4614232E+02  0.7816164E-02  0.1320468E+00
        -11   -1    0    0    0    0  0.00000000000E+00  0.00000000000E+00  0.45593999997E+02  0.45594000000E+02  0.51100000000E-03 0. -1.
         11   -1    0    0    0    0 -0.00000000000E+00 -0.00000000000E+00 -0.45593999997E+02  0.45594000000E+02  0.51100000000E-03 0.  1.
    9900012    2    1    2    0    0 -0.34084324872E+02 -0.27557624101E+02  0.10389881342E+02  0.46142317828E+02  0.10000000611E+02 0.  0.
         12    1    1    2    0    0  0.34084324872E+02  0.27557624101E+02 -0.10389881342E+02  0.45045682172E+02  0.00000000000E+00 0. -1.
         11    1    3    3    0    0 -0.34229412283E+01 -0.41972482528E+01 -0.83367878455E+00  0.54798211764E+01  0.51100000000E-03 0. -1.
        -11    1    3    3    0    0 -0.14902738005E+02 -0.10461632387E+02  0.20367510966E+01  0.18321727744E+02  0.51100000000E-03 0.  1.
         12    1    3    3    0    0 -0.15758645638E+02 -0.12898743461E+02  0.91868090297E+01  0.22340768908E+02  0.00000000000E+00 0. -1.
</event>
<event>
 7    1  0.1402367E-008  0.4614232E+02  0.7816164E-02  0.1320468E+00
        -11   -1    0    0    0    0  0.00000000000E+00  0.00000000000E+00  0.45593999997E+02  0.45594000000E+02  0.51100000000E-03 0.  1.
         11   -1    0    0    0    0 -0.00000000000E+00 -0.00000000000E+00 -0.45593999997E+02  0.45594000000E+02  0.51100000000E-03 0. -1.
    9900012    2    1    2    0    0  0.35286362845E+02 -0.22125221472E+02  0.17159856213E+02  0.46142317707E+02  0.99999995066E+01 0.  0.
         12    1    1    2    0    0 -0.35286362845E+02  0.22125221472E+02 -0.17159856213E+02  0.45045682293E+02  0.00000000000E+00 0. -1.
         11    1    3    3    0    0  0.95892634192E+01 -0.47339652490E+01  0.35171612459E+01  0.11257656212E+02  0.51100000000E-03 0. -1.
        -11    1    3    3    0    0  0.17730268856E+02 -0.15176786351E+02  0.72693305171E+01  0.24444640396E+02  0.51100000000E-03 0.  1.
        -12    1    3    3    0    0  0.79668305693E+01 -0.22144698722E+01  0.63733644501E+01  0.10440021099E+02  0.00000000000E+00 0.  1.
</event>
<event>
 7    1  0.1402367E-008  0.4614232E+02  0.7816164E-02  0.1320468E+00
        -11   -1    0    0    0    0  0.00000000000E+00  0.00000000000E+00  0.45593999997E+02  0.45594000000E+02  0.51100000000E-03 0.  1.
         11   -1    0    0    0    0 -0.00000000000E+00 -0.00000000000E+00 -0.45593999997E+02  0.45594000000E+02  0.51100000000E-03 0. -1.
    9900012    2    1    2    0    0  0.96574100477E+01 -0.34748444672E+02  0.26988763859E+02  0.46142319291E+02  0.10000013950E+02 0.  0.
         12    1    1    2    0    0 -0.96574100477E+01  0.34748444672E+02 -0.26988763859E+02  0.45045680709E+02  0.00000000000E+00 0. -1.
         11    1    3    3    0    0 -0.70272926608E+00 -0.21938466236E+01  0.78994332027E+00  0.24353238264E+01  0.51100000000E-03 0. -1.
        -11    1    3    3    0    0  0.79400787514E+01 -0.18776883389E+02  0.19445672530E+02  0.28173575932E+02  0.51100000000E-03 0.  1.
        -12    1    3    3    0    0  0.24200605624E+01 -0.13777714659E+02  0.67531480081E+01  0.15533419532E+02  0.00000000000E+00 0.  1.
</event>
<event>
 7    1  0.1402367E-008  0.4614232E+02  0.7816164E-02  0.1320468E+00
        -11   -1    0    0    0    0  0.00000000000E+00  0.00000000000E+00  0.45593999997E+02  0.45594000000E+02  0.51100000000E-03 0. -1.
         11   -1    0    0    0    0 -0.00000000000E+00 -0.00000000000E+00 -0.45593999997E+02  0.45594000000E+02  0.51100000000E-03 0.  1.
    9900012    2    1    2    0    0  0.80774826573E+01 -0.38983070438E+02 -0.21075767281E+02  0.46142317928E+02  0.10000001523E+02 0.  0.
         12    1    1    2    0    0 -0.80774826573E+01  0.38983070438E+02  0.21075767281E+02  0.45045682072E+02  0.00000000000E+00 0. -1.
         11    1    3    3    0    0  0.65583318324E+01 -0.24299227854E+02 -0.18182617938E+02  0.31049505408E+02  0.51100000000E-03 0. -1.
        -11    1    3    3    0    0  0.70832686152E+00 -0.10635200371E+02 -0.24775091769E+01  0.10942909387E+02  0.51100000000E-03 0.  1.
         12    1    3    3    0    0  0.81082396342E+00 -0.40486422134E+01 -0.41564016605E+00  0.41499031337E+01  0.00000000000E+00 0. -1.
</event>
<event>
 7    1  0.1402367E-008  0.4614232E+02  0.7816164E-02  0.1320468E+00
        -11   -1    0    0    0    0  0.00000000000E+00  0.00000000000E+00  0.45593999997E+02  0.45594000000E+02  0.51100000000E-03 0.  1.
         11   -1    0    0    0    0 -0.00000000000E+00 -0.00000000000E+00 -0.45593999997E+02  0.45594000000E+02  0.51100000000E-03 0. -1.
    9900012    2    1    2    0    0  0.43839184527E+02 -0.73289446270E+01  0.73161438282E+01  0.46142317745E+02  0.99999998504E+01 0.  0.
         12    1    1    2    0    0 -0.43839184527E+02  0.73289446270E+01 -0.73161438282E+01  0.45045682255E+02  0.00000000000E+00 0. -1.
         11    1    3    3    0    0  0.24967224420E-01  0.36213408807E+00 -0.53046068812E+00  0.64276999215E+00  0.51100000000E-03 0. -1.
        -11    1    3    3    0    0  0.14876294422E+02 -0.48617675312E+01  0.13653222140E+01  0.15710029416E+02  0.51100000000E-03 0.  1.
         12    1    3    3    0    0  0.28937922881E+02 -0.28293111839E+01  0.64812823023E+01  0.29789518336E+02  0.00000000000E+00 0. -1.
</event>
<event>
 7    1  0.1402367E-008  0.4614232E+02  0.7816164E-02  0.1320468E+00
        -11   -1    0    0    0    0  0.00000000000E+00  0.00000000000E+00  0.45593999997E+02  0.45594000000E+02  0.51100000000E-03 0. -1.
         11   -1    0    0    0    0 -0.00000000000E+00 -0.00000000000E+00 -0.45593999997E+02  0.45594000000E+02  0.51100000000E-03 0.  1.
    9900012    2    1    2    0    0  0.33907056460E+02 -0.25624530358E+02 -0.14926771009E+02  0.46142317337E+02  0.99999961315E+01 0.  0.
         12    1    1    2    0    0 -0.33907056460E+02  0.25624530358E+02  0.14926771009E+02  0.45045682663E+02  0.00000000000E+00 0. -1.
         11    1    3    3    0    0  0.16999845593E+02 -0.13353624934E+02 -0.51427017215E+01  0.22220743244E+02  0.51100000000E-03 0. -1.
        -11    1    3    3    0    0  0.13284969540E+02 -0.78042250087E+01 -0.96282647018E+01  0.18168649512E+02  0.51100000000E-03 0.  1.
         12    1    3    3    0    0  0.36222413270E+01 -0.44666804151E+01 -0.15580458545E+00  0.57529245807E+01  0.00000000000E+00 0. -1.
</event>
<event>
 7    1  0.1402367E-008  0.4614232E+02  0.7816164E-02  0.1320468E+00
        -11   -1    0    0    0    0  0.00000000000E+00  0.00000000000E+00  0.45593999997E+02  0.45594000000E+02  0.51100000000E-03 0. -1.
         11   -1    0    0    0    0 -0.00000000000E+00 -0.00000000000E+00 -0.45593999997E+02  0.45594000000E+02  0.51100000000E-03 0.  1.
    9900012    2    1    2    0    0 -0.30330623295E+01 -0.15836480116E+02 -0.42060907454E+02  0.46142317572E+02  0.99999982711E+01 0.  0.
         12    1    1    2    0    0  0.30330623295E+01  0.15836480116E+02  0.42060907454E+02  0.45045682428E+02  0.00000000000E+00 0. -1.
         11    1    3    3    0    0 -0.48454470342E+01 -0.11558292392E+02 -0.24184008434E+02  0.27238552535E+02  0.51100000000E-03 0. -1.
        -11    1    3    3    0    0  0.87947953334E+00 -0.48763608324E+01 -0.13255463300E+02  0.14151313960E+02  0.51100000000E-03 0.  1.
         12    1    3    3    0    0  0.93290517137E+00  0.59817310856E+00 -0.46214357199E+01  0.47524510771E+01  0.00000000000E+00 0. -1.
</event>
<event>
 7    1  0.1402367E-008  0.4614232E+02  0.7816164E-02  0.1320468E+00
        -11   -1    0    0    0    0  0.00000000000E+00  0.00000000000E+00  0.45593999997E+02  0.45594000000E+02  0.51100000000E-03 0.  1.
         11   -1    0    0    0    0 -0.00000000000E+00 -0.00000000000E+00 -0.45593999997E+02  0.45594000000E+02  0.51100000000E-03 0. -1.
    9900012    2    1    2    0    0 -0.44270170248E+02 -0.82456577456E+01  0.11290162462E+01  0.46142317375E+02  0.99999964809E+01 0.  0.
         12    1    1    2    0    0  0.44270170248E+02  0.82456577456E+01 -0.11290162462E+01  0.45045682625E+02  0.00000000000E+00 0. -1.
         11    1    3    3    0    0 -0.12804931681E+02 -0.54669080647E+01  0.81420179871E+00  0.13946909477E+02  0.51100000000E-03 0. -1.
        -11    1    3    3    0    0 -0.13197000436E+02 -0.42464390377E+01 -0.95974441243E-01  0.13863703559E+02  0.51100000000E-03 0.  1.
         12    1    3    3    0    0 -0.18268238131E+02  0.14676893569E+01  0.41078888872E+00  0.18331704339E+02  0.00000000000E+00 0. -1.
</event>
<event>
 7    1  0.1402367E-008  0.4614232E+02  0.7816164E-02  0.1320468E+00
        -11   -1    0    0    0    0  0.00000000000E+00  0.00000000000E+00  0.45593999997E+02  0.45594000000E+02  0.51100000000E-03 0. -1.
         11   -1    0    0    0    0 -0.00000000000E+00 -0.00000000000E+00 -0.45593999997E+02  0.45594000000E+02  0.51100000000E-03 0.  1.
    9900012    2    1    2    0    0  0.24862887306E+02 -0.83984822354E+01 -0.36611691272E+02  0.46142316447E+02  0.99999880131E+01 0.  0.
         12    1    1    2    0    0 -0.24862887306E+02  0.83984822354E+01  0.36611691272E+02  0.45045683553E+02  0.00000000000E+00 0. -1.
         11    1    3    3    0    0  0.16248044300E+02 -0.39626443946E+01 -0.28838975725E+02  0.33337486638E+02  0.51100000000E-03 0. -1.
        -11    1    3    3    0    0  0.87637422617E+01 -0.38724902626E+01 -0.74640805225E+01  0.12145445960E+02  0.51100000000E-03 0.  1.
         12    1    3    3    0    0 -0.14889925573E+00 -0.56334757821E+00 -0.30863502359E+00  0.65938384877E+00  0.00000000000E+00 0. -1.
</event>
<event>
 7    1  0.1402367E-008  0.4614232E+02  0.7816164E-02  0.1320468E+00
        -11   -1    0    0    0    0  0.00000000000E+00  0.00000000000E+00  0.45593999997E+02  0.45594000000E+02  0.51100000000E-03 0.  1.
         11   -1    0    0    0    0 -0.00000000000E+00 -0.00000000000E+00 -0.45593999997E+02  0.45594000000E+02  0.51100000000E-03 0. -1.
    9900012    2    1    2    0    0 -0.34093235427E+02 -0.22165632105E+02  0.19376522735E+02  0.46142316724E+02  0.99999905433E+01 0.  0.
         12    1    1    2    0    0  0.34093235427E+02  0.22165632105E+02 -0.19376522735E+02  0.45045683276E+02  0.00000000000E+00 0. -1.
         11    1    3    3    0    0  0.18641325395E-01  0.67778518443E+00  0.55433310640E+00  0.87580003951E+00  0.51100000000E-03 0. -1.
        -11    1    3    3    0    0 -0.26435045056E+02 -0.16116206101E+02  0.14118062122E+02  0.34027391680E+02  0.51100000000E-03 0.  1.
         12    1    3    3    0    0 -0.76768316966E+01 -0.67272111887E+01  0.47041275061E+01  0.11239125005E+02  0.00000000000E+00 0. -1.
</event>
<event>
 7    1  0.1402367E-008  0.4614232E+02  0.7816164E-02  0.1320468E+00
        -11   -1    0    0    0    0  0.00000000000E+00  0.00000000000E+00  0.45593999997E+02  0.45594000000E+02  0.51100000000E-03 0. -1.
         11   -1    0    0    0    0 -0.00000000000E+00 -0.00000000000E+00 -0.45593999997E+02  0.45594000000E+02  0.51100000000E-03 0.  1.
    9900012    2    1    2    0    0  0.16779520637E+02  0.23462945094E+01 -0.41737942527E+02  0.46142320328E+02  0.10000023408E+02 0.  0.
         12    1    1    2    0    0 -0.16779520637E+02 -0.23462945094E+01  0.41737942527E+02  0.45045679672E+02  0.00000000000E+00 0. -1.
         11    1    3    3    0    0  0.84360398504E+01 -0.21705083265E+01 -0.27754425869E+02  0.29089276896E+02  0.51100000000E-03 0. -1.
        -11    1    3    3    0    0  0.51103638267E+01  0.38699088089E+01 -0.83686025381E+01  0.10541609049E+02  0.51100000000E-03 0.  1.
        -12    1    3    3    0    0  0.32331169599E+01  0.64689402704E+00 -0.56149141194E+01  0.65114343832E+01  0.00000000000E+00 0.  1.
</event>
<event>
 7    1  0.1402367E-008  0.4614232E+02  0.7816164E-02  0.1320468E+00
        -11   -1    0    0    0    0  0.00000000000E+00  0.00000000000E+00  0.45593999997E+02  0.45594000000E+02  0.51100000000E-03 0. -1.
         11   -1    0    0    0    0 -0.00000000000E+00 -0.00000000000E+00 -0.45593999997E+02  0.45594000000E+02  0.51100000000E-03 0.  1.
    9900012    2    1    2    0    0 -0.28116414244E+02 -0.31235390918E+02 -0.16215148359E+02  0.46142318386E+02  0.10000005697E+02 0.  0.
         12    1    1    2    0    0  0.28116414244E+02  0.31235390918E+02  0.16215148359E+02  0.45045681614E+02  0.00000000000E+00 0. -1.
         11    1    3    3    0    0 -0.27149389739E+01 -0.62999853400E+01 -0.31075099693E+01  0.75310907169E+01  0.51100000000E-03 0. -1.
        -11    1    3    3    0    0 -0.54816942349E+01 -0.47843347964E+01  0.26186929289E+00  0.72806185806E+01  0.51100000000E-03 0.  1.
        -12    1    3    3    0    0 -0.19919781036E+02 -0.20151070782E+02 -0.13369507683E+02  0.31330609088E+02  0.00000000000E+00 0.  1.
</event>
<event>
 7    1  0.1402367E-008  0.4614232E+02  0.7816164E-02  0.1320468E+00
        -11   -1    0    0    0    0  0.00000000000E+00  0.00000000000E+00  0.45593999997E+02  0.45594000000E+02  0.51100000000E-03 0.  1.
         11   -1    0    0    0    0 -0.00000000000E+00 -0.00000000000E+00 -0.45593999997E+02  0.45594000000E+02  0.51100000000E-03 0. -1.
    9900012    2    1    2    0    0 -0.41732866703E+02 -0.16823707837E+02 -0.21081168323E+01  0.46142318018E+02  0.10000002344E+02 0.  0.
         12    1    1    2    0    0  0.41732866703E+02  0.16823707837E+02  0.21081168323E+01  0.45045681982E+02  0.00000000000E+00 0. -1.
         11    1    3    3    0    0 -0.18120811953E+02 -0.33960272726E+01  0.13131880923E+01  0.18483000035E+02  0.51100000000E-03 0. -1.
        -11    1    3    3    0    0 -0.21321609544E+02 -0.10616953450E+02 -0.30932660928E+01  0.24018722479E+02  0.51100000000E-03 0.  1.
         12    1    3    3    0    0 -0.22904452051E+01 -0.28107271143E+01 -0.32803883181E+00  0.36405955041E+01  0.00000000000E+00 0. -1.
</event>
<event>
 7    1  0.1402367E-008  0.4614232E+02  0.7816164E-02  0.1320468E+00
        -11   -1    0    0    0    0  0.00000000000E+00  0.00000000000E+00  0.45593999997E+02  0.45594000000E+02  0.51100000000E-03 0. -1.
         11   -1    0    0    0    0 -0.00000000000E+00 -0.00000000000E+00 -0.45593999997E+02  0.45594000000E+02  0.51100000000E-03 0.  1.
    9900012    2    1    2    0    0  0.32595541337E+02 -0.17236191575E+02 -0.25875816114E+02  0.46142317914E+02  0.10000001394E+02 0.  0.
         12    1    1    2    0    0 -0.32595541337E+02  0.17236191575E+02  0.25875816114E+02  0.45045682086E+02  0.00000000000E+00 0. -1.
         11    1    3    3    0    0  0.51335252860E+01 -0.11674864159E+01 -0.54931534967E+01  0.76086031564E+01  0.51100000000E-03 0. -1.
        -11    1    3    3    0    0  0.14007424469E+01 -0.60699321338E+00 -0.35624256207E+01  0.38757446675E+01  0.51100000000E-03 0.  1.
        -12    1    3    3    0    0  0.26061273604E+02 -0.15461711945E+02 -0.16820236997E+02  0.34657970090E+02  0.00000000000E+00 0.  1.
</event>
<event>
 7    1  0.1402367E-008  0.4614232E+02  0.7816164E-02  0.1320468E+00
        -11   -1    0    0    0    0  0.00000000000E+00  0.00000000000E+00  0.45593999997E+02  0.45594000000E+02  0.51100000000E-03 0.  1.
         11   -1    0    0    0    0 -0.00000000000E+00 -0.00000000000E+00 -0.45593999997E+02  0.45594000000E+02  0.51100000000E-03 0. -1.
    9900012    2    1    2    0    0  0.32918393130E+02  0.65405526114E+01  0.30045199858E+02  0.46142317973E+02  0.10000001936E+02 0.  0.
         12    1    1    2    0    0 -0.32918393130E+02 -0.65405526114E+01 -0.30045199858E+02  0.45045682027E+02  0.00000000000E+00 0. -1.
         11    1    3    3    0    0  0.21231188566E+01  0.31080435770E+01  0.23813809563E+01  0.44540480549E+01  0.51100000000E-03 0. -1.
        -11    1    3    3    0    0  0.26290213596E+02  0.18555770417E+01  0.22467108651E+02  0.34632202767E+02  0.51100000000E-03 0.  1.
        -12    1    3    3    0    0  0.45050606769E+01  0.15769319928E+01  0.51967102507E+01  0.70560671512E+01  0.00000000000E+00 0.  1.
</event>
<event>
 7    1  0.1402367E-008  0.4614232E+02  0.7816164E-02  0.1320468E+00
        -11   -1    0    0    0    0  0.00000000000E+00  0.00000000000E+00  0.45593999997E+02  0.45594000000E+02  0.51100000000E-03 0.  1.
         11   -1    0    0    0    0 -0.00000000000E+00 -0.00000000000E+00 -0.45593999997E+02  0.45594000000E+02  0.51100000000E-03 0. -1.
    9900012    2    1    2    0    0 -0.37847556716E+02 -0.23814921128E+02 -0.54337263499E+01  0.46142318745E+02  0.10000008970E+02 0.  0.
         12    1    1    2    0    0  0.37847556716E+02  0.23814921128E+02  0.54337263499E+01  0.45045681255E+02  0.00000000000E+00 0. -1.
         11    1    3    3    0    0 -0.58230547463E+01 -0.16775901585E+01 -0.81889272416E+00  0.61149702267E+01  0.51100000000E-03 0. -1.
        -11    1    3    3    0    0 -0.14981478181E+02 -0.11639238844E+02  0.16756846327E+01  0.19045327212E+02  0.51100000000E-03 0.  1.
        -12    1    3    3    0    0 -0.17043023789E+02 -0.10498092125E+02 -0.62905182584E+01  0.20982021306E+02  0.00000000000E+00 0.  1.
</event>
<event>
 7    1  0.1402367E-008  0.4614232E+02  0.7816164E-02  0.1320468E+00
        -11   -1    0    0    0    0  0.00000000000E+00  0.00000000000E+00  0.45593999997E+02  0.45594000000E+02  0.51100000000E-03 0.  1.
         11   -1    0    0    0    0 -0.00000000000E+00 -0.00000000000E+00 -0.45593999997E+02  0.45594000000E+02  0.51100000000E-03 0. -1.
    9900012    2    1    2    0    0  0.12436745764E+02 -0.17375550712E+02  0.39655152364E+02  0.46142317446E+02  0.99999971253E+01 0.  0.
         12    1    1    2    0    0 -0.12436745764E+02  0.17375550712E+02 -0.39655152364E+02  0.45045682554E+02  0.00000000000E+00 0. -1.
         11    1    3    3    0    0  0.16363134762E+01 -0.67642607096E+01  0.68117063356E+01  0.97381768418E+01  0.51100000000E-03 0. -1.
        -11    1    3    3    0    0  0.57475541977E+01 -0.30639105708E+01  0.15842355156E+02  0.17128985504E+02  0.51100000000E-03 0.  1.
        -12    1    3    3    0    0  0.50528780900E+01 -0.75473794315E+01  0.17001090873E+02  0.19275155100E+02  0.00000000000E+00 0.  1.
</event>
<event>
 7    1  0.1402367E-008  0.4614232E+02  0.7816164E-02  0.1320468E+00
        -11   -1    0    0    0    0  0.00000000000E+00  0.00000000000E+00  0.45593999997E+02  0.45594000000E+02  0.51100000000E-03 0. -1.
         11   -1    0    0    0    0 -0.00000000000E+00 -0.00000000000E+00 -0.45593999997E+02  0.45594000000E+02  0.51100000000E-03 0.  1.
    9900012    2    1    2    0    0 -0.30566113037E+02  0.31592769477E+02  0.98347943186E+01  0.46142317313E+02  0.99999959139E+01 0.  0.
         12    1    1    2    0    0  0.30566113037E+02 -0.31592769477E+02 -0.98347943186E+01  0.45045682687E+02  0.00000000000E+00 0. -1.
         11    1    3    3    0    0 -0.88435000370E+00  0.37569423044E+01  0.16760840255E+01  0.42078436674E+01  0.51100000000E-03 0. -1.
        -11    1    3    3    0    0 -0.68021693970E+01  0.32594123162E+01  0.10984132034E+01  0.76223217577E+01  0.51100000000E-03 0.  1.
         12    1    3    3    0    0 -0.22879593637E+02  0.24576414856E+02  0.70602970898E+01  0.34312151888E+02  0.00000000000E+00 0. -1.
</event>
<event>
 7    1  0.1402367E-008  0.4614232E+02  0.7816164E-02  0.1320468E+00
        -11   -1    0    0    0    0  0.00000000000E+00  0.00000000000E+00  0.45593999997E+02  0.45594000000E+02  0.51100000000E-03 0. -1.
         11   -1    0    0    0    0 -0.00000000000E+00 -0.00000000000E+00 -0.45593999997E+02  0.45594000000E+02  0.51100000000E-03 0.  1.
    9900012    2    1    2    0    0  0.11875189655E+02 -0.35468169982E+02 -0.25101837342E+02  0.46142318196E+02  0.10000003967E+02 0.  0.
         12    1    1    2    0    0 -0.11875189655E+02  0.35468169982E+02  0.25101837342E+02  0.45045681804E+02  0.00000000000E+00 0. -1.
         11    1    3    3    0    0  0.63849342275E+01 -0.84644769860E+01 -0.39142229180E+01  0.11302030660E+02  0.51100000000E-03 0. -1.
        -11    1    3    3    0    0  0.41165908302E+01 -0.19433362528E+02 -0.16560264438E+02  0.25862023465E+02  0.51100000000E-03 0.  1.
        -12    1    3    3    0    0  0.13736645971E+01 -0.75703304685E+01 -0.46273499857E+01  0.89782640704E+01  0.00000000000E+00 0.  1.
</event>
<event>
 7    1  0.1402367E-008  0.4614232E+02  0.7816164E-02  0.1320468E+00
        -11   -1    0    0    0    0  0.00000000000E+00  0.00000000000E+00  0.45593999997E+02  0.45594000000E+02  0.51100000000E-03 0. -1.
         11   -1    0    0    0    0 -0.00000000000E+00 -0.00000000000E+00 -0.45593999997E+02  0.45594000000E+02  0.51100000000E-03 0.  1.
    9900012    2    1    2    0    0  0.24267953939E+02 -0.18553213300E+02 -0.33105258934E+02  0.46142317840E+02  0.10000000723E+02 0.  0.
         12    1    1    2    0    0 -0.24267953939E+02  0.18553213300E+02  0.33105258934E+02  0.45045682160E+02  0.00000000000E+00 0. -1.
         11    1    3    3    0    0  0.21012490920E+01 -0.10863210619E+01 -0.15557989488E+00  0.23705582804E+01  0.51100000000E-03 0. -1.
        -11    1    3    3    0    0  0.15262908089E+02 -0.11341640192E+02 -0.26032945312E+02  0.32238228975E+02  0.51100000000E-03 0.  1.
        -12    1    3    3    0    0  0.69037967576E+01 -0.61252520458E+01 -0.69167337277E+01  0.11533530585E+02  0.00000000000E+00 0.  1.
</event>
<event>
 7    1  0.1402367E-008  0.4614232E+02  0.7816164E-02  0.1320468E+00
        -11   -1    0    0    0    0  0.00000000000E+00  0.00000000000E+00  0.45593999997E+02  0.45594000000E+02  0.51100000000E-03 0. -1.
         11   -1    0    0    0    0 -0.00000000000E+00 -0.00000000000E+00 -0.45593999997E+02  0.45594000000E+02  0.51100000000E-03 0.  1.
    9900012    2    1    2    0    0 -0.16765469598E+02 -0.96408219709E+01 -0.40682762524E+02  0.46142316681E+02  0.99999901497E+01 0.  0.
         12    1    1    2    0    0  0.16765469598E+02  0.96408219709E+01  0.40682762524E+02  0.45045683319E+02  0.00000000000E+00 0. -1.
         11    1    3    3    0    0 -0.17371216512E+01 -0.11943696811E+01 -0.24019311676E+00  0.21217454043E+01  0.51100000000E-03 0. -1.
        -11    1    3    3    0    0 -0.62582330888E+01 -0.42535005674E+01 -0.20026394571E+02  0.21408274761E+02  0.51100000000E-03 0.  1.
         12    1    3    3    0    0 -0.87701148583E+01 -0.41929517223E+01 -0.20416174836E+02  0.22612296516E+02  0.00000000000E+00 0. -1.
</event>
<event>
 7    1  0.1402367E-008  0.4614231E+02  0.7816164E-02  0.1320468E+00
        -11   -1    0    0    0    0  0.00000000000E+00  0.00000000000E+00  0.45593999997E+02  0.45594000000E+02  0.51100000000E-03 0.  1.
         11   -1    0    0    0    0 -0.00000000000E+00 -0.00000000000E+00 -0.45593999997E+02  0.45594000000E+02  0.51100000000E-03 0. -1.
    9900012    2    1    2    0    0  0.57373220965E+01 -0.43888018079E+02  0.83689644635E+01  0.46142305844E+02  0.99998913339E+01 0.  0.
         12    1    1    2    0    0 -0.57373220965E+01  0.43888018079E+02 -0.83689644635E+01  0.45045694156E+02  0.00000000000E+00 0. -1.
         11    1    3    3    0    0  0.25888490691E+01 -0.30868154223E+01  0.21995455749E+01  0.45900511926E+01  0.51100000000E-03 0. -1.
        -11    1    3    3    0    0  0.12759450248E+01 -0.25018447839E+02  0.54830194259E+01  0.25643990920E+02  0.51100000000E-03 0.  1.
         12    1    3    3    0    0  0.18725280026E+01 -0.15782754818E+02  0.68639946274E+00  0.15908263732E+02  0.00000000000E+00 0. -1.
</event>
<event>
 7    1  0.1402367E-008  0.4614232E+02  0.7816164E-02  0.1320468E+00
        -11   -1    0    0    0    0  0.00000000000E+00  0.00000000000E+00  0.45593999997E+02  0.45594000000E+02  0.51100000000E-03 0.  1.
         11   -1    0    0    0    0 -0.00000000000E+00 -0.00000000000E+00 -0.45593999997E+02  0.45594000000E+02  0.51100000000E-03 0. -1.
    9900012    2    1    2    0    0 -0.12674370501E+02 -0.42794010372E+02  0.60947918420E+01  0.46142317866E+02  0.10000000954E+02 0.  0.
         12    1    1    2    0    0  0.12674370501E+02  0.42794010372E+02 -0.60947918420E+01  0.45045682134E+02  0.00000000000E+00 0. -1.
         11    1    3    3    0    0 -0.11814274957E+00 -0.39844187107E+01 -0.18869902876E+01  0.44102474736E+01  0.51100000000E-03 0. -1.
        -11    1    3    3    0    0 -0.97140204203E+01 -0.26034465728E+02  0.41551463076E+01  0.28096633955E+02  0.51100000000E-03 0.  1.
         12    1    3    3    0    0 -0.28422073309E+01 -0.12775125933E+02  0.38266358220E+01  0.13635436437E+02  0.00000000000E+00 0. -1.
</event>
<event>
 7    1  0.1658472E-008  0.4614232E+02  0.7816164E-02  0.1320468E+00
        -11   -1    0    0    0    0  0.00000000000E+00  0.00000000000E+00  0.45593999997E+02  0.45594000000E+02  0.51100000000E-03 0.  1.
         11   -1    0    0    0    0 -0.00000000000E+00 -0.00000000000E+00 -0.45593999997E+02  0.45594000000E+02  0.51100000000E-03 0. -1.
    9900012    2    1    2    0    0  0.44955661441E+02  0.47124698063E+00  0.28071554506E+01  0.46142315511E+02  0.99999794835E+01 0.  0.
         12    1    1    2    0    0 -0.44955661441E+02 -0.47124698063E+00 -0.28071554506E+01  0.45045684489E+02  0.00000000000E+00 0. -1.
         11    1    3    3    0    0  0.35784060477E+01  0.16977899792E+01 -0.60245006424E+00  0.40062984159E+01  0.51100000000E-03 0. -1.
        -11    1    3    3    0    0  0.13592572498E+02 -0.37068216813E+01  0.16531087982E+01  0.14185602668E+02  0.51100000000E-03 0.  1.
        -12    1    3    3    0    0  0.27784682896E+02  0.24802786827E+01  0.17564967167E+01  0.27950414428E+02  0.00000000000E+00 0.  1.
</event>
<event>
 7    1  0.1402367E-008  0.4614232E+02  0.7816164E-02  0.1320468E+00
        -11   -1    0    0    0    0  0.00000000000E+00  0.00000000000E+00  0.45593999997E+02  0.45594000000E+02  0.51100000000E-03 0. -1.
         11   -1    0    0    0    0 -0.00000000000E+00 -0.00000000000E+00 -0.45593999997E+02  0.45594000000E+02  0.51100000000E-03 0.  1.
    9900012    2    1    2    0    0 -0.62917630426E+01 -0.23481022598E+02 -0.37923191385E+02  0.46142321526E+02  0.10000034328E+02 0.  0.
         12    1    1    2    0    0  0.62917630426E+01  0.23481022598E+02  0.37923191385E+02  0.45045678474E+02  0.00000000000E+00 0. -1.
         11    1    3    3    0    0  0.14015766710E+01 -0.53030959800E+01 -0.10687395189E+02  0.12012812340E+02  0.51100000000E-03 0. -1.
        -11    1    3    3    0    0 -0.71235577601E+01 -0.15409586176E+02 -0.19292031138E+02  0.25697916004E+02  0.51100000000E-03 0.  1.
         12    1    3    3    0    0 -0.56978195347E+00 -0.27683404419E+01 -0.79437650579E+01  0.84315931812E+01  0.00000000000E+00 0. -1.
</event>
<event>
 7    1  0.1402367E-008  0.4614232E+02  0.7816164E-02  0.1320468E+00
        -11   -1    0    0    0    0  0.00000000000E+00  0.00000000000E+00  0.45593999997E+02  0.45594000000E+02  0.51100000000E-03 0. -1.
         11   -1    0    0    0    0 -0.00000000000E+00 -0.00000000000E+00 -0.45593999997E+02  0.45594000000E+02  0.51100000000E-03 0.  1.
    9900012    2    1    2    0    0 -0.34638307379E+02 -0.16776920475E+02 -0.23405898640E+02  0.46142317744E+02  0.99999998478E+01 0.  0.
         12    1    1    2    0    0  0.34638307379E+02  0.16776920475E+02  0.23405898640E+02  0.45045682256E+02  0.00000000000E+00 0. -1.
         11    1    3    3    0    0 -0.18400162305E+02 -0.10001366667E+02 -0.17623123967E+02  0.27370929957E+02  0.51100000000E-03 0. -1.
        -11    1    3    3    0    0 -0.58143995668E+01 -0.34437218338E+01 -0.10106713973E+01  0.68328558689E+01  0.51100000000E-03 0.  1.
        -12    1    3    3    0    0 -0.10423745507E+02 -0.33318319737E+01 -0.47721032753E+01  0.11938531919E+02  0.00000000000E+00 0.  1.
</event>
<event>
 7    1  0.1402367E-008  0.4614232E+02  0.7816164E-02  0.1320468E+00
        -11   -1    0    0    0    0  0.00000000000E+00  0.00000000000E+00  0.45593999997E+02  0.45594000000E+02  0.51100000000E-03 0.  1.
         11   -1    0    0    0    0 -0.00000000000E+00 -0.00000000000E+00 -0.45593999997E+02  0.45594000000E+02  0.51100000000E-03 0. -1.
    9900012    2    1    2    0    0 -0.17210036250E+02  0.14625777981E+02  0.38974539588E+02  0.46142318016E+02  0.10000002326E+02 0.  0.
         12    1    1    2    0    0  0.17210036250E+02 -0.14625777981E+02 -0.38974539588E+02  0.45045681984E+02  0.00000000000E+00 0. -1.
         11    1    3    3    0    0 -0.47501993502E+01  0.76658480886E+01  0.17840161933E+02  0.19990022482E+02  0.51100000000E-03 0. -1.
        -11    1    3    3    0    0 -0.11435750541E+02  0.79558201064E+01  0.18539106658E+02  0.23189867182E+02  0.51100000000E-03 0.  1.
         12    1    3    3    0    0 -0.10240863593E+01 -0.99589021425E+00  0.25952709973E+01  0.29624283518E+01  0.00000000000E+00 0. -1.
</event>
<event>
 7    1  0.1402367E-008  0.4614232E+02  0.7816164E-02  0.1320468E+00
        -11   -1    0    0    0    0  0.00000000000E+00  0.00000000000E+00  0.45593999997E+02  0.45594000000E+02  0.51100000000E-03 0. -1.
         11   -1    0    0    0    0 -0.00000000000E+00 -0.00000000000E+00 -0.45593999997E+02  0.45594000000E+02  0.51100000000E-03 0.  1.
    9900012    2    1    2    0    0 -0.12357159532E+02 -0.41403904016E+02 -0.12733046735E+02  0.46142321643E+02  0.10000035399E+02 0.  0.
         12    1    1    2    0    0  0.12357159532E+02  0.41403904016E+02  0.12733046735E+02  0.45045678357E+02  0.00000000000E+00 0. -1.
         11    1    3    3    0    0 -0.89423080056E+00 -0.84787297050E+01 -0.82360577647E+00  0.85654441141E+01  0.51100000000E-03 0. -1.
        -11    1    3    3    0    0 -0.30749725810E+01 -0.18147849534E+02 -0.40090382683E+01  0.18838054230E+02  0.51100000000E-03 0.  1.
         12    1    3    3    0    0 -0.83879561509E+01 -0.14777324777E+02 -0.79004026906E+01  0.18738823299E+02  0.00000000000E+00 0. -1.
</event>
<event>
 7    1  0.1402367E-008  0.4614232E+02  0.7816164E-02  0.1320468E+00
        -11   -1    0    0    0    0  0.00000000000E+00  0.00000000000E+00  0.45593999997E+02  0.45594000000E+02  0.51100000000E-03 0. -1.
         11   -1    0    0    0    0 -0.00000000000E+00 -0.00000000000E+00 -0.45593999997E+02  0.45594000000E+02  0.51100000000E-03 0.  1.
    9900012    2    1    2    0    0  0.42645801819E+02 -0.24635971675E+01 -0.14296142203E+02  0.46142318679E+02  0.10000008366E+02 0.  0.
         12    1    1    2    0    0 -0.42645801819E+02  0.24635971675E+01  0.14296142203E+02  0.45045681321E+02  0.00000000000E+00 0. -1.
         11    1    3    3    0    0  0.51297624790E+01  0.13711148352E+01 -0.23789114177E+01  0.58183879879E+01  0.51100000000E-03 0. -1.
        -11    1    3    3    0    0  0.13542388145E+02  0.16589538867E+01 -0.66201895931E+01  0.15164937032E+02  0.51100000000E-03 0.  1.
        -12    1    3    3    0    0  0.23973651195E+02 -0.54936658894E+01 -0.52970411921E+01  0.25158993659E+02  0.00000000000E+00 0.  1.
</event>
<event>
 7    1  0.1402367E-008  0.4614232E+02  0.7816164E-02  0.1320468E+00
        -11   -1    0    0    0    0  0.00000000000E+00  0.00000000000E+00  0.45593999997E+02  0.45594000000E+02  0.51100000000E-03 0.  1.
         11   -1    0    0    0    0 -0.00000000000E+00 -0.00000000000E+00 -0.45593999997E+02  0.45594000000E+02  0.51100000000E-03 0. -1.
    9900012    2    1    2    0    0 -0.52229784776E+01  0.39505434914E+02  0.21003680985E+02  0.46142317557E+02  0.99999981349E+01 0.  0.
         12    1    1    2    0    0  0.52229784776E+01 -0.39505434914E+02 -0.21003680985E+02  0.45045682443E+02  0.00000000000E+00 0. -1.
         11    1    3    3    0    0 -0.23155779177E+01  0.20458692205E+01  0.15661904811E+01  0.34641643789E+01  0.51100000000E-03 0. -1.
        -11    1    3    3    0    0 -0.36510451073E+01  0.36006337765E+02  0.19360089780E+02  0.41043873674E+02  0.51100000000E-03 0.  1.
        -12    1    3    3    0    0  0.74364454743E+00  0.14532279277E+01  0.77400723795E-01  0.16342795033E+01  0.00000000000E+00 0.  1.
</event>
<event>
 7    1  0.1402367E-008  0.4614232E+02  0.7816164E-02  0.1320468E+00
        -11   -1    0    0    0    0  0.00000000000E+00  0.00000000000E+00  0.45593999997E+02  0.45594000000E+02  0.51100000000E-03 0.  1.
         11   -1    0    0    0    0 -0.00000000000E+00 -0.00000000000E+00 -0.45593999997E+02  0.45594000000E+02  0.51100000000E-03 0. -1.
    9900012    2    1    2    0    0 -0.33339146570E+02 -0.25972346232E+02  0.15590124533E+02  0.46142318234E+02  0.10000004314E+02 0.  0.
         12    1    1    2    0    0  0.33339146570E+02  0.25972346232E+02 -0.15590124533E+02  0.45045681766E+02  0.00000000000E+00 0. -1.
         11    1    3    3    0    0 -0.95605684909E+01 -0.11189592392E+02  0.57550696047E+01  0.15802919799E+02  0.51100000000E-03 0. -1.
        -11    1    3    3    0    0 -0.38721323574E+01 -0.52223628414E+01  0.34057494611E+01  0.73393196070E+01  0.51100000000E-03 0.  1.
         12    1    3    3    0    0 -0.19906445721E+02 -0.95603909987E+01  0.64293054677E+01  0.23000078828E+02  0.00000000000E+00 0. -1.
</event>
<event>
 7    1  0.1402367E-008  0.4614232E+02  0.7816164E-02  0.1320468E+00
        -11   -1    0    0    0    0  0.00000000000E+00  0.00000000000E+00  0.45593999997E+02  0.45594000000E+02  0.51100000000E-03 0.  1.
         11   -1    0    0    0    0 -0.00000000000E+00 -0.00000000000E+00 -0.45593999997E+02  0.45594000000E+02  0.51100000000E-03 0. -1.
    9900012    2    1    2    0    0 -0.31381760679E+02  0.15808383785E+02  0.28184988834E+02  0.46142317668E+02  0.99999991495E+01 0.  0.
         12    1    1    2    0    0  0.31381760679E+02 -0.15808383785E+02 -0.28184988834E+02  0.45045682332E+02  0.00000000000E+00 0. -1.
         11    1    3    3    0    0 -0.10956941318E+02  0.46848495016E+01  0.11444819209E+02  0.16522295993E+02  0.51100000000E-03 0. -1.
        -11    1    3    3    0    0 -0.29927976969E+01  0.40225899673E+01  0.10666782002E+01  0.51259994872E+01  0.51100000000E-03 0.  1.
        -12    1    3    3    0    0 -0.17432021664E+02  0.71009443158E+01  0.15673491426E+02  0.24494022188E+02  0.00000000000E+00 0.  1.
</event>
<event>
 7    1  0.1402367E-008  0.4614232E+02  0.7816164E-02  0.1320468E+00
        -11   -1    0    0    0    0  0.00000000000E+00  0.00000000000E+00  0.45593999997E+02  0.45594000000E+02  0.51100000000E-03 0.  1.
         11   -1    0    0    0    0 -0.00000000000E+00 -0.00000000000E+00 -0.45593999997E+02  0.45594000000E+02  0.51100000000E-03 0. -1.
    9900012    2    1    2    0    0 -0.16970135002E+01  0.77551253104E+01  0.44340633758E+02  0.46142316239E+02  0.99999861202E+01 0.  0.
         12    1    1    2    0    0  0.16970135002E+01 -0.77551253104E+01 -0.44340633758E+02  0.45045683761E+02  0.00000000000E+00 0. -1.
         11    1    3    3    0    0  0.22117815768E+01  0.26594409877E+01  0.17443276105E+02  0.17782926802E+02  0.51100000000E-03 0.  1.
        -11    1    3    3    0    0 -0.31390729865E+00 -0.10575300364E+01  0.96495568771E+00  0.14656218170E+01  0.51100000000E-03 0. -1.
        -12    1    3    3    0    0 -0.35948877783E+01  0.61532143591E+01  0.25932401966E+02  0.26893767620E+02  0.00000000000E+00 0.  1.
</event>
<event>
 7    1  0.1402367E-008  0.4614232E+02  0.7816164E-02  0.1320468E+00
        -11   -1    0    0    0    0  0.00000000000E+00  0.00000000000E+00  0.45593999997E+02  0.45594000000E+02  0.51100000000E-03 0. -1.
         11   -1    0    0    0    0 -0.00000000000E+00 -0.00000000000E+00 -0.45593999997E+02  0.45594000000E+02  0.51100000000E-03 0.  1.
    9900012    2    1    2    0    0 -0.10781473142E+02  0.37674989627E+02  0.22214148470E+02  0.46142318756E+02  0.10000009070E+02 0.  0.
         12    1    1    2    0    0  0.10781473142E+02 -0.37674989627E+02 -0.22214148470E+02  0.45045681244E+02  0.00000000000E+00 0. -1.
         11    1    3    3    0    0 -0.25372390308E+01  0.20270182651E+01  0.18828737653E+01  0.37538778382E+01  0.51100000000E-03 0. -1.
        -11    1    3    3    0    0 -0.71833694936E+01  0.23408895593E+02  0.16473795597E+02  0.29512084505E+02  0.51100000000E-03 0.  1.
         12    1    3    3    0    0 -0.10608646176E+01  0.12239075768E+02  0.38574791081E+01  0.12876356413E+02  0.00000000000E+00 0. -1.
</event>
<event>
 7    1  0.2898477E-008  0.4614232E+02  0.7816164E-02  0.1320468E+00
        -11   -1    0    0    0    0  0.00000000000E+00  0.00000000000E+00  0.45593999997E+02  0.45594000000E+02  0.51100000000E-03 0. -1.
         11   -1    0    0    0    0 -0.00000000000E+00 -0.00000000000E+00 -0.45593999997E+02  0.45594000000E+02  0.51100000000E-03 0.  1.
    9900012    2    1    2    0    0  0.23025582954E+02 -0.14246246715E+02 -0.35999729341E+02  0.46142317316E+02  0.99999959385E+01 0.  0.
         12    1    1    2    0    0 -0.23025582954E+02  0.14246246715E+02  0.35999729341E+02  0.45045682684E+02  0.00000000000E+00 0. -1.
         11    1    3    3    0    0  0.35373062499E+00  0.25356854573E+00 -0.40133798605E+01  0.40369097746E+01  0.51100000000E-03 0. -1.
        -11    1    3    3    0    0  0.22384508826E+02 -0.13906851416E+02 -0.29606337645E+02  0.39635867352E+02  0.51100000000E-03 0.  1.
        -12    1    3    3    0    0  0.28734350320E+00 -0.59296384482E+00 -0.23800118356E+01  0.24695401895E+01  0.00000000000E+00 0.  1.
</event>
<event>
 7    1  0.1402367E-008  0.4614232E+02  0.7816164E-02  0.1320468E+00
        -11   -1    0    0    0    0  0.00000000000E+00  0.00000000000E+00  0.45593999997E+02  0.45594000000E+02  0.51100000000E-03 0.  1.
         11   -1    0    0    0    0 -0.00000000000E+00 -0.00000000000E+00 -0.45593999997E+02  0.45594000000E+02  0.51100000000E-03 0. -1.
    9900012    2    1    2    0    0 -0.25337844618E+02  0.28127479649E+02 -0.24412128905E+02  0.46142317421E+02  0.99999968977E+01 0.  0.
         12    1    1    2    0    0  0.25337844618E+02 -0.28127479649E+02  0.24412128905E+02  0.45045682579E+02  0.00000000000E+00 0. -1.
         11    1    3    3    0    0 -0.25505779359E+01  0.24284217478E+01 -0.58342856515E+01  0.68148051562E+01  0.51100000000E-03 0. -1.
        -11    1    3    3    0    0 -0.12957008080E+01  0.34836033004E+01 -0.25678915144E+01  0.45175656752E+01  0.51100000000E-03 0.  1.
         12    1    3    3    0    0 -0.21491565875E+02  0.22215454601E+02 -0.16009951740E+02  0.34809946590E+02  0.00000000000E+00 0. -1.
</event>
<event>
 7    1  0.1402367E-008  0.4614232E+02  0.7816164E-02  0.1320468E+00
        -11   -1    0    0    0    0  0.00000000000E+00  0.00000000000E+00  0.45593999997E+02  0.45594000000E+02  0.51100000000E-03 0. -1.
         11   -1    0    0    0    0 -0.00000000000E+00 -0.00000000000E+00 -0.45593999997E+02  0.45594000000E+02  0.51100000000E-03 0.  1.
    9900012    2    1    2    0    0 -0.15059374562E+02  0.14161162864E+02  0.40022370620E+02  0.46142318232E+02  0.10000004297E+02 0.  0.
         12    1    1    2    0    0  0.15059374562E+02 -0.14161162864E+02 -0.40022370620E+02  0.45045681768E+02  0.00000000000E+00 0. -1.
         11    1    3    3    0    0 -0.42399180870E+01  0.61528250182E+00  0.79217774119E+01  0.90061110124E+01  0.51100000000E-03 0. -1.
        -11    1    3    3    0    0 -0.91635560198E+01  0.95052978051E+01  0.17660353268E+02  0.22050159253E+02  0.51100000000E-03 0.  1.
         12    1    3    3    0    0 -0.16559004555E+01  0.40405825567E+01  0.14440239941E+02  0.15086047967E+02  0.00000000000E+00 0. -1.
</event>
<event>
 7    1  0.1402367E-008  0.4614232E+02  0.7816164E-02  0.1320468E+00
        -11   -1    0    0    0    0  0.00000000000E+00  0.00000000000E+00  0.45593999997E+02  0.45594000000E+02  0.51100000000E-03 0. -1.
         11   -1    0    0    0    0 -0.00000000000E+00 -0.00000000000E+00 -0.45593999997E+02  0.45594000000E+02  0.51100000000E-03 0.  1.
    9900012    2    1    2    0    0 -0.16944006819E+02 -0.16046035022E+02 -0.38529713808E+02  0.46142318152E+02  0.10000003563E+02 0.  0.
         12    1    1    2    0    0  0.16944006819E+02  0.16046035022E+02  0.38529713808E+02  0.45045681848E+02  0.00000000000E+00 0. -1.
         11    1    3    3    0    0 -0.10125609000E+02 -0.13683044709E+02 -0.21475088886E+02  0.27403158815E+02  0.51100000000E-03 0. -1.
        -11    1    3    3    0    0 -0.47325937392E+01 -0.14543717811E+01 -0.14481517875E+02  0.15304476502E+02  0.51100000000E-03 0.  1.
         12    1    3    3    0    0 -0.20858040801E+01 -0.90861853196E+00 -0.25731070472E+01  0.34346828345E+01  0.00000000000E+00 0. -1.
</event>
<event>
 7    1  0.1402367E-008  0.4614232E+02  0.7816164E-02  0.1320468E+00
        -11   -1    0    0    0    0  0.00000000000E+00  0.00000000000E+00  0.45593999997E+02  0.45594000000E+02  0.51100000000E-03 0.  1.
         11   -1    0    0    0    0 -0.00000000000E+00 -0.00000000000E+00 -0.45593999997E+02  0.45594000000E+02  0.51100000000E-03 0. -1.
    9900012    2    1    2    0    0 -0.24099839512E+02  0.63669404958E+00  0.38051357647E+02  0.46142318047E+02  0.10000002604E+02 0.  0.
         12    1    1    2    0    0  0.24099839512E+02 -0.63669404958E+00 -0.38051357647E+02  0.45045681953E+02  0.00000000000E+00 0. -1.
         11    1    3    3    0    0  0.28046646719E+00 -0.30868311903E+00  0.21267179042E+01  0.21672277251E+01  0.51100000000E-03 0. -1.
        -11    1    3    3    0    0 -0.10372625464E+02  0.17332955487E+01  0.10075890684E+02  0.14564314121E+02  0.51100000000E-03 0.  1.
        -12    1    3    3    0    0 -0.14007680515E+02 -0.78791838005E+00  0.25848749059E+02  0.29410776200E+02  0.00000000000E+00 0.  1.
</event>
<event>
 7    1  0.1402367E-008  0.4614232E+02  0.7816164E-02  0.1320468E+00
        -11   -1    0    0    0    0  0.00000000000E+00  0.00000000000E+00  0.45593999997E+02  0.45594000000E+02  0.51100000000E-03 0. -1.
         11   -1    0    0    0    0 -0.00000000000E+00 -0.00000000000E+00 -0.45593999997E+02  0.45594000000E+02  0.51100000000E-03 0.  1.
    9900012    2    1    2    0    0 -0.41906803228E+02 -0.72217045051E+01 -0.14858678127E+02  0.46142317760E+02  0.99999999920E+01 0.  0.
         12    1    1    2    0    0  0.41906803228E+02  0.72217045051E+01  0.14858678127E+02  0.45045682240E+02  0.00000000000E+00 0. -1.
         11    1    3    3    0    0 -0.75489815358E+01 -0.37144973693E+01 -0.39631390312E+01  0.93000582888E+01  0.51100000000E-03 0. -1.
        -11    1    3    3    0    0 -0.20305957058E+02 -0.16341068575E+01 -0.29293092291E+01  0.20581133353E+02  0.51100000000E-03 0.  1.
        -12    1    3    3    0    0 -0.14051864634E+02 -0.18731002784E+01 -0.79662298667E+01  0.16261126118E+02  0.00000000000E+00 0.  1.
</event>
<event>
 7    1  0.1402367E-008  0.4614232E+02  0.7816164E-02  0.1320468E+00
        -11   -1    0    0    0    0  0.00000000000E+00  0.00000000000E+00  0.45593999997E+02  0.45594000000E+02  0.51100000000E-03 0.  1.
         11   -1    0    0    0    0 -0.00000000000E+00 -0.00000000000E+00 -0.45593999997E+02  0.45594000000E+02  0.51100000000E-03 0. -1.
    9900012    2    1    2    0    0 -0.29133877625E+02  0.34023334117E+02 -0.47689783500E+01  0.46142320469E+02  0.10000024689E+02 0.  0.
         12    1    1    2    0    0  0.29133877625E+02 -0.34023334117E+02  0.47689783500E+01  0.45045679531E+02  0.00000000000E+00 0. -1.
         11    1    3    3    0    0 -0.63574358528E+01  0.69409934356E+01 -0.39951958209E+01  0.10225261386E+02  0.51100000000E-03 0. -1.
        -11    1    3    3    0    0 -0.13202775816E+02  0.13071718922E+02  0.21315336306E+01  0.18700977533E+02  0.51100000000E-03 0.  1.
         12    1    3    3    0    0 -0.95736659571E+01  0.14010621759E+02 -0.29053161597E+01  0.17216081550E+02  0.00000000000E+00 0. -1.
</event>
<event>
 7    1  0.1402367E-008  0.4614232E+02  0.7816164E-02  0.1320468E+00
        -11   -1    0    0    0    0  0.00000000000E+00  0.00000000000E+00  0.45593999997E+02  0.45594000000E+02  0.51100000000E-03 0. -1.
         11   -1    0    0    0    0 -0.00000000000E+00 -0.00000000000E+00 -0.45593999997E+02  0.45594000000E+02  0.51100000000E-03 0.  1.
    9900012    2    1    2    0    0 -0.43280848625E+02  0.49970174523E+01 -0.11441656403E+02  0.46142317162E+02  0.99999945344E+01 0.  0.
         12    1    1    2    0    0  0.43280848625E+02 -0.49970174523E+01  0.11441656403E+02  0.45045682838E+02  0.00000000000E+00 0. -1.
         11    1    3    3    0    0 -0.16694679511E+02  0.32800753379E+01 -0.80469959861E+01  0.18820875720E+02  0.51100000000E-03 0. -1.
        -11    1    3    3    0    0 -0.25438687323E+02  0.78229974288E+00 -0.24560624859E+01  0.25568946963E+02  0.51100000000E-03 0.  1.
         12    1    3    3    0    0 -0.11474817914E+01  0.93464237156E+00 -0.93859793053E+00  0.17524944792E+01  0.00000000000E+00 0. -1.
</event>
<event>
 7    1  0.1402367E-008  0.4614232E+02  0.7816164E-02  0.1320468E+00
        -11   -1    0    0    0    0  0.00000000000E+00  0.00000000000E+00  0.45593999997E+02  0.45594000000E+02  0.51100000000E-03 0. -1.
         11   -1    0    0    0    0 -0.00000000000E+00 -0.00000000000E+00 -0.45593999997E+02  0.45594000000E+02  0.51100000000E-03 0.  1.
    9900012    2    1    2    0    0  0.91009116613E+01  0.41669495546E+02 -0.14489312914E+02  0.46142316069E+02  0.99999845683E+01 0.  0.
         12    1    1    2    0    0 -0.91009116613E+01 -0.41669495546E+02  0.14489312914E+02  0.45045683931E+02  0.00000000000E+00 0. -1.
         11    1    3    3    0    0  0.12835221946E+01  0.30947818619E+01  0.32859265392E+00  0.33664636326E+01  0.51100000000E-03 0. -1.
        -11    1    3    3    0    0  0.87859558186E+01  0.37461851569E+02 -0.14980425741E+02  0.41291603242E+02  0.51100000000E-03 0.  1.
        -12    1    3    3    0    0 -0.96856635190E+00  0.11128621147E+01  0.16252017286E+00  0.14842491943E+01  0.00000000000E+00 0.  1.
</event>
<event>
 7    1  0.1402367E-008  0.4614232E+02  0.7816164E-02  0.1320468E+00
        -11   -1    0    0    0    0  0.00000000000E+00  0.00000000000E+00  0.45593999997E+02  0.45594000000E+02  0.51100000000E-03 0.  1.
         11   -1    0    0    0    0 -0.00000000000E+00 -0.00000000000E+00 -0.45593999997E+02  0.45594000000E+02  0.51100000000E-03 0. -1.
    9900012    2    1    2    0    0  0.20015742388E+02 -0.24490728394E+02  0.32073163998E+02  0.46142316861E+02  0.99999917936E+01 0.  0.
         12    1    1    2    0    0 -0.20015742388E+02  0.24490728394E+02 -0.32073163998E+02  0.45045683139E+02  0.00000000000E+00 0. -1.
         11    1    3    3    0    0  0.16702865909E+02 -0.20284615324E+02  0.23919980634E+02  0.35533319887E+02  0.51100000000E-03 0. -1.
        -11    1    3    3    0    0  0.31310143308E+01 -0.40579587801E+01  0.86528878587E+01  0.10056975130E+02  0.51100000000E-03 0.  1.
         12    1    3    3    0    0  0.18186214816E+00 -0.14815428990E+00 -0.49970449479E+00  0.55202184438E+00  0.00000000000E+00 0. -1.
</event>
<event>
 7    1  0.1402367E-008  0.4614232E+02  0.7816164E-02  0.1320468E+00
        -11   -1    0    0    0    0  0.00000000000E+00  0.00000000000E+00  0.45593999997E+02  0.45594000000E+02  0.51100000000E-03 0.  1.
         11   -1    0    0    0    0 -0.00000000000E+00 -0.00000000000E+00 -0.45593999997E+02  0.45594000000E+02  0.51100000000E-03 0. -1.
    9900012    2    1    2    0    0  0.14891791287E+01  0.44896079052E+02 -0.33523021083E+01  0.46142317653E+02  0.99999990126E+01 0.  0.
         12    1    1    2    0    0 -0.14891791287E+01 -0.44896079052E+02  0.33523021083E+01  0.45045682347E+02  0.00000000000E+00 0. -1.
         11    1    3    3    0    0  0.29603442656E+01  0.12989312204E+02 -0.46565785374E+01  0.14112745786E+02  0.51100000000E-03 0. -1.
        -11    1    3    3    0    0 -0.51809831778E+00  0.17311299708E+02 -0.24846311794E+00  0.17320833052E+02  0.51100000000E-03 0.  1.
         12    1    3    3    0    0 -0.95306681905E+00  0.14595467140E+02  0.15527395471E+01  0.14708738814E+02  0.00000000000E+00 0. -1.
</event>
<event>
 7    1  0.1402367E-008  0.4614232E+02  0.7816164E-02  0.1320468E+00
        -11   -1    0    0    0    0  0.00000000000E+00  0.00000000000E+00  0.45593999997E+02  0.45594000000E+02  0.51100000000E-03 0.  1.
         11   -1    0    0    0    0 -0.00000000000E+00 -0.00000000000E+00 -0.45593999997E+02  0.45594000000E+02  0.51100000000E-03 0. -1.
    9900012    2    1    2    0    0  0.52016819330E+01 -0.97729444652E+01  0.43664007518E+02  0.46142317732E+02  0.99999997326E+01 0.  0.
         12    1    1    2    0    0 -0.52016819330E+01  0.97729444652E+01 -0.43664007518E+02  0.45045682268E+02  0.00000000000E+00 0. -1.
         11    1    3    3    0    0  0.38160366063E+01 -0.14993798913E+01  0.69463915383E+01  0.80661410293E+01  0.51100000000E-03 0. -1.
        -11    1    3    3    0    0  0.16010848576E+01 -0.88553509112E+01  0.36084855964E+02  0.37190019396E+02  0.51100000000E-03 0.  1.
        -12    1    3    3    0    0 -0.21543953090E+00  0.58178633729E+00  0.63276001577E+00  0.88615730618E+00  0.00000000000E+00 0.  1.
</event>
<event>
 7    1  0.1402367E-008  0.4614232E+02  0.7816164E-02  0.1320468E+00
        -11   -1    0    0    0    0  0.00000000000E+00  0.00000000000E+00  0.45593999997E+02  0.45594000000E+02  0.51100000000E-03 0.  1.
         11   -1    0    0    0    0 -0.00000000000E+00 -0.00000000000E+00 -0.45593999997E+02  0.45594000000E+02  0.51100000000E-03 0. -1.
    9900012    2    1    2    0    0 -0.39306667892E+02  0.12428164750E+00  0.22001909035E+02  0.46142316657E+02  0.99999899296E+01 0.  0.
         12    1    1    2    0    0  0.39306667892E+02 -0.12428164750E+00 -0.22001909035E+02  0.45045683343E+02  0.00000000000E+00 0. -1.
         11    1    3    3    0    0 -0.37087126740E+01 -0.21161934243E+01  0.42150439635E+01  0.59999516817E+01  0.51100000000E-03 0. -1.
        -11    1    3    3    0    0 -0.17772741670E+02  0.26524363113E+01  0.68839007086E+01  0.19243020919E+02  0.51100000000E-03 0.  1.
         12    1    3    3    0    0 -0.17825213547E+02 -0.41196123950E+00  0.10902964363E+02  0.20899344056E+02  0.00000000000E+00 0. -1.
</event>
<event>
 7    1  0.1402367E-008  0.4614232E+02  0.7816164E-02  0.1320468E+00
        -11   -1    0    0    0    0  0.00000000000E+00  0.00000000000E+00  0.45593999997E+02  0.45594000000E+02  0.51100000000E-03 0.  1.
         11   -1    0    0    0    0 -0.00000000000E+00 -0.00000000000E+00 -0.45593999997E+02  0.45594000000E+02  0.51100000000E-03 0. -1.
    9900012    2    1    2    0    0 -0.36986075856E+01 -0.43759475739E+02  0.10027069391E+02  0.46142317236E+02  0.99999952151E+01 0.  0.
         12    1    1    2    0    0  0.36986075856E+01  0.43759475739E+02 -0.10027069391E+02  0.45045682764E+02  0.00000000000E+00 0. -1.
         11    1    3    3    0    0 -0.65683044894E+00 -0.40021607530E+00  0.91226900832E+00  0.11932452180E+01  0.51100000000E-03 0. -1.
        -11    1    3    3    0    0 -0.94148631682E+00 -0.40100119157E+02  0.78618051437E+01  0.40874367680E+02  0.51100000000E-03 0.  1.
        -12    1    3    3    0    0 -0.21002908198E+01 -0.32591405073E+01  0.12529952390E+01  0.40747043381E+01  0.00000000000E+00 0.  1.
</event>
<event>
 7    1  0.1402367E-008  0.4614232E+02  0.7816164E-02  0.1320468E+00
        -11   -1    0    0    0    0  0.00000000000E+00  0.00000000000E+00  0.45593999997E+02  0.45594000000E+02  0.51100000000E-03 0. -1.
         11   -1    0    0    0    0 -0.00000000000E+00 -0.00000000000E+00 -0.45593999997E+02  0.45594000000E+02  0.51100000000E-03 0.  1.
    9900012    2    1    2    0    0 -0.25221160144E+02 -0.21083278743E+02 -0.30797759723E+02  0.46142316904E+02  0.99999921852E+01 0.  0.
         12    1    1    2    0    0  0.25221160144E+02  0.21083278743E+02  0.30797759723E+02  0.45045683096E+02  0.00000000000E+00 0. -1.
         11    1    3    3    0    0 -0.80186387428E+01 -0.22062373999E+01 -0.86012491715E+01  0.11964428040E+02  0.51100000000E-03 0. -1.
        -11    1    3    3    0    0 -0.12514088683E+02 -0.10300774223E+02 -0.13464489677E+02  0.21071327621E+02  0.51100000000E-03 0.  1.
        -12    1    3    3    0    0 -0.46884327181E+01 -0.85762671203E+01 -0.87320208745E+01  0.13106561243E+02  0.00000000000E+00 0.  1.
</event>
<event>
 7    1  0.1402367E-008  0.4614232E+02  0.7816164E-02  0.1320468E+00
        -11   -1    0    0    0    0  0.00000000000E+00  0.00000000000E+00  0.45593999997E+02  0.45594000000E+02  0.51100000000E-03 0.  1.
         11   -1    0    0    0    0 -0.00000000000E+00 -0.00000000000E+00 -0.45593999997E+02  0.45594000000E+02  0.51100000000E-03 0. -1.
    9900012    2    1    2    0    0 -0.40247639503E+02 -0.19267116376E+02  0.61659610853E+01  0.46142319463E+02  0.10000015515E+02 0.  0.
         12    1    1    2    0    0  0.40247639503E+02  0.19267116376E+02 -0.61659610853E+01  0.45045680537E+02  0.00000000000E+00 0. -1.
         11    1    3    3    0    0 -0.36129659536E+01 -0.37669153862E+01  0.24195274542E+01  0.57530242370E+01  0.51100000000E-03 0. -1.
        -11    1    3    3    0    0 -0.22526267516E+02 -0.75408185525E+01  0.44812017091E+01  0.24173908282E+02  0.51100000000E-03 0.  1.
        -12    1    3    3    0    0 -0.14108406034E+02 -0.79593824369E+01 -0.73476807803E+00  0.16215386943E+02  0.00000000000E+00 0.  1.
</event>
<event>
 7    1  0.1402367E-008  0.4614232E+02  0.7816164E-02  0.1320468E+00
        -11   -1    0    0    0    0  0.00000000000E+00  0.00000000000E+00  0.45593999997E+02  0.45594000000E+02  0.51100000000E-03 0.  1.
         11   -1    0    0    0    0 -0.00000000000E+00 -0.00000000000E+00 -0.45593999997E+02  0.45594000000E+02  0.51100000000E-03 0. -1.
    9900012    2    1    2    0    0  0.19785963651E+01 -0.44077701216E+02 -0.90749643738E+01  0.46142316895E+02  0.99999920983E+01 0.  0.
         12    1    1    2    0    0 -0.19785963651E+01  0.44077701216E+02  0.90749643738E+01  0.45045683105E+02  0.00000000000E+00 0. -1.
         11    1    3    3    0    0  0.62448683341E+00 -0.13149079298E+02 -0.20819314771E+01  0.13327516990E+02  0.51100000000E-03 0. -1.
        -11    1    3    3    0    0  0.85345751986E+00 -0.54482067861E+01  0.18841587031E+01  0.58276411353E+01  0.51100000000E-03 0.  1.
        -12    1    3    3    0    0  0.50065201179E+00 -0.25480415132E+02 -0.88771915999E+01  0.26987158769E+02  0.00000000000E+00 0.  1.
</event>
<event>
 7    1  0.1402367E-008  0.4614232E+02  0.7816164E-02  0.1320468E+00
        -11   -1    0    0    0    0  0.00000000000E+00  0.00000000000E+00  0.45593999997E+02  0.45594000000E+02  0.51100000000E-03 0. -1.
         11   -1    0    0    0    0 -0.00000000000E+00 -0.00000000000E+00 -0.45593999997E+02  0.45594000000E+02  0.51100000000E-03 0.  1.
    9900012    2    1    2    0    0  0.26871654411E+01  0.10750431895E+02 -0.43661435007E+02  0.46142317067E+02  0.99999936742E+01 0.  0.
         12    1    1    2    0    0 -0.26871654411E+01 -0.10750431895E+02  0.43661435007E+02  0.45045682933E+02  0.00000000000E+00 0. -1.
         11    1    3    3    0    0  0.50641092939E+00  0.21140642438E+01 -0.10439228671E+01  0.24115337174E+01  0.51100000000E-03 0. -1.
        -11    1    3    3    0    0 -0.15291357454E+00  0.27383172445E+01 -0.21702426073E+02  0.21875032836E+02  0.51100000000E-03 0.  1.
        -12    1    3    3    0    0  0.23336680863E+01  0.58980504064E+01 -0.20915086067E+02  0.21855750514E+02  0.00000000000E+00 0.  1.
</event>
<event>
 7    1  0.1402367E-008  0.4614232E+02  0.7816164E-02  0.1320468E+00
        -11   -1    0    0    0    0  0.00000000000E+00  0.00000000000E+00  0.45593999997E+02  0.45594000000E+02  0.51100000000E-03 0.  1.
         11   -1    0    0    0    0 -0.00000000000E+00 -0.00000000000E+00 -0.45593999997E+02  0.45594000000E+02  0.51100000000E-03 0. -1.
    9900012    2    1    2    0    0 -0.44615128130E+01 -0.89906632044E+01  0.43913282838E+02  0.46142317287E+02  0.99999956804E+01 0.  0.
         12    1    1    2    0    0  0.44615128130E+01  0.89906632044E+01 -0.43913282838E+02  0.45045682713E+02  0.00000000000E+00 0. -1.
         11    1    3    3    0    0  0.18417731284E+01  0.28877694102E+00  0.32565439836E+01  0.37524124715E+01  0.51100000000E-03 0. -1.
        -11    1    3    3    0    0 -0.59328834157E+01 -0.97076235924E+01  0.37692873159E+02  0.39372449107E+02  0.51100000000E-03 0.  1.
        -12    1    3    3    0    0 -0.37040252565E+00  0.42818344698E+00  0.29638656955E+01  0.30174557091E+01  0.00000000000E+00 0.  1.
</event>
<event>
 7    1  0.1402367E-008  0.4614232E+02  0.7816164E-02  0.1320468E+00
        -11   -1    0    0    0    0  0.00000000000E+00  0.00000000000E+00  0.45593999997E+02  0.45594000000E+02  0.51100000000E-03 0. -1.
         11   -1    0    0    0    0 -0.00000000000E+00 -0.00000000000E+00 -0.45593999997E+02  0.45594000000E+02  0.51100000000E-03 0.  1.
    9900012    2    1    2    0    0 -0.19280118385E+02 -0.11768741673E+02 -0.38972903312E+02  0.46142318319E+02  0.10000005089E+02 0.  0.
         12    1    1    2    0    0  0.19280118385E+02  0.11768741673E+02  0.38972903312E+02  0.45045681681E+02  0.00000000000E+00 0. -1.
         11    1    3    3    0    0 -0.73602914383E+01 -0.57583499492E+01 -0.10678973530E+02  0.14190594072E+02  0.51100000000E-03 0. -1.
        -11    1    3    3    0    0 -0.71099433165E+01 -0.58913810656E+01 -0.23072460455E+02  0.24851521010E+02  0.51100000000E-03 0.  1.
        -12    1    3    3    0    0 -0.48098836297E+01 -0.11901065824E+00 -0.52214693273E+01  0.71002032368E+01  0.00000000000E+00 0.  1.
</event>
<event>
 7    1  0.1402367E-008  0.4614232E+02  0.7816164E-02  0.1320468E+00
        -11   -1    0    0    0    0  0.00000000000E+00  0.00000000000E+00  0.45593999997E+02  0.45594000000E+02  0.51100000000E-03 0.  1.
         11   -1    0    0    0    0 -0.00000000000E+00 -0.00000000000E+00 -0.45593999997E+02  0.45594000000E+02  0.51100000000E-03 0. -1.
    9900012    2    1    2    0    0 -0.38558063417E+02 -0.89713715549E+01  0.21491947463E+02  0.46142316880E+02  0.99999919648E+01 0.  0.
         12    1    1    2    0    0  0.38558063417E+02  0.89713715549E+01 -0.21491947463E+02  0.45045683120E+02  0.00000000000E+00 0. -1.
         11    1    3    3    0    0 -0.14630986314E+02 -0.83623439196E+01  0.83196891236E+01  0.18793929438E+02  0.51100000000E-03 0. -1.
        -11    1    3    3    0    0 -0.13665672397E+02 -0.95247649546E+00  0.73932259210E+01  0.15566553996E+02  0.51100000000E-03 0.  1.
         12    1    3    3    0    0 -0.10261404705E+02  0.34344886019E+00  0.57790324182E+01  0.11781833445E+02  0.00000000000E+00 0. -1.
</event>
<event>
 7    1  0.1402367E-008  0.4614232E+02  0.7816164E-02  0.1320468E+00
        -11   -1    0    0    0    0  0.00000000000E+00  0.00000000000E+00  0.45593999997E+02  0.45594000000E+02  0.51100000000E-03 0.  1.
         11   -1    0    0    0    0 -0.00000000000E+00 -0.00000000000E+00 -0.45593999997E+02  0.45594000000E+02  0.51100000000E-03 0. -1.
    9900012    2    1    2    0    0  0.35490209450E+02  0.84471027480E+01  0.26423570180E+02  0.46142316825E+02  0.99999914639E+01 0.  0.
         12    1    1    2    0    0 -0.35490209450E+02 -0.84471027480E+01 -0.26423570180E+02  0.45045683175E+02  0.00000000000E+00 0. -1.
         11    1    3    3    0    0  0.17934406577E+02  0.83770247400E+01  0.15412626362E+02  0.25087178685E+02  0.51100000000E-03 0. -1.
        -11    1    3    3    0    0  0.12458393415E+02  0.83545320798E+00  0.94820943772E+01  0.15678637140E+02  0.51100000000E-03 0.  1.
         12    1    3    3    0    0  0.50974094584E+01 -0.76537520005E+00  0.15288494413E+01  0.53765009995E+01  0.00000000000E+00 0. -1.
</event>
<event>
 7    1  0.1402367E-008  0.4614232E+02  0.7816164E-02  0.1320468E+00
        -11   -1    0    0    0    0  0.00000000000E+00  0.00000000000E+00  0.45593999997E+02  0.45594000000E+02  0.51100000000E-03 0.  1.
         11   -1    0    0    0    0 -0.00000000000E+00 -0.00000000000E+00 -0.45593999997E+02  0.45594000000E+02  0.51100000000E-03 0. -1.
    9900012    2    1    2    0    0  0.27609262763E+00 -0.20402000296E+02  0.40159626864E+02  0.46142317931E+02  0.10000001548E+02 0.  0.
         12    1    1    2    0    0 -0.27609262763E+00  0.20402000296E+02 -0.40159626864E+02  0.45045682069E+02  0.00000000000E+00 0. -1.
         11    1    3    3    0    0  0.16111756523E+01 -0.71710227095E+00  0.13651402149E+01  0.22301862516E+01  0.51100000000E-03 0. -1.
        -11    1    3    3    0    0 -0.71642161258E+00 -0.14784532168E+02  0.33744851035E+02  0.36848481963E+02  0.51100000000E-03 0.  1.
        -12    1    3    3    0    0 -0.61866141205E+00 -0.49003658570E+01  0.50496356141E+01  0.70636497161E+01  0.00000000000E+00 0.  1.
</event>
<event>
 7    1  0.1402367E-008  0.4614232E+02  0.7816164E-02  0.1320468E+00
        -11   -1    0    0    0    0  0.00000000000E+00  0.00000000000E+00  0.45593999997E+02  0.45594000000E+02  0.51100000000E-03 0.  1.
         11   -1    0    0    0    0 -0.00000000000E+00 -0.00000000000E+00 -0.45593999997E+02  0.45594000000E+02  0.51100000000E-03 0. -1.
    9900012    2    1    2    0    0  0.68038797233E+01  0.17191958930E+02  0.41076237431E+02  0.46142317492E+02  0.99999975442E+01 0.  0.
         12    1    1    2    0    0 -0.68038797233E+01 -0.17191958930E+02 -0.41076237431E+02  0.45045682508E+02  0.00000000000E+00 0. -1.
         11    1    3    3    0    0  0.53980989921E+01  0.77666230354E+01  0.10644797993E+02  0.14239790401E+02  0.51100000000E-03 0. -1.
        -11    1    3    3    0    0  0.44807842566E+00  0.60620893427E+01  0.19181946154E+02  0.20122046615E+02  0.51100000000E-03 0.  1.
         12    1    3    3    0    0  0.95770230559E+00  0.33632465522E+01  0.11249493284E+02  0.11780480475E+02  0.00000000000E+00 0. -1.
</event>
<event>
 7    1  0.1402367E-008  0.4614232E+02  0.7816164E-02  0.1320468E+00
        -11   -1    0    0    0    0  0.00000000000E+00  0.00000000000E+00  0.45593999997E+02  0.45594000000E+02  0.51100000000E-03 0.  1.
         11   -1    0    0    0    0 -0.00000000000E+00 -0.00000000000E+00 -0.45593999997E+02  0.45594000000E+02  0.51100000000E-03 0. -1.
    9900012    2    1    2    0    0 -0.21305919478E+02  0.33418923764E+02  0.21409036131E+02  0.46142317650E+02  0.99999989853E+01 0.  0.
         12    1    1    2    0    0  0.21305919478E+02 -0.33418923764E+02 -0.21409036131E+02  0.45045682350E+02  0.00000000000E+00 0. -1.
         11    1    3    3    0    0 -0.47941840185E+01  0.11425685648E+02  0.29350409726E+01  0.12733615304E+02  0.51100000000E-03 0. -1.
        -11    1    3    3    0    0 -0.15627615426E+02  0.18960627101E+02  0.15382485579E+02  0.28988766907E+02  0.51100000000E-03 0.  1.
         12    1    3    3    0    0 -0.88412003326E+00  0.30326110145E+01  0.30915095797E+01  0.44199354384E+01  0.00000000000E+00 0. -1.
</event>
<event>
 7    1  0.1402367E-008  0.4614232E+02  0.7816164E-02  0.1320468E+00
        -11   -1    0    0    0    0  0.00000000000E+00  0.00000000000E+00  0.45593999997E+02  0.45594000000E+02  0.51100000000E-03 0. -1.
         11   -1    0    0    0    0 -0.00000000000E+00 -0.00000000000E+00 -0.45593999997E+02  0.45594000000E+02  0.51100000000E-03 0.  1.
    9900012    2    1    2    0    0 -0.15541445075E+02  0.41101769304E+02  0.99106793314E+01  0.46142317413E+02  0.99999968217E+01 0.  0.
         12    1    1    2    0    0  0.15541445075E+02 -0.41101769304E+02 -0.99106793314E+01  0.45045682587E+02  0.00000000000E+00 0. -1.
         11    1    3    3    0    0 -0.39006792928E+01  0.45633222006E+01  0.11513202006E+01  0.61126710134E+01  0.51100000000E-03 0. -1.
        -11    1    3    3    0    0  0.44485655015E+00  0.72945981883E+01  0.49201666974E+00  0.73246939010E+01  0.51100000000E-03 0.  1.
        -12    1    3    3    0    0 -0.12085622332E+02  0.29243848915E+02  0.82673424611E+01  0.32704952498E+02  0.00000000000E+00 0.  1.
</event>
<event>
 7    1  0.1820558E-008  0.4614232E+02  0.7816164E-02  0.1320468E+00
        -11   -1    0    0    0    0  0.00000000000E+00  0.00000000000E+00  0.45593999997E+02  0.45594000000E+02  0.51100000000E-03 0. -1.
         11   -1    0    0    0    0 -0.00000000000E+00 -0.00000000000E+00 -0.45593999997E+02  0.45594000000E+02  0.51100000000E-03 0.  1.
    9900012    2    1    2    0    0  0.39128666128E+02 -0.17669094679E+02  0.13633197589E+02  0.46142317673E+02  0.99999992002E+01 0.  0.
         12    1    1    2    0    0 -0.39128666128E+02  0.17669094679E+02 -0.13633197589E+02  0.45045682327E+02  0.00000000000E+00 0. -1.
         11    1    3    3    0    0  0.33514172084E+01 -0.43110685453E+01  0.33015441808E+00  0.54704946310E+01  0.51100000000E-03 0. -1.
        -11    1    3    3    0    0  0.29974684394E+02 -0.10958577857E+02  0.12752732973E+02  0.34368653330E+02  0.51100000000E-03 0.  1.
        -12    1    3    3    0    0  0.58025645258E+01 -0.23994482767E+01  0.55031019819E+00  0.63031697123E+01  0.00000000000E+00 0.  1.
</event>
<event>
 7    1  0.1402367E-008  0.4614232E+02  0.7816164E-02  0.1320468E+00
        -11   -1    0    0    0    0  0.00000000000E+00  0.00000000000E+00  0.45593999997E+02  0.45594000000E+02  0.51100000000E-03 0. -1.
         11   -1    0    0    0    0 -0.00000000000E+00 -0.00000000000E+00 -0.45593999997E+02  0.45594000000E+02  0.51100000000E-03 0.  1.
    9900012    2    1    2    0    0 -0.14219876097E+02  0.37091772978E+02 -0.21239324876E+02  0.46142318519E+02  0.10000006909E+02 0.  0.
         12    1    1    2    0    0  0.14219876097E+02 -0.37091772978E+02  0.21239324876E+02  0.45045681481E+02  0.00000000000E+00 0. -1.
         11    1    3    3    0    0 -0.95834802408E+01  0.30474576827E+02 -0.14674386799E+02  0.35155092868E+02  0.51100000000E-03 0. -1.
        -11    1    3    3    0    0 -0.28792926005E+01  0.12564835133E+01 -0.19387199172E+01  0.36915730897E+01  0.51100000000E-03 0.  1.
         12    1    3    3    0    0 -0.17571032561E+01  0.53607126378E+01 -0.46262181597E+01  0.72956525616E+01  0.00000000000E+00 0. -1.
</event>
<event>
 7    1  0.1402367E-008  0.4614232E+02  0.7816164E-02  0.1320468E+00
        -11   -1    0    0    0    0  0.00000000000E+00  0.00000000000E+00  0.45593999997E+02  0.45594000000E+02  0.51100000000E-03 0.  1.
         11   -1    0    0    0    0 -0.00000000000E+00 -0.00000000000E+00 -0.45593999997E+02  0.45594000000E+02  0.51100000000E-03 0. -1.
    9900012    2    1    2    0    0  0.86469519669E+01 -0.37696248076E+01  0.44046946646E+02  0.46142319204E+02  0.10000013157E+02 0.  0.
         12    1    1    2    0    0 -0.86469519669E+01  0.37696248076E+01 -0.44046946646E+02  0.45045680796E+02  0.00000000000E+00 0. -1.
         11    1    3    3    0    0 -0.24924847788E+00  0.10572602063E+01  0.19741273616E+02  0.19771135734E+02  0.51100000000E-03 0. -1.
        -11    1    3    3    0    0  0.77682930335E+01 -0.43332400888E+01  0.22409572572E+02  0.24110418691E+02  0.51100000000E-03 0.  1.
         12    1    3    3    0    0  0.11279074113E+01 -0.49364492513E+00  0.18961004576E+01  0.22607647790E+01  0.00000000000E+00 0. -1.
</event>
<event>
 7    1  0.1402367E-008  0.4614232E+02  0.7816164E-02  0.1320468E+00
        -11   -1    0    0    0    0  0.00000000000E+00  0.00000000000E+00  0.45593999997E+02  0.45594000000E+02  0.51100000000E-03 0.  1.
         11   -1    0    0    0    0 -0.00000000000E+00 -0.00000000000E+00 -0.45593999997E+02  0.45594000000E+02  0.51100000000E-03 0. -1.
    9900012    2    1    2    0    0  0.18347455142E+02 -0.35411049216E+02  0.20941384043E+02  0.46142322267E+02  0.10000041093E+02 0.  0.
         12    1    1    2    0    0 -0.18347455142E+02  0.35411049216E+02 -0.20941384043E+02  0.45045677733E+02  0.00000000000E+00 0. -1.
         11    1    3    3    0    0  0.42455590768E+01 -0.31753510351E+01  0.23679339173E+01  0.58064393020E+01  0.51100000000E-03 0. -1.
        -11    1    3    3    0    0  0.89894400979E+01 -0.15480408624E+02  0.12338561229E+02  0.21741508179E+02  0.51100000000E-03 0.  1.
         12    1    3    3    0    0  0.51124559678E+01 -0.16755289557E+02  0.62348888968E+01  0.18594374787E+02  0.00000000000E+00 0. -1.
</event>
<event>
 7    1  0.1402367E-008  0.4614232E+02  0.7816164E-02  0.1320468E+00
        -11   -1    0    0    0    0  0.00000000000E+00  0.00000000000E+00  0.45593999997E+02  0.45594000000E+02  0.51100000000E-03 0.  1.
         11   -1    0    0    0    0 -0.00000000000E+00 -0.00000000000E+00 -0.45593999997E+02  0.45594000000E+02  0.51100000000E-03 0. -1.
    9900012    2    1    2    0    0 -0.12559664678E+02 -0.35429559977E+02  0.24821644953E+02  0.46142323680E+02  0.10000053974E+02 0.  0.
         12    1    1    2    0    0  0.12559664678E+02  0.35429559977E+02 -0.24821644953E+02  0.45045676320E+02  0.00000000000E+00 0. -1.
         11    1    3    3    0    0 -0.30968860955E+01 -0.36635683545E+01  0.35962856781E+00  0.48105893136E+01  0.51100000000E-03 0. -1.
        -11    1    3    3    0    0 -0.66583577106E+01 -0.21994042651E+02  0.14990661921E+02  0.27437047666E+02  0.51100000000E-03 0.  1.
         12    1    3    3    0    0 -0.28044208714E+01 -0.97719489716E+01  0.94713544642E+01  0.13894686701E+02  0.00000000000E+00 0. -1.
</event>
<event>
 7    1  0.1402367E-008  0.4614231E+02  0.7816164E-02  0.1320468E+00
        -11   -1    0    0    0    0  0.00000000000E+00  0.00000000000E+00  0.45593999997E+02  0.45594000000E+02  0.51100000000E-03 0. -1.
         11   -1    0    0    0    0 -0.00000000000E+00 -0.00000000000E+00 -0.45593999997E+02  0.45594000000E+02  0.51100000000E-03 0.  1.
    9900012    2    1    2    0    0  0.17850940289E+02 -0.40893341825E+02 -0.61800293522E+01  0.46142309445E+02  0.99999241671E+01 0.  0.
         12    1    1    2    0    0 -0.17850940289E+02  0.40893341825E+02  0.61800293522E+01  0.45045690555E+02  0.00000000000E+00 0. -1.
         11    1    3    3    0    0  0.30641264097E+00  0.44328839792E+00 -0.61750327924E+00  0.81957542134E+00  0.51100000000E-03 0. -1.
        -11    1    3    3    0    0  0.16873252651E+02 -0.39191451247E+02 -0.58028857569E+01  0.43062164242E+02  0.51100000000E-03 0.  1.
        -12    1    3    3    0    0  0.67127499734E+00 -0.21451789760E+01  0.24035968403E+00  0.22605697819E+01  0.00000000000E+00 0.  1.
</event>
<event>
 7    1  0.1402367E-008  0.4614232E+02  0.7816164E-02  0.1320468E+00
        -11   -1    0    0    0    0  0.00000000000E+00  0.00000000000E+00  0.45593999997E+02  0.45594000000E+02  0.51100000000E-03 0. -1.
         11   -1    0    0    0    0 -0.00000000000E+00 -0.00000000000E+00 -0.45593999997E+02  0.45594000000E+02  0.51100000000E-03 0.  1.
    9900012    2    1    2    0    0  0.20508652611E+02 -0.15924902732E+02 -0.36809048770E+02  0.46142318406E+02  0.10000005877E+02 0.  0.
         12    1    1    2    0    0 -0.20508652611E+02  0.15924902732E+02  0.36809048770E+02  0.45045681594E+02  0.00000000000E+00 0. -1.
         11    1    3    3    0    0  0.26380339439E+01 -0.11346459678E+00 -0.68364889436E+01  0.73286887396E+01  0.51100000000E-03 0. -1.
        -11    1    3    3    0    0  0.17537852844E+02 -0.14617896544E+02 -0.29832850719E+02  0.37566716173E+02  0.51100000000E-03 0.  1.
        -12    1    3    3    0    0  0.33276582333E+00 -0.11935415918E+01 -0.13970910729E+00  0.12469134930E+01  0.00000000000E+00 0.  1.
</event>
<event>
 7    1  0.1402367E-008  0.4614232E+02  0.7816164E-02  0.1320468E+00
        -11   -1    0    0    0    0  0.00000000000E+00  0.00000000000E+00  0.45593999997E+02  0.45594000000E+02  0.51100000000E-03 0.  1.
         11   -1    0    0    0    0 -0.00000000000E+00 -0.00000000000E+00 -0.45593999997E+02  0.45594000000E+02  0.51100000000E-03 0. -1.
    9900012    2    1    2    0    0  0.32340330409E+02 -0.31106634695E+02 -0.39489018989E+01  0.46142317419E+02  0.99999968776E+01 0.  0.
         12    1    1    2    0    0 -0.32340330409E+02  0.31106634695E+02  0.39489018989E+01  0.45045682581E+02  0.00000000000E+00 0. -1.
         11    1    3    3    0    0  0.19685204938E+01 -0.12381040105E+01  0.72761370997E+00  0.24366773375E+01  0.51100000000E-03 0. -1.
        -11    1    3    3    0    0  0.27876992729E+02 -0.24317675942E+02 -0.19703591718E+01  0.37045356016E+02  0.51100000000E-03 0.  1.
        -12    1    3    3    0    0  0.24948171861E+01 -0.55508547426E+01 -0.27061564371E+01  0.66602840650E+01  0.00000000000E+00 0.  1.
</event>
<event>
 7    1  0.1402367E-008  0.4614232E+02  0.7816164E-02  0.1320468E+00
        -11   -1    0    0    0    0  0.00000000000E+00  0.00000000000E+00  0.45593999997E+02  0.45594000000E+02  0.51100000000E-03 0.  1.
         11   -1    0    0    0    0 -0.00000000000E+00 -0.00000000000E+00 -0.45593999997E+02  0.45594000000E+02  0.51100000000E-03 0. -1.
    9900012    2    1    2    0    0 -0.68394819005E+01 -0.22235141273E+02  0.38573740841E+02  0.46142317604E+02  0.99999985684E+01 0.  0.
         12    1    1    2    0    0  0.68394819005E+01  0.22235141273E+02 -0.38573740841E+02  0.45045682396E+02  0.00000000000E+00 0. -1.
         11    1    3    3    0    0  0.13435079509E+01 -0.42190490482E+01  0.98930013361E+01  0.10838674466E+02  0.51100000000E-03 0. -1.
        -11    1    3    3    0    0 -0.51503097950E+01 -0.82162404969E+01  0.96290255561E+01  0.13665666186E+02  0.51100000000E-03 0.  1.
        -12    1    3    3    0    0 -0.30326800563E+01 -0.97998517274E+01  0.19051713948E+02  0.21637976952E+02  0.00000000000E+00 0.  1.
</event>
<event>
 7    1  0.1402367E-008  0.4614232E+02  0.7816164E-02  0.1320468E+00
        -11   -1    0    0    0    0  0.00000000000E+00  0.00000000000E+00  0.45593999997E+02  0.45594000000E+02  0.51100000000E-03 0.  1.
         11   -1    0    0    0    0 -0.00000000000E+00 -0.00000000000E+00 -0.45593999997E+02  0.45594000000E+02  0.51100000000E-03 0. -1.
    9900012    2    1    2    0    0 -0.34182418325E+02 -0.28218342898E+02 -0.80250149467E+01  0.46142318039E+02  0.10000002538E+02 0.  0.
         12    1    1    2    0    0  0.34182418325E+02  0.28218342898E+02  0.80250149467E+01  0.45045681961E+02  0.00000000000E+00 0. -1.
         11    1    3    3    0    0 -0.84650088518E+01 -0.97512744357E+01 -0.75150851660E+00  0.12934778440E+02  0.51100000000E-03 0. -1.
        -11    1    3    3    0    0 -0.24539201568E+02 -0.15058695933E+02 -0.63063444669E+01  0.29473831064E+02  0.51100000000E-03 0.  1.
        -12    1    3    3    0    0 -0.11782079048E+01 -0.34083725292E+01 -0.96716196316E+00  0.37337085355E+01  0.00000000000E+00 0.  1.
</event>
<event>
 7    1  0.1402367E-008  0.4614233E+02  0.7816164E-02  0.1320468E+00
        -11   -1    0    0    0    0  0.00000000000E+00  0.00000000000E+00  0.45593999997E+02  0.45594000000E+02  0.51100000000E-03 0.  1.
         11   -1    0    0    0    0 -0.00000000000E+00 -0.00000000000E+00 -0.45593999997E+02  0.45594000000E+02  0.51100000000E-03 0. -1.
    9900012    2    1    2    0    0 -0.46791935643E+01 -0.16836950860E+02  0.41517883685E+02  0.46142329483E+02  0.10000106885E+02 0.  0.
         12    1    1    2    0    0  0.46791935643E+01  0.16836950860E+02 -0.41517883685E+02  0.45045670517E+02  0.00000000000E+00 0. -1.
         11    1    3    3    0    0 -0.50457343340E+01 -0.14057832669E+02  0.38229058054E+02  0.41043184261E+02  0.51100000000E-03 0. -1.
        -11    1    3    3    0    0  0.15094733263E+01 -0.15241404971E+01  0.22518019019E+01  0.31100041872E+01  0.51100000000E-03 0.  1.
         12    1    3    3    0    0 -0.11429325565E+01 -0.12549776936E+01  0.10370237295E+01  0.19891410346E+01  0.00000000000E+00 0. -1.
</event>
<event>
 7    1  0.1402367E-008  0.4614232E+02  0.7816164E-02  0.1320468E+00
        -11   -1    0    0    0    0  0.00000000000E+00  0.00000000000E+00  0.45593999997E+02  0.45594000000E+02  0.51100000000E-03 0.  1.
         11   -1    0    0    0    0 -0.00000000000E+00 -0.00000000000E+00 -0.45593999997E+02  0.45594000000E+02  0.51100000000E-03 0. -1.
    9900012    2    1    2    0    0  0.95313138258E+01 -0.42769029221E+02  0.10444029061E+02  0.46142317113E+02  0.99999940897E+01 0.  0.
         12    1    1    2    0    0 -0.95313138258E+01  0.42769029221E+02 -0.10444029061E+02  0.45045682887E+02  0.00000000000E+00 0. -1.
         11    1    3    3    0    0  0.64223701118E+01 -0.12700984425E+02  0.33627164490E+00  0.14236394280E+02  0.51100000000E-03 0. -1.
        -11    1    3    3    0    0  0.28051307099E+01 -0.21697122210E+02  0.69715997823E+01  0.22961643545E+02  0.51100000000E-03 0.  1.
        -12    1    3    3    0    0  0.30381300409E+00 -0.83709225858E+01  0.31361576340E+01  0.89442792882E+01  0.00000000000E+00 0.  1.
</event>
<event>
 7    1  0.1402367E-008  0.4614232E+02  0.7816164E-02  0.1320468E+00
        -11   -1    0    0    0    0  0.00000000000E+00  0.00000000000E+00  0.45593999997E+02  0.45594000000E+02  0.51100000000E-03 0.  1.
         11   -1    0    0    0    0 -0.00000000000E+00 -0.00000000000E+00 -0.45593999997E+02  0.45594000000E+02  0.51100000000E-03 0. -1.
    9900012    2    1    2    0    0 -0.17186785605E+02  0.17597184362E+02  0.37736812690E+02  0.46142317311E+02  0.99999958982E+01 0.  0.
         12    1    1    2    0    0  0.17186785605E+02 -0.17597184362E+02 -0.37736812690E+02  0.45045682689E+02  0.00000000000E+00 0. -1.
         11    1    3    3    0    0 -0.12522126449E+01 -0.42468605213E-01  0.25445538350E+01  0.28362994501E+01  0.51100000000E-03 0. -1.
        -11    1    3    3    0    0 -0.19484498502E+01  0.55228249033E+01  0.41897825205E+01  0.72008561686E+01  0.51100000000E-03 0.  1.
        -12    1    3    3    0    0 -0.13986123110E+02  0.12116828063E+02  0.31002476335E+02  0.36105161693E+02  0.00000000000E+00 0.  1.
</event>
<event>
 7    1  0.1402367E-008  0.4614232E+02  0.7816164E-02  0.1320468E+00
        -11   -1    0    0    0    0  0.00000000000E+00  0.00000000000E+00  0.45593999997E+02  0.45594000000E+02  0.51100000000E-03 0. -1.
         11   -1    0    0    0    0 -0.00000000000E+00 -0.00000000000E+00 -0.45593999997E+02  0.45594000000E+02  0.51100000000E-03 0.  1.
    9900012    2    1    2    0    0  0.40053780411E+02  0.17327376523E+01 -0.20537911538E+02  0.46142317461E+02  0.99999972656E+01 0.  0.
         12    1    1    2    0    0 -0.40053780411E+02 -0.17327376523E+01  0.20537911538E+02  0.45045682539E+02  0.00000000000E+00 0. -1.
         11    1    3    3    0    0  0.13510017611E+02 -0.14529722570E+01 -0.68093244990E+01  0.15198638249E+02  0.51100000000E-03 0. -1.
        -11    1    3    3    0    0  0.19083632787E+02  0.29323545874E+01 -0.60462161833E+01  0.20232164347E+02  0.51100000000E-03 0.  1.
         12    1    3    3    0    0  0.74601300141E+01  0.25335532187E+00 -0.76823708561E+01  0.10711514866E+02  0.00000000000E+00 0. -1.
</event>
<event>
 7    1  0.1402367E-008  0.4614232E+02  0.7816164E-02  0.1320468E+00
        -11   -1    0    0    0    0  0.00000000000E+00  0.00000000000E+00  0.45593999997E+02  0.45594000000E+02  0.51100000000E-03 0. -1.
         11   -1    0    0    0    0 -0.00000000000E+00 -0.00000000000E+00 -0.45593999997E+02  0.45594000000E+02  0.51100000000E-03 0.  1.
    9900012    2    1    2    0    0 -0.38209853811E+02  0.23524600744E+02  0.39640564100E+01  0.46142317503E+02  0.99999976488E+01 0.  0.
         12    1    1    2    0    0  0.38209853811E+02 -0.23524600744E+02 -0.39640564100E+01  0.45045682497E+02  0.00000000000E+00 0. -1.
         11    1    3    3    0    0 -0.30375237927E+02  0.16086105260E+02  0.35765558293E+01  0.34557338055E+02  0.51100000000E-03 0. -1.
        -11    1    3    3    0    0 -0.77137926030E+01  0.52542245313E+01  0.76695228394E+00  0.93647043635E+01  0.51100000000E-03 0.  1.
         12    1    3    3    0    0 -0.12082328023E+00  0.21842709521E+01 -0.37945170326E+00  0.22202750848E+01  0.00000000000E+00 0. -1.
</event>
<event>
 7    1  0.1402367E-008  0.4614232E+02  0.7816164E-02  0.1320468E+00
        -11   -1    0    0    0    0  0.00000000000E+00  0.00000000000E+00  0.45593999997E+02  0.45594000000E+02  0.51100000000E-03 0.  1.
         11   -1    0    0    0    0 -0.00000000000E+00 -0.00000000000E+00 -0.45593999997E+02  0.45594000000E+02  0.51100000000E-03 0. -1.
    9900012    2    1    2    0    0 -0.21959432574E+02 -0.10566092371E+02  0.37884753408E+02  0.46142317324E+02  0.99999960174E+01 0.  0.
         12    1    1    2    0    0  0.21959432574E+02  0.10566092371E+02 -0.37884753408E+02  0.45045682676E+02  0.00000000000E+00 0. -1.
         11    1    3    3    0    0 -0.10516060034E+02 -0.14719100745E+01  0.14216246195E+02  0.17744173524E+02  0.51100000000E-03 0. -1.
        -11    1    3    3    0    0 -0.97422227378E+01 -0.67649839308E+01  0.14209013140E+02  0.18508699741E+02  0.51100000000E-03 0.  1.
        -12    1    3    3    0    0 -0.17011498016E+01 -0.23291983657E+01  0.94594940732E+01  0.98894440589E+01  0.00000000000E+00 0.  1.
</event>
<event>
 7    1  0.1402367E-008  0.4614232E+02  0.7816164E-02  0.1320468E+00
        -11   -1    0    0    0    0  0.00000000000E+00  0.00000000000E+00  0.45593999997E+02  0.45594000000E+02  0.51100000000E-03 0.  1.
         11   -1    0    0    0    0 -0.00000000000E+00 -0.00000000000E+00 -0.45593999997E+02  0.45594000000E+02  0.51100000000E-03 0. -1.
    9900012    2    1    2    0    0 -0.41555811525E+02  0.96138053775E+01  0.14484573170E+02  0.46142316686E+02  0.99999901969E+01 0.  0.
         12    1    1    2    0    0  0.41555811525E+02 -0.96138053775E+01 -0.14484573170E+02  0.45045683314E+02  0.00000000000E+00 0. -1.
         11    1    3    3    0    0 -0.23065790905E+02  0.75083266121E+01  0.74917064307E+01  0.25387621868E+02  0.51100000000E-03 0. -1.
        -11    1    3    3    0    0 -0.36095848163E+01  0.29077862866E+01  0.14811729741E+01  0.48660247919E+01  0.51100000000E-03 0.  1.
        -12    1    3    3    0    0 -0.14880435803E+02 -0.80230752121E+00  0.55116937651E+01  0.15888670027E+02  0.00000000000E+00 0.  1.
</event>
<event>
 7    1  0.1402367E-008  0.4614232E+02  0.7816164E-02  0.1320468E+00
        -11   -1    0    0    0    0  0.00000000000E+00  0.00000000000E+00  0.45593999997E+02  0.45594000000E+02  0.51100000000E-03 0. -1.
         11   -1    0    0    0    0 -0.00000000000E+00 -0.00000000000E+00 -0.45593999997E+02  0.45594000000E+02  0.51100000000E-03 0.  1.
    9900012    2    1    2    0    0 -0.95562452399E+01  0.39049877285E+02 -0.20319910942E+02  0.46142317413E+02  0.99999968220E+01 0.  0.
         12    1    1    2    0    0  0.95562452399E+01 -0.39049877285E+02  0.20319910942E+02  0.45045682587E+02  0.00000000000E+00 0. -1.
         11    1    3    3    0    0 -0.69176625504E+01  0.17756215860E+02 -0.59358763774E+01  0.19959255634E+02  0.51100000000E-03 0. -1.
        -11    1    3    3    0    0  0.77921143622E+00  0.55392137421E+01 -0.51575026097E+01  0.76085407782E+01  0.51100000000E-03 0.  1.
        -12    1    3    3    0    0 -0.34177941257E+01  0.15754447683E+02 -0.92265319549E+01  0.18574521000E+02  0.00000000000E+00 0.  1.
</event>
<event>
 7    1  0.1402367E-008  0.4614232E+02  0.7816164E-02  0.1320468E+00
        -11   -1    0    0    0    0  0.00000000000E+00  0.00000000000E+00  0.45593999997E+02  0.45594000000E+02  0.51100000000E-03 0.  1.
         11   -1    0    0    0    0 -0.00000000000E+00 -0.00000000000E+00 -0.45593999997E+02  0.45594000000E+02  0.51100000000E-03 0. -1.
    9900012    2    1    2    0    0  0.20849707321E+02 -0.12697909390E+02  0.37857183324E+02  0.46142317327E+02  0.99999960397E+01 0.  0.
         12    1    1    2    0    0 -0.20849707321E+02  0.12697909390E+02 -0.37857183324E+02  0.45045682673E+02  0.00000000000E+00 0. -1.
         11    1    3    3    0    0  0.38590393708E+01 -0.61172535004E+01  0.67209856345E+01  0.98734301747E+01  0.51100000000E-03 0. -1.
        -11    1    3    3    0    0  0.90115565676E+01 -0.27473402316E+01  0.19420064349E+02  0.21584599364E+02  0.51100000000E-03 0.  1.
        -12    1    3    3    0    0  0.79791113822E+01 -0.38333156581E+01  0.11716133340E+02  0.14684287788E+02  0.00000000000E+00 0.  1.
</event>
<event>
 7    1  0.1402367E-008  0.4614232E+02  0.7816164E-02  0.1320468E+00
        -11   -1    0    0    0    0  0.00000000000E+00  0.00000000000E+00  0.45593999997E+02  0.45594000000E+02  0.51100000000E-03 0. -1.
         11   -1    0    0    0    0 -0.00000000000E+00 -0.00000000000E+00 -0.45593999997E+02  0.45594000000E+02  0.51100000000E-03 0.  1.
    9900012    2    1    2    0    0 -0.15961402753E+01  0.23175418300E+02 -0.38593597523E+02  0.46142318221E+02  0.10000004193E+02 0.  0.
         12    1    1    2    0    0  0.15961402753E+01 -0.23175418300E+02  0.38593597523E+02  0.45045681779E+02  0.00000000000E+00 0. -1.
         11    1    3    3    0    0  0.34332208393E-01  0.10172420870E+02 -0.90381669666E+01  0.13607637100E+02  0.51100000000E-03 0. -1.
        -11    1    3    3    0    0 -0.77907748270E+00  0.12654015974E+02 -0.27713080797E+02  0.30475333132E+02  0.51100000000E-03 0.  1.
         12    1    3    3    0    0 -0.85139500100E+00  0.34898145616E+00 -0.18423497592E+01  0.20593479890E+01  0.00000000000E+00 0. -1.
</event>
<event>
 7    1  0.1402367E-008  0.4614232E+02  0.7816164E-02  0.1320468E+00
        -11   -1    0    0    0    0  0.00000000000E+00  0.00000000000E+00  0.45593999997E+02  0.45594000000E+02  0.51100000000E-03 0.  1.
         11   -1    0    0    0    0 -0.00000000000E+00 -0.00000000000E+00 -0.45593999997E+02  0.45594000000E+02  0.51100000000E-03 0. -1.
    9900012    2    1    2    0    0 -0.28083980796E+02  0.33816167940E+02 -0.98422718817E+01  0.46142317551E+02  0.99999980850E+01 0.  0.
         12    1    1    2    0    0  0.28083980796E+02 -0.33816167940E+02  0.98422718817E+01  0.45045682449E+02  0.00000000000E+00 0. -1.
         11    1    3    3    0    0 -0.15288375202E+02  0.21890286723E+02 -0.64640838083E+01  0.27471866498E+02  0.51100000000E-03 0. -1.
        -11    1    3    3    0    0 -0.14164082069E+01  0.46868435913E+00 -0.19560525234E+01  0.24600851555E+01  0.51100000000E-03 0.  1.
        -12    1    3    3    0    0 -0.11379197388E+02  0.11457196857E+02 -0.14221355500E+01  0.16210365898E+02  0.00000000000E+00 0.  1.
</event>
<event>
 7    1  0.1402367E-008  0.4614231E+02  0.7816164E-02  0.1320468E+00
        -11   -1    0    0    0    0  0.00000000000E+00  0.00000000000E+00  0.45593999997E+02  0.45594000000E+02  0.51100000000E-03 0.  1.
         11   -1    0    0    0    0 -0.00000000000E+00 -0.00000000000E+00 -0.45593999997E+02  0.45594000000E+02  0.51100000000E-03 0. -1.
    9900012    2    1    2    0    0 -0.35976979758E+02 -0.27104862029E+02 -0.31199390115E+00  0.46142312545E+02  0.99999524310E+01 0.  0.
         12    1    1    2    0    0  0.35976979758E+02  0.27104862029E+02  0.31199390115E+00  0.45045687455E+02  0.00000000000E+00 0. -1.
         11    1    3    3    0    0 -0.81341942906E+01 -0.70763006928E+01  0.10366304921E-01  0.10781431073E+02  0.51100000000E-03 0. -1.
        -11    1    3    3    0    0 -0.16102430551E+02 -0.78488780026E+01 -0.32114431777E+01  0.18199080282E+02  0.51100000000E-03 0.  1.
        -12    1    3    3    0    0 -0.11740354916E+02 -0.12179683334E+02  0.28890829716E+01  0.17161801190E+02  0.00000000000E+00 0.  1.
</event>
<event>
 7    1  0.1402367E-008  0.4614232E+02  0.7816164E-02  0.1320468E+00
        -11   -1    0    0    0    0  0.00000000000E+00  0.00000000000E+00  0.45593999997E+02  0.45594000000E+02  0.51100000000E-03 0.  1.
         11   -1    0    0    0    0 -0.00000000000E+00 -0.00000000000E+00 -0.45593999997E+02  0.45594000000E+02  0.51100000000E-03 0. -1.
    9900012    2    1    2    0    0 -0.21176199866E+02 -0.33678318402E+02  0.21129433998E+02  0.46142317053E+02  0.99999935413E+01 0.  0.
         12    1    1    2    0    0  0.21176199866E+02  0.33678318402E+02 -0.21129433998E+02  0.45045682947E+02  0.00000000000E+00 0. -1.
         11    1    3    3    0    0 -0.13064157791E+01 -0.81828203029E+00  0.18318603064E+01  0.23941637605E+01  0.51100000000E-03 0. -1.
        -11    1    3    3    0    0 -0.52830270382E+00 -0.21135815601E+01 -0.69354530384E+00  0.22863368316E+01  0.51100000000E-03 0.  1.
        -12    1    3    3    0    0 -0.19341481383E+02 -0.30746454811E+02  0.19991118995E+02  0.41461816461E+02  0.00000000000E+00 0.  1.
</event>
<event>
 7    1  0.1402367E-008  0.4614232E+02  0.7816164E-02  0.1320468E+00
        -11   -1    0    0    0    0  0.00000000000E+00  0.00000000000E+00  0.45593999997E+02  0.45594000000E+02  0.51100000000E-03 0.  1.
         11   -1    0    0    0    0 -0.00000000000E+00 -0.00000000000E+00 -0.45593999997E+02  0.45594000000E+02  0.51100000000E-03 0. -1.
    9900012    2    1    2    0    0  0.18907821905E+02 -0.36512613211E+02  0.18396653382E+02  0.46142317540E+02  0.99999979800E+01 0.  0.
         12    1    1    2    0    0 -0.18907821905E+02  0.36512613211E+02 -0.18396653382E+02  0.45045682460E+02  0.00000000000E+00 0. -1.
         11    1    3    3    0    0  0.14255683495E+01 -0.31980659255E+00  0.59478251999E+00  0.15774307855E+01  0.51100000000E-03 0. -1.
        -11    1    3    3    0    0  0.47581571502E+01 -0.11100661452E+02  0.90801563064E+01  0.15110062308E+02  0.51100000000E-03 0.  1.
        -12    1    3    3    0    0  0.12724096405E+02 -0.25092145166E+02  0.87217145557E+01  0.29454824446E+02  0.00000000000E+00 0.  1.
</event>
<event>
 7    1  0.1402367E-008  0.4614232E+02  0.7816164E-02  0.1320468E+00
        -11   -1    0    0    0    0  0.00000000000E+00  0.00000000000E+00  0.45593999997E+02  0.45594000000E+02  0.51100000000E-03 0.  1.
         11   -1    0    0    0    0 -0.00000000000E+00 -0.00000000000E+00 -0.45593999997E+02  0.45594000000E+02  0.51100000000E-03 0. -1.
    9900012    2    1    2    0    0  0.23972266085E+02  0.36075622151E+02  0.12369054434E+02  0.46142316939E+02  0.99999924991E+01 0.  0.
         12    1    1    2    0    0 -0.23972266085E+02 -0.36075622151E+02 -0.12369054434E+02  0.45045683061E+02  0.00000000000E+00 0. -1.
         11    1    3    3    0    0  0.53509155687E+01  0.70573122094E+01 -0.40951119725E+00  0.88659828968E+01  0.51100000000E-03 0. -1.
        -11    1    3    3    0    0  0.16597834099E+02  0.21441274050E+02  0.10811427996E+02  0.29190808575E+02  0.51100000000E-03 0.  1.
         12    1    3    3    0    0  0.20235164173E+01  0.75770358918E+01  0.19671376354E+01  0.80855254667E+01  0.00000000000E+00 0. -1.
</event>
<event>
 7    1  0.1402367E-008  0.4614232E+02  0.7816164E-02  0.1320468E+00
        -11   -1    0    0    0    0  0.00000000000E+00  0.00000000000E+00  0.45593999997E+02  0.45594000000E+02  0.51100000000E-03 0.  1.
         11   -1    0    0    0    0 -0.00000000000E+00 -0.00000000000E+00 -0.45593999997E+02  0.45594000000E+02  0.51100000000E-03 0. -1.
    9900012    2    1    2    0    0  0.27790899240E+02 -0.33570628410E+01  0.35291777656E+02  0.46142317392E+02  0.99999966385E+01 0.  0.
         12    1    1    2    0    0 -0.27790899240E+02  0.33570628410E+01 -0.35291777656E+02  0.45045682608E+02  0.00000000000E+00 0. -1.
         11    1    3    3    0    0  0.11037884478E+02 -0.35347079000E+01  0.18487666760E+02  0.21820240058E+02  0.51100000000E-03 0. -1.
        -11    1    3    3    0    0  0.47792157180E+01 -0.18784843627E+01  0.30582651982E+01  0.59768380155E+01  0.51100000000E-03 0.  1.
        -12    1    3    3    0    0  0.11973799044E+02  0.20561294217E+01  0.13745845698E+02  0.18345239319E+02  0.00000000000E+00 0.  1.
</event>
<event>
 7    1  0.1402367E-008  0.4614232E+02  0.7816164E-02  0.1320468E+00
        -11   -1    0    0    0    0  0.00000000000E+00  0.00000000000E+00  0.45593999997E+02  0.45594000000E+02  0.51100000000E-03 0.  1.
         11   -1    0    0    0    0 -0.00000000000E+00 -0.00000000000E+00 -0.45593999997E+02  0.45594000000E+02  0.51100000000E-03 0. -1.
    9900012    2    1    2    0    0 -0.11531253535E+02  0.36224485077E+02  0.24164654767E+02  0.46142315776E+02  0.99999818957E+01 0.  0.
         12    1    1    2    0    0  0.11531253535E+02 -0.36224485077E+02 -0.24164654767E+02  0.45045684224E+02  0.00000000000E+00 0. -1.
         11    1    3    3    0    0 -0.24214567285E+01  0.19320065790E+02  0.83648190829E+01  0.21191946427E+02  0.51100000000E-03 0. -1.
        -11    1    3    3    0    0 -0.55278418048E+01  0.85405404178E+01  0.91223436915E+01  0.13664370470E+02  0.51100000000E-03 0.  1.
        -12    1    3    3    0    0 -0.35819550013E+01  0.83638788694E+01  0.66774919930E+01  0.11285998879E+02  0.00000000000E+00 0.  1.
</event>
<event>
 7    1  0.1402367E-008  0.4614231E+02  0.7816164E-02  0.1320468E+00
        -11   -1    0    0    0    0  0.00000000000E+00  0.00000000000E+00  0.45593999997E+02  0.45594000000E+02  0.51100000000E-03 0. -1.
         11   -1    0    0    0    0 -0.00000000000E+00 -0.00000000000E+00 -0.45593999997E+02  0.45594000000E+02  0.51100000000E-03 0.  1.
    9900012    2    1    2    0    0  0.40931849467E+02  0.14080139336E+02  0.12467848845E+02  0.46142313421E+02  0.99999604231E+01 0.  0.
         12    1    1    2    0    0 -0.40931849467E+02 -0.14080139336E+02 -0.12467848845E+02  0.45045686579E+02  0.00000000000E+00 0. -1.
         11    1    3    3    0    0  0.10891907716E+02  0.32971232740E+00  0.39373306455E+01  0.11586411730E+02  0.51100000000E-03 0. -1.
        -11    1    3    3    0    0  0.17541968997E+02  0.57344346411E+01  0.65166657779E+01  0.19572208615E+02  0.51100000000E-03 0.  1.
         12    1    3    3    0    0  0.12497972755E+02  0.80159923678E+01  0.20138524216E+01  0.14983693076E+02  0.00000000000E+00 0. -1.
</event>
<event>
 7    1  0.1402367E-008  0.4614232E+02  0.7816164E-02  0.1320468E+00
        -11   -1    0    0    0    0  0.00000000000E+00  0.00000000000E+00  0.45593999997E+02  0.45594000000E+02  0.51100000000E-03 0. -1.
         11   -1    0    0    0    0 -0.00000000000E+00 -0.00000000000E+00 -0.45593999997E+02  0.45594000000E+02  0.51100000000E-03 0.  1.
    9900012    2    1    2    0    0 -0.19483974521E+02 -0.40109496097E+02 -0.63809532107E+01  0.46142317585E+02  0.99999983970E+01 0.  0.
         12    1    1    2    0    0  0.19483974521E+02  0.40109496097E+02  0.63809532107E+01  0.45045682415E+02  0.00000000000E+00 0. -1.
         11    1    3    3    0    0 -0.24047993382E+01 -0.80151629443E+01 -0.42361794416E+01  0.93792917325E+01  0.51100000000E-03 0. -1.
        -11    1    3    3    0    0 -0.91105249336E+01 -0.12915602976E+02  0.58340131796E+00  0.15816283450E+02  0.51100000000E-03 0.  1.
        -12    1    3    3    0    0 -0.79686502494E+01 -0.19178730177E+02 -0.27281750871E+01  0.20946742403E+02  0.00000000000E+00 0.  1.
</event>
<event>
 7    1  0.1402367E-008  0.4614232E+02  0.7816164E-02  0.1320468E+00
        -11   -1    0    0    0    0  0.00000000000E+00  0.00000000000E+00  0.45593999997E+02  0.45594000000E+02  0.51100000000E-03 0. -1.
         11   -1    0    0    0    0 -0.00000000000E+00 -0.00000000000E+00 -0.45593999997E+02  0.45594000000E+02  0.51100000000E-03 0.  1.
    9900012    2    1    2    0    0 -0.19343008859E+02  0.20827441254E+02 -0.34945374171E+02  0.46142317889E+02  0.10000001163E+02 0.  0.
         12    1    1    2    0    0  0.19343008859E+02 -0.20827441254E+02  0.34945374171E+02  0.45045682111E+02  0.00000000000E+00 0. -1.
         11    1    3    3    0    0 -0.34934266288E+01  0.10049337620E+02 -0.11411755513E+02  0.15601967195E+02  0.51100000000E-03 0. -1.
        -11    1    3    3    0    0 -0.88838885173E+01  0.49862784545E+01 -0.14718015772E+02  0.17899900461E+02  0.51100000000E-03 0.  1.
         12    1    3    3    0    0 -0.69656937134E+01  0.57918251795E+01 -0.88156028865E+01  0.12640450232E+02  0.00000000000E+00 0. -1.
</event>
<event>
 7    1  0.1402367E-008  0.4614232E+02  0.7816164E-02  0.1320468E+00
        -11   -1    0    0    0    0  0.00000000000E+00  0.00000000000E+00  0.45593999997E+02  0.45594000000E+02  0.51100000000E-03 0. -1.
         11   -1    0    0    0    0 -0.00000000000E+00 -0.00000000000E+00 -0.45593999997E+02  0.45594000000E+02  0.51100000000E-03 0.  1.
    9900012    2    1    2    0    0  0.19254153813E+02 -0.20448222261E+02  0.35217339052E+02  0.46142320933E+02  0.10000028924E+02 0.  0.
         12    1    1    2    0    0 -0.19254153813E+02  0.20448222261E+02 -0.35217339052E+02  0.45045679067E+02  0.00000000000E+00 0. -1.
         11    1    3    3    0    0  0.87637288451E+01 -0.90974762321E+01  0.18377056356E+02  0.22299847929E+02  0.51100000000E-03 0.  1.
        -11    1    3    3    0    0  0.80411570471E+01 -0.37130164537E+01  0.88943426033E+01  0.12552132426E+02  0.51100000000E-03 0. -1.
         12    1    3    3    0    0  0.24492679213E+01 -0.76377295756E+01  0.79459400922E+01  0.11290340578E+02  0.00000000000E+00 0. -1.
</event>
<event>
 7    1  0.1402367E-008  0.4614232E+02  0.7816164E-02  0.1320468E+00
        -11   -1    0    0    0    0  0.00000000000E+00  0.00000000000E+00  0.45593999997E+02  0.45594000000E+02  0.51100000000E-03 0.  1.
         11   -1    0    0    0    0 -0.00000000000E+00 -0.00000000000E+00 -0.45593999997E+02  0.45594000000E+02  0.51100000000E-03 0. -1.
    9900012    2    1    2    0    0 -0.97072240077E+01 -0.29689310710E+02  0.32456557525E+02  0.46142317690E+02  0.99999993544E+01 0.  0.
         12    1    1    2    0    0  0.97072240077E+01  0.29689310710E+02 -0.32456557525E+02  0.45045682310E+02  0.00000000000E+00 0. -1.
         11    1    3    3    0    0 -0.19805111903E+01 -0.29060441067E+01  0.20134777986E+01  0.40523585764E+01  0.51100000000E-03 0. -1.
        -11    1    3    3    0    0 -0.32255600168E+01 -0.11319986071E+02  0.18936798779E+02  0.22296830949E+02  0.51100000000E-03 0.  1.
        -12    1    3    3    0    0 -0.45011528006E+01 -0.15463280531E+02  0.11506280947E+02  0.19793128165E+02  0.00000000000E+00 0.  1.
</event>
<event>
 7    1  0.1402367E-008  0.4614232E+02  0.7816164E-02  0.1320468E+00
        -11   -1    0    0    0    0  0.00000000000E+00  0.00000000000E+00  0.45593999997E+02  0.45594000000E+02  0.51100000000E-03 0.  1.
         11   -1    0    0    0    0 -0.00000000000E+00 -0.00000000000E+00 -0.45593999997E+02  0.45594000000E+02  0.51100000000E-03 0. -1.
    9900012    2    1    2    0    0 -0.35225363194E+02  0.16987640152E+02  0.22354135768E+02  0.46142317454E+02  0.99999972014E+01 0.  0.
         12    1    1    2    0    0  0.35225363194E+02 -0.16987640152E+02 -0.22354135768E+02  0.45045682546E+02  0.00000000000E+00 0. -1.
         11    1    3    3    0    0 -0.53223347317E+01  0.24761400661E+01 -0.32674043378E+00  0.58792241151E+01  0.51100000000E-03 0. -1.
        -11    1    3    3    0    0 -0.21921876249E+02  0.11211564666E+02  0.16400100555E+02  0.29584305619E+02  0.51100000000E-03 0.  1.
         12    1    3    3    0    0 -0.79811522133E+01  0.32999354205E+01  0.62807756472E+01  0.10678787720E+02  0.00000000000E+00 0. -1.
</event>
<event>
 7    1  0.1402367E-008  0.4614232E+02  0.7816164E-02  0.1320468E+00
        -11   -1    0    0    0    0  0.00000000000E+00  0.00000000000E+00  0.45593999997E+02  0.45594000000E+02  0.51100000000E-03 0. -1.
         11   -1    0    0    0    0 -0.00000000000E+00 -0.00000000000E+00 -0.45593999997E+02  0.45594000000E+02  0.51100000000E-03 0.  1.
    9900012    2    1    2    0    0  0.42438750555E+02  0.23009660798E+01 -0.14925534467E+02  0.46142316825E+02  0.99999914665E+01 0.  0.
         12    1    1    2    0    0 -0.42438750555E+02 -0.23009660798E+01  0.14925534467E+02  0.45045683175E+02  0.00000000000E+00 0. -1.
         11    1    3    3    0    0  0.86305499746E+01 -0.10270284934E+01 -0.66079263721E+01  0.10918144146E+02  0.51100000000E-03 0. -1.
        -11    1    3    3    0    0  0.22718465120E+02  0.31046681132E+01 -0.37761709143E+01  0.23238482923E+02  0.51100000000E-03 0.  1.
         12    1    3    3    0    0  0.11089735460E+02  0.22332645996E+00 -0.45414371806E+01  0.11985689757E+02  0.00000000000E+00 0. -1.
</event>
<event>
 7    1  0.1402367E-008  0.4614232E+02  0.7816164E-02  0.1320468E+00
        -11   -1    0    0    0    0  0.00000000000E+00  0.00000000000E+00  0.45593999997E+02  0.45594000000E+02  0.51100000000E-03 0.  1.
         11   -1    0    0    0    0 -0.00000000000E+00 -0.00000000000E+00 -0.45593999997E+02  0.45594000000E+02  0.51100000000E-03 0. -1.
    9900012    2    1    2    0    0 -0.44644950229E+02  0.58735072872E+01 -0.12016159774E+01  0.46142317080E+02  0.99999937851E+01 0.  0.
         12    1    1    2    0    0  0.44644950229E+02 -0.58735072872E+01  0.12016159774E+01  0.45045682920E+02  0.00000000000E+00 0. -1.
         11    1    3    3    0    0 -0.70621835798E+01 -0.29177398911E+00  0.20344535514E+01  0.73551730428E+01  0.51100000000E-03 0.  1.
        -11    1    3    3    0    0 -0.30256070885E+02  0.69398915351E+01 -0.43177725725E+01  0.31340629862E+02  0.51100000000E-03 0. -1.
         12    1    3    3    0    0 -0.73266957643E+01 -0.77461025880E+00  0.10817030436E+01  0.74465141744E+01  0.00000000000E+00 0. -1.
</event>
<event>
 7    1  0.1402367E-008  0.4614232E+02  0.7816164E-02  0.1320468E+00
        -11   -1    0    0    0    0  0.00000000000E+00  0.00000000000E+00  0.45593999997E+02  0.45594000000E+02  0.51100000000E-03 0.  1.
         11   -1    0    0    0    0 -0.00000000000E+00 -0.00000000000E+00 -0.45593999997E+02  0.45594000000E+02  0.51100000000E-03 0. -1.
    9900012    2    1    2    0    0  0.50238305579E+01 -0.30438339490E+01  0.44661053329E+02  0.46142317820E+02  0.10000000541E+02 0.  0.
         12    1    1    2    0    0 -0.50238305579E+01  0.30438339490E+01 -0.44661053329E+02  0.45045682180E+02  0.00000000000E+00 0. -1.
         11    1    3    3    0    0  0.34505326870E+01  0.24842314774E+01  0.11990363331E+02  0.12721886453E+02  0.51100000000E-03 0. -1.
        -11    1    3    3    0    0  0.60865809933E+00 -0.57773460693E+01  0.30249119030E+02  0.30801905698E+02  0.51100000000E-03 0.  1.
        -12    1    3    3    0    0  0.96463977160E+00  0.24928064291E+00  0.24215709677E+01  0.26185256690E+01  0.00000000000E+00 0.  1.
</event>
<event>
 7    1  0.1574701E-008  0.4614232E+02  0.7816164E-02  0.1320468E+00
        -11   -1    0    0    0    0  0.00000000000E+00  0.00000000000E+00  0.45593999997E+02  0.45594000000E+02  0.51100000000E-03 0. -1.
         11   -1    0    0    0    0 -0.00000000000E+00 -0.00000000000E+00 -0.45593999997E+02  0.45594000000E+02  0.51100000000E-03 0.  1.
    9900012    2    1    2    0    0 -0.23455427655E+02  0.37228031585E+00 -0.38455400494E+02  0.46142317563E+02  0.99999981933E+01 0.  0.
         12    1    1    2    0    0  0.23455427655E+02 -0.37228031585E+00  0.38455400494E+02  0.45045682437E+02  0.00000000000E+00 0. -1.
         11    1    3    3    0    0  0.25423171354E+00  0.54945779515E+00 -0.15665659577E+00  0.62536324079E+00  0.51100000000E-03 0. -1.
        -11    1    3    3    0    0 -0.19673403423E+02  0.22543100374E+01 -0.29386989484E+02  0.35436137870E+02  0.51100000000E-03 0.  1.
        -12    1    3    3    0    0 -0.40362559453E+01 -0.24314875167E+01 -0.89117544143E+01  0.10080816452E+02  0.00000000000E+00 0.  1.
</event>
<event>
 7    1  0.1634801E-008  0.4614232E+02  0.7816164E-02  0.1320468E+00
        -11   -1    0    0    0    0  0.00000000000E+00  0.00000000000E+00  0.45593999997E+02  0.45594000000E+02  0.51100000000E-03 0. -1.
         11   -1    0    0    0    0 -0.00000000000E+00 -0.00000000000E+00 -0.45593999997E+02  0.45594000000E+02  0.51100000000E-03 0.  1.
    9900012    2    1    2    0    0  0.13495030513E+00 -0.23558987859E+02 -0.38393611301E+02  0.46142317529E+02  0.99999978860E+01 0.  0.
         12    1    1    2    0    0 -0.13495030513E+00  0.23558987859E+02  0.38393611301E+02  0.45045682471E+02  0.00000000000E+00 0. -1.
         11    1    3    3    0    0 -0.36861508133E-01  0.19270863896E+00  0.16391384701E+00  0.25566266970E+00  0.51100000000E-03 0. -1.
        -11    1    3    3    0    0  0.24375734268E+01 -0.21394796641E+02 -0.34599642422E+02  0.40753089988E+02  0.51100000000E-03 0.  1.
        -12    1    3    3    0    0 -0.22657616135E+01 -0.23568998563E+01 -0.39578827259E+01  0.51335648719E+01  0.00000000000E+00 0.  1.
</event>
<event>
 7    1  0.1402367E-008  0.4614232E+02  0.7816164E-02  0.1320468E+00
        -11   -1    0    0    0    0  0.00000000000E+00  0.00000000000E+00  0.45593999997E+02  0.45594000000E+02  0.51100000000E-03 0. -1.
         11   -1    0    0    0    0 -0.00000000000E+00 -0.00000000000E+00 -0.45593999997E+02  0.45594000000E+02  0.51100000000E-03 0.  1.
    9900012    2    1    2    0    0 -0.26429378183E+02  0.44827495850E+01 -0.36200916675E+02  0.46142318264E+02  0.10000004582E+02 0.  0.
         12    1    1    2    0    0  0.26429378183E+02 -0.44827495850E+01  0.36200916675E+02  0.45045681736E+02  0.00000000000E+00 0. -1.
         11    1    3    3    0    0 -0.55810741035E+01 -0.58746254775E+00 -0.59926738059E+01  0.82100937875E+01  0.51100000000E-03 0. -1.
        -11    1    3    3    0    0 -0.10987547814E+01  0.11828875074E+01  0.21112200812E-01  0.16145993035E+01  0.51100000000E-03 0.  1.
        -12    1    3    3    0    0 -0.19749549298E+02  0.38873246253E+01 -0.30229355070E+02  0.36317625173E+02  0.00000000000E+00 0.  1.
</event>
<event>
 7    1  0.1402367E-008  0.4614232E+02  0.7816164E-02  0.1320468E+00
        -11   -1    0    0    0    0  0.00000000000E+00  0.00000000000E+00  0.45593999997E+02  0.45594000000E+02  0.51100000000E-03 0.  1.
         11   -1    0    0    0    0 -0.00000000000E+00 -0.00000000000E+00 -0.45593999997E+02  0.45594000000E+02  0.51100000000E-03 0. -1.
    9900012    2    1    2    0    0  0.23278019715E+02 -0.37053182756E+02  0.10691541121E+02  0.46142316459E+02  0.99999881229E+01 0.  0.
         12    1    1    2    0    0 -0.23278019715E+02  0.37053182756E+02 -0.10691541121E+02  0.45045683541E+02  0.00000000000E+00 0. -1.
         11    1    3    3    0    0  0.82099379936E+01 -0.18814117965E+02  0.50271135589E+01  0.21134000749E+02  0.51100000000E-03 0. -1.
        -11    1    3    3    0    0  0.81027755676E+01 -0.12056723114E+02  0.59324657180E+01  0.15691197975E+02  0.51100000000E-03 0.  1.
        -12    1    3    3    0    0  0.69653061539E+01 -0.61823416770E+01 -0.26803815619E+00  0.93171177347E+01  0.00000000000E+00 0.  1.
</event>
<event>
 7    1  0.1402367E-008  0.4614232E+02  0.7816164E-02  0.1320468E+00
        -11   -1    0    0    0    0  0.00000000000E+00  0.00000000000E+00  0.45593999997E+02  0.45594000000E+02  0.51100000000E-03 0.  1.
         11   -1    0    0    0    0 -0.00000000000E+00 -0.00000000000E+00 -0.45593999997E+02  0.45594000000E+02  0.51100000000E-03 0. -1.
    9900012    2    1    2    0    0 -0.32607987882E+02 -0.76241852323E+01  0.30128132693E+02  0.46142318145E+02  0.10000003505E+02 0.  0.
         12    1    1    2    0    0  0.32607987882E+02  0.76241852323E+01 -0.30128132693E+02  0.45045681855E+02  0.00000000000E+00 0. -1.
         11    1    3    3    0    0 -0.19019801041E+02 -0.36914400999E+01  0.19299243023E+02  0.27346669691E+02  0.51100000000E-03 0. -1.
        -11    1    3    3    0    0 -0.91253540968E+01 -0.25733424013E+01  0.10457333651E+02  0.14115594421E+02  0.51100000000E-03 0.  1.
         12    1    3    3    0    0 -0.44628327439E+01 -0.13594027310E+01  0.37155601953E+00  0.46800540339E+01  0.00000000000E+00 0. -1.
</event>
<event>
 7    1  0.1402367E-008  0.4614232E+02  0.7816164E-02  0.1320468E+00
        -11   -1    0    0    0    0  0.00000000000E+00  0.00000000000E+00  0.45593999997E+02  0.45594000000E+02  0.51100000000E-03 0.  1.
         11   -1    0    0    0    0 -0.00000000000E+00 -0.00000000000E+00 -0.45593999997E+02  0.45594000000E+02  0.51100000000E-03 0. -1.
    9900012    2    1    2    0    0  0.11158788712E+01 -0.38884455914E+02  0.22712715891E+02  0.46142316960E+02  0.99999926943E+01 0.  0.
         12    1    1    2    0    0 -0.11158788712E+01  0.38884455914E+02 -0.22712715891E+02  0.45045683040E+02  0.00000000000E+00 0. -1.
         11    1    3    3    0    0 -0.27032216692E+00 -0.27415503141E+01 -0.20980718274E+00  0.27628231058E+01  0.51100000000E-03 0. -1.
        -11    1    3    3    0    0  0.13599311850E+01 -0.84679105846E+01  0.23406515812E+01  0.88900828220E+01  0.51100000000E-03 0.  1.
         12    1    3    3    0    0  0.26269853138E-01 -0.27674995016E+02  0.20581871492E+02  0.34489411032E+02  0.00000000000E+00 0. -1.
</event>
<event>
 7    1  0.1402367E-008  0.4614232E+02  0.7816164E-02  0.1320468E+00
        -11   -1    0    0    0    0  0.00000000000E+00  0.00000000000E+00  0.45593999997E+02  0.45594000000E+02  0.51100000000E-03 0.  1.
         11   -1    0    0    0    0 -0.00000000000E+00 -0.00000000000E+00 -0.45593999997E+02  0.45594000000E+02  0.51100000000E-03 0. -1.
    9900012    2    1    2    0    0 -0.23665331348E+02  0.28522876231E+02  0.25602951372E+02  0.46142317684E+02  0.99999993007E+01 0.  0.
         12    1    1    2    0    0  0.23665331348E+02 -0.28522876231E+02 -0.25602951372E+02  0.45045682316E+02  0.00000000000E+00 0. -1.
         11    1    3    3    0    0 -0.59180702123E+00 -0.64388623297E+00  0.57415801153E+00  0.10461752792E+01  0.51100000000E-03 0. -1.
        -11    1    3    3    0    0 -0.19898077424E+02  0.27267246309E+02  0.21780817045E+02  0.40172629959E+02  0.51100000000E-03 0.  1.
        -12    1    3    3    0    0 -0.31754469033E+01  0.18995161551E+01  0.32479763163E+01  0.49235124465E+01  0.00000000000E+00 0.  1.
</event>
<event>
 7    1  0.1402367E-008  0.4614232E+02  0.7816164E-02  0.1320468E+00
        -11   -1    0    0    0    0  0.00000000000E+00  0.00000000000E+00  0.45593999997E+02  0.45594000000E+02  0.51100000000E-03 0. -1.
         11   -1    0    0    0    0 -0.00000000000E+00 -0.00000000000E+00 -0.45593999997E+02  0.45594000000E+02  0.51100000000E-03 0.  1.
    9900012    2    1    2    0    0 -0.13662986239E+01  0.15082079249E+02 -0.42423786195E+02  0.46142317393E+02  0.99999966468E+01 0.  0.
         12    1    1    2    0    0  0.13662986239E+01 -0.15082079249E+02  0.42423786195E+02  0.45045682607E+02  0.00000000000E+00 0. -1.
         11    1    3    3    0    0 -0.53615494078E+01  0.10804864563E+02 -0.25903852683E+02  0.28574479774E+02  0.51100000000E-03 0. -1.
        -11    1    3    3    0    0  0.30575715961E+01  0.29232849764E+01 -0.10330660695E+02  0.11163193530E+02  0.51100000000E-03 0.  1.
         12    1    3    3    0    0  0.93767918775E+00  0.13539297091E+01 -0.61892728170E+01  0.64046440900E+01  0.00000000000E+00 0. -1.
</event>
<event>
 7    1  0.1402367E-008  0.4614232E+02  0.7816164E-02  0.1320468E+00
        -11   -1    0    0    0    0  0.00000000000E+00  0.00000000000E+00  0.45593999997E+02  0.45594000000E+02  0.51100000000E-03 0.  1.
         11   -1    0    0    0    0 -0.00000000000E+00 -0.00000000000E+00 -0.45593999997E+02  0.45594000000E+02  0.51100000000E-03 0. -1.
    9900012    2    1    2    0    0 -0.12292911498E+02 -0.34934090206E+01  0.43194837068E+02  0.46142317310E+02  0.99999958824E+01 0.  0.
         12    1    1    2    0    0  0.12292911498E+02  0.34934090206E+01 -0.43194837068E+02  0.45045682690E+02  0.00000000000E+00 0. -1.
         11    1    3    3    0    0 -0.13083049028E+01 -0.34858529300E+01  0.15756261270E+02  0.16190200797E+02  0.51100000000E-03 0. -1.
        -11    1    3    3    0    0 -0.66436763038E+01  0.23229201509E+01  0.17404497942E+02  0.18773676830E+02  0.51100000000E-03 0.  1.
         12    1    3    3    0    0 -0.43409302914E+01 -0.23304762414E+01  0.10034077856E+02  0.11178439683E+02  0.00000000000E+00 0. -1.
</event>
<event>
 7    1  0.1402367E-008  0.4614232E+02  0.7816164E-02  0.1320468E+00
        -11   -1    0    0    0    0  0.00000000000E+00  0.00000000000E+00  0.45593999997E+02  0.45594000000E+02  0.51100000000E-03 0.  1.
         11   -1    0    0    0    0 -0.00000000000E+00 -0.00000000000E+00 -0.45593999997E+02  0.45594000000E+02  0.51100000000E-03 0. -1.
    9900012    2    1    2    0    0 -0.10746938719E+02  0.18790767537E+02 -0.39503465383E+02  0.46142318590E+02  0.10000007558E+02 0.  0.
         12    1    1    2    0    0  0.10746938719E+02 -0.18790767537E+02  0.39503465383E+02  0.45045681410E+02  0.00000000000E+00 0. -1.
         11    1    3    3    0    0 -0.61814163348E+01  0.65146958513E+01 -0.10821153696E+02  0.14062309110E+02  0.51100000000E-03 0. -1.
        -11    1    3    3    0    0 -0.99386576010E+00  0.96896618271E+01 -0.16995248601E+02  0.19588664853E+02  0.51100000000E-03 0.  1.
        -12    1    3    3    0    0 -0.35716566242E+01  0.25864098583E+01 -0.11687063086E+02  0.12491344626E+02  0.00000000000E+00 0.  1.
</event>
<event>
 7    1  0.1402367E-008  0.4614231E+02  0.7816164E-02  0.1320468E+00
        -11   -1    0    0    0    0  0.00000000000E+00  0.00000000000E+00  0.45593999997E+02  0.45594000000E+02  0.51100000000E-03 0.  1.
         11   -1    0    0    0    0 -0.00000000000E+00 -0.00000000000E+00 -0.45593999997E+02  0.45594000000E+02  0.51100000000E-03 0. -1.
    9900012    2    1    2    0    0  0.33451944263E+02 -0.27103950913E+02  0.13246028744E+02  0.46142311998E+02  0.99999474500E+01 0.  0.
         12    1    1    2    0    0 -0.33451944263E+02  0.27103950913E+02 -0.13246028744E+02  0.45045688002E+02  0.00000000000E+00 0. -1.
         11    1    3    3    0    0  0.16016826963E+02 -0.10824042196E+02  0.81819614265E+01  0.20991501339E+02  0.51100000000E-03 0. -1.
        -11    1    3    3    0    0  0.17446916678E+02 -0.14133872436E+02  0.42308161188E+01  0.22848655473E+02  0.51100000000E-03 0.  1.
         12    1    3    3    0    0 -0.11799378205E-01 -0.21460362803E+01  0.83325119899E+00  0.23021551864E+01  0.00000000000E+00 0. -1.
</event>
<event>
 7    1  0.1402367E-008  0.4614232E+02  0.7816164E-02  0.1320468E+00
        -11   -1    0    0    0    0  0.00000000000E+00  0.00000000000E+00  0.45593999997E+02  0.45594000000E+02  0.51100000000E-03 0.  1.
         11   -1    0    0    0    0 -0.00000000000E+00 -0.00000000000E+00 -0.45593999997E+02  0.45594000000E+02  0.51100000000E-03 0. -1.
    9900012    2    1    2    0    0 -0.29977800234E+02  0.32951144860E+02  0.66833357068E+01  0.46142318402E+02  0.10000005842E+02 0.  0.
         12    1    1    2    0    0  0.29977800234E+02 -0.32951144860E+02 -0.66833357068E+01  0.45045681598E+02  0.00000000000E+00 0. -1.
         11    1    3    3    0    0 -0.20448664215E+02  0.16436799694E+02  0.31087043813E+01  0.26419316712E+02  0.51100000000E-03 0. -1.
        -11    1    3    3    0    0 -0.86186204406E+01  0.12615334721E+02  0.36892892160E+01  0.15717447108E+02  0.51100000000E-03 0.  1.
         12    1    3    3    0    0 -0.91051557916E+00  0.38990104455E+01 -0.11465789047E+00  0.40055545816E+01  0.00000000000E+00 0. -1.
</event>
<event>
 7    1  0.1402367E-008  0.4614232E+02  0.7816164E-02  0.1320468E+00
        -11   -1    0    0    0    0  0.00000000000E+00  0.00000000000E+00  0.45593999997E+02  0.45594000000E+02  0.51100000000E-03 0. -1.
         11   -1    0    0    0    0 -0.00000000000E+00 -0.00000000000E+00 -0.45593999997E+02  0.45594000000E+02  0.51100000000E-03 0.  1.
    9900012    2    1    2    0    0 -0.29120218881E+02  0.19526316225E+02 -0.28281603105E+02  0.46142320439E+02  0.10000024418E+02 0.  0.
         12    1    1    2    0    0  0.29120218881E+02 -0.19526316225E+02  0.28281603105E+02  0.45045679561E+02  0.00000000000E+00 0. -1.
         11    1    3    3    0    0 -0.31449487836E+01  0.50021112155E+01 -0.26301988901E+01  0.64675935189E+01  0.51100000000E-03 0. -1.
        -11    1    3    3    0    0 -0.18536420197E+02  0.96778123973E+01 -0.14621957448E+02  0.25515888508E+02  0.51100000000E-03 0.  1.
         12    1    3    3    0    0 -0.74388499002E+01  0.48463926120E+01 -0.11029446767E+02  0.14158838412E+02  0.00000000000E+00 0. -1.
</event>
<event>
 7    1  0.1402367E-008  0.4614232E+02  0.7816164E-02  0.1320468E+00
        -11   -1    0    0    0    0  0.00000000000E+00  0.00000000000E+00  0.45593999997E+02  0.45594000000E+02  0.51100000000E-03 0. -1.
         11   -1    0    0    0    0 -0.00000000000E+00 -0.00000000000E+00 -0.45593999997E+02  0.45594000000E+02  0.51100000000E-03 0.  1.
    9900012    2    1    2    0    0 -0.21550582544E+02  0.34204057569E+02 -0.19868779970E+02  0.46142316748E+02  0.99999907588E+01 0.  0.
         12    1    1    2    0    0  0.21550582544E+02 -0.34204057569E+02  0.19868779970E+02  0.45045683252E+02  0.00000000000E+00 0. -1.
         11    1    3    3    0    0 -0.13179376700E+01 -0.17460540793E+00  0.31209678068E+00  0.13655956254E+01  0.51100000000E-03 0. -1.
        -11    1    3    3    0    0 -0.14420608588E+02  0.24100497883E+02 -0.12914291366E+02  0.30912244693E+02  0.51100000000E-03 0.  1.
        -12    1    3    3    0    0 -0.58120362865E+01  0.10278165094E+02 -0.72665853841E+01  0.13864476429E+02  0.00000000000E+00 0.  1.
</event>
<event>
 7    1  0.1402367E-008  0.4614232E+02  0.7816164E-02  0.1320468E+00
        -11   -1    0    0    0    0  0.00000000000E+00  0.00000000000E+00  0.45593999997E+02  0.45594000000E+02  0.51100000000E-03 0.  1.
         11   -1    0    0    0    0 -0.00000000000E+00 -0.00000000000E+00 -0.45593999997E+02  0.45594000000E+02  0.51100000000E-03 0. -1.
    9900012    2    1    2    0    0  0.18927656991E+02 -0.10599173228E+02  0.39478029514E+02  0.46142317781E+02  0.10000000182E+02 0.  0.
         12    1    1    2    0    0 -0.18927656991E+02  0.10599173228E+02 -0.39478029514E+02  0.45045682219E+02  0.00000000000E+00 0. -1.
         11    1    3    3    0    0  0.22622555192E+01 -0.54810470141E+01  0.14363480846E+02  0.15539281151E+02  0.51100000000E-03 0. -1.
        -11    1    3    3    0    0  0.74385389802E+01 -0.29403050016E+01  0.11963853601E+02  0.14391353269E+02  0.51100000000E-03 0.  1.
         12    1    3    3    0    0  0.92268624918E+01 -0.21778212122E+01  0.13150695066E+02  0.16211683361E+02  0.00000000000E+00 0. -1.
</event>
<event>
 7    1  0.1402367E-008  0.4614232E+02  0.7816164E-02  0.1320468E+00
        -11   -1    0    0    0    0  0.00000000000E+00  0.00000000000E+00  0.45593999997E+02  0.45594000000E+02  0.51100000000E-03 0. -1.
         11   -1    0    0    0    0 -0.00000000000E+00 -0.00000000000E+00 -0.45593999997E+02  0.45594000000E+02  0.51100000000E-03 0.  1.
    9900012    2    1    2    0    0  0.19873628431E+02 -0.37705459922E+02 -0.14575690871E+02  0.46142316751E+02  0.99999907911E+01 0.  0.
         12    1    1    2    0    0 -0.19873628431E+02  0.37705459922E+02  0.14575690871E+02  0.45045683249E+02  0.00000000000E+00 0. -1.
         11    1    3    3    0    0  0.23672405506E+01 -0.60174542638E+01  0.75378725167E-01  0.64667817231E+01  0.51100000000E-03 0. -1.
        -11    1    3    3    0    0  0.13361907390E+02 -0.28452054769E+02 -0.11122720666E+02  0.33343288754E+02  0.51100000000E-03 0.  1.
        -12    1    3    3    0    0  0.41444804910E+01 -0.32359508893E+01 -0.35283489301E+01  0.63322462737E+01  0.00000000000E+00 0.  1.
</event>
<event>
 7    1  0.1402367E-008  0.4614232E+02  0.7816164E-02  0.1320468E+00
        -11   -1    0    0    0    0  0.00000000000E+00  0.00000000000E+00  0.45593999997E+02  0.45594000000E+02  0.51100000000E-03 0.  1.
         11   -1    0    0    0    0 -0.00000000000E+00 -0.00000000000E+00 -0.45593999997E+02  0.45594000000E+02  0.51100000000E-03 0. -1.
    9900012    2    1    2    0    0  0.26846927156E+02 -0.14080982446E+02  0.33317892041E+02  0.46142317694E+02  0.99999993882E+01 0.  0.
         12    1    1    2    0    0 -0.26846927156E+02  0.14080982446E+02 -0.33317892041E+02  0.45045682306E+02  0.00000000000E+00 0. -1.
         11    1    3    3    0    0  0.46017383576E+01 -0.62819801728E+01  0.66418225796E+01  0.10234895126E+02  0.51100000000E-03 0. -1.
        -11    1    3    3    0    0  0.12935927706E+02 -0.29082397753E+01  0.12220174972E+02  0.18031327206E+02  0.51100000000E-03 0.  1.
         12    1    3    3    0    0  0.93092610921E+01 -0.48907624980E+01  0.14455894489E+02  0.17876095361E+02  0.00000000000E+00 0. -1.
</event>
<event>
 7    1  0.1402367E-008  0.4614232E+02  0.7816164E-02  0.1320468E+00
        -11   -1    0    0    0    0  0.00000000000E+00  0.00000000000E+00  0.45593999997E+02  0.45594000000E+02  0.51100000000E-03 0.  1.
         11   -1    0    0    0    0 -0.00000000000E+00 -0.00000000000E+00 -0.45593999997E+02  0.45594000000E+02  0.51100000000E-03 0. -1.
    9900012    2    1    2    0    0 -0.38519905678E+01 -0.12421218070E+02  0.43127590155E+02  0.46142317384E+02  0.99999965650E+01 0.  0.
         12    1    1    2    0    0  0.38519905678E+01  0.12421218070E+02 -0.43127590155E+02  0.45045682616E+02  0.00000000000E+00 0. -1.
         11    1    3    3    0    0  0.15215099988E+01 -0.66751264574E+01  0.10763488772E+02  0.12756370828E+02  0.51100000000E-03 0. -1.
        -11    1    3    3    0    0 -0.37977323066E+01 -0.44654220437E+01  0.19482408814E+02  0.20345196439E+02  0.51100000000E-03 0.  1.
         12    1    3    3    0    0 -0.15757682601E+01 -0.12806695694E+01  0.12881692570E+02  0.13040750117E+02  0.00000000000E+00 0. -1.
</event>
<event>
 7    1  0.1402367E-008  0.4614232E+02  0.7816164E-02  0.1320468E+00
        -11   -1    0    0    0    0  0.00000000000E+00  0.00000000000E+00  0.45593999997E+02  0.45594000000E+02  0.51100000000E-03 0.  1.
         11   -1    0    0    0    0 -0.00000000000E+00 -0.00000000000E+00 -0.45593999997E+02  0.45594000000E+02  0.51100000000E-03 0. -1.
    9900012    2    1    2    0    0 -0.20483921830E+02  0.24182333727E+02  0.32011517028E+02  0.46142317183E+02  0.99999947268E+01 0.  0.
         12    1    1    2    0    0  0.20483921830E+02 -0.24182333727E+02 -0.32011517028E+02  0.45045682817E+02  0.00000000000E+00 0. -1.
         11    1    3    3    0    0 -0.95019378060E-01  0.43559785167E+01  0.31248226195E+01  0.53617249262E+01  0.51100000000E-03 0. -1.
        -11    1    3    3    0    0 -0.42990313754E+01  0.30558922275E+01  0.76921019892E+01  0.93267669289E+01  0.51100000000E-03 0.  1.
         12    1    3    3    0    0 -0.16089871076E+02  0.16770462983E+02  0.21194592419E+02  0.31453825328E+02  0.00000000000E+00 0. -1.
</event>
<event>
 7    1  0.1402367E-008  0.4614232E+02  0.7816164E-02  0.1320468E+00
        -11   -1    0    0    0    0  0.00000000000E+00  0.00000000000E+00  0.45593999997E+02  0.45594000000E+02  0.51100000000E-03 0. -1.
         11   -1    0    0    0    0 -0.00000000000E+00 -0.00000000000E+00 -0.45593999997E+02  0.45594000000E+02  0.51100000000E-03 0.  1.
    9900012    2    1    2    0    0 -0.24840448606E+02  0.34151186214E+02  0.15676804556E+02  0.46142316435E+02  0.99999879078E+01 0.  0.
         12    1    1    2    0    0  0.24840448606E+02 -0.34151186214E+02 -0.15676804556E+02  0.45045683565E+02  0.00000000000E+00 0. -1.
         11    1    3    3    0    0 -0.12943659109E+02  0.10455395192E+02  0.67184546983E+01  0.17944114176E+02  0.51100000000E-03 0. -1.
        -11    1    3    3    0    0 -0.39015170950E+01  0.10737545404E+02  0.49670479377E+01  0.12457458907E+02  0.51100000000E-03 0.  1.
        -12    1    3    3    0    0 -0.79952724020E+01  0.12958245617E+02  0.39913019196E+01  0.15740743352E+02  0.00000000000E+00 0.  1.
</event>
<event>
 7    1  0.1402367E-008  0.4614232E+02  0.7816164E-02  0.1320468E+00
        -11   -1    0    0    0    0  0.00000000000E+00  0.00000000000E+00  0.45593999997E+02  0.45594000000E+02  0.51100000000E-03 0. -1.
         11   -1    0    0    0    0 -0.00000000000E+00 -0.00000000000E+00 -0.45593999997E+02  0.45594000000E+02  0.51100000000E-03 0.  1.
    9900012    2    1    2    0    0  0.23712387520E+02  0.33186497049E+02 -0.19117860721E+02  0.46142317556E+02  0.99999981267E+01 0.  0.
         12    1    1    2    0    0 -0.23712387520E+02 -0.33186497049E+02  0.19117860721E+02  0.45045682444E+02  0.00000000000E+00 0. -1.
         11    1    3    3    0    0  0.16318409907E+01  0.10259285275E+01 -0.29567830365E+01  0.35295892889E+01  0.51100000000E-03 0. -1.
        -11    1    3    3    0    0  0.12442751611E+01  0.42879447023E+01 -0.64767512561E+00  0.45115600158E+01  0.51100000000E-03 0.  1.
         12    1    3    3    0    0  0.20836271369E+02  0.27872623820E+02 -0.15513402559E+02  0.38101168251E+02  0.00000000000E+00 0. -1.
</event>
<event>
 7    1  0.1402367E-008  0.4614232E+02  0.7816164E-02  0.1320468E+00
        -11   -1    0    0    0    0  0.00000000000E+00  0.00000000000E+00  0.45593999997E+02  0.45594000000E+02  0.51100000000E-03 0. -1.
         11   -1    0    0    0    0 -0.00000000000E+00 -0.00000000000E+00 -0.45593999997E+02  0.45594000000E+02  0.51100000000E-03 0.  1.
    9900012    2    1    2    0    0 -0.19306598556E+02 -0.66919542094E+01 -0.40144567819E+02  0.46142319582E+02  0.10000016603E+02 0.  0.
         12    1    1    2    0    0  0.19306598556E+02  0.66919542094E+01  0.40144567819E+02  0.45045680418E+02  0.00000000000E+00 0. -1.
         11    1    3    3    0    0 -0.12092429187E+02 -0.72705930192E+01 -0.23732845171E+02  0.27610438364E+02  0.51100000000E-03 0.  1.
        -11    1    3    3    0    0 -0.20680277674E+01  0.70712555421E+00 -0.10354814534E+02  0.10582955622E+02  0.51100000000E-03 0. -1.
        -12    1    3    3    0    0 -0.51461416010E+01 -0.12848674432E+00 -0.60569081147E+01  0.79489255960E+01  0.00000000000E+00 0.  1.
</event>
<event>
 7    1  0.1402367E-008  0.4614232E+02  0.7816164E-02  0.1320468E+00
        -11   -1    0    0    0    0  0.00000000000E+00  0.00000000000E+00  0.45593999997E+02  0.45594000000E+02  0.51100000000E-03 0. -1.
         11   -1    0    0    0    0 -0.00000000000E+00 -0.00000000000E+00 -0.45593999997E+02  0.45594000000E+02  0.51100000000E-03 0.  1.
    9900012    2    1    2    0    0  0.11792608157E+02  0.40813788429E+02 -0.14976066618E+02  0.46142317582E+02  0.99999983689E+01 0.  0.
         12    1    1    2    0    0 -0.11792608157E+02 -0.40813788429E+02  0.14976066618E+02  0.45045682418E+02  0.00000000000E+00 0. -1.
         11    1    3    3    0    0  0.28503254282E+01  0.10362690746E+02  0.68376992107E-01  0.10747762102E+02  0.51100000000E-03 0. -1.
        -11    1    3    3    0    0  0.76985838398E+01  0.23597880227E+02 -0.13517654184E+02  0.28264025178E+02  0.51100000000E-03 0.  1.
         12    1    3    3    0    0  0.12436988895E+01  0.68532174564E+01 -0.15267894269E+01  0.71305303019E+01  0.00000000000E+00 0. -1.
</event>
<event>
 7    1  0.1402367E-008  0.4614232E+02  0.7816164E-02  0.1320468E+00
        -11   -1    0    0    0    0  0.00000000000E+00  0.00000000000E+00  0.45593999997E+02  0.45594000000E+02  0.51100000000E-03 0.  1.
         11   -1    0    0    0    0 -0.00000000000E+00 -0.00000000000E+00 -0.45593999997E+02  0.45594000000E+02  0.51100000000E-03 0. -1.
    9900012    2    1    2    0    0  0.34009250407E+02 -0.15837386662E+02  0.24933143179E+02  0.46142316984E+02  0.99999929182E+01 0.  0.
         12    1    1    2    0    0 -0.34009250407E+02  0.15837386662E+02 -0.24933143179E+02  0.45045683016E+02  0.00000000000E+00 0. -1.
         11    1    3    3    0    0  0.59956219687E+01 -0.45863716748E+01  0.24324071935E+01  0.79308822301E+01  0.51100000000E-03 0. -1.
        -11    1    3    3    0    0  0.21487477651E+02 -0.11260521534E+02  0.18939314068E+02  0.30776755168E+02  0.51100000000E-03 0.  1.
         12    1    3    3    0    0  0.65261507882E+01  0.95065477155E-02  0.35614219172E+01  0.74346795868E+01  0.00000000000E+00 0. -1.
</event>
<event>
 7    1  0.1402367E-008  0.4614232E+02  0.7816164E-02  0.1320468E+00
        -11   -1    0    0    0    0  0.00000000000E+00  0.00000000000E+00  0.45593999997E+02  0.45594000000E+02  0.51100000000E-03 0.  1.
         11   -1    0    0    0    0 -0.00000000000E+00 -0.00000000000E+00 -0.45593999997E+02  0.45594000000E+02  0.51100000000E-03 0. -1.
    9900012    2    1    2    0    0 -0.24649243981E+02  0.16349701433E+02  0.33973747462E+02  0.46142317828E+02  0.10000000606E+02 0.  0.
         12    1    1    2    0    0  0.24649243981E+02 -0.16349701433E+02 -0.33973747462E+02  0.45045682172E+02  0.00000000000E+00 0. -1.
         11    1    3    3    0    0 -0.31831363003E+00  0.59932654510E-01  0.38802321516E+01  0.38937279439E+01  0.51100000000E-03 0. -1.
        -11    1    3    3    0    0 -0.20759096155E+02  0.13456259252E+02  0.22774778050E+02  0.33625905217E+02  0.51100000000E-03 0.  1.
         12    1    3    3    0    0 -0.35718341957E+01  0.28335095268E+01  0.73187372608E+01  0.86226846662E+01  0.00000000000E+00 0. -1.
</event>
<event>
 7    1  0.1402367E-008  0.4614233E+02  0.7816164E-02  0.1320468E+00
        -11   -1    0    0    0    0  0.00000000000E+00  0.00000000000E+00  0.45593999997E+02  0.45594000000E+02  0.51100000000E-03 0.  1.
         11   -1    0    0    0    0 -0.00000000000E+00 -0.00000000000E+00 -0.45593999997E+02  0.45594000000E+02  0.51100000000E-03 0. -1.
    9900012    2    1    2    0    0  0.30947431712E+02 -0.31843045036E+01  0.32576509504E+02  0.46142330994E+02  0.10000120667E+02 0.  0.
         12    1    1    2    0    0 -0.30947431712E+02  0.31843045036E+01 -0.32576509504E+02  0.45045669006E+02  0.00000000000E+00 0. -1.
         11    1    3    3    0    0  0.60285403309E+01  0.29925252310E+01  0.81978614796E+01  0.10606763827E+02  0.51100000000E-03 0. -1.
        -11    1    3    3    0    0  0.15514698978E+02 -0.23071060548E+01  0.14775728023E+02  0.21548799539E+02  0.51100000000E-03 0.  1.
        -12    1    3    3    0    0  0.94041924035E+01 -0.38697236797E+01  0.96029200014E+01  0.13986767628E+02  0.00000000000E+00 0.  1.
</event>
<event>
 7    1  0.1402367E-008  0.4614232E+02  0.7816164E-02  0.1320468E+00
        -11   -1    0    0    0    0  0.00000000000E+00  0.00000000000E+00  0.45593999997E+02  0.45594000000E+02  0.51100000000E-03 0. -1.
         11   -1    0    0    0    0 -0.00000000000E+00 -0.00000000000E+00 -0.45593999997E+02  0.45594000000E+02  0.51100000000E-03 0.  1.
    9900012    2    1    2    0    0  0.30125048471E+02  0.31847099666E+02 -0.10361326744E+02  0.46142318804E+02  0.10000009513E+02 0.  0.
         12    1    1    2    0    0 -0.30125048471E+02 -0.31847099666E+02  0.10361326744E+02  0.45045681196E+02  0.00000000000E+00 0. -1.
         11    1    3    3    0    0  0.11645069727E+01  0.30118437946E+01 -0.32377110634E+01  0.45727511111E+01  0.51100000000E-03 0. -1.
        -11    1    3    3    0    0  0.16680006887E+02  0.18273057771E+02 -0.48646954518E+01  0.25214926773E+02  0.51100000000E-03 0.  1.
        -12    1    3    3    0    0  0.12280534611E+02  0.10562198100E+02 -0.22589202288E+01  0.16354640920E+02  0.00000000000E+00 0.  1.
</event>
<event>
 7    1  0.1402367E-008  0.4614232E+02  0.7816164E-02  0.1320468E+00
        -11   -1    0    0    0    0  0.00000000000E+00  0.00000000000E+00  0.45593999997E+02  0.45594000000E+02  0.51100000000E-03 0.  1.
         11   -1    0    0    0    0 -0.00000000000E+00 -0.00000000000E+00 -0.45593999997E+02  0.45594000000E+02  0.51100000000E-03 0. -1.
    9900012    2    1    2    0    0  0.50317532844E+01  0.36379147941E+02  0.26083569715E+02  0.46142317021E+02  0.99999932495E+01 0.  0.
         12    1    1    2    0    0 -0.50317532844E+01 -0.36379147941E+02 -0.26083569715E+02  0.45045682979E+02  0.00000000000E+00 0. -1.
         11    1    3    3    0    0  0.14962399864E+01  0.89216804304E+00  0.33275812873E+01  0.37559945951E+01  0.51100000000E-03 0. -1.
        -11    1    3    3    0    0  0.27514976067E+01  0.30095490233E+02  0.18152755372E+02  0.35253819642E+02  0.51100000000E-03 0.  1.
        -12    1    3    3    0    0  0.78401569129E+00  0.53914896642E+01  0.46032330552E+01  0.71325027840E+01  0.00000000000E+00 0.  1.
</event>
<event>
 7    1  0.1402367E-008  0.4614232E+02  0.7816164E-02  0.1320468E+00
        -11   -1    0    0    0    0  0.00000000000E+00  0.00000000000E+00  0.45593999997E+02  0.45594000000E+02  0.51100000000E-03 0.  1.
         11   -1    0    0    0    0 -0.00000000000E+00 -0.00000000000E+00 -0.45593999997E+02  0.45594000000E+02  0.51100000000E-03 0. -1.
    9900012    2    1    2    0    0  0.37098252651E+02 -0.18732617125E+02 -0.17375908639E+02  0.46142317686E+02  0.99999993143E+01 0.  0.
         12    1    1    2    0    0 -0.37098252651E+02  0.18732617125E+02  0.17375908639E+02  0.45045682314E+02  0.00000000000E+00 0. -1.
         11    1    3    3    0    0  0.21466064125E+02 -0.55811041789E+01 -0.10872587624E+02  0.24701291359E+02  0.51100000000E-03 0. -1.
        -11    1    3    3    0    0  0.10885962500E+02 -0.89708197795E+01 -0.44990909532E+01  0.14806134091E+02  0.51100000000E-03 0.  1.
         12    1    3    3    0    0  0.47462260264E+01 -0.41806931662E+01 -0.20042300616E+01  0.66348922360E+01  0.00000000000E+00 0. -1.
</event>
<event>
 7    1  0.1402367E-008  0.4614232E+02  0.7816164E-02  0.1320468E+00
        -11   -1    0    0    0    0  0.00000000000E+00  0.00000000000E+00  0.45593999997E+02  0.45594000000E+02  0.51100000000E-03 0.  1.
         11   -1    0    0    0    0 -0.00000000000E+00 -0.00000000000E+00 -0.45593999997E+02  0.45594000000E+02  0.51100000000E-03 0. -1.
    9900012    2    1    2    0    0  0.27819632129E+02  0.26661020336E+02  0.23331769544E+02  0.46142318662E+02  0.10000008218E+02 0.  0.
         12    1    1    2    0    0 -0.27819632129E+02 -0.26661020336E+02 -0.23331769544E+02  0.45045681338E+02  0.00000000000E+00 0. -1.
         11    1    3    3    0    0  0.23581268049E+02  0.19808299569E+02  0.19749310866E+02  0.36585245859E+02  0.51100000000E-03 0. -1.
        -11    1    3    3    0    0  0.65057061579E+00  0.13843061652E+00  0.15363465304E+01  0.16741463748E+01  0.51100000000E-03 0.  1.
         12    1    3    3    0    0  0.35877934646E+01  0.67142901498E+01  0.20461121474E+01  0.78829264286E+01  0.00000000000E+00 0. -1.
</event>
<event>
 7    1  0.1402367E-008  0.4614232E+02  0.7816164E-02  0.1320468E+00
        -11   -1    0    0    0    0  0.00000000000E+00  0.00000000000E+00  0.45593999997E+02  0.45594000000E+02  0.51100000000E-03 0.  1.
         11   -1    0    0    0    0 -0.00000000000E+00 -0.00000000000E+00 -0.45593999997E+02  0.45594000000E+02  0.51100000000E-03 0. -1.
    9900012    2    1    2    0    0 -0.30951105840E+02 -0.35106279175E+01  0.32539482186E+02  0.46142319164E+02  0.10000012789E+02 0.  0.
         12    1    1    2    0    0  0.30951105840E+02  0.35106279175E+01 -0.32539482186E+02  0.45045680836E+02  0.00000000000E+00 0. -1.
         11    1    3    3    0    0 -0.14342406945E+02 -0.40791830211E+01  0.13823985323E+02  0.20333394738E+02  0.51100000000E-03 0. -1.
        -11    1    3    3    0    0 -0.16941284737E+02  0.38781962562E+00  0.16820488014E+02  0.23876481103E+02  0.51100000000E-03 0.  1.
         12    1    3    3    0    0  0.33258584204E+00  0.18073547801E+00  0.18950088493E+01  0.19324433224E+01  0.00000000000E+00 0. -1.
</event>
<event>
 7    1  0.1415421E-008  0.4614232E+02  0.7816164E-02  0.1320468E+00
        -11   -1    0    0    0    0  0.00000000000E+00  0.00000000000E+00  0.45593999997E+02  0.45594000000E+02  0.51100000000E-03 0.  1.
         11   -1    0    0    0    0 -0.00000000000E+00 -0.00000000000E+00 -0.45593999997E+02  0.45594000000E+02  0.51100000000E-03 0. -1.
    9900012    2    1    2    0    0 -0.56141827006E+01  0.32506404584E+02 -0.30674551865E+02  0.46142317427E+02  0.99999969540E+01 0.  0.
         12    1    1    2    0    0  0.56141827006E+01 -0.32506404584E+02  0.30674551865E+02  0.45045682573E+02  0.00000000000E+00 0. -1.
         11    1    3    3    0    0 -0.16215862517E+01  0.16183420452E+01 -0.28491974170E+01  0.36560223097E+01  0.51100000000E-03 0. -1.
        -11    1    3    3    0    0 -0.20589885446E+01  0.29803551010E+02 -0.26222137042E+02  0.39750365507E+02  0.51100000000E-03 0.  1.
        -12    1    3    3    0    0 -0.19336079043E+01  0.10845115289E+01 -0.16032174060E+01  0.27359296107E+01  0.00000000000E+00 0.  1.
</event>
<event>
 7    1  0.1402367E-008  0.4614232E+02  0.7816164E-02  0.1320468E+00
        -11   -1    0    0    0    0  0.00000000000E+00  0.00000000000E+00  0.45593999997E+02  0.45594000000E+02  0.51100000000E-03 0.  1.
         11   -1    0    0    0    0 -0.00000000000E+00 -0.00000000000E+00 -0.45593999997E+02  0.45594000000E+02  0.51100000000E-03 0. -1.
    9900012    2    1    2    0    0 -0.19264394204E+02 -0.39852549287E+02  0.83529035309E+01  0.46142316898E+02  0.99999921278E+01 0.  0.
         12    1    1    2    0    0  0.19264394204E+02  0.39852549287E+02 -0.83529035309E+01  0.45045683102E+02  0.00000000000E+00 0. -1.
         11    1    3    3    0    0 -0.10672635151E+02 -0.14026021614E+02  0.35468194267E+00  0.17628392522E+02  0.51100000000E-03 0. -1.
        -11    1    3    3    0    0 -0.24031120940E+01 -0.83808209399E+01  0.39193590382E+01  0.95590000991E+01  0.51100000000E-03 0.  1.
         12    1    3    3    0    0 -0.61886469583E+01 -0.17445706734E+02  0.40788625500E+01  0.18954924276E+02  0.00000000000E+00 0. -1.
</event>
<event>
 7    1  0.1402367E-008  0.4614232E+02  0.7816164E-02  0.1320468E+00
        -11   -1    0    0    0    0  0.00000000000E+00  0.00000000000E+00  0.45593999997E+02  0.45594000000E+02  0.51100000000E-03 0. -1.
         11   -1    0    0    0    0 -0.00000000000E+00 -0.00000000000E+00 -0.45593999997E+02  0.45594000000E+02  0.51100000000E-03 0.  1.
    9900012    2    1    2    0    0 -0.39767532858E+02  0.20179511439E+02 -0.63595710718E+01  0.46142317680E+02  0.99999992574E+01 0.  0.
         12    1    1    2    0    0  0.39767532858E+02 -0.20179511439E+02  0.63595710718E+01  0.45045682320E+02  0.00000000000E+00 0. -1.
         11    1    3    3    0    0 -0.61663866617E+00  0.18359114339E+01 -0.80639172017E+00  0.20978755695E+01  0.51100000000E-03 0. -1.
        -11    1    3    3    0    0 -0.19124206780E+02  0.12259463478E+02 -0.18783696462E+01  0.22793815006E+02  0.51100000000E-03 0.  1.
        -12    1    3    3    0    0 -0.20026687411E+02  0.60841365265E+01 -0.36748097055E+01  0.21250627104E+02  0.00000000000E+00 0.  1.
</event>
<event>
 7    1  0.1402367E-008  0.4614232E+02  0.7816164E-02  0.1320468E+00
        -11   -1    0    0    0    0  0.00000000000E+00  0.00000000000E+00  0.45593999997E+02  0.45594000000E+02  0.51100000000E-03 0. -1.
         11   -1    0    0    0    0 -0.00000000000E+00 -0.00000000000E+00 -0.45593999997E+02  0.45594000000E+02  0.51100000000E-03 0.  1.
    9900012    2    1    2    0    0  0.32440545985E+02  0.28482379377E+02 -0.12863842199E+02  0.46142318798E+02  0.10000009457E+02 0.  0.
         12    1    1    2    0    0 -0.32440545985E+02 -0.28482379377E+02  0.12863842199E+02  0.45045681202E+02  0.00000000000E+00 0. -1.
         11    1    3    3    0    0  0.70834413433E+01  0.44164509246E+01 -0.93980247068E+00  0.84002029129E+01  0.51100000000E-03 0. -1.
        -11    1    3    3    0    0  0.19765807341E+02  0.21815923915E+02 -0.11795682493E+02  0.31713716304E+02  0.51100000000E-03 0.  1.
        -12    1    3    3    0    0  0.55912973009E+01  0.22500045377E+01 -0.12835723566E+00  0.60283995809E+01  0.00000000000E+00 0.  1.
</event>
<event>
 7    1  0.1402367E-008  0.4614232E+02  0.7816164E-02  0.1320468E+00
        -11   -1    0    0    0    0  0.00000000000E+00  0.00000000000E+00  0.45593999997E+02  0.45594000000E+02  0.51100000000E-03 0.  1.
         11   -1    0    0    0    0 -0.00000000000E+00 -0.00000000000E+00 -0.45593999997E+02  0.45594000000E+02  0.51100000000E-03 0. -1.
    9900012    2    1    2    0    0 -0.41972668669E+01 -0.36122644984E+02  0.26582905201E+02  0.46142318978E+02  0.10000011100E+02 0.  0.
         12    1    1    2    0    0  0.41972668669E+01  0.36122644984E+02 -0.26582905201E+02  0.45045681022E+02  0.00000000000E+00 0. -1.
         11    1    3    3    0    0  0.89518032925E+00 -0.27624370862E+01 -0.38442666704E+00  0.29291962380E+01  0.51100000000E-03 0. -1.
        -11    1    3    3    0    0 -0.15913740459E+01 -0.12547299899E+02  0.95322218839E+01  0.15837627992E+02  0.51100000000E-03 0.  1.
         12    1    3    3    0    0 -0.35010731502E+01 -0.20812907998E+02  0.17435109984E+02  0.27375494748E+02  0.00000000000E+00 0. -1.
</event>
<event>
 7    1  0.1402367E-008  0.4614232E+02  0.7816164E-02  0.1320468E+00
        -11   -1    0    0    0    0  0.00000000000E+00  0.00000000000E+00  0.45593999997E+02  0.45594000000E+02  0.51100000000E-03 0. -1.
         11   -1    0    0    0    0 -0.00000000000E+00 -0.00000000000E+00 -0.45593999997E+02  0.45594000000E+02  0.51100000000E-03 0.  1.
    9900012    2    1    2    0    0 -0.73035453835E+01 -0.43762589978E+02 -0.77850787411E+01  0.46142317546E+02  0.99999980381E+01 0.  0.
         12    1    1    2    0    0  0.73035453835E+01  0.43762589978E+02  0.77850787411E+01  0.45045682454E+02  0.00000000000E+00 0. -1.
         11    1    3    3    0    0 -0.35344299862E+01 -0.95657526616E+01  0.18454819384E+01  0.10363475438E+02  0.51100000000E-03 0. -1.
        -11    1    3    3    0    0 -0.22563232610E+01 -0.18420568317E+02 -0.42189379818E+01  0.19031756875E+02  0.51100000000E-03 0.  1.
         12    1    3    3    0    0 -0.15127921363E+01 -0.15776268999E+02 -0.54116226977E+01  0.16747085233E+02  0.00000000000E+00 0. -1.
</event>
<event>
 7    1  0.1402367E-008  0.4614232E+02  0.7816164E-02  0.1320468E+00
        -11   -1    0    0    0    0  0.00000000000E+00  0.00000000000E+00  0.45593999997E+02  0.45594000000E+02  0.51100000000E-03 0.  1.
         11   -1    0    0    0    0 -0.00000000000E+00 -0.00000000000E+00 -0.45593999997E+02  0.45594000000E+02  0.51100000000E-03 0. -1.
    9900012    2    1    2    0    0  0.15643164354E+02 -0.11363076076E+02  0.40685199495E+02  0.46142317112E+02  0.99999940803E+01 0.  0.
         12    1    1    2    0    0 -0.15643164354E+02  0.11363076076E+02 -0.40685199495E+02  0.45045682888E+02  0.00000000000E+00 0. -1.
         11    1    3    3    0    0  0.67704777852E+01 -0.10541990921E+02  0.23802967029E+02  0.26898962465E+02  0.51100000000E-03 0. -1.
        -11    1    3    3    0    0  0.53971058259E+01 -0.77472143823E+00  0.12591881223E+02  0.13721676924E+02  0.51100000000E-03 0.  1.
         12    1    3    3    0    0  0.34755807433E+01 -0.46363716095E-01  0.42903512426E+01  0.55216777235E+01  0.00000000000E+00 0. -1.
</event>
<event>
 7    1  0.1402367E-008  0.4614232E+02  0.7816164E-02  0.1320468E+00
        -11   -1    0    0    0    0  0.00000000000E+00  0.00000000000E+00  0.45593999997E+02  0.45594000000E+02  0.51100000000E-03 0.  1.
         11   -1    0    0    0    0 -0.00000000000E+00 -0.00000000000E+00 -0.45593999997E+02  0.45594000000E+02  0.51100000000E-03 0. -1.
    9900012    2    1    2    0    0  0.12089548503E+02 -0.87155289521E+01  0.42508774149E+02  0.46142317548E+02  0.99999980563E+01 0.  0.
         12    1    1    2    0    0 -0.12089548503E+02  0.87155289521E+01 -0.42508774149E+02  0.45045682452E+02  0.00000000000E+00 0. -1.
         11    1    3    3    0    0 -0.68636571973E+00 -0.33208504466E-01  0.38564982790E+01  0.39172413690E+01  0.51100000000E-03 0. -1.
        -11    1    3    3    0    0  0.18521851171E+01  0.86526621066E+00  0.22596350024E+01  0.30471668691E+01  0.51100000000E-03 0.  1.
        -12    1    3    3    0    0  0.10923729106E+02 -0.95475866583E+01  0.36392640868E+02  0.39177909310E+02  0.00000000000E+00 0.  1.
</event>
<event>
 7    1  0.1402367E-008  0.4614232E+02  0.7816164E-02  0.1320468E+00
        -11   -1    0    0    0    0  0.00000000000E+00  0.00000000000E+00  0.45593999997E+02  0.45594000000E+02  0.51100000000E-03 0. -1.
         11   -1    0    0    0    0 -0.00000000000E+00 -0.00000000000E+00 -0.45593999997E+02  0.45594000000E+02  0.51100000000E-03 0.  1.
    9900012    2    1    2    0    0  0.37117263360E+02 -0.17637524799E+02 -0.18448305308E+02  0.46142317753E+02  0.99999999263E+01 0.  0.
         12    1    1    2    0    0 -0.37117263360E+02  0.17637524799E+02  0.18448305308E+02  0.45045682247E+02  0.00000000000E+00 0. -1.
         11    1    3    3    0    0  0.23560731736E+01 -0.37324189614E+01 -0.89817810948E+00  0.45043041949E+01  0.51100000000E-03 0. -1.
        -11    1    3    3    0    0  0.20969364815E+02 -0.67034767773E+01 -0.82398529844E+01  0.23506297861E+02  0.51100000000E-03 0.  1.
        -12    1    3    3    0    0  0.13791825371E+02 -0.72016290604E+01 -0.93102742137E+01  0.18131715697E+02  0.00000000000E+00 0.  1.
</event>
<event>
 7    1  0.1402367E-008  0.4614232E+02  0.7816164E-02  0.1320468E+00
        -11   -1    0    0    0    0  0.00000000000E+00  0.00000000000E+00  0.45593999997E+02  0.45594000000E+02  0.51100000000E-03 0.  1.
         11   -1    0    0    0    0 -0.00000000000E+00 -0.00000000000E+00 -0.45593999997E+02  0.45594000000E+02  0.51100000000E-03 0. -1.
    9900012    2    1    2    0    0 -0.37799694121E+02  0.79937179415E+01  0.23160248320E+02  0.46142317583E+02  0.99999983717E+01 0.  0.
         12    1    1    2    0    0  0.37799694121E+02 -0.79937179415E+01 -0.23160248320E+02  0.45045682417E+02  0.00000000000E+00 0. -1.
         11    1    3    3    0    0 -0.78141586367E+01  0.57475657471E+01  0.52505369193E+01  0.11030128078E+02  0.51100000000E-03 0. -1.
        -11    1    3    3    0    0 -0.27247156683E+02  0.18418578708E+01  0.17126959076E+02  0.32235581509E+02  0.51100000000E-03 0.  1.
        -12    1    3    3    0    0 -0.27383788015E+01  0.40429432358E+00  0.78275232486E+00  0.28766079960E+01  0.00000000000E+00 0.  1.
</event>
<event>
 7    1  0.1402367E-008  0.4614232E+02  0.7816164E-02  0.1320468E+00
        -11   -1    0    0    0    0  0.00000000000E+00  0.00000000000E+00  0.45593999997E+02  0.45594000000E+02  0.51100000000E-03 0.  1.
         11   -1    0    0    0    0 -0.00000000000E+00 -0.00000000000E+00 -0.45593999997E+02  0.45594000000E+02  0.51100000000E-03 0. -1.
    9900012    2    1    2    0    0  0.20546641635E+02  0.37625777444E+02  0.13829312692E+02  0.46142317629E+02  0.99999987910E+01 0.  0.
         12    1    1    2    0    0 -0.20546641635E+02 -0.37625777444E+02 -0.13829312692E+02  0.45045682371E+02  0.00000000000E+00 0. -1.
         11    1    3    3    0    0 -0.12203087233E+00  0.50548033096E+01  0.25683860312E+01  0.56712022623E+01  0.51100000000E-03 0. -1.
        -11    1    3    3    0    0  0.27567066674E+01  0.69681899520E+01  0.87896520360E+00  0.75450436014E+01  0.51100000000E-03 0.  1.
         12    1    3    3    0    0  0.17911965840E+02  0.25602784183E+02  0.10381961458E+02  0.32926071765E+02  0.00000000000E+00 0. -1.
</event>
<event>
 7    1  0.1402367E-008  0.4614231E+02  0.7816164E-02  0.1320468E+00
        -11   -1    0    0    0    0  0.00000000000E+00  0.00000000000E+00  0.45593999997E+02  0.45594000000E+02  0.51100000000E-03 0. -1.
         11   -1    0    0    0    0 -0.00000000000E+00 -0.00000000000E+00 -0.45593999997E+02  0.45594000000E+02  0.51100000000E-03 0.  1.
    9900012    2    1    2    0    0 -0.32163097661E+02 -0.13070253167E+02 -0.28702221454E+02  0.46142313354E+02  0.99999598112E+01 0.  0.
         12    1    1    2    0    0  0.32163097661E+02  0.13070253167E+02  0.28702221454E+02  0.45045686646E+02  0.00000000000E+00 0. -1.
         11    1    3    3    0    0 -0.21058146989E+02 -0.51040636867E+01 -0.13098313515E+02  0.25319218746E+02  0.51100000000E-03 0. -1.
        -11    1    3    3    0    0 -0.37109573194E+01 -0.36414492743E+01 -0.64870570749E+01  0.83134389273E+01  0.51100000000E-03 0.  1.
         12    1    3    3    0    0 -0.73939933524E+01 -0.43247402065E+01 -0.91168508647E+01  0.12509655680E+02  0.00000000000E+00 0. -1.
</event>
<event>
 7    1  0.1402367E-008  0.4614232E+02  0.7816164E-02  0.1320468E+00
        -11   -1    0    0    0    0  0.00000000000E+00  0.00000000000E+00  0.45593999997E+02  0.45594000000E+02  0.51100000000E-03 0. -1.
         11   -1    0    0    0    0 -0.00000000000E+00 -0.00000000000E+00 -0.45593999997E+02  0.45594000000E+02  0.51100000000E-03 0.  1.
    9900012    2    1    2    0    0  0.19888815432E+02 -0.36109352812E+02 -0.18156628722E+02  0.46142317562E+02  0.99999981834E+01 0.  0.
         12    1    1    2    0    0 -0.19888815432E+02  0.36109352812E+02  0.18156628722E+02  0.45045682438E+02  0.00000000000E+00 0. -1.
         11    1    3    3    0    0  0.26690919116E+01 -0.13655352785E+01 -0.80851189456E-01  0.29992124642E+01  0.51100000000E-03 0. -1.
        -11    1    3    3    0    0  0.97725893745E+01 -0.22550883194E+02 -0.14003269207E+02  0.28286699784E+02  0.51100000000E-03 0.  1.
         12    1    3    3    0    0  0.74471341458E+01 -0.12192934340E+02 -0.40725083247E+01  0.14856405314E+02  0.00000000000E+00 0. -1.
</event>
<event>
 7    1  0.1402367E-008  0.4614232E+02  0.7816164E-02  0.1320468E+00
        -11   -1    0    0    0    0  0.00000000000E+00  0.00000000000E+00  0.45593999997E+02  0.45594000000E+02  0.51100000000E-03 0. -1.
         11   -1    0    0    0    0 -0.00000000000E+00 -0.00000000000E+00 -0.45593999997E+02  0.45594000000E+02  0.51100000000E-03 0.  1.
    9900012    2    1    2    0    0  0.30813788773E+02 -0.16506050047E+02 -0.28410811623E+02  0.46142317812E+02  0.10000000468E+02 0.  0.
         12    1    1    2    0    0 -0.30813788773E+02  0.16506050047E+02  0.28410811623E+02  0.45045682188E+02  0.00000000000E+00 0. -1.
         11    1    3    3    0    0  0.86017493297E+01 -0.13798769421E+01 -0.50057951884E+01  0.10047494097E+02  0.51100000000E-03 0. -1.
        -11    1    3    3    0    0  0.21649978363E+02 -0.15283997641E+02 -0.21572467747E+02  0.34171530723E+02  0.51100000000E-03 0.  1.
        -12    1    3    3    0    0  0.56206107992E+00  0.15782453579E+00 -0.18325486871E+01  0.19232929918E+01  0.00000000000E+00 0.  1.
</event>
<event>
 7    1  0.1402367E-008  0.4614232E+02  0.7816164E-02  0.1320468E+00
        -11   -1    0    0    0    0  0.00000000000E+00  0.00000000000E+00  0.45593999997E+02  0.45594000000E+02  0.51100000000E-03 0.  1.
         11   -1    0    0    0    0 -0.00000000000E+00 -0.00000000000E+00 -0.45593999997E+02  0.45594000000E+02  0.51100000000E-03 0. -1.
    9900012    2    1    2    0    0 -0.42512467626E+02  0.14480250468E+02 -0.34822300667E+01  0.46142317816E+02  0.10000000497E+02 0.  0.
         12    1    1    2    0    0  0.42512467626E+02 -0.14480250468E+02  0.34822300667E+01  0.45045682184E+02  0.00000000000E+00 0. -1.
         11    1    3    3    0    0 -0.70818418802E+01  0.62829167327E+01 -0.77926394826E+00  0.94991988951E+01  0.51100000000E-03 0. -1.
        -11    1    3    3    0    0 -0.12779428233E+02  0.12346779586E+01 -0.60275873868E+00  0.12853074884E+02  0.51100000000E-03 0.  1.
         12    1    3    3    0    0 -0.22651197512E+02  0.69626557765E+01 -0.21002073798E+01  0.23790044036E+02  0.00000000000E+00 0. -1.
</event>
<event>
 7    1  0.1402367E-008  0.4614232E+02  0.7816164E-02  0.1320468E+00
        -11   -1    0    0    0    0  0.00000000000E+00  0.00000000000E+00  0.45593999997E+02  0.45594000000E+02  0.51100000000E-03 0.  1.
         11   -1    0    0    0    0 -0.00000000000E+00 -0.00000000000E+00 -0.45593999997E+02  0.45594000000E+02  0.51100000000E-03 0. -1.
    9900012    2    1    2    0    0  0.16003281002E+02  0.12003291708E+02  0.40359998048E+02  0.46142318108E+02  0.10000003163E+02 0.  0.
         12    1    1    2    0    0 -0.16003281002E+02 -0.12003291708E+02 -0.40359998048E+02  0.45045681892E+02  0.00000000000E+00 0. -1.
         11    1    3    3    0    0  0.94376757245E+01  0.43043226536E+01  0.16416500915E+02  0.19419022095E+02  0.51100000000E-03 0. -1.
        -11    1    3    3    0    0  0.40123680786E+01  0.73630506657E+01  0.12917100533E+02  0.15400165556E+02  0.51100000000E-03 0.  1.
        -12    1    3    3    0    0  0.25532371992E+01  0.33591838885E+00  0.11026396600E+02  0.11323130457E+02  0.00000000000E+00 0.  1.
</event>
<event>
 7    1  0.1402367E-008  0.4614232E+02  0.7816164E-02  0.1320468E+00
        -11   -1    0    0    0    0  0.00000000000E+00  0.00000000000E+00  0.45593999997E+02  0.45594000000E+02  0.51100000000E-03 0.  1.
         11   -1    0    0    0    0 -0.00000000000E+00 -0.00000000000E+00 -0.45593999997E+02  0.45594000000E+02  0.51100000000E-03 0. -1.
    9900012    2    1    2    0    0  0.11355374094E+02 -0.32314913355E+01  0.43470981887E+02  0.46142319594E+02  0.10000016710E+02 0.  0.
         12    1    1    2    0    0 -0.11355374094E+02  0.32314913355E+01 -0.43470981887E+02  0.45045680406E+02  0.00000000000E+00 0. -1.
         11    1    3    3    0    0  0.14859925461E+01 -0.12483191281E+01  0.71765380407E+00  0.20691790005E+01  0.51100000000E-03 0. -1.
        -11    1    3    3    0    0  0.51717169942E+01  0.76841192371E+00  0.22654879723E+02  0.23250391159E+02  0.51100000000E-03 0.  1.
        -12    1    3    3    0    0  0.46976645540E+01 -0.27515841311E+01  0.20098448360E+02  0.20822749434E+02  0.00000000000E+00 0.  1.
</event>
<event>
 7    1  0.1402367E-008  0.4614232E+02  0.7816164E-02  0.1320468E+00
        -11   -1    0    0    0    0  0.00000000000E+00  0.00000000000E+00  0.45593999997E+02  0.45594000000E+02  0.51100000000E-03 0. -1.
         11   -1    0    0    0    0 -0.00000000000E+00 -0.00000000000E+00 -0.45593999997E+02  0.45594000000E+02  0.51100000000E-03 0.  1.
    9900012    2    1    2    0    0  0.18311250647E+02  0.40652104384E+02 -0.64201173420E+01  0.46142318766E+02  0.10000009168E+02 0.  0.
         12    1    1    2    0    0 -0.18311250647E+02 -0.40652104384E+02  0.64201173420E+01  0.45045681234E+02  0.00000000000E+00 0. -1.
         11    1    3    3    0    0  0.35137802045E+01  0.97246417621E+01 -0.47277797472E+01  0.11369573885E+02  0.51100000000E-03 0. -1.
        -11    1    3    3    0    0  0.78156894594E+01  0.16925884120E+02 -0.36745858211E+01  0.19001924539E+02  0.51100000000E-03 0.  1.
         12    1    3    3    0    0  0.69817809832E+01  0.14001578502E+02  0.19822482263E+01  0.15770820343E+02  0.00000000000E+00 0. -1.
</event>
<event>
 7    1  0.1402367E-008  0.4614232E+02  0.7816164E-02  0.1320468E+00
        -11   -1    0    0    0    0  0.00000000000E+00  0.00000000000E+00  0.45593999997E+02  0.45594000000E+02  0.51100000000E-03 0. -1.
         11   -1    0    0    0    0 -0.00000000000E+00 -0.00000000000E+00 -0.45593999997E+02  0.45594000000E+02  0.51100000000E-03 0.  1.
    9900012    2    1    2    0    0  0.19291023933E+02 -0.37504342757E+02 -0.15823847739E+02  0.46142317773E+02  0.10000000107E+02 0.  0.
         12    1    1    2    0    0 -0.19291023933E+02  0.37504342757E+02  0.15823847739E+02  0.45045682227E+02  0.00000000000E+00 0. -1.
         11    1    3    3    0    0  0.10352786649E+01 -0.83825625676E+00  0.15574753208E+00  0.13411685282E+01  0.51100000000E-03 0. -1.
        -11    1    3    3    0    0  0.51736835876E+01 -0.19777866323E+02 -0.88944956354E+01  0.22294462340E+02  0.51100000000E-03 0.  1.
        -12    1    3    3    0    0  0.13082061681E+02 -0.16888220177E+02 -0.70850996361E+01  0.22506686905E+02  0.00000000000E+00 0.  1.
</event>
<event>
 7    1  0.1402367E-008  0.4614232E+02  0.7816164E-02  0.1320468E+00
        -11   -1    0    0    0    0  0.00000000000E+00  0.00000000000E+00  0.45593999997E+02  0.45594000000E+02  0.51100000000E-03 0.  1.
         11   -1    0    0    0    0 -0.00000000000E+00 -0.00000000000E+00 -0.45593999997E+02  0.45594000000E+02  0.51100000000E-03 0. -1.
    9900012    2    1    2    0    0  0.12575910201E+02 -0.41858500940E+02  0.10900733926E+02  0.46142316317E+02  0.99999868338E+01 0.  0.
         12    1    1    2    0    0 -0.12575910201E+02  0.41858500940E+02 -0.10900733926E+02  0.45045683683E+02  0.00000000000E+00 0. -1.
         11    1    3    3    0    0  0.70036174467E+01 -0.27274630172E+02  0.63084372606E+01  0.28857451192E+02  0.51100000000E-03 0. -1.
        -11    1    3    3    0    0  0.19042101790E-01 -0.64786720673E+01  0.35949397622E+01  0.74092608614E+01  0.51100000000E-03 0.  1.
        -12    1    3    3    0    0  0.55532506524E+01 -0.81051987004E+01  0.99735690295E+00  0.98756042637E+01  0.00000000000E+00 0.  1.
</event>
<event>
 7    1  0.1402367E-008  0.4614232E+02  0.7816164E-02  0.1320468E+00
        -11   -1    0    0    0    0  0.00000000000E+00  0.00000000000E+00  0.45593999997E+02  0.45594000000E+02  0.51100000000E-03 0.  1.
         11   -1    0    0    0    0 -0.00000000000E+00 -0.00000000000E+00 -0.45593999997E+02  0.45594000000E+02  0.51100000000E-03 0. -1.
    9900012    2    1    2    0    0 -0.59415275526E+01  0.42606782818E+02 -0.13359404682E+02  0.46142318906E+02  0.10000010438E+02 0.  0.
         12    1    1    2    0    0  0.59415275526E+01 -0.42606782818E+02  0.13359404682E+02  0.45045681094E+02  0.00000000000E+00 0. -1.
         11    1    3    3    0    0 -0.72465525432E+01  0.23357692913E+02 -0.54428020533E+01  0.25054309738E+02  0.51100000000E-03 0. -1.
        -11    1    3    3    0    0 -0.86292461278E+00  0.87171298419E+01 -0.29450551032E+01  0.92415551391E+01  0.51100000000E-03 0.  1.
         12    1    3    3    0    0  0.21679496034E+01  0.10531960063E+02 -0.49715475261E+01  0.11846454029E+02  0.00000000000E+00 0. -1.
</event>
<event>
 7    1  0.1402367E-008  0.4614232E+02  0.7816164E-02  0.1320468E+00
        -11   -1    0    0    0    0  0.00000000000E+00  0.00000000000E+00  0.45593999997E+02  0.45594000000E+02  0.51100000000E-03 0.  1.
         11   -1    0    0    0    0 -0.00000000000E+00 -0.00000000000E+00 -0.45593999997E+02  0.45594000000E+02  0.51100000000E-03 0. -1.
    9900012    2    1    2    0    0  0.41778441885E+02 -0.12701973414E+02  0.11060523562E+02  0.46142317450E+02  0.99999971631E+01 0.  0.
         12    1    1    2    0    0 -0.41778441885E+02  0.12701973414E+02 -0.11060523562E+02  0.45045682550E+02  0.00000000000E+00 0. -1.
         11    1    3    3    0    0  0.29161209795E+02 -0.12518077330E+02  0.72193110033E+01  0.32545304860E+02  0.51100000000E-03 0. -1.
        -11    1    3    3    0    0  0.80554700500E+01 -0.32297916329E+00  0.77573114817E+00  0.80991772633E+01  0.51100000000E-03 0.  1.
         12    1    3    3    0    0  0.45617620393E+01  0.13908307935E+00  0.30654814106E+01  0.54978353272E+01  0.00000000000E+00 0. -1.
</event>
<event>
 7    1  0.1402367E-008  0.4614232E+02  0.7816164E-02  0.1320468E+00
        -11   -1    0    0    0    0  0.00000000000E+00  0.00000000000E+00  0.45593999997E+02  0.45594000000E+02  0.51100000000E-03 0.  1.
         11   -1    0    0    0    0 -0.00000000000E+00 -0.00000000000E+00 -0.45593999997E+02  0.45594000000E+02  0.51100000000E-03 0. -1.
    9900012    2    1    2    0    0 -0.33584813279E+00  0.62046302580E+01  0.44615055926E+02  0.46142318232E+02  0.10000004296E+02 0.  0.
         12    1    1    2    0    0  0.33584813279E+00 -0.62046302580E+01 -0.44615055926E+02  0.45045681768E+02  0.00000000000E+00 0. -1.
         11    1    3    3    0    0  0.11266071844E+01 -0.89116692661E-01  0.17297437137E+02  0.17334316177E+02  0.51100000000E-03 0. -1.
        -11    1    3    3    0    0 -0.37518194723E+01  0.56148070176E+01  0.19751027230E+02  0.20873554659E+02  0.51100000000E-03 0.  1.
        -12    1    3    3    0    0  0.22893641551E+01  0.67893993300E+00  0.75665915592E+01  0.79344473967E+01  0.00000000000E+00 0.  1.
</event>
<event>
 7    1  0.1402367E-008  0.4614232E+02  0.7816164E-02  0.1320468E+00
        -11   -1    0    0    0    0  0.00000000000E+00  0.00000000000E+00  0.45593999997E+02  0.45594000000E+02  0.51100000000E-03 0.  1.
         11   -1    0    0    0    0 -0.00000000000E+00 -0.00000000000E+00 -0.45593999997E+02  0.45594000000E+02  0.51100000000E-03 0. -1.
    9900012    2    1    2    0    0 -0.11761952215E+02 -0.30759637392E+02 -0.30734584153E+02  0.46142317904E+02  0.10000001304E+02 0.  0.
         12    1    1    2    0    0  0.11761952215E+02  0.30759637392E+02  0.30734584153E+02  0.45045682096E+02  0.00000000000E+00 0. -1.
         11    1    3    3    0    0  0.13628822710E+01 -0.35114755929E+01 -0.34637450936E+01  0.51171710211E+01  0.51100000000E-03 0. -1.
        -11    1    3    3    0    0 -0.97167977508E+01 -0.17839895865E+02 -0.20991087420E+02  0.29211364130E+02  0.51100000000E-03 0.  1.
        -12    1    3    3    0    0 -0.34080367353E+01 -0.94082659344E+01 -0.62797516395E+01  0.11813782753E+02  0.00000000000E+00 0.  1.
</event>
<event>
 7    1  0.1402367E-008  0.4614232E+02  0.7816164E-02  0.1320468E+00
        -11   -1    0    0    0    0  0.00000000000E+00  0.00000000000E+00  0.45593999997E+02  0.45594000000E+02  0.51100000000E-03 0.  1.
         11   -1    0    0    0    0 -0.00000000000E+00 -0.00000000000E+00 -0.45593999997E+02  0.45594000000E+02  0.51100000000E-03 0. -1.
    9900012    2    1    2    0    0 -0.32437736382E+02 -0.84736700582E+01  0.30084939773E+02  0.46142318443E+02  0.10000006214E+02 0.  0.
         12    1    1    2    0    0  0.32437736382E+02  0.84736700582E+01 -0.30084939773E+02  0.45045681557E+02  0.00000000000E+00 0. -1.
         11    1    3    3    0    0 -0.12329738799E+02  0.98887812694E+00  0.12729907725E+02  0.17749672947E+02  0.51100000000E-03 0. -1.
        -11    1    3    3    0    0 -0.15716380903E+02 -0.58561457779E+01  0.13427913593E+02  0.21485063086E+02  0.51100000000E-03 0.  1.
         12    1    3    3    0    0 -0.43916166799E+01 -0.36064024073E+01  0.39271184550E+01  0.69075824096E+01  0.00000000000E+00 0. -1.
</event>
<event>
 7    1  0.1402367E-008  0.4614232E+02  0.7816164E-02  0.1320468E+00
        -11   -1    0    0    0    0  0.00000000000E+00  0.00000000000E+00  0.45593999997E+02  0.45594000000E+02  0.51100000000E-03 0. -1.
         11   -1    0    0    0    0 -0.00000000000E+00 -0.00000000000E+00 -0.45593999997E+02  0.45594000000E+02  0.51100000000E-03 0.  1.
    9900012    2    1    2    0    0 -0.18532256906E+02  0.97084607286E+01 -0.39892538269E+02  0.46142319127E+02  0.10000012459E+02 0.  0.
         12    1    1    2    0    0  0.18532256906E+02 -0.97084607286E+01  0.39892538269E+02  0.45045680873E+02  0.00000000000E+00 0. -1.
         11    1    3    3    0    0 -0.82302651409E+01  0.89472072593E+01 -0.19188412551E+02  0.22715302298E+02  0.51100000000E-03 0. -1.
        -11    1    3    3    0    0 -0.54952464083E+01  0.21300861685E+01 -0.98710800906E+01  0.11496661367E+02  0.51100000000E-03 0.  1.
         12    1    3    3    0    0 -0.48067453566E+01 -0.13688326992E+01 -0.10833045627E+02  0.11930355462E+02  0.00000000000E+00 0. -1.
</event>
<event>
 7    1  0.1402367E-008  0.4614232E+02  0.7816164E-02  0.1320468E+00
        -11   -1    0    0    0    0  0.00000000000E+00  0.00000000000E+00  0.45593999997E+02  0.45594000000E+02  0.51100000000E-03 0. -1.
         11   -1    0    0    0    0 -0.00000000000E+00 -0.00000000000E+00 -0.45593999997E+02  0.45594000000E+02  0.51100000000E-03 0.  1.
    9900012    2    1    2    0    0 -0.19167198393E+02  0.59803245535E+01 -0.40323289822E+02  0.46142317876E+02  0.10000001046E+02 0.  0.
         12    1    1    2    0    0  0.19167198393E+02 -0.59803245535E+01  0.40323289822E+02  0.45045682124E+02  0.00000000000E+00 0. -1.
         11    1    3    3    0    0 -0.81768909579E+01 -0.66975064231E-01 -0.16879242804E+02  0.18755662326E+02  0.51100000000E-03 0. -1.
        -11    1    3    3    0    0  0.14059070212E+00  0.20854206461E+01 -0.56793636226E+01  0.60517696945E+01  0.51100000000E-03 0.  1.
        -12    1    3    3    0    0 -0.11130898137E+02  0.39618789716E+01 -0.17764683395E+02  0.21334885855E+02  0.00000000000E+00 0.  1.
</event>
<event>
 7    1  0.1402367E-008  0.4614232E+02  0.7816164E-02  0.1320468E+00
        -11   -1    0    0    0    0  0.00000000000E+00  0.00000000000E+00  0.45593999997E+02  0.45594000000E+02  0.51100000000E-03 0.  1.
         11   -1    0    0    0    0 -0.00000000000E+00 -0.00000000000E+00 -0.45593999997E+02  0.45594000000E+02  0.51100000000E-03 0. -1.
    9900012    2    1    2    0    0  0.23406450835E+02  0.14465891107E+02  0.35664961579E+02  0.46142318402E+02  0.10000005842E+02 0.  0.
         12    1    1    2    0    0 -0.23406450835E+02 -0.14465891107E+02 -0.35664961579E+02  0.45045681598E+02  0.00000000000E+00 0. -1.
         11    1    3    3    0    0  0.61588536123E+01  0.67578976841E+00  0.42387091515E+01  0.75069850913E+01  0.51100000000E-03 0. -1.
        -11    1    3    3    0    0  0.13755094372E+02  0.86422865045E+01  0.23194287765E+02  0.28317251321E+02  0.51100000000E-03 0.  1.
         12    1    3    3    0    0  0.34925028511E+01  0.51478148345E+01  0.82319646626E+01  0.10318081989E+02  0.00000000000E+00 0. -1.
</event>
<event>
 7    1  0.1402367E-008  0.4614232E+02  0.7816164E-02  0.1320468E+00
        -11   -1    0    0    0    0  0.00000000000E+00  0.00000000000E+00  0.45593999997E+02  0.45594000000E+02  0.51100000000E-03 0. -1.
         11   -1    0    0    0    0 -0.00000000000E+00 -0.00000000000E+00 -0.45593999997E+02  0.45594000000E+02  0.51100000000E-03 0.  1.
    9900012    2    1    2    0    0  0.40322427887E+02  0.11562705016E+02 -0.16417038705E+02  0.46142317656E+02  0.99999990402E+01 0.  0.
         12    1    1    2    0    0 -0.40322427887E+02 -0.11562705016E+02  0.16417038705E+02  0.45045682344E+02  0.00000000000E+00 0. -1.
         11    1    3    3    0    0  0.13645298523E+02  0.10031603922E+01 -0.67845966251E+01  0.15271910626E+02  0.51100000000E-03 0. -1.
        -11    1    3    3    0    0  0.20773366304E+02  0.65116809216E+01 -0.93881348041E+01  0.23708053724E+02  0.51100000000E-03 0.  1.
         12    1    3    3    0    0  0.59037630611E+01  0.40478637025E+01 -0.24430727537E+00  0.71623533060E+01  0.00000000000E+00 0. -1.
</event>
<event>
 7    1  0.1402367E-008  0.4614232E+02  0.7816164E-02  0.1320468E+00
        -11   -1    0    0    0    0  0.00000000000E+00  0.00000000000E+00  0.45593999997E+02  0.45594000000E+02  0.51100000000E-03 0. -1.
         11   -1    0    0    0    0 -0.00000000000E+00 -0.00000000000E+00 -0.45593999997E+02  0.45594000000E+02  0.51100000000E-03 0.  1.
    9900012    2    1    2    0    0  0.34324920581E+02 -0.28365799580E+02 -0.68040256861E+01  0.46142317363E+02  0.99999963730E+01 0.  0.
         12    1    1    2    0    0 -0.34324920581E+02  0.28365799580E+02  0.68040256861E+01  0.45045682637E+02  0.00000000000E+00 0. -1.
         11    1    3    3    0    0  0.22496785772E+02 -0.15056926263E+02 -0.68941034573E+00  0.27079359030E+02  0.51100000000E-03 0. -1.
        -11    1    3    3    0    0  0.79327898930E+01 -0.68630818754E+01 -0.41400891843E+01  0.11277029176E+02  0.51100000000E-03 0.  1.
         12    1    3    3    0    0  0.38953449157E+01 -0.64457914409E+01 -0.19745261561E+01  0.77859291580E+01  0.00000000000E+00 0. -1.
</event>
<event>
 7    1  0.1402367E-008  0.4614232E+02  0.7816164E-02  0.1320468E+00
        -11   -1    0    0    0    0  0.00000000000E+00  0.00000000000E+00  0.45593999997E+02  0.45594000000E+02  0.51100000000E-03 0.  1.
         11   -1    0    0    0    0 -0.00000000000E+00 -0.00000000000E+00 -0.45593999997E+02  0.45594000000E+02  0.51100000000E-03 0. -1.
    9900012    2    1    2    0    0 -0.38431329950E+02  0.12044970053E+02  0.20175853287E+02  0.46142317841E+02  0.10000000730E+02 0.  0.
         12    1    1    2    0    0  0.38431329950E+02 -0.12044970053E+02 -0.20175853287E+02  0.45045682159E+02  0.00000000000E+00 0. -1.
         11    1    3    3    0    0 -0.48032694919E+00 -0.65710196987E+00 -0.13489078284E-01  0.81405109992E+00  0.51100000000E-03 0. -1.
        -11    1    3    3    0    0 -0.34863060801E+02  0.13229830251E+02  0.19649725734E+02  0.42149414451E+02  0.51100000000E-03 0.  1.
        -12    1    3    3    0    0 -0.30879421993E+01 -0.52775822788E+00  0.53961663158E+00  0.31788522901E+01  0.00000000000E+00 0.  1.
</event>
<event>
 7    1  0.1402367E-008  0.4614232E+02  0.7816164E-02  0.1320468E+00
        -11   -1    0    0    0    0  0.00000000000E+00  0.00000000000E+00  0.45593999997E+02  0.45594000000E+02  0.51100000000E-03 0.  1.
         11   -1    0    0    0    0 -0.00000000000E+00 -0.00000000000E+00 -0.45593999997E+02  0.45594000000E+02  0.51100000000E-03 0. -1.
    9900012    2    1    2    0    0 -0.22046538895E+02 -0.34124234681E+02 -0.19457651962E+02  0.46142317746E+02  0.99999998644E+01 0.  0.
         12    1    1    2    0    0  0.22046538895E+02  0.34124234681E+02  0.19457651962E+02  0.45045682254E+02  0.00000000000E+00 0. -1.
         11    1    3    3    0    0 -0.30567579701E+01 -0.51390732212E+01  0.31804873886E+00  0.59879043180E+01  0.51100000000E-03 0. -1.
        -11    1    3    3    0    0 -0.91015427386E+01 -0.16623325147E+02 -0.88253639610E+01  0.20905981643E+02  0.51100000000E-03 0.  1.
         12    1    3    3    0    0 -0.98882381863E+01 -0.12361836313E+02 -0.10950336740E+02  0.19248431785E+02  0.00000000000E+00 0. -1.
</event>
<event>
 7    1  0.1402367E-008  0.4614232E+02  0.7816164E-02  0.1320468E+00
        -11   -1    0    0    0    0  0.00000000000E+00  0.00000000000E+00  0.45593999997E+02  0.45594000000E+02  0.51100000000E-03 0. -1.
         11   -1    0    0    0    0 -0.00000000000E+00 -0.00000000000E+00 -0.45593999997E+02  0.45594000000E+02  0.51100000000E-03 0.  1.
    9900012    2    1    2    0    0  0.13427397040E+01  0.10891716541E+02 -0.43688454549E+02  0.46142317632E+02  0.99999988248E+01 0.  0.
         12    1    1    2    0    0 -0.13427397040E+01 -0.10891716541E+02  0.43688454549E+02  0.45045682368E+02  0.00000000000E+00 0. -1.
         11    1    3    3    0    0 -0.33226053275E+01  0.39055806797E+01 -0.10194309058E+02  0.11411275303E+02  0.51100000000E-03 0. -1.
        -11    1    3    3    0    0  0.40151374875E+01  0.40985468287E+01 -0.16213746153E+02  0.17198981939E+02  0.51100000000E-03 0.  1.
        -12    1    3    3    0    0  0.65020754394E+00  0.28875890324E+01 -0.17280399337E+02  0.17532060390E+02  0.00000000000E+00 0.  1.
</event>
<event>
 7    1  0.1402367E-008  0.4614232E+02  0.7816164E-02  0.1320468E+00
        -11   -1    0    0    0    0  0.00000000000E+00  0.00000000000E+00  0.45593999997E+02  0.45594000000E+02  0.51100000000E-03 0.  1.
         11   -1    0    0    0    0 -0.00000000000E+00 -0.00000000000E+00 -0.45593999997E+02  0.45594000000E+02  0.51100000000E-03 0. -1.
    9900012    2    1    2    0    0  0.17966645028E+01  0.44640707418E+01  0.44787916994E+02  0.46142318303E+02  0.10000004941E+02 0.  0.
         12    1    1    2    0    0 -0.17966645028E+01 -0.44640707418E+01 -0.44787916994E+02  0.45045681697E+02  0.00000000000E+00 0. -1.
         11    1    3    3    0    0  0.11207138785E+01  0.10979813015E+01  0.21751871285E+02  0.21808380664E+02  0.51100000000E-03 0. -1.
        -11    1    3    3    0    0 -0.21171875120E+01 -0.94663161201E+00  0.11087274007E+02  0.11327234417E+02  0.51100000000E-03 0.  1.
        -12    1    3    3    0    0  0.27931381363E+01  0.43127210523E+01  0.11948771701E+02  0.13006703222E+02  0.00000000000E+00 0.  1.
</event>
<event>
 7    1  0.1402367E-008  0.4614232E+02  0.7816164E-02  0.1320468E+00
        -11   -1    0    0    0    0  0.00000000000E+00  0.00000000000E+00  0.45593999997E+02  0.45594000000E+02  0.51100000000E-03 0.  1.
         11   -1    0    0    0    0 -0.00000000000E+00 -0.00000000000E+00 -0.45593999997E+02  0.45594000000E+02  0.51100000000E-03 0. -1.
    9900012    2    1    2    0    0 -0.82836330101E+01 -0.39366574369E+02  0.20267405795E+02  0.46142317731E+02  0.99999997293E+01 0.  0.
         12    1    1    2    0    0  0.82836330101E+01  0.39366574369E+02 -0.20267405795E+02  0.45045682269E+02  0.00000000000E+00 0. -1.
         11    1    3    3    0    0  0.16413906820E+01 -0.68209105259E+01  0.36186367680E+01  0.78938910616E+01  0.51100000000E-03 0. -1.
        -11    1    3    3    0    0 -0.83192388649E-01 -0.33212561904E+01  0.27451934182E+00  0.33336203722E+01  0.51100000000E-03 0.  1.
         12    1    3    3    0    0 -0.98418313035E+01 -0.29224407653E+02  0.16374249685E+02  0.34914806298E+02  0.00000000000E+00 0. -1.
</event>
<event>
 7    1  0.1402367E-008  0.4614232E+02  0.7816164E-02  0.1320468E+00
        -11   -1    0    0    0    0  0.00000000000E+00  0.00000000000E+00  0.45593999997E+02  0.45594000000E+02  0.51100000000E-03 0. -1.
         11   -1    0    0    0    0 -0.00000000000E+00 -0.00000000000E+00 -0.45593999997E+02  0.45594000000E+02  0.51100000000E-03 0.  1.
    9900012    2    1    2    0    0  0.10336924122E+02 -0.32045121971E+02 -0.29922761510E+02  0.46142317646E+02  0.99999989469E+01 0.  0.
         12    1    1    2    0    0 -0.10336924122E+02  0.32045121971E+02  0.29922761510E+02  0.45045682354E+02  0.00000000000E+00 0. -1.
         11    1    3    3    0    0  0.10327127687E+01 -0.10577875162E+02 -0.14100127991E+02  0.17657053781E+02  0.51100000000E-03 0. -1.
        -11    1    3    3    0    0  0.57472978880E+01 -0.86754890217E+01 -0.71777074952E+01  0.12641796863E+02  0.51100000000E-03 0.  1.
        -12    1    3    3    0    0  0.35569134654E+01 -0.12791757787E+02 -0.86449260238E+01  0.15843467002E+02  0.00000000000E+00 0.  1.
</event>
<event>
 7    1  0.1402367E-008  0.4614232E+02  0.7816164E-02  0.1320468E+00
        -11   -1    0    0    0    0  0.00000000000E+00  0.00000000000E+00  0.45593999997E+02  0.45594000000E+02  0.51100000000E-03 0. -1.
         11   -1    0    0    0    0 -0.00000000000E+00 -0.00000000000E+00 -0.45593999997E+02  0.45594000000E+02  0.51100000000E-03 0.  1.
    9900012    2    1    2    0    0 -0.39619283360E+02 -0.91651530742E+01  0.19375900180E+02  0.46142321487E+02  0.10000033979E+02 0.  0.
         12    1    1    2    0    0  0.39619283360E+02  0.91651530742E+01 -0.19375900180E+02  0.45045678513E+02  0.00000000000E+00 0. -1.
         11    1    3    3    0    0 -0.14522922788E+02  0.17001755358E+00  0.65143078431E+01  0.15917926976E+02  0.51100000000E-03 0. -1.
        -11    1    3    3    0    0 -0.12810489051E+02 -0.34459459180E+01  0.35852862013E+01  0.13741813942E+02  0.51100000000E-03 0.  1.
         12    1    3    3    0    0 -0.12285871521E+02 -0.58892247098E+01  0.92763061360E+01  0.16482580570E+02  0.00000000000E+00 0. -1.
</event>
<event>
 7    1  0.1402367E-008  0.4614232E+02  0.7816164E-02  0.1320468E+00
        -11   -1    0    0    0    0  0.00000000000E+00  0.00000000000E+00  0.45593999997E+02  0.45594000000E+02  0.51100000000E-03 0. -1.
         11   -1    0    0    0    0 -0.00000000000E+00 -0.00000000000E+00 -0.45593999997E+02  0.45594000000E+02  0.51100000000E-03 0.  1.
    9900012    2    1    2    0    0 -0.33243829980E+02  0.58601243573E+01  0.29826501250E+02  0.46142318009E+02  0.10000002258E+02 0.  0.
         12    1    1    2    0    0  0.33243829980E+02 -0.58601243573E+01 -0.29826501250E+02  0.45045681991E+02  0.00000000000E+00 0. -1.
         11    1    3    3    0    0 -0.54247033360E+01  0.72672545630E-01  0.98878113293E+00  0.55145603608E+01  0.51100000000E-03 0. -1.
        -11    1    3    3    0    0 -0.91125669641E+01  0.12855600570E+01  0.11491323468E+02  0.14722162091E+02  0.51100000000E-03 0.  1.
         12    1    3    3    0    0 -0.18706559680E+02  0.45018917547E+01  0.17346396649E+02  0.25905595557E+02  0.00000000000E+00 0. -1.
</event>
<event>
 7    1  0.1402367E-008  0.4614232E+02  0.7816164E-02  0.1320468E+00
        -11   -1    0    0    0    0  0.00000000000E+00  0.00000000000E+00  0.45593999997E+02  0.45594000000E+02  0.51100000000E-03 0. -1.
         11   -1    0    0    0    0 -0.00000000000E+00 -0.00000000000E+00 -0.45593999997E+02  0.45594000000E+02  0.51100000000E-03 0.  1.
    9900012    2    1    2    0    0 -0.18631741068E+02 -0.36293341351E+02 -0.19098824630E+02  0.46142317589E+02  0.99999984291E+01 0.  0.
         12    1    1    2    0    0  0.18631741068E+02  0.36293341351E+02  0.19098824630E+02  0.45045682411E+02  0.00000000000E+00 0. -1.
         11    1    3    3    0    0 -0.27999940980E+01 -0.13749021856E+02 -0.45252484809E+01  0.14742911620E+02  0.51100000000E-03 0. -1.
        -11    1    3    3    0    0 -0.11200730782E+02 -0.18610734953E+02 -0.10957090885E+02  0.24328453845E+02  0.51100000000E-03 0.  1.
         12    1    3    3    0    0 -0.46310161885E+01 -0.39335845414E+01 -0.36164852638E+01  0.70709521245E+01  0.00000000000E+00 0. -1.
</event>
<event>
 7    1  0.1402367E-008  0.4614232E+02  0.7816164E-02  0.1320468E+00
        -11   -1    0    0    0    0  0.00000000000E+00  0.00000000000E+00  0.45593999997E+02  0.45594000000E+02  0.51100000000E-03 0.  1.
         11   -1    0    0    0    0 -0.00000000000E+00 -0.00000000000E+00 -0.45593999997E+02  0.45594000000E+02  0.51100000000E-03 0. -1.
    9900012    2    1    2    0    0 -0.14199818376E+02  0.27629532953E+02  0.32620355218E+02  0.46142317547E+02  0.99999980435E+01 0.  0.
         12    1    1    2    0    0  0.14199818376E+02 -0.27629532953E+02 -0.32620355218E+02  0.45045682453E+02  0.00000000000E+00 0. -1.
         11    1    3    3    0    0 -0.72735922307E+01  0.17218006888E+02  0.14506964052E+02  0.23660450363E+02  0.51100000000E-03 0. -1.
        -11    1    3    3    0    0 -0.71786685325E+01  0.10552291962E+02  0.16589117598E+02  0.20930431684E+02  0.51100000000E-03 0.  1.
         12    1    3    3    0    0  0.25244238738E+00 -0.14076589630E+00  0.15242735684E+01  0.15514354991E+01  0.00000000000E+00 0. -1.
</event>
<event>
 7    1  0.1402367E-008  0.4614233E+02  0.7816164E-02  0.1320468E+00
        -11   -1    0    0    0    0  0.00000000000E+00  0.00000000000E+00  0.45593999997E+02  0.45594000000E+02  0.51100000000E-03 0.  1.
         11   -1    0    0    0    0 -0.00000000000E+00 -0.00000000000E+00 -0.45593999997E+02  0.45594000000E+02  0.51100000000E-03 0. -1.
    9900012    2    1    2    0    0 -0.35774552235E+02  0.20445889733E+02  0.18200544231E+02  0.46142325348E+02  0.10000069180E+02 0.  0.
         12    1    1    2    0    0  0.35774552235E+02 -0.20445889733E+02 -0.18200544231E+02  0.45045674652E+02  0.00000000000E+00 0. -1.
         11    1    3    3    0    0 -0.20170671908E+02  0.65473314709E+01  0.69527125044E+01  0.22317342271E+02  0.51100000000E-03 0. -1.
        -11    1    3    3    0    0 -0.15144563151E+02  0.12961468488E+02  0.10420392850E+02  0.22493155533E+02  0.51100000000E-03 0.  1.
         12    1    3    3    0    0 -0.45931717593E+00  0.93708977431E+00  0.82743887690E+00  0.13318275445E+01  0.00000000000E+00 0. -1.
</event>
<event>
 7    1  0.1402367E-008  0.4614232E+02  0.7816164E-02  0.1320468E+00
        -11   -1    0    0    0    0  0.00000000000E+00  0.00000000000E+00  0.45593999997E+02  0.45594000000E+02  0.51100000000E-03 0.  1.
         11   -1    0    0    0    0 -0.00000000000E+00 -0.00000000000E+00 -0.45593999997E+02  0.45594000000E+02  0.51100000000E-03 0. -1.
    9900012    2    1    2    0    0  0.44140115291E+01  0.35858098216E+02 -0.26904029687E+02  0.46142317422E+02  0.99999969090E+01 0.  0.
         12    1    1    2    0    0 -0.44140115291E+01 -0.35858098216E+02  0.26904029687E+02  0.45045682578E+02  0.00000000000E+00 0. -1.
         11    1    3    3    0    0 -0.20602046079E+01  0.22178482207E+01 -0.19582351306E+01  0.36052709807E+01  0.51100000000E-03 0. -1.
        -11    1    3    3    0    0  0.23484317413E+01  0.14706167451E+02 -0.86838200531E+01  0.17239351024E+02  0.51100000000E-03 0.  1.
        -12    1    3    3    0    0  0.41257843956E+01  0.18934082545E+02 -0.16261974504E+02  0.25297695418E+02  0.00000000000E+00 0.  1.
</event>
<event>
 7    1  0.1402367E-008  0.4614232E+02  0.7816164E-02  0.1320468E+00
        -11   -1    0    0    0    0  0.00000000000E+00  0.00000000000E+00  0.45593999997E+02  0.45594000000E+02  0.51100000000E-03 0.  1.
         11   -1    0    0    0    0 -0.00000000000E+00 -0.00000000000E+00 -0.45593999997E+02  0.45594000000E+02  0.51100000000E-03 0. -1.
    9900012    2    1    2    0    0  0.31310132697E+02 -0.31997882379E+02  0.49924691815E+01  0.46142316136E+02  0.99999851819E+01 0.  0.
         12    1    1    2    0    0 -0.31310132697E+02  0.31997882379E+02 -0.49924691815E+01  0.45045683864E+02  0.00000000000E+00 0. -1.
         11    1    3    3    0    0  0.36232286464E+01 -0.51446780511E+01  0.32953457784E+01  0.71031543792E+01  0.51100000000E-03 0. -1.
        -11    1    3    3    0    0  0.22632701553E+02 -0.19092696964E+02 -0.72397168889E-01  0.29610395110E+02  0.51100000000E-03 0.  1.
        -12    1    3    3    0    0  0.50542024973E+01 -0.77605073643E+01  0.17695205719E+01  0.94287666473E+01  0.00000000000E+00 0.  1.
</event>
<event>
 7    1  0.1402367E-008  0.4614232E+02  0.7816164E-02  0.1320468E+00
        -11   -1    0    0    0    0  0.00000000000E+00  0.00000000000E+00  0.45593999997E+02  0.45594000000E+02  0.51100000000E-03 0.  1.
         11   -1    0    0    0    0 -0.00000000000E+00 -0.00000000000E+00 -0.45593999997E+02  0.45594000000E+02  0.51100000000E-03 0. -1.
    9900012    2    1    2    0    0  0.23878780844E+01 -0.72408741762E+01  0.44395736583E+02  0.46142315996E+02  0.99999839063E+01 0.  0.
         12    1    1    2    0    0 -0.23878780844E+01  0.72408741762E+01 -0.44395736583E+02  0.45045684004E+02  0.00000000000E+00 0. -1.
         11    1    3    3    0    0  0.12005097813E+01  0.39881198008E+00  0.44117427790E+00  0.13397424137E+01  0.51100000000E-03 0. -1.
        -11    1    3    3    0    0  0.25099778253E+01 -0.61861333381E+01  0.35538764409E+02  0.36160365185E+02  0.51100000000E-03 0.  1.
         12    1    3    3    0    0 -0.13226095223E+01 -0.14535528182E+01  0.84157978965E+01  0.86422083971E+01  0.00000000000E+00 0. -1.
</event>
<event>
 7    1  0.1402367E-008  0.4614232E+02  0.7816164E-02  0.1320468E+00
        -11   -1    0    0    0    0  0.00000000000E+00  0.00000000000E+00  0.45593999997E+02  0.45594000000E+02  0.51100000000E-03 0.  1.
         11   -1    0    0    0    0 -0.00000000000E+00 -0.00000000000E+00 -0.45593999997E+02  0.45594000000E+02  0.51100000000E-03 0. -1.
    9900012    2    1    2    0    0 -0.65000219030E+01  0.21419449394E+02  0.39090539523E+02  0.46142318994E+02  0.10000011242E+02 0.  0.
         12    1    1    2    0    0  0.65000219030E+01 -0.21419449394E+02 -0.39090539523E+02  0.45045681006E+02  0.00000000000E+00 0. -1.
         11    1    3    3    0    0 -0.42494408451E+01  0.54407183734E+01  0.66201807829E+01  0.95648292078E+01  0.51100000000E-03 0. -1.
        -11    1    3    3    0    0 -0.18293990584E+01  0.11663391407E+02  0.27809299641E+02  0.30211563131E+02  0.51100000000E-03 0.  1.
        -12    1    3    3    0    0 -0.42118199951E+00  0.43153396129E+01  0.46610591000E+01  0.63659266556E+01  0.00000000000E+00 0.  1.
</event>
<event>
 7    1  0.1402367E-008  0.4614232E+02  0.7816164E-02  0.1320468E+00
        -11   -1    0    0    0    0  0.00000000000E+00  0.00000000000E+00  0.45593999997E+02  0.45594000000E+02  0.51100000000E-03 0.  1.
         11   -1    0    0    0    0 -0.00000000000E+00 -0.00000000000E+00 -0.45593999997E+02  0.45594000000E+02  0.51100000000E-03 0. -1.
    9900012    2    1    2    0    0  0.29221190632E+02  0.34270006780E+02 -0.89565939670E+00  0.46142317051E+02  0.99999935205E+01 0.  0.
         12    1    1    2    0    0 -0.29221190632E+02 -0.34270006780E+02  0.89565939670E+00  0.45045682949E+02  0.00000000000E+00 0. -1.
         11    1    3    3    0    0  0.23301428597E+01 -0.25032806868E-01  0.55308240913E+00  0.23950141546E+01  0.51100000000E-03 0. -1.
        -11    1    3    3    0    0  0.96523397448E+01  0.10606989795E+02 -0.17596298232E+01  0.14448951257E+02  0.51100000000E-03 0.  1.
         12    1    3    3    0    0  0.17238708027E+02  0.23688049792E+02  0.31088801740E+00  0.29298351639E+02  0.00000000000E+00 0. -1.
</event>
<event>
 7    1  0.1402367E-008  0.4614232E+02  0.7816164E-02  0.1320468E+00
        -11   -1    0    0    0    0  0.00000000000E+00  0.00000000000E+00  0.45593999997E+02  0.45594000000E+02  0.51100000000E-03 0. -1.
         11   -1    0    0    0    0 -0.00000000000E+00 -0.00000000000E+00 -0.45593999997E+02  0.45594000000E+02  0.51100000000E-03 0.  1.
    9900012    2    1    2    0    0  0.38942153736E+02 -0.45474743118E+01 -0.22179780679E+02  0.46142317286E+02  0.99999956697E+01 0.  0.
         12    1    1    2    0    0 -0.38942153736E+02  0.45474743118E+01  0.22179780679E+02  0.45045682714E+02  0.00000000000E+00 0. -1.
         11    1    3    3    0    0  0.15722069028E+02  0.11986196461E+01 -0.54808113037E+01  0.16693095470E+02  0.51100000000E-03 0. -1.
        -11    1    3    3    0    0  0.97051390975E+01 -0.31782631295E+01 -0.93817489296E+01  0.13867526624E+02  0.51100000000E-03 0.  1.
        -12    1    3    3    0    0  0.13514945611E+02 -0.25678308284E+01 -0.73172204455E+01  0.15581695192E+02  0.00000000000E+00 0.  1.
</event>
<event>
 7    1  0.1402367E-008  0.4614232E+02  0.7816164E-02  0.1320468E+00
        -11   -1    0    0    0    0  0.00000000000E+00  0.00000000000E+00  0.45593999997E+02  0.45594000000E+02  0.51100000000E-03 0. -1.
         11   -1    0    0    0    0 -0.00000000000E+00 -0.00000000000E+00 -0.45593999997E+02  0.45594000000E+02  0.51100000000E-03 0.  1.
    9900012    2    1    2    0    0 -0.28631858290E+02  0.32997055030E+02 -0.10978373664E+02  0.46142316099E+02  0.99999848416E+01 0.  0.
         12    1    1    2    0    0  0.28631858290E+02 -0.32997055030E+02  0.10978373664E+02  0.45045683901E+02  0.00000000000E+00 0. -1.
         11    1    3    3    0    0 -0.39998922510E+01  0.85948644902E+01 -0.37293489568E+01  0.10187191837E+02  0.51100000000E-03 0. -1.
        -11    1    3    3    0    0 -0.19532894899E+02  0.21917616997E+02 -0.46831247025E+01  0.29729574084E+02  0.51100000000E-03 0.  1.
         12    1    3    3    0    0 -0.50990711403E+01  0.24845735434E+01 -0.25659000045E+01  0.62255501781E+01  0.00000000000E+00 0. -1.
</event>
<event>
 7    1  0.1402367E-008  0.4614232E+02  0.7816164E-02  0.1320468E+00
        -11   -1    0    0    0    0  0.00000000000E+00  0.00000000000E+00  0.45593999997E+02  0.45594000000E+02  0.51100000000E-03 0. -1.
         11   -1    0    0    0    0 -0.00000000000E+00 -0.00000000000E+00 -0.45593999997E+02  0.45594000000E+02  0.51100000000E-03 0.  1.
    9900012    2    1    2    0    0 -0.15049911798E+01 -0.14088850488E+02 -0.42759242129E+02  0.46142317699E+02  0.99999994334E+01 0.  0.
         12    1    1    2    0    0  0.15049911798E+01  0.14088850488E+02  0.42759242129E+02  0.45045682301E+02  0.00000000000E+00 0. -1.
         11    1    3    3    0    0  0.27998316353E+00 -0.79019796629E+01 -0.29889466004E+02  0.30917630107E+02  0.51100000000E-03 0.  1.
        -11    1    3    3    0    0  0.33105070546E+00 -0.23003715251E+01 -0.95133560757E+00  0.25112434016E+01  0.51100000000E-03 0. -1.
         12    1    3    3    0    0 -0.21160250488E+01 -0.38864992997E+01 -0.11918440518E+02  0.12713444190E+02  0.00000000000E+00 0. -1.
</event>
<event>
 7    1  0.1402367E-008  0.4614232E+02  0.7816164E-02  0.1320468E+00
        -11   -1    0    0    0    0  0.00000000000E+00  0.00000000000E+00  0.45593999997E+02  0.45594000000E+02  0.51100000000E-03 0.  1.
         11   -1    0    0    0    0 -0.00000000000E+00 -0.00000000000E+00 -0.45593999997E+02  0.45594000000E+02  0.51100000000E-03 0. -1.
    9900012    2    1    2    0    0  0.30144172553E+02 -0.14036462556E+01  0.33443566109E+02  0.46142317900E+02  0.10000001268E+02 0.  0.
         12    1    1    2    0    0 -0.30144172553E+02  0.14036462556E+01 -0.33443566109E+02  0.45045682100E+02  0.00000000000E+00 0. -1.
         11    1    3    3    0    0  0.15003556597E+02 -0.38924973788E+00  0.99093293445E+01  0.17984800089E+02  0.51100000000E-03 0. -1.
        -11    1    3    3    0    0  0.97786570465E+01 -0.19569507175E+01  0.16201222788E+02  0.19024494995E+02  0.51100000000E-03 0.  1.
         12    1    3    3    0    0  0.53619589100E+01  0.94255419974E+00  0.73330139768E+01  0.91330228159E+01  0.00000000000E+00 0. -1.
</event>
<event>
 7    1  0.1402367E-008  0.4614232E+02  0.7816164E-02  0.1320468E+00
        -11   -1    0    0    0    0  0.00000000000E+00  0.00000000000E+00  0.45593999997E+02  0.45594000000E+02  0.51100000000E-03 0.  1.
         11   -1    0    0    0    0 -0.00000000000E+00 -0.00000000000E+00 -0.45593999997E+02  0.45594000000E+02  0.51100000000E-03 0. -1.
    9900012    2    1    2    0    0  0.39300600292E+02  0.91387869909E+01  0.20026452068E+02  0.46142318816E+02  0.10000009615E+02 0.  0.
         12    1    1    2    0    0 -0.39300600292E+02 -0.91387869909E+01 -0.20026452068E+02  0.45045681184E+02  0.00000000000E+00 0. -1.
         11    1    3    3    0    0  0.60294636188E+01 -0.17170746730E+01  0.45958249742E+01  0.77733123196E+01  0.51100000000E-03 0. -1.
        -11    1    3    3    0    0  0.11842616048E+02  0.39632985381E+01  0.71118334093E+01  0.14371272208E+02  0.51100000000E-03 0.  1.
         12    1    3    3    0    0  0.21428520625E+02  0.68925631257E+01  0.83187936841E+01  0.23997734288E+02  0.00000000000E+00 0. -1.
</event>
<event>
 7    1  0.1402367E-008  0.4614232E+02  0.7816164E-02  0.1320468E+00
        -11   -1    0    0    0    0  0.00000000000E+00  0.00000000000E+00  0.45593999997E+02  0.45594000000E+02  0.51100000000E-03 0.  1.
         11   -1    0    0    0    0 -0.00000000000E+00 -0.00000000000E+00 -0.45593999997E+02  0.45594000000E+02  0.51100000000E-03 0. -1.
    9900012    2    1    2    0    0 -0.21255610548E+01 -0.24222256904E+02  0.37919358581E+02  0.46142317693E+02  0.99999993763E+01 0.  0.
         12    1    1    2    0    0  0.21255610548E+01  0.24222256904E+02 -0.37919358581E+02  0.45045682307E+02  0.00000000000E+00 0. -1.
         11    1    3    3    0    0  0.67256545689E+00 -0.91351310441E+01  0.77827619188E+01  0.12019748202E+02  0.51100000000E-03 0. -1.
        -11    1    3    3    0    0  0.92309014463E+00 -0.39451708875E+01  0.10306121538E+02  0.11073960907E+02  0.51100000000E-03 0.  1.
         12    1    3    3    0    0 -0.37212166563E+01 -0.11141954972E+02  0.19830475124E+02  0.23048608584E+02  0.00000000000E+00 0. -1.
</event>
<event>
 7    1  0.1402367E-008  0.4614232E+02  0.7816164E-02  0.1320468E+00
        -11   -1    0    0    0    0  0.00000000000E+00  0.00000000000E+00  0.45593999997E+02  0.45594000000E+02  0.51100000000E-03 0.  1.
         11   -1    0    0    0    0 -0.00000000000E+00 -0.00000000000E+00 -0.45593999997E+02  0.45594000000E+02  0.51100000000E-03 0. -1.
    9900012    2    1    2    0    0  0.27863646214E+02 -0.24434501629E+02  0.25606361693E+02  0.46142318638E+02  0.10000007999E+02 0.  0.
         12    1    1    2    0    0 -0.27863646214E+02  0.24434501629E+02 -0.25606361693E+02  0.45045681362E+02  0.00000000000E+00 0. -1.
         11    1    3    3    0    0  0.77196586752E+01 -0.53260008163E+01  0.21730699012E+01  0.96271308194E+01  0.51100000000E-03 0. -1.
        -11    1    3    3    0    0  0.19287317584E+02 -0.17059559923E+02  0.22037234223E+02  0.33892018187E+02  0.51100000000E-03 0.  1.
        -12    1    3    3    0    0  0.85666995513E+00 -0.20489408899E+01  0.13960575687E+01  0.26231696318E+01  0.00000000000E+00 0.  1.
</event>
<event>
 7    1  0.1402367E-008  0.4614232E+02  0.7816164E-02  0.1320468E+00
        -11   -1    0    0    0    0  0.00000000000E+00  0.00000000000E+00  0.45593999997E+02  0.45594000000E+02  0.51100000000E-03 0.  1.
         11   -1    0    0    0    0 -0.00000000000E+00 -0.00000000000E+00 -0.45593999997E+02  0.45594000000E+02  0.51100000000E-03 0. -1.
    9900012    2    1    2    0    0 -0.17588264596E+02 -0.15912566803E+02  0.38295647539E+02  0.46142318141E+02  0.10000003460E+02 0.  0.
         12    1    1    2    0    0  0.17588264596E+02  0.15912566803E+02 -0.38295647539E+02  0.45045681859E+02  0.00000000000E+00 0. -1.
         11    1    3    3    0    0 -0.64491581979E+01 -0.93069343272E+01  0.12349040926E+02  0.16754386891E+02  0.51100000000E-03 0. -1.
        -11    1    3    3    0    0 -0.42682464137E+01 -0.47417910073E+01  0.15338269441E+02  0.16612194892E+02  0.51100000000E-03 0.  1.
        -12    1    3    3    0    0 -0.68708599843E+01 -0.18638414686E+01  0.10608337172E+02  0.12775736358E+02  0.00000000000E+00 0.  1.
</event>
<event>
 7    1  0.1402367E-008  0.4614232E+02  0.7816164E-02  0.1320468E+00
        -11   -1    0    0    0    0  0.00000000000E+00  0.00000000000E+00  0.45593999997E+02  0.45594000000E+02  0.51100000000E-03 0.  1.
         11   -1    0    0    0    0 -0.00000000000E+00 -0.00000000000E+00 -0.45593999997E+02  0.45594000000E+02  0.51100000000E-03 0. -1.
    9900012    2    1    2    0    0 -0.22271701617E+02  0.38274405361E+02  0.82555886938E+01  0.46142317151E+02  0.99999944353E+01 0.  0.
         12    1    1    2    0    0  0.22271701617E+02 -0.38274405361E+02 -0.82555886938E+01  0.45045682849E+02  0.00000000000E+00 0. -1.
         11    1    3    3    0    0 -0.14301595247E+02  0.31967225770E+02  0.78865042061E+01  0.35897577897E+02  0.51100000000E-03 0. -1.
        -11    1    3    3    0    0 -0.29550076504E+01  0.31059959330E+01  0.74224828716E-01  0.42877488892E+01  0.51100000000E-03 0.  1.
         12    1    3    3    0    0 -0.50150987201E+01  0.32011836578E+01  0.29485965904E+00  0.59569903645E+01  0.00000000000E+00 0. -1.
</event>
<event>
 7    1  0.1402367E-008  0.4614232E+02  0.7816164E-02  0.1320468E+00
        -11   -1    0    0    0    0  0.00000000000E+00  0.00000000000E+00  0.45593999997E+02  0.45594000000E+02  0.51100000000E-03 0.  1.
         11   -1    0    0    0    0 -0.00000000000E+00 -0.00000000000E+00 -0.45593999997E+02  0.45594000000E+02  0.51100000000E-03 0. -1.
    9900012    2    1    2    0    0  0.86187055428E+01 -0.31945895916E+02  0.30566175770E+02  0.46142318161E+02  0.10000003651E+02 0.  0.
         12    1    1    2    0    0 -0.86187055428E+01  0.31945895916E+02 -0.30566175770E+02  0.45045681839E+02  0.00000000000E+00 0. -1.
         11    1    3    3    0    0 -0.20131599028E+00 -0.21529415572E+01  0.12431660683E+01  0.24942228471E+01  0.51100000000E-03 0. -1.
        -11    1    3    3    0    0  0.30773100324E+01 -0.21694239373E+02  0.23535015887E+02  0.32155976615E+02  0.51100000000E-03 0.  1.
        -12    1    3    3    0    0  0.57427115007E+01 -0.80987149859E+01  0.57879938143E+01  0.11492118699E+02  0.00000000000E+00 0.  1.
</event>
<event>
 7    1  0.1402367E-008  0.4614232E+02  0.7816164E-02  0.1320468E+00
        -11   -1    0    0    0    0  0.00000000000E+00  0.00000000000E+00  0.45593999997E+02  0.45594000000E+02  0.51100000000E-03 0. -1.
         11   -1    0    0    0    0 -0.00000000000E+00 -0.00000000000E+00 -0.45593999997E+02  0.45594000000E+02  0.51100000000E-03 0.  1.
    9900012    2    1    2    0    0 -0.31904415234E+02  0.20743823633E+02 -0.24102192871E+02  0.46142316172E+02  0.99999855122E+01 0.  0.
         12    1    1    2    0    0  0.31904415234E+02 -0.20743823633E+02  0.24102192871E+02  0.45045683828E+02  0.00000000000E+00 0. -1.
         11    1    3    3    0    0 -0.11152132817E+02  0.11570151681E+02 -0.11303226629E+02  0.19646918557E+02  0.51100000000E-03 0. -1.
        -11    1    3    3    0    0 -0.18917896209E+02  0.97317104016E+01 -0.11921278872E+02  0.24386674118E+02  0.51100000000E-03 0.  1.
        -12    1    3    3    0    0 -0.18343862079E+01 -0.55803844972E+00 -0.87768736926E+00  0.21087234976E+01  0.00000000000E+00 0.  1.
</event>
<event>
 7    1  0.1402367E-008  0.4614232E+02  0.7816164E-02  0.1320468E+00
        -11   -1    0    0    0    0  0.00000000000E+00  0.00000000000E+00  0.45593999997E+02  0.45594000000E+02  0.51100000000E-03 0. -1.
         11   -1    0    0    0    0 -0.00000000000E+00 -0.00000000000E+00 -0.45593999997E+02  0.45594000000E+02  0.51100000000E-03 0.  1.
    9900012    2    1    2    0    0  0.21071820262E+02  0.35210044278E+02 -0.18583443266E+02  0.46142321064E+02  0.10000030114E+02 0.  0.
         12    1    1    2    0    0 -0.21071820262E+02 -0.35210044278E+02  0.18583443266E+02  0.45045678936E+02  0.00000000000E+00 0. -1.
         11    1    3    3    0    0  0.40150899143E+01  0.25582544379E+01 -0.17743058440E+01  0.50807257630E+01  0.51100000000E-03 0. -1.
        -11    1    3    3    0    0  0.98962972748E+01  0.16954330425E+02 -0.12517195481E+02  0.23282315239E+02  0.51100000000E-03 0.  1.
        -12    1    3    3    0    0  0.71604330726E+01  0.15697459415E+02 -0.42919419409E+01  0.17779280062E+02  0.00000000000E+00 0.  1.
</event>
<event>
 7    1  0.1402367E-008  0.4614232E+02  0.7816164E-02  0.1320468E+00
        -11   -1    0    0    0    0  0.00000000000E+00  0.00000000000E+00  0.45593999997E+02  0.45594000000E+02  0.51100000000E-03 0. -1.
         11   -1    0    0    0    0 -0.00000000000E+00 -0.00000000000E+00 -0.45593999997E+02  0.45594000000E+02  0.51100000000E-03 0.  1.
    9900012    2    1    2    0    0  0.33545834687E+02 -0.29829503519E+02 -0.37404858908E+01  0.46142317190E+02  0.99999947965E+01 0.  0.
         12    1    1    2    0    0 -0.33545834687E+02  0.29829503519E+02  0.37404858908E+01  0.45045682810E+02  0.00000000000E+00 0. -1.
         11    1    3    3    0    0  0.81855057596E+01 -0.12513794942E+02 -0.23971038867E+01  0.15144097058E+02  0.51100000000E-03 0. -1.
        -11    1    3    3    0    0  0.70898767524E+01 -0.33519445836E+01 -0.15874013272E+01  0.80013578904E+01  0.51100000000E-03 0.  1.
        -12    1    3    3    0    0  0.18270452175E+02 -0.13963763994E+02  0.24401932314E+00  0.22996862243E+02  0.00000000000E+00 0.  1.
</event>
<event>
 7    1  0.1402367E-008  0.4614232E+02  0.7816164E-02  0.1320468E+00
        -11   -1    0    0    0    0  0.00000000000E+00  0.00000000000E+00  0.45593999997E+02  0.45594000000E+02  0.51100000000E-03 0.  1.
         11   -1    0    0    0    0 -0.00000000000E+00 -0.00000000000E+00 -0.45593999997E+02  0.45594000000E+02  0.51100000000E-03 0. -1.
    9900012    2    1    2    0    0  0.99247885770E+01  0.21403543207E+02  0.38373172896E+02  0.46142317763E+02  0.10000000015E+02 0.  0.
         12    1    1    2    0    0 -0.99247885770E+01 -0.21403543207E+02 -0.38373172896E+02  0.45045682237E+02  0.00000000000E+00 0. -1.
         11    1    3    3    0    0  0.39504459435E+01  0.71089285933E+01  0.59540216332E+01  0.10079348330E+02  0.51100000000E-03 0. -1.
        -11    1    3    3    0    0  0.44985143361E+01  0.67891364903E+01  0.16351440067E+02  0.18267419030E+02  0.51100000000E-03 0.  1.
         12    1    3    3    0    0  0.14758282974E+01  0.75054781237E+01  0.16067711196E+02  0.17795550402E+02  0.00000000000E+00 0. -1.
</event>
<event>
 7    1  0.1402367E-008  0.4614232E+02  0.7816164E-02  0.1320468E+00
        -11   -1    0    0    0    0  0.00000000000E+00  0.00000000000E+00  0.45593999997E+02  0.45594000000E+02  0.51100000000E-03 0. -1.
         11   -1    0    0    0    0 -0.00000000000E+00 -0.00000000000E+00 -0.45593999997E+02  0.45594000000E+02  0.51100000000E-03 0.  1.
    9900012    2    1    2    0    0 -0.15513263563E+01 -0.44614391725E+02 -0.60218658782E+01  0.46142318397E+02  0.10000005794E+02 0.  0.
         12    1    1    2    0    0  0.15513263563E+01  0.44614391725E+02  0.60218658782E+01  0.45045681603E+02  0.00000000000E+00 0. -1.
         11    1    3    3    0    0  0.26026125030E+01 -0.19151481033E+02 -0.57584107906E+01  0.20167104717E+02  0.51100000000E-03 0. -1.
        -11    1    3    3    0    0 -0.44970423302E+01 -0.22719580486E+02 -0.72772643999E+00  0.23171799956E+02  0.51100000000E-03 0.  1.
        -12    1    3    3    0    0  0.34310347090E+00 -0.27433302066E+01  0.46427135241E+00  0.28034137231E+01  0.00000000000E+00 0.  1.
</event>
<event>
 7    1  0.1402367E-008  0.4614232E+02  0.7816164E-02  0.1320468E+00
        -11   -1    0    0    0    0  0.00000000000E+00  0.00000000000E+00  0.45593999997E+02  0.45594000000E+02  0.51100000000E-03 0.  1.
         11   -1    0    0    0    0 -0.00000000000E+00 -0.00000000000E+00 -0.45593999997E+02  0.45594000000E+02  0.51100000000E-03 0. -1.
    9900012    2    1    2    0    0  0.13471262326E+02  0.27707723790E+02  0.32862140510E+02  0.46142321570E+02  0.10000034733E+02 0.  0.
         12    1    1    2    0    0 -0.13471262326E+02 -0.27707723790E+02 -0.32862140510E+02  0.45045678430E+02  0.00000000000E+00 0. -1.
         11    1    3    3    0    0  0.76459706903E+01  0.14184327760E+02  0.14478051130E+02  0.21662640342E+02  0.51100000000E-03 0. -1.
        -11    1    3    3    0    0  0.60054746113E+01  0.13813856893E+02  0.18701506097E+02  0.24013219237E+02  0.51100000000E-03 0.  1.
         12    1    3    3    0    0 -0.18018297523E+00 -0.29046086325E+00 -0.31741671617E+00  0.46646199131E+00  0.00000000000E+00 0. -1.
</event>
<event>
 7    1  0.1402367E-008  0.4614232E+02  0.7816164E-02  0.1320468E+00
        -11   -1    0    0    0    0  0.00000000000E+00  0.00000000000E+00  0.45593999997E+02  0.45594000000E+02  0.51100000000E-03 0. -1.
         11   -1    0    0    0    0 -0.00000000000E+00 -0.00000000000E+00 -0.45593999997E+02  0.45594000000E+02  0.51100000000E-03 0.  1.
    9900012    2    1    2    0    0  0.18580027698E+02  0.29764600558E+02 -0.28248264949E+02  0.46142319316E+02  0.10000014175E+02 0.  0.
         12    1    1    2    0    0 -0.18580027698E+02 -0.29764600558E+02  0.28248264949E+02  0.45045680684E+02  0.00000000000E+00 0. -1.
         11    1    3    3    0    0  0.73168097773E+01  0.69300157238E+01 -0.47015130114E+01  0.11120478771E+02  0.51100000000E-03 0. -1.
        -11    1    3    3    0    0  0.58898879421E+01  0.10475572485E+02 -0.14293326580E+02  0.18674249218E+02  0.51100000000E-03 0.  1.
         12    1    3    3    0    0  0.53733299788E+01  0.12359012350E+02 -0.92534253581E+01  0.16347591327E+02  0.00000000000E+00 0. -1.
</event>
<event>
 7    1  0.1402367E-008  0.4614232E+02  0.7816164E-02  0.1320468E+00
        -11   -1    0    0    0    0  0.00000000000E+00  0.00000000000E+00  0.45593999997E+02  0.45594000000E+02  0.51100000000E-03 0.  1.
         11   -1    0    0    0    0 -0.00000000000E+00 -0.00000000000E+00 -0.45593999997E+02  0.45594000000E+02  0.51100000000E-03 0. -1.
    9900012    2    1    2    0    0 -0.40027703229E+02 -0.13709692171E+02  0.15457705968E+02  0.46142319197E+02  0.10000013095E+02 0.  0.
         12    1    1    2    0    0  0.40027703229E+02  0.13709692171E+02 -0.15457705968E+02  0.45045680803E+02  0.00000000000E+00 0. -1.
         11    1    3    3    0    0 -0.27982197035E+01 -0.13245584803E+01  0.84219295317E+00  0.32083917947E+01  0.51100000000E-03 0. -1.
        -11    1    3    3    0    0 -0.12199150407E+02 -0.45103202353E+01  0.22741860583E+00  0.13008227349E+02  0.51100000000E-03 0.  1.
        -12    1    3    3    0    0 -0.25030333118E+02 -0.78748134555E+01  0.14388094409E+02  0.29925700054E+02  0.00000000000E+00 0.  1.
</event>
<event>
 7    1  0.1402367E-008  0.4614232E+02  0.7816164E-02  0.1320468E+00
        -11   -1    0    0    0    0  0.00000000000E+00  0.00000000000E+00  0.45593999997E+02  0.45594000000E+02  0.51100000000E-03 0. -1.
         11   -1    0    0    0    0 -0.00000000000E+00 -0.00000000000E+00 -0.45593999997E+02  0.45594000000E+02  0.51100000000E-03 0.  1.
    9900012    2    1    2    0    0 -0.63783402200E+01  0.37575233060E+02 -0.24011081829E+02  0.46142318586E+02  0.10000007518E+02 0.  0.
         12    1    1    2    0    0  0.63783402200E+01 -0.37575233060E+02  0.24011081829E+02  0.45045681414E+02  0.00000000000E+00 0. -1.
         11    1    3    3    0    0 -0.61679656606E+01  0.12845958382E+02 -0.81920758542E+01  0.16436926544E+02  0.51100000000E-03 0. -1.
        -11    1    3    3    0    0 -0.10208931905E+01  0.18121026042E+02 -0.93257080263E+01  0.20405456089E+02  0.51100000000E-03 0.  1.
         12    1    3    3    0    0  0.81051863104E+00  0.66082486362E+01 -0.64932979482E+01  0.92999359532E+01  0.00000000000E+00 0. -1.
</event>
<event>
 7    1  0.1402367E-008  0.4614232E+02  0.7816164E-02  0.1320468E+00
        -11   -1    0    0    0    0  0.00000000000E+00  0.00000000000E+00  0.45593999997E+02  0.45594000000E+02  0.51100000000E-03 0.  1.
         11   -1    0    0    0    0 -0.00000000000E+00 -0.00000000000E+00 -0.45593999997E+02  0.45594000000E+02  0.51100000000E-03 0. -1.
    9900012    2    1    2    0    0 -0.20715490564E+02 -0.26770338205E+02  0.29720883452E+02  0.46142317964E+02  0.10000001854E+02 0.  0.
         12    1    1    2    0    0  0.20715490564E+02  0.26770338205E+02 -0.29720883452E+02  0.45045682036E+02  0.00000000000E+00 0. -1.
         11    1    3    3    0    0 -0.11319550130E+01 -0.27176874394E+01 -0.54824564226E-01  0.29445123813E+01  0.51100000000E-03 0. -1.
        -11    1    3    3    0    0 -0.10202629492E+02 -0.92507080182E+01  0.13092024208E+02  0.19001851108E+02  0.51100000000E-03 0.  1.
        -12    1    3    3    0    0 -0.93809060584E+01 -0.14801942747E+02  0.16683683808E+02  0.24195954475E+02  0.00000000000E+00 0.  1.
</event>
<event>
 7    1  0.1402367E-008  0.4614232E+02  0.7816164E-02  0.1320468E+00
        -11   -1    0    0    0    0  0.00000000000E+00  0.00000000000E+00  0.45593999997E+02  0.45594000000E+02  0.51100000000E-03 0.  1.
         11   -1    0    0    0    0 -0.00000000000E+00 -0.00000000000E+00 -0.45593999997E+02  0.45594000000E+02  0.51100000000E-03 0. -1.
    9900012    2    1    2    0    0  0.17786220256E+02  0.25313554573E+02  0.32741224038E+02  0.46142318435E+02  0.10000006145E+02 0.  0.
         12    1    1    2    0    0 -0.17786220256E+02 -0.25313554573E+02 -0.32741224038E+02  0.45045681565E+02  0.00000000000E+00 0. -1.
         11    1    3    3    0    0  0.27795482690E+01  0.19621257644E+01  0.11786173439E+01  0.36006895450E+01  0.51100000000E-03 0. -1.
        -11    1    3    3    0    0  0.13097601279E+02  0.15486433999E+02  0.24444995932E+02  0.31763731262E+02  0.51100000000E-03 0.  1.
        -12    1    3    3    0    0  0.19090707080E+01  0.78649948096E+01  0.71176107619E+01  0.10777897628E+02  0.00000000000E+00 0.  1.
</event>
<event>
 7    1  0.1402367E-008  0.4614232E+02  0.7816164E-02  0.1320468E+00
        -11   -1    0    0    0    0  0.00000000000E+00  0.00000000000E+00  0.45593999997E+02  0.45594000000E+02  0.51100000000E-03 0.  1.
         11   -1    0    0    0    0 -0.00000000000E+00 -0.00000000000E+00 -0.45593999997E+02  0.45594000000E+02  0.51100000000E-03 0. -1.
    9900012    2    1    2    0    0 -0.25028013686E+02 -0.31338952164E+02  0.20508084173E+02  0.46142324200E+02  0.10000058717E+02 0.  0.
         12    1    1    2    0    0  0.25028013686E+02  0.31338952164E+02 -0.20508084173E+02  0.45045675800E+02  0.00000000000E+00 0. -1.
         11    1    3    3    0    0 -0.10562513186E+02 -0.13134431073E+02  0.37298422054E+01  0.17262435736E+02  0.51100000000E-03 0. -1.
        -11    1    3    3    0    0 -0.11022814824E+02 -0.11702096807E+02  0.12543280109E+02  0.20390571166E+02  0.51100000000E-03 0.  1.
        -12    1    3    3    0    0 -0.34426856753E+01 -0.65024242844E+01  0.42349618587E+01  0.84893172975E+01  0.00000000000E+00 0.  1.
</event>
<event>
 7    1  0.1402367E-008  0.4614232E+02  0.7816164E-02  0.1320468E+00
        -11   -1    0    0    0    0  0.00000000000E+00  0.00000000000E+00  0.45593999997E+02  0.45594000000E+02  0.51100000000E-03 0.  1.
         11   -1    0    0    0    0 -0.00000000000E+00 -0.00000000000E+00 -0.45593999997E+02  0.45594000000E+02  0.51100000000E-03 0. -1.
    9900012    2    1    2    0    0  0.16321665051E+02  0.98935453250E+01  0.40802383945E+02  0.46142317358E+02  0.99999963201E+01 0.  0.
         12    1    1    2    0    0 -0.16321665051E+02 -0.98935453250E+01 -0.40802383945E+02  0.45045682642E+02  0.00000000000E+00 0. -1.
         11    1    3    3    0    0  0.87763778274E+00  0.38802239679E+01  0.36272969779E+01  0.53836483676E+01  0.51100000000E-03 0. -1.
        -11    1    3    3    0    0  0.43151104740E+01  0.67680042994E+00  0.94700207492E+01  0.10428783749E+02  0.51100000000E-03 0.  1.
         12    1    3    3    0    0  0.11128916794E+02  0.53365209272E+01  0.27705066218E+02  0.30329885241E+02  0.00000000000E+00 0. -1.
</event>
<event>
 7    1  0.1402367E-008  0.4614232E+02  0.7816164E-02  0.1320468E+00
        -11   -1    0    0    0    0  0.00000000000E+00  0.00000000000E+00  0.45593999997E+02  0.45594000000E+02  0.51100000000E-03 0. -1.
         11   -1    0    0    0    0 -0.00000000000E+00 -0.00000000000E+00 -0.45593999997E+02  0.45594000000E+02  0.51100000000E-03 0.  1.
    9900012    2    1    2    0    0 -0.33903992467E+02 -0.25340740050E+02  0.15410369175E+02  0.46142319968E+02  0.10000020120E+02 0.  0.
         12    1    1    2    0    0  0.33903992467E+02  0.25340740050E+02 -0.15410369175E+02  0.45045680032E+02  0.00000000000E+00 0. -1.
         11    1    3    3    0    0 -0.29268056460E+01 -0.33647465412E+01  0.74545952662E+00  0.45214401183E+01  0.51100000000E-03 0. -1.
        -11    1    3    3    0    0 -0.17750364647E+02 -0.17651897670E+02  0.91874309249E+01  0.26665967519E+02  0.51100000000E-03 0.  1.
        -12    1    3    3    0    0 -0.13226822174E+02 -0.43240958382E+01  0.54774787235E+01  0.14954912330E+02  0.00000000000E+00 0.  1.
</event>
<event>
 7    1  0.1402367E-008  0.4614232E+02  0.7816164E-02  0.1320468E+00
        -11   -1    0    0    0    0  0.00000000000E+00  0.00000000000E+00  0.45593999997E+02  0.45594000000E+02  0.51100000000E-03 0.  1.
         11   -1    0    0    0    0 -0.00000000000E+00 -0.00000000000E+00 -0.45593999997E+02  0.45594000000E+02  0.51100000000E-03 0. -1.
    9900012    2    1    2    0    0  0.30647093053E+02 -0.15525222804E+01  0.32976640925E+02  0.46142317801E+02  0.10000000367E+02 0.  0.
         12    1    1    2    0    0 -0.30647093053E+02  0.15525222804E+01 -0.32976640925E+02  0.45045682199E+02  0.00000000000E+00 0. -1.
         11    1    3    3    0    0  0.18098068921E+02  0.32307683202E+01  0.19703045181E+02  0.26947874726E+02  0.51100000000E-03 0. -1.
        -11    1    3    3    0    0  0.71925368086E+01 -0.18796600176E+01  0.93595939901E+01  0.11952728034E+02  0.51100000000E-03 0.  1.
         12    1    3    3    0    0  0.53564873235E+01 -0.29036305830E+01  0.39140017540E+01  0.72417150413E+01  0.00000000000E+00 0. -1.
</event>
<event>
 7    1  0.1402367E-008  0.4614232E+02  0.7816164E-02  0.1320468E+00
        -11   -1    0    0    0    0  0.00000000000E+00  0.00000000000E+00  0.45593999997E+02  0.45594000000E+02  0.51100000000E-03 0. -1.
         11   -1    0    0    0    0 -0.00000000000E+00 -0.00000000000E+00 -0.45593999997E+02  0.45594000000E+02  0.51100000000E-03 0.  1.
    9900012    2    1    2    0    0  0.31842470683E+02 -0.30393753763E+02 -0.95598230902E+01  0.46142318470E+02  0.10000006461E+02 0.  0.
         12    1    1    2    0    0 -0.31842470683E+02  0.30393753763E+02  0.95598230902E+01  0.45045681530E+02  0.00000000000E+00 0. -1.
         11    1    3    3    0    0  0.11128776910E+02 -0.14565185624E+02 -0.79466483739E+01  0.19978576736E+02  0.51100000000E-03 0. -1.
        -11    1    3    3    0    0  0.93580214698E+01 -0.79698083131E+01 -0.35976808341E+00  0.12297147788E+02  0.51100000000E-03 0.  1.
         12    1    3    3    0    0  0.11355672304E+02 -0.78587598260E+01 -0.12534066328E+01  0.13866593946E+02  0.00000000000E+00 0. -1.
</event>
<event>
 7    1  0.1402367E-008  0.4614232E+02  0.7816164E-02  0.1320468E+00
        -11   -1    0    0    0    0  0.00000000000E+00  0.00000000000E+00  0.45593999997E+02  0.45594000000E+02  0.51100000000E-03 0. -1.
         11   -1    0    0    0    0 -0.00000000000E+00 -0.00000000000E+00 -0.45593999997E+02  0.45594000000E+02  0.51100000000E-03 0.  1.
    9900012    2    1    2    0    0  0.20476907885E+02  0.26897627703E+02 -0.29771252082E+02  0.46142316709E+02  0.99999904063E+01 0.  0.
         12    1    1    2    0    0 -0.20476907885E+02 -0.26897627703E+02  0.29771252082E+02  0.45045683291E+02  0.00000000000E+00 0. -1.
         11    1    3    3    0    0  0.84839653194E+01  0.12701356372E+02 -0.17568595648E+02  0.23279984419E+02  0.51100000000E-03 0. -1.
        -11    1    3    3    0    0  0.13147724777E+01  0.13764707706E+01  0.40985557655E+00  0.19471210299E+01  0.51100000000E-03 0.  1.
        -12    1    3    3    0    0  0.10678170088E+02  0.12819800561E+02 -0.12612512011E+02  0.20915211260E+02  0.00000000000E+00 0.  1.
</event>
<event>
 7    1  0.1402367E-008  0.4614232E+02  0.7816164E-02  0.1320468E+00
        -11   -1    0    0    0    0  0.00000000000E+00  0.00000000000E+00  0.45593999997E+02  0.45594000000E+02  0.51100000000E-03 0. -1.
         11   -1    0    0    0    0 -0.00000000000E+00 -0.00000000000E+00 -0.45593999997E+02  0.45594000000E+02  0.51100000000E-03 0.  1.
    9900012    2    1    2    0    0  0.26220158896E+02 -0.33651369360E+02 -0.14463821131E+02  0.46142317476E+02  0.99999974007E+01 0.  0.
         12    1    1    2    0    0 -0.26220158896E+02  0.33651369360E+02  0.14463821131E+02  0.45045682524E+02  0.00000000000E+00 0. -1.
         11    1    3    3    0    0  0.14775430205E+02 -0.20208300999E+02 -0.91287036295E+01  0.26646237956E+02  0.51100000000E-03 0. -1.
        -11    1    3    3    0    0  0.10987629882E+02 -0.10642752306E+02 -0.25273635343E+01  0.15504314037E+02  0.51100000000E-03 0.  1.
         12    1    3    3    0    0  0.45709880948E+00 -0.28003160552E+01 -0.28077539670E+01  0.39917654828E+01  0.00000000000E+00 0. -1.
</event>
<event>
 7    1  0.1402367E-008  0.4614232E+02  0.7816164E-02  0.1320468E+00
        -11   -1    0    0    0    0  0.00000000000E+00  0.00000000000E+00  0.45593999997E+02  0.45594000000E+02  0.51100000000E-03 0.  1.
         11   -1    0    0    0    0 -0.00000000000E+00 -0.00000000000E+00 -0.45593999997E+02  0.45594000000E+02  0.51100000000E-03 0. -1.
    9900012    2    1    2    0    0 -0.28082396824E+02  0.31084435923E+02  0.16560511120E+02  0.46142315450E+02  0.99999789256E+01 0.  0.
         12    1    1    2    0    0  0.28082396824E+02 -0.31084435923E+02 -0.16560511120E+02  0.45045684550E+02  0.00000000000E+00 0. -1.
         11    1    3    3    0    0 -0.78951554964E+01  0.36479597886E+01  0.19479494141E+01  0.89126650398E+01  0.51100000000E-03 0. -1.
        -11    1    3    3    0    0 -0.97970764866E+01  0.10459872798E+02  0.64836559251E+01  0.15729890052E+02  0.51100000000E-03 0.  1.
         12    1    3    3    0    0 -0.10390164841E+02  0.16976603336E+02  0.81289057807E+01  0.21499760358E+02  0.00000000000E+00 0. -1.
</event>
<event>
 7    1  0.1402367E-008  0.4614232E+02  0.7816164E-02  0.1320468E+00
        -11   -1    0    0    0    0  0.00000000000E+00  0.00000000000E+00  0.45593999997E+02  0.45594000000E+02  0.51100000000E-03 0.  1.
         11   -1    0    0    0    0 -0.00000000000E+00 -0.00000000000E+00 -0.45593999997E+02  0.45594000000E+02  0.51100000000E-03 0. -1.
    9900012    2    1    2    0    0 -0.29317633260E+02  0.16757341799E+02  0.29812430232E+02  0.46142321844E+02  0.10000037232E+02 0.  0.
         12    1    1    2    0    0  0.29317633260E+02 -0.16757341799E+02 -0.29812430232E+02  0.45045678156E+02  0.00000000000E+00 0. -1.
         11    1    3    3    0    0 -0.11868219879E+01  0.35803932914E+00  0.32125395428E+00  0.12806025755E+01  0.51100000000E-03 0. -1.
        -11    1    3    3    0    0 -0.10093157741E+02  0.39216724636E+01  0.48249879202E+01  0.11854613312E+02  0.51100000000E-03 0.  1.
        -12    1    3    3    0    0 -0.18037653532E+02  0.12477630007E+02  0.24666188358E+02  0.33007105956E+02  0.00000000000E+00 0.  1.
</event>
<event>
 7    1  0.1402367E-008  0.4614232E+02  0.7816164E-02  0.1320468E+00
        -11   -1    0    0    0    0  0.00000000000E+00  0.00000000000E+00  0.45593999997E+02  0.45594000000E+02  0.51100000000E-03 0.  1.
         11   -1    0    0    0    0 -0.00000000000E+00 -0.00000000000E+00 -0.45593999997E+02  0.45594000000E+02  0.51100000000E-03 0. -1.
    9900012    2    1    2    0    0  0.93110196933E+01 -0.54457348455E-01  0.44072842790E+02  0.46142317355E+02  0.99999962959E+01 0.  0.
         12    1    1    2    0    0 -0.93110196933E+01  0.54457348455E-01 -0.44072842790E+02  0.45045682645E+02  0.00000000000E+00 0. -1.
         11    1    3    3    0    0  0.12168533826E+01  0.17801246466E+01  0.22506346354E+02  0.22609405175E+02  0.51100000000E-03 0. -1.
        -11    1    3    3    0    0 -0.21748849528E+00 -0.24354730028E+00  0.42162015583E+01  0.42288263590E+01  0.51100000000E-03 0.  1.
         12    1    3    3    0    0  0.83116548060E+01 -0.15910346948E+01  0.17350294878E+02  0.19304085821E+02  0.00000000000E+00 0. -1.
</event>
<event>
 7    1  0.1402367E-008  0.4614232E+02  0.7816164E-02  0.1320468E+00
        -11   -1    0    0    0    0  0.00000000000E+00  0.00000000000E+00  0.45593999997E+02  0.45594000000E+02  0.51100000000E-03 0. -1.
         11   -1    0    0    0    0 -0.00000000000E+00 -0.00000000000E+00 -0.45593999997E+02  0.45594000000E+02  0.51100000000E-03 0.  1.
    9900012    2    1    2    0    0 -0.85271932433E+01  0.12178183851E+02 -0.42521668970E+02  0.46142317426E+02  0.99999969479E+01 0.  0.
         12    1    1    2    0    0  0.85271932433E+01 -0.12178183851E+02  0.42521668970E+02  0.45045682574E+02  0.00000000000E+00 0. -1.
         11    1    3    3    0    0 -0.17266744851E+00  0.64997347431E+01 -0.12542459013E+02  0.14127619903E+02  0.51100000000E-03 0. -1.
        -11    1    3    3    0    0 -0.51701392684E+01  0.51104748132E+01 -0.25318646107E+02  0.26341623599E+02  0.51100000000E-03 0.  1.
         12    1    3    3    0    0 -0.31843865263E+01  0.56797429476E+00 -0.46605638500E+01  0.56730739241E+01  0.00000000000E+00 0. -1.
</event>
<event>
 7    1  0.1402367E-008  0.4614232E+02  0.7816164E-02  0.1320468E+00
        -11   -1    0    0    0    0  0.00000000000E+00  0.00000000000E+00  0.45593999997E+02  0.45594000000E+02  0.51100000000E-03 0.  1.
         11   -1    0    0    0    0 -0.00000000000E+00 -0.00000000000E+00 -0.45593999997E+02  0.45594000000E+02  0.51100000000E-03 0. -1.
    9900012    2    1    2    0    0 -0.25598382517E+02 -0.37063397645E+02 -0.37533657506E+00  0.46142317521E+02  0.99999978083E+01 0.  0.
         12    1    1    2    0    0  0.25598382517E+02  0.37063397645E+02  0.37533657506E+00  0.45045682479E+02  0.00000000000E+00 0. -1.
         11    1    3    3    0    0 -0.51843560439E+01 -0.10913209458E+02  0.28870586976E+01  0.12422189680E+02  0.51100000000E-03 0.  1.
        -11    1    3    3    0    0 -0.95164616678E+00 -0.41139288380E+00 -0.88644926759E+00  0.13640627173E+01  0.51100000000E-03 0. -1.
         12    1    3    3    0    0 -0.19462380306E+02 -0.25738795303E+02 -0.23759460051E+01  0.32356065123E+02  0.00000000000E+00 0. -1.
</event>
<event>
 7    1  0.1402367E-008  0.4614232E+02  0.7816164E-02  0.1320468E+00
        -11   -1    0    0    0    0  0.00000000000E+00  0.00000000000E+00  0.45593999997E+02  0.45594000000E+02  0.51100000000E-03 0.  1.
         11   -1    0    0    0    0 -0.00000000000E+00 -0.00000000000E+00 -0.45593999997E+02  0.45594000000E+02  0.51100000000E-03 0. -1.
    9900012    2    1    2    0    0  0.34118028030E+02  0.15087869845E+02  0.25247372755E+02  0.46142317808E+02  0.10000000429E+02 0.  0.
         12    1    1    2    0    0 -0.34118028030E+02 -0.15087869845E+02 -0.25247372755E+02  0.45045682192E+02  0.00000000000E+00 0. -1.
         11    1    3    3    0    0  0.25366440930E+01  0.34061237023E+00  0.98460436716E+00  0.27422665921E+01  0.51100000000E-03 0. -1.
        -11    1    3    3    0    0  0.22909941962E+02  0.14648891980E+02  0.19869854677E+02  0.33678874715E+02  0.51100000000E-03 0.  1.
        -12    1    3    3    0    0  0.86714419748E+01  0.98365495275E-01  0.43929137110E+01  0.97211765011E+01  0.00000000000E+00 0.  1.
</event>
<event>
 7    1  0.1402367E-008  0.4614233E+02  0.7816164E-02  0.1320468E+00
        -11   -1    0    0    0    0  0.00000000000E+00  0.00000000000E+00  0.45593999997E+02  0.45594000000E+02  0.51100000000E-03 0.  1.
         11   -1    0    0    0    0 -0.00000000000E+00 -0.00000000000E+00 -0.45593999997E+02  0.45594000000E+02  0.51100000000E-03 0. -1.
    9900012    2    1    2    0    0  0.31848522121E+02 -0.86270422778E+01  0.30665262591E+02  0.46142328182E+02  0.10000095023E+02 0.  0.
         12    1    1    2    0    0 -0.31848522121E+02  0.86270422778E+01 -0.30665262591E+02  0.45045671818E+02  0.00000000000E+00 0. -1.
         11    1    3    3    0    0 -0.46973828313E+00 -0.12565414895E+00  0.20135852784E+01  0.20714654123E+01  0.51100000000E-03 0. -1.
        -11    1    3    3    0    0  0.19332383710E+02 -0.52692167919E+01  0.15807491026E+02  0.25522195797E+02  0.51100000000E-03 0.  1.
         12    1    3    3    0    0  0.12985876694E+02 -0.32321713369E+01  0.12844186287E+02  0.18548666972E+02  0.00000000000E+00 0. -1.
</event>
<event>
 7    1  0.1402367E-008  0.4614232E+02  0.7816164E-02  0.1320468E+00
        -11   -1    0    0    0    0  0.00000000000E+00  0.00000000000E+00  0.45593999997E+02  0.45594000000E+02  0.51100000000E-03 0.  1.
         11   -1    0    0    0    0 -0.00000000000E+00 -0.00000000000E+00 -0.45593999997E+02  0.45594000000E+02  0.51100000000E-03 0. -1.
    9900012    2    1    2    0    0 -0.27812401060E+02  0.35242889064E+02  0.36773110840E+01  0.46142317642E+02  0.99999989173E+01 0.  0.
         12    1    1    2    0    0  0.27812401060E+02 -0.35242889064E+02 -0.36773110840E+01  0.45045682358E+02  0.00000000000E+00 0. -1.
         11    1    3    3    0    0 -0.35497824521E+01  0.14092630087E+01  0.71723027474E+00  0.38860516226E+01  0.51100000000E-03 0. -1.
        -11    1    3    3    0    0 -0.10936259614E+02  0.19045365883E+02  0.39955500634E+01  0.22322458568E+02  0.51100000000E-03 0.  1.
        -12    1    3    3    0    0 -0.13326358994E+02  0.14788260172E+02 -0.10354692541E+01  0.19933807452E+02  0.00000000000E+00 0.  1.
</event>
<event>
 7    1  0.1402367E-008  0.4614232E+02  0.7816164E-02  0.1320468E+00
        -11   -1    0    0    0    0  0.00000000000E+00  0.00000000000E+00  0.45593999997E+02  0.45594000000E+02  0.51100000000E-03 0.  1.
         11   -1    0    0    0    0 -0.00000000000E+00 -0.00000000000E+00 -0.45593999997E+02  0.45594000000E+02  0.51100000000E-03 0. -1.
    9900012    2    1    2    0    0 -0.37769177780E+02 -0.70600906035E-01  0.24547865065E+02  0.46142318143E+02  0.10000003485E+02 0.  0.
         12    1    1    2    0    0  0.37769177780E+02  0.70600906035E-01 -0.24547865065E+02  0.45045681857E+02  0.00000000000E+00 0. -1.
         11    1    3    3    0    0 -0.11831620196E+01 -0.30351977909E+00  0.28650482163E+01  0.31145622749E+01  0.51100000000E-03 0. -1.
        -11    1    3    3    0    0 -0.10700510596E+02 -0.18347870295E+01  0.38193519552E+01  0.11508901775E+02  0.51100000000E-03 0.  1.
        -12    1    3    3    0    0 -0.25885505165E+02  0.20677059026E+01  0.17863464893E+02  0.31518854093E+02  0.00000000000E+00 0.  1.
</event>
<event>
 7    1  0.1402367E-008  0.4614232E+02  0.7816164E-02  0.1320468E+00
        -11   -1    0    0    0    0  0.00000000000E+00  0.00000000000E+00  0.45593999997E+02  0.45594000000E+02  0.51100000000E-03 0.  1.
         11   -1    0    0    0    0 -0.00000000000E+00 -0.00000000000E+00 -0.45593999997E+02  0.45594000000E+02  0.51100000000E-03 0. -1.
    9900012    2    1    2    0    0  0.41336251409E+02  0.12455975459E+02  0.12855989561E+02  0.46142317934E+02  0.10000001578E+02 0.  0.
         12    1    1    2    0    0 -0.41336251409E+02 -0.12455975459E+02 -0.12855989561E+02  0.45045682066E+02  0.00000000000E+00 0. -1.
         11    1    3    3    0    0  0.32609713197E+01  0.20541672643E+01  0.20257569568E+01  0.43539899640E+01  0.51100000000E-03 0. -1.
        -11    1    3    3    0    0  0.58119615670E+01  0.39411896986E+00  0.46368588620E+01  0.74454474268E+01  0.51100000000E-03 0.  1.
        -12    1    3    3    0    0  0.32263318523E+02  0.10007689225E+02  0.61933737419E+01  0.34342880543E+02  0.00000000000E+00 0.  1.
</event>
<event>
 7    1  0.1402367E-008  0.4614232E+02  0.7816164E-02  0.1320468E+00
        -11   -1    0    0    0    0  0.00000000000E+00  0.00000000000E+00  0.45593999997E+02  0.45594000000E+02  0.51100000000E-03 0.  1.
         11   -1    0    0    0    0 -0.00000000000E+00 -0.00000000000E+00 -0.45593999997E+02  0.45594000000E+02  0.51100000000E-03 0. -1.
    9900012    2    1    2    0    0 -0.98933672351E+01  0.43900681707E+02  0.19912158295E+01  0.46142317520E+02  0.99999977996E+01 0.  0.
         12    1    1    2    0    0  0.98933672351E+01 -0.43900681707E+02 -0.19912158295E+01  0.45045682480E+02  0.00000000000E+00 0. -1.
         11    1    3    3    0    0 -0.20063531784E+01  0.28107954965E+02 -0.63392374744E+00  0.28186600451E+02  0.51100000000E-03 0. -1.
        -11    1    3    3    0    0 -0.35563611958E+01  0.92701403061E+01  0.16689196068E+01  0.10068192448E+02  0.51100000000E-03 0.  1.
         12    1    3    3    0    0 -0.43306528609E+01  0.65225864366E+01  0.95621997011E+00  0.78875246216E+01  0.00000000000E+00 0. -1.
</event>
<event>
 7    1  0.1402367E-008  0.4614232E+02  0.7816164E-02  0.1320468E+00
        -11   -1    0    0    0    0  0.00000000000E+00  0.00000000000E+00  0.45593999997E+02  0.45594000000E+02  0.51100000000E-03 0. -1.
         11   -1    0    0    0    0 -0.00000000000E+00 -0.00000000000E+00 -0.45593999997E+02  0.45594000000E+02  0.51100000000E-03 0.  1.
    9900012    2    1    2    0    0 -0.74611009260E+01  0.29456789303E+02 -0.33252713965E+02  0.46142318197E+02  0.10000003973E+02 0.  0.
         12    1    1    2    0    0  0.74611009260E+01 -0.29456789303E+02  0.33252713965E+02  0.45045681803E+02  0.00000000000E+00 0. -1.
         11    1    3    3    0    0 -0.51509641933E+00 -0.60400777712E+00 -0.13085900946E+01  0.15305417383E+01  0.51100000000E-03 0. -1.
        -11    1    3    3    0    0 -0.55658882604E+01  0.21665282605E+02 -0.25617765260E+02  0.34009314601E+02  0.51100000000E-03 0.  1.
         12    1    3    3    0    0 -0.13801162463E+01  0.83955144758E+01 -0.63263586099E+01  0.10602461857E+02  0.00000000000E+00 0. -1.
</event>
<event>
 7    1  0.1402367E-008  0.4614232E+02  0.7816164E-02  0.1320468E+00
        -11   -1    0    0    0    0  0.00000000000E+00  0.00000000000E+00  0.45593999997E+02  0.45594000000E+02  0.51100000000E-03 0.  1.
         11   -1    0    0    0    0 -0.00000000000E+00 -0.00000000000E+00 -0.45593999997E+02  0.45594000000E+02  0.51100000000E-03 0. -1.
    9900012    2    1    2    0    0 -0.21895964600E+01 -0.20351030902E+02  0.40126733151E+02  0.46142317579E+02  0.99999983361E+01 0.  0.
         12    1    1    2    0    0  0.21895964600E+01  0.20351030902E+02 -0.40126733151E+02  0.45045682421E+02  0.00000000000E+00 0. -1.
         11    1    3    3    0    0 -0.24377791338E+01 -0.50474431165E+00  0.33519176043E+01  0.41752707472E+01  0.51100000000E-03 0. -1.
        -11    1    3    3    0    0 -0.88315717988E+00 -0.17206439822E+02  0.29767270670E+02  0.34393777655E+02  0.51100000000E-03 0.  1.
         12    1    3    3    0    0  0.11313398537E+01 -0.26398467682E+01  0.70075448768E+01  0.75732691768E+01  0.00000000000E+00 0. -1.
</event>
<event>
 7    1  0.1402367E-008  0.4614232E+02  0.7816164E-02  0.1320468E+00
        -11   -1    0    0    0    0  0.00000000000E+00  0.00000000000E+00  0.45593999997E+02  0.45594000000E+02  0.51100000000E-03 0.  1.
         11   -1    0    0    0    0 -0.00000000000E+00 -0.00000000000E+00 -0.45593999997E+02  0.45594000000E+02  0.51100000000E-03 0. -1.
    9900012    2    1    2    0    0  0.13283709343E+02  0.15043344153E+02  0.40328082334E+02  0.46142319165E+02  0.10000012800E+02 0.  0.
         12    1    1    2    0    0 -0.13283709343E+02 -0.15043344153E+02 -0.40328082334E+02  0.45045680835E+02  0.00000000000E+00 0. -1.
         11    1    3    3    0    0  0.94302615247E+01  0.42197091544E+01  0.16258260204E+02  0.19263094323E+02  0.51100000000E-03 0. -1.
        -11    1    3    3    0    0  0.43025216467E+00  0.48256366215E+01  0.75108698890E+01  0.89378438383E+01  0.51100000000E-03 0.  1.
         12    1    3    3    0    0  0.34231956531E+01  0.59979983767E+01  0.16558952240E+02  0.17941381003E+02  0.00000000000E+00 0. -1.
</event>
<event>
 7    1  0.1402367E-008  0.4614232E+02  0.7816164E-02  0.1320468E+00
        -11   -1    0    0    0    0  0.00000000000E+00  0.00000000000E+00  0.45593999997E+02  0.45594000000E+02  0.51100000000E-03 0. -1.
         11   -1    0    0    0    0 -0.00000000000E+00 -0.00000000000E+00 -0.45593999997E+02  0.45594000000E+02  0.51100000000E-03 0.  1.
    9900012    2    1    2    0    0  0.36846992593E+02  0.15588125050E+02 -0.20698379194E+02  0.46142318665E+02  0.10000008240E+02 0.  0.
         12    1    1    2    0    0 -0.36846992593E+02 -0.15588125050E+02  0.20698379194E+02  0.45045681335E+02  0.00000000000E+00 0. -1.
         11    1    3    3    0    0  0.16247415396E+02  0.11534916538E+02 -0.11405741243E+02  0.22959175511E+02  0.51100000000E-03 0. -1.
        -11    1    3    3    0    0  0.11767321530E+02  0.24031844408E+01 -0.70344954461E+01  0.13918666527E+02  0.51100000000E-03 0.  1.
         12    1    3    3    0    0  0.88322556662E+01  0.16500240720E+01 -0.22581425047E+01  0.92644766265E+01  0.00000000000E+00 0. -1.
</event>
<event>
 7    1  0.1402367E-008  0.4614232E+02  0.7816164E-02  0.1320468E+00
        -11   -1    0    0    0    0  0.00000000000E+00  0.00000000000E+00  0.45593999997E+02  0.45594000000E+02  0.51100000000E-03 0. -1.
         11   -1    0    0    0    0 -0.00000000000E+00 -0.00000000000E+00 -0.45593999997E+02  0.45594000000E+02  0.51100000000E-03 0.  1.
    9900012    2    1    2    0    0  0.34095580083E+02 -0.93993957887E+01  0.27897244681E+02  0.46142317819E+02  0.10000000530E+02 0.  0.
         12    1    1    2    0    0 -0.34095580083E+02  0.93993957887E+01 -0.27897244681E+02  0.45045682181E+02  0.00000000000E+00 0. -1.
         11    1    3    3    0    0  0.13727453074E+01 -0.13777433440E+01 -0.53742004202E+00  0.20177777290E+01  0.51100000000E-03 0. -1.
        -11    1    3    3    0    0  0.30117268730E+02 -0.71525210297E+01  0.26672985239E+02  0.40861431383E+02  0.51100000000E-03 0.  1.
         12    1    3    3    0    0  0.26055660455E+01 -0.86913141499E+00  0.17616794835E+01  0.32631087074E+01  0.00000000000E+00 0. -1.
</event>
<event>
 7    1  0.1402367E-008  0.4614231E+02  0.7816164E-02  0.1320468E+00
        -11   -1    0    0    0    0  0.00000000000E+00  0.00000000000E+00  0.45593999997E+02  0.45594000000E+02  0.51100000000E-03 0.  1.
         11   -1    0    0    0    0 -0.00000000000E+00 -0.00000000000E+00 -0.45593999997E+02  0.45594000000E+02  0.51100000000E-03 0. -1.
    9900012    2    1    2    0    0  0.29380679708E+02 -0.17005172069E+02  0.29609349509E+02  0.46142314351E+02  0.99999689048E+01 0.  0.
         12    1    1    2    0    0 -0.29380679708E+02  0.17005172069E+02 -0.29609349509E+02  0.45045685649E+02  0.00000000000E+00 0. -1.
         11    1    3    3    0    0  0.16788152731E+01  0.43433830848E+00  0.23484268027E+01  0.29192771701E+01  0.51100000000E-03 0. -1.
        -11    1    3    3    0    0  0.15741892403E+02 -0.11826029170E+02  0.12086146323E+02  0.23102750389E+02  0.51100000000E-03 0.  1.
        -12    1    3    3    0    0  0.11959972032E+02 -0.56134812078E+01  0.15174776384E+02  0.20120286792E+02  0.00000000000E+00 0.  1.
</event>
<event>
 7    1  0.1402367E-008  0.4614232E+02  0.7816164E-02  0.1320468E+00
        -11   -1    0    0    0    0  0.00000000000E+00  0.00000000000E+00  0.45593999997E+02  0.45594000000E+02  0.51100000000E-03 0. -1.
         11   -1    0    0    0    0 -0.00000000000E+00 -0.00000000000E+00 -0.45593999997E+02  0.45594000000E+02  0.51100000000E-03 0.  1.
    9900012    2    1    2    0    0 -0.30360919881E+02  0.67840614748E+01 -0.32577668845E+02  0.46142318149E+02  0.10000003535E+02 0.  0.
         12    1    1    2    0    0  0.30360919881E+02 -0.67840614748E+01  0.32577668845E+02  0.45045681851E+02  0.00000000000E+00 0. -1.
         11    1    3    3    0    0 -0.91650597885E+01  0.63857768345E+01 -0.98844545966E+01  0.14915726923E+02  0.51100000000E-03 0. -1.
        -11    1    3    3    0    0 -0.69717238183E+01  0.14429136880E+01 -0.87553759136E+01  0.11284659523E+02  0.51100000000E-03 0.  1.
         12    1    3    3    0    0 -0.14224136274E+02 -0.10446290477E+01 -0.13937838334E+02  0.19941931702E+02  0.00000000000E+00 0. -1.
</event>
<event>
 7    1  0.1402367E-008  0.4614232E+02  0.7816164E-02  0.1320468E+00
        -11   -1    0    0    0    0  0.00000000000E+00  0.00000000000E+00  0.45593999997E+02  0.45594000000E+02  0.51100000000E-03 0.  1.
         11   -1    0    0    0    0 -0.00000000000E+00 -0.00000000000E+00 -0.45593999997E+02  0.45594000000E+02  0.51100000000E-03 0. -1.
    9900012    2    1    2    0    0  0.43444415447E+01  0.15230851254E+02  0.42169427092E+02  0.46142316705E+02  0.99999903706E+01 0.  0.
         12    1    1    2    0    0 -0.43444415447E+01 -0.15230851254E+02 -0.42169427092E+02  0.45045683295E+02  0.00000000000E+00 0. -1.
         11    1    3    3    0    0  0.13601405980E+01  0.73847261749E+01  0.11986766186E+02  0.14144494582E+02  0.51100000000E-03 0. -1.
        -11    1    3    3    0    0  0.15557087697E+01  0.60749182955E+01  0.10851191755E+02  0.12532885735E+02  0.51100000000E-03 0.  1.
         12    1    3    3    0    0  0.14285921770E+01  0.17712067839E+01  0.19331469151E+02  0.19464936388E+02  0.00000000000E+00 0. -1.
</event>
<event>
 7    1  0.1402367E-008  0.4614232E+02  0.7816164E-02  0.1320468E+00
        -11   -1    0    0    0    0  0.00000000000E+00  0.00000000000E+00  0.45593999997E+02  0.45594000000E+02  0.51100000000E-03 0.  1.
         11   -1    0    0    0    0 -0.00000000000E+00 -0.00000000000E+00 -0.45593999997E+02  0.45594000000E+02  0.51100000000E-03 0. -1.
    9900012    2    1    2    0    0  0.33535712504E+02 -0.28299075356E+02 -0.10179970940E+02  0.46142317771E+02  0.10000000087E+02 0.  0.
         12    1    1    2    0    0 -0.33535712504E+02  0.28299075356E+02  0.10179970940E+02  0.45045682229E+02  0.00000000000E+00 0. -1.
         11    1    3    3    0    0  0.17445861997E+02 -0.15223495490E+02 -0.76559925596E+01  0.24387028070E+02  0.51100000000E-03 0. -1.
        -11    1    3    3    0    0  0.83197318248E+01 -0.10491279089E+02 -0.10088076005E+01  0.13427679159E+02  0.51100000000E-03 0.  1.
        -12    1    3    3    0    0  0.77701186824E+01 -0.25843007775E+01 -0.15151707796E+01  0.83276105419E+01  0.00000000000E+00 0.  1.
</event>
<event>
 7    1  0.1402367E-008  0.4614232E+02  0.7816164E-02  0.1320468E+00
        -11   -1    0    0    0    0  0.00000000000E+00  0.00000000000E+00  0.45593999997E+02  0.45594000000E+02  0.51100000000E-03 0. -1.
         11   -1    0    0    0    0 -0.00000000000E+00 -0.00000000000E+00 -0.45593999997E+02  0.45594000000E+02  0.51100000000E-03 0.  1.
    9900012    2    1    2    0    0  0.21673151269E+02  0.12660169739E+02 -0.37404648570E+02  0.46142321868E+02  0.10000037449E+02 0.  0.
         12    1    1    2    0    0 -0.21673151269E+02 -0.12660169739E+02  0.37404648570E+02  0.45045678132E+02  0.00000000000E+00 0. -1.
         11    1    3    3    0    0  0.72818393761E+01  0.16783484643E-01 -0.89605267191E+01  0.11546276704E+02  0.51100000000E-03 0. -1.
        -11    1    3    3    0    0  0.13613423004E+02  0.12693137336E+02 -0.25627056035E+02  0.31673127768E+02  0.51100000000E-03 0.  1.
         12    1    3    3    0    0  0.77788888885E+00 -0.49751081601E-01 -0.28170658154E+01  0.29229173956E+01  0.00000000000E+00 0. -1.
</event>
<event>
 7    1  0.1402367E-008  0.4614232E+02  0.7816164E-02  0.1320468E+00
        -11   -1    0    0    0    0  0.00000000000E+00  0.00000000000E+00  0.45593999997E+02  0.45594000000E+02  0.51100000000E-03 0. -1.
         11   -1    0    0    0    0 -0.00000000000E+00 -0.00000000000E+00 -0.45593999997E+02  0.45594000000E+02  0.51100000000E-03 0.  1.
    9900012    2    1    2    0    0 -0.20576398386E+02  0.31538700213E+02 -0.24719137199E+02  0.46142317349E+02  0.99999962383E+01 0.  0.
         12    1    1    2    0    0  0.20576398386E+02 -0.31538700213E+02  0.24719137199E+02  0.45045682651E+02  0.00000000000E+00 0. -1.
         11    1    3    3    0    0 -0.12233684214E+01  0.86085327744E-01  0.43599384910E+00  0.13015882128E+01  0.51100000000E-03 0. -1.
        -11    1    3    3    0    0 -0.72244594327E+01  0.14374721307E+02 -0.12444179517E+02  0.20339199367E+02  0.51100000000E-03 0.  1.
        -12    1    3    3    0    0 -0.12128570532E+02  0.17077893578E+02 -0.12710951531E+02  0.24501529769E+02  0.00000000000E+00 0.  1.
</event>
<event>
 7    1  0.1402367E-008  0.4614232E+02  0.7816164E-02  0.1320468E+00
        -11   -1    0    0    0    0  0.00000000000E+00  0.00000000000E+00  0.45593999997E+02  0.45594000000E+02  0.51100000000E-03 0. -1.
         11   -1    0    0    0    0 -0.00000000000E+00 -0.00000000000E+00 -0.45593999997E+02  0.45594000000E+02  0.51100000000E-03 0.  1.
    9900012    2    1    2    0    0  0.25261540313E+02 -0.15278137254E+02 -0.34022737993E+02  0.46142316551E+02  0.99999889615E+01 0.  0.
         12    1    1    2    0    0 -0.25261540313E+02  0.15278137254E+02  0.34022737993E+02  0.45045683449E+02  0.00000000000E+00 0. -1.
         11    1    3    3    0    0  0.80951101642E+01 -0.70457743057E+00 -0.12729075017E+02  0.15101542602E+02  0.51100000000E-03 0. -1.
        -11    1    3    3    0    0  0.87608258596E+01 -0.74172908889E+01 -0.96568417592E+01  0.15000762210E+02  0.51100000000E-03 0.  1.
         12    1    3    3    0    0  0.84056042889E+01 -0.71562689342E+01 -0.11636821217E+02  0.16040011738E+02  0.00000000000E+00 0. -1.
</event>
<event>
 7    1  0.1402367E-008  0.4614232E+02  0.7816164E-02  0.1320468E+00
        -11   -1    0    0    0    0  0.00000000000E+00  0.00000000000E+00  0.45593999997E+02  0.45594000000E+02  0.51100000000E-03 0.  1.
         11   -1    0    0    0    0 -0.00000000000E+00 -0.00000000000E+00 -0.45593999997E+02  0.45594000000E+02  0.51100000000E-03 0. -1.
    9900012    2    1    2    0    0 -0.55391761181E+01 -0.35119880877E+02  0.27659086019E+02  0.46142317141E+02  0.99999943409E+01 0.  0.
         12    1    1    2    0    0  0.55391761181E+01  0.35119880877E+02 -0.27659086019E+02  0.45045682859E+02  0.00000000000E+00 0. -1.
         11    1    3    3    0    0 -0.50407871788E+01 -0.11535289622E+02  0.10794720684E+02  0.16583076824E+02  0.51100000000E-03 0. -1.
        -11    1    3    3    0    0 -0.28098142483E+01 -0.17981358097E+02  0.12187822616E+02  0.21903591384E+02  0.51100000000E-03 0.  1.
         12    1    3    3    0    0  0.23114253090E+01 -0.56032331581E+01  0.46765427186E+01  0.76556489328E+01  0.00000000000E+00 0. -1.
</event>
<event>
 7    1  0.1402367E-008  0.4614231E+02  0.7816164E-02  0.1320468E+00
        -11   -1    0    0    0    0  0.00000000000E+00  0.00000000000E+00  0.45593999997E+02  0.45594000000E+02  0.51100000000E-03 0.  1.
         11   -1    0    0    0    0 -0.00000000000E+00 -0.00000000000E+00 -0.45593999997E+02  0.45594000000E+02  0.51100000000E-03 0. -1.
    9900012    2    1    2    0    0 -0.24727592173E+02 -0.13367723807E+02  0.35198919375E+02  0.46142314528E+02  0.99999705203E+01 0.  0.
         12    1    1    2    0    0  0.24727592173E+02  0.13367723807E+02 -0.35198919375E+02  0.45045685472E+02  0.00000000000E+00 0. -1.
         11    1    3    3    0    0 -0.77084374182E+00  0.10647548521E+01  0.26749568101E+01  0.29804860621E+01  0.51100000000E-03 0. -1.
        -11    1    3    3    0    0 -0.15040082601E+02 -0.10932064782E+02  0.23830947078E+02  0.30226282668E+02  0.51100000000E-03 0.  1.
         12    1    3    3    0    0 -0.89166658298E+01 -0.35004138769E+01  0.86930154868E+01  0.12935545798E+02  0.00000000000E+00 0. -1.
</event>
<event>
 7    1  0.1402367E-008  0.4614232E+02  0.7816164E-02  0.1320468E+00
        -11   -1    0    0    0    0  0.00000000000E+00  0.00000000000E+00  0.45593999997E+02  0.45594000000E+02  0.51100000000E-03 0. -1.
         11   -1    0    0    0    0 -0.00000000000E+00 -0.00000000000E+00 -0.45593999997E+02  0.45594000000E+02  0.51100000000E-03 0.  1.
    9900012    2    1    2    0    0 -0.11684352764E+02 -0.15002894030E+02 -0.40835065482E+02  0.46142317613E+02  0.99999986502E+01 0.  0.
         12    1    1    2    0    0  0.11684352764E+02  0.15002894030E+02  0.40835065482E+02  0.45045682387E+02  0.00000000000E+00 0. -1.
         11    1    3    3    0    0 -0.15273509670E+01  0.23278858773E+00 -0.39055275756E+01  0.42000163580E+01  0.51100000000E-03 0. -1.
        -11    1    3    3    0    0  0.11702330305E+01 -0.10285573892E+01 -0.45991696256E+01  0.48558971524E+01  0.51100000000E-03 0.  1.
        -12    1    3    3    0    0 -0.11327234827E+02 -0.14207125228E+02 -0.32330368281E+02  0.37086404103E+02  0.00000000000E+00 0.  1.
</event>
<event>
 7    1  0.1402367E-008  0.4614232E+02  0.7816164E-02  0.1320468E+00
        -11   -1    0    0    0    0  0.00000000000E+00  0.00000000000E+00  0.45593999997E+02  0.45594000000E+02  0.51100000000E-03 0.  1.
         11   -1    0    0    0    0 -0.00000000000E+00 -0.00000000000E+00 -0.45593999997E+02  0.45594000000E+02  0.51100000000E-03 0. -1.
    9900012    2    1    2    0    0  0.40047872208E+02  0.20618128308E+02  0.41734458522E+00  0.46142318078E+02  0.10000002893E+02 0.  0.
         12    1    1    2    0    0 -0.40047872208E+02 -0.20618128308E+02 -0.41734458522E+00  0.45045681922E+02  0.00000000000E+00 0. -1.
         11    1    3    3    0    0  0.21868221960E+02  0.95897108856E+01 -0.30071891899E+01  0.24067091092E+02  0.51100000000E-03 0.  1.
        -11    1    3    3    0    0  0.75168740160E+00  0.17462099417E+01  0.10914487080E+01  0.21921550249E+01  0.51100000000E-03 0. -1.
        -12    1    3    3    0    0  0.17427962846E+02  0.92822074807E+01  0.23330850671E+01  0.19883071961E+02  0.00000000000E+00 0.  1.
</event>
<event>
 7    1  0.1402367E-008  0.4614232E+02  0.7816164E-02  0.1320468E+00
        -11   -1    0    0    0    0  0.00000000000E+00  0.00000000000E+00  0.45593999997E+02  0.45594000000E+02  0.51100000000E-03 0. -1.
         11   -1    0    0    0    0 -0.00000000000E+00 -0.00000000000E+00 -0.45593999997E+02  0.45594000000E+02  0.51100000000E-03 0.  1.
    9900012    2    1    2    0    0  0.33803462240E+02 -0.63696489631E+01 -0.29083794397E+02  0.46142316701E+02  0.99999903341E+01 0.  0.
         12    1    1    2    0    0 -0.33803462240E+02  0.63696489631E+01  0.29083794397E+02  0.45045683299E+02  0.00000000000E+00 0. -1.
         11    1    3    3    0    0  0.30522799532E+01  0.19836436236E+01 -0.21256114808E+01  0.42153860282E+01  0.51100000000E-03 0. -1.
        -11    1    3    3    0    0  0.26689482993E+02 -0.68273091883E+01 -0.21448379398E+02  0.34913802890E+02  0.51100000000E-03 0.  1.
        -12    1    3    3    0    0  0.40616992938E+01 -0.15259833984E+01 -0.55098035189E+01  0.70131277832E+01  0.00000000000E+00 0.  1.
</event>
<event>
 7    1  0.1402367E-008  0.4614232E+02  0.7816164E-02  0.1320468E+00
        -11   -1    0    0    0    0  0.00000000000E+00  0.00000000000E+00  0.45593999997E+02  0.45594000000E+02  0.51100000000E-03 0.  1.
         11   -1    0    0    0    0 -0.00000000000E+00 -0.00000000000E+00 -0.45593999997E+02  0.45594000000E+02  0.51100000000E-03 0. -1.
    9900012    2    1    2    0    0 -0.26603570397E+02  0.11541502254E+02  0.34469659968E+02  0.46142315518E+02  0.99999795500E+01 0.  0.
         12    1    1    2    0    0  0.26603570397E+02 -0.11541502254E+02 -0.34469659968E+02  0.45045684482E+02  0.00000000000E+00 0. -1.
         11    1    3    3    0    0 -0.24313081137E+01 -0.63061696687E+00  0.18240096683E+01  0.31041824098E+01  0.51100000000E-03 0. -1.
        -11    1    3    3    0    0 -0.89362796622E+00 -0.82651221701E+00  0.61768033238E+00  0.13649991359E+01  0.51100000000E-03 0.  1.
        -12    1    3    3    0    0 -0.23278634317E+02  0.12998631438E+02  0.32027969967E+02  0.41673133973E+02  0.00000000000E+00 0.  1.
</event>
<event>
 7    1  0.1402367E-008  0.4614233E+02  0.7816164E-02  0.1320468E+00
        -11   -1    0    0    0    0  0.00000000000E+00  0.00000000000E+00  0.45593999997E+02  0.45594000000E+02  0.51100000000E-03 0.  1.
         11   -1    0    0    0    0 -0.00000000000E+00 -0.00000000000E+00 -0.45593999997E+02  0.45594000000E+02  0.51100000000E-03 0. -1.
    9900012    2    1    2    0    0 -0.44798990158E+02 -0.41745763828E+01  0.21761729057E+01  0.46142330556E+02  0.10000116670E+02 0.  0.
         12    1    1    2    0    0  0.44798990158E+02  0.41745763828E+01 -0.21761729057E+01  0.45045669444E+02  0.00000000000E+00 0. -1.
         11    1    3    3    0    0 -0.94327840318E-01 -0.61473048628E+00  0.54843859871E+00  0.82920230939E+00  0.51100000000E-03 0. -1.
        -11    1    3    3    0    0 -0.39303687861E+02 -0.11450649144E+01  0.71464159897E+00  0.39326858075E+02  0.51100000000E-03 0.  1.
        -12    1    3    3    0    0 -0.54009744569E+01 -0.24147809821E+01  0.91309270803E+00  0.59862701717E+01  0.00000000000E+00 0.  1.
</event>
<event>
 7    1  0.1402367E-008  0.4614232E+02  0.7816164E-02  0.1320468E+00
        -11   -1    0    0    0    0  0.00000000000E+00  0.00000000000E+00  0.45593999997E+02  0.45594000000E+02  0.51100000000E-03 0. -1.
         11   -1    0    0    0    0 -0.00000000000E+00 -0.00000000000E+00 -0.45593999997E+02  0.45594000000E+02  0.51100000000E-03 0.  1.
    9900012    2    1    2    0    0 -0.51867816375E+01  0.34479637348E+02 -0.28519557983E+02  0.46142320041E+02  0.10000020792E+02 0.  0.
         12    1    1    2    0    0  0.51867816375E+01 -0.34479637348E+02  0.28519557983E+02  0.45045679959E+02  0.00000000000E+00 0. -1.
         11    1    3    3    0    0 -0.21438658668E+01  0.11861590100E+02 -0.14001444692E+02  0.18475224877E+02  0.51100000000E-03 0. -1.
        -11    1    3    3    0    0 -0.46716988923E+01  0.13498940007E+02 -0.90558677723E+01  0.16913157400E+02  0.51100000000E-03 0.  1.
         12    1    3    3    0    0  0.16287831216E+01  0.91191072409E+01 -0.54622455191E+01  0.10753937764E+02  0.00000000000E+00 0. -1.
</event>
<event>
 7    1  0.1402367E-008  0.4614232E+02  0.7816164E-02  0.1320468E+00
        -11   -1    0    0    0    0  0.00000000000E+00  0.00000000000E+00  0.45593999997E+02  0.45594000000E+02  0.51100000000E-03 0.  1.
         11   -1    0    0    0    0 -0.00000000000E+00 -0.00000000000E+00 -0.45593999997E+02  0.45594000000E+02  0.51100000000E-03 0. -1.
    9900012    2    1    2    0    0 -0.43311792857E+02  0.11508831220E+02  0.45550985903E+01  0.46142317413E+02  0.99999968289E+01 0.  0.
         12    1    1    2    0    0  0.43311792857E+02 -0.11508831220E+02 -0.45550985903E+01  0.45045682587E+02  0.00000000000E+00 0. -1.
         11    1    3    3    0    0 -0.95944468790E+01  0.30889511041E+00 -0.13413294507E+01  0.96926772390E+01  0.51100000000E-03 0. -1.
        -11    1    3    3    0    0 -0.30685874307E+02  0.84533452763E+01  0.46074684455E+01  0.32160701082E+02  0.51100000000E-03 0.  1.
         12    1    3    3    0    0 -0.30314716706E+01  0.27465908338E+01  0.12889595956E+01  0.42889390922E+01  0.00000000000E+00 0. -1.
</event>
<event>
 7    1  0.1402367E-008  0.4614231E+02  0.7816164E-02  0.1320468E+00
        -11   -1    0    0    0    0  0.00000000000E+00  0.00000000000E+00  0.45593999997E+02  0.45594000000E+02  0.51100000000E-03 0. -1.
         11   -1    0    0    0    0 -0.00000000000E+00 -0.00000000000E+00 -0.45593999997E+02  0.45594000000E+02  0.51100000000E-03 0.  1.
    9900012    2    1    2    0    0  0.31776400410E+02  0.31803878169E+02 -0.28084869892E+01  0.46142313317E+02  0.99999594740E+01 0.  0.
         12    1    1    2    0    0 -0.31776400410E+02 -0.31803878169E+02  0.28084869892E+01  0.45045686683E+02  0.00000000000E+00 0. -1.
         11    1    3    3    0    0  0.35969956157E+01  0.55160778681E+01 -0.33058860690E+01  0.73684717186E+01  0.51100000000E-03 0. -1.
        -11    1    3    3    0    0  0.14300830061E+02  0.10654570709E+02 -0.55975688841E+00  0.17842279716E+02  0.51100000000E-03 0.  1.
         12    1    3    3    0    0  0.13878574733E+02  0.15633229592E+02  0.10571559682E+01  0.20931561882E+02  0.00000000000E+00 0. -1.
</event>
<event>
 7    1  0.1402367E-008  0.4614232E+02  0.7816164E-02  0.1320468E+00
        -11   -1    0    0    0    0  0.00000000000E+00  0.00000000000E+00  0.45593999997E+02  0.45594000000E+02  0.51100000000E-03 0.  1.
         11   -1    0    0    0    0 -0.00000000000E+00 -0.00000000000E+00 -0.45593999997E+02  0.45594000000E+02  0.51100000000E-03 0. -1.
    9900012    2    1    2    0    0  0.30084724420E+02 -0.79162626077E+01  0.32578453550E+02  0.46142317712E+02  0.99999995524E+01 0.  0.
         12    1    1    2    0    0 -0.30084724420E+02  0.79162626077E+01 -0.32578453550E+02  0.45045682288E+02  0.00000000000E+00 0. -1.
         11    1    3    3    0    0  0.78106975982E+00  0.54447342610E+00  0.18927716783E+00  0.97074579001E+00  0.51100000000E-03 0. -1.
        -11    1    3    3    0    0  0.11737612821E+02 -0.56183235975E+01  0.91765512600E+01  0.15923134367E+02  0.51100000000E-03 0.  1.
        -12    1    3    3    0    0  0.17566041838E+02 -0.28424124363E+01  0.23212625122E+02  0.29248437555E+02  0.00000000000E+00 0.  1.
</event>
<event>
 7    1  0.1402367E-008  0.4614232E+02  0.7816164E-02  0.1320468E+00
        -11   -1    0    0    0    0  0.00000000000E+00  0.00000000000E+00  0.45593999997E+02  0.45594000000E+02  0.51100000000E-03 0.  1.
         11   -1    0    0    0    0 -0.00000000000E+00 -0.00000000000E+00 -0.45593999997E+02  0.45594000000E+02  0.51100000000E-03 0. -1.
    9900012    2    1    2    0    0  0.17415949551E+00 -0.15727716776E+01  0.45017880245E+02  0.46142317809E+02  0.10000000434E+02 0.  0.
         12    1    1    2    0    0 -0.17415949551E+00  0.15727716776E+01 -0.45017880245E+02  0.45045682191E+02  0.00000000000E+00 0. -1.
         11    1    3    3    0    0  0.23651766153E+00 -0.59348239237E+00  0.11723484600E+01  0.13351266333E+01  0.51100000000E-03 0. -1.
        -11    1    3    3    0    0 -0.67077290691E+00 -0.47002982720E+01  0.32659454953E+02  0.33002768645E+02  0.51100000000E-03 0.  1.
        -12    1    3    3    0    0  0.60841474090E+00  0.37210089868E+01  0.11186076833E+02  0.11804422531E+02  0.00000000000E+00 0.  1.
</event>
<event>
 7    1  0.1402367E-008  0.4614232E+02  0.7816164E-02  0.1320468E+00
        -11   -1    0    0    0    0  0.00000000000E+00  0.00000000000E+00  0.45593999997E+02  0.45594000000E+02  0.51100000000E-03 0. -1.
         11   -1    0    0    0    0 -0.00000000000E+00 -0.00000000000E+00 -0.45593999997E+02  0.45594000000E+02  0.51100000000E-03 0.  1.
    9900012    2    1    2    0    0 -0.20256053493E+02  0.39254835174E+02 -0.88240361641E+01  0.46142318722E+02  0.10000008759E+02 0.  0.
         12    1    1    2    0    0  0.20256053493E+02 -0.39254835174E+02  0.88240361641E+01  0.45045681278E+02  0.00000000000E+00 0. -1.
         11    1    3    3    0    0 -0.34814147633E+01  0.14499477529E+02 -0.31871673440E+01  0.15248381334E+02  0.51100000000E-03 0. -1.
        -11    1    3    3    0    0 -0.53381553554E+01  0.42984261966E+01 -0.22515105710E+01  0.72139913001E+01  0.51100000000E-03 0.  1.
         12    1    3    3    0    0 -0.11436483374E+02  0.20456931448E+02 -0.33853582491E+01  0.23679946088E+02  0.00000000000E+00 0. -1.
</event>
<event>
 7    1  0.1402367E-008  0.4614232E+02  0.7816164E-02  0.1320468E+00
        -11   -1    0    0    0    0  0.00000000000E+00  0.00000000000E+00  0.45593999997E+02  0.45594000000E+02  0.51100000000E-03 0. -1.
         11   -1    0    0    0    0 -0.00000000000E+00 -0.00000000000E+00 -0.45593999997E+02  0.45594000000E+02  0.51100000000E-03 0.  1.
    9900012    2    1    2    0    0 -0.12602172137E+02  0.42815613840E+02 -0.60927893178E+01  0.46142316381E+02  0.99999874110E+01 0.  0.
         12    1    1    2    0    0  0.12602172137E+02 -0.42815613840E+02  0.60927893178E+01  0.45045683619E+02  0.00000000000E+00 0. -1.
         11    1    3    3    0    0  0.17778688144E+00  0.39816587393E+01 -0.23324498618E+01  0.46179581105E+01  0.51100000000E-03 0. -1.
        -11    1    3    3    0    0 -0.57950184693E+01  0.17400650008E+02  0.14163193446E+01  0.18394858535E+02  0.51100000000E-03 0.  1.
         12    1    3    3    0    0 -0.69849405491E+01  0.21433305093E+02 -0.51766588007E+01  0.23129499735E+02  0.00000000000E+00 0. -1.
</event>
<event>
 7    1  0.1402367E-008  0.4614232E+02  0.7816164E-02  0.1320468E+00
        -11   -1    0    0    0    0  0.00000000000E+00  0.00000000000E+00  0.45593999997E+02  0.45594000000E+02  0.51100000000E-03 0.  1.
         11   -1    0    0    0    0 -0.00000000000E+00 -0.00000000000E+00 -0.45593999997E+02  0.45594000000E+02  0.51100000000E-03 0. -1.
    9900012    2    1    2    0    0 -0.41717292778E+02  0.15729806173E+02 -0.64307260146E+01  0.46142317010E+02  0.99999931508E+01 0.  0.
         12    1    1    2    0    0  0.41717292778E+02 -0.15729806173E+02  0.64307260146E+01  0.45045682990E+02  0.00000000000E+00 0. -1.
         11    1    3    3    0    0 -0.59448102615E-01  0.97060969829E+00  0.81615566248E+00  0.12695383373E+01  0.51100000000E-03 0. -1.
        -11    1    3    3    0    0 -0.26522197184E+02  0.10531673489E+02 -0.54890988449E+01  0.29059822717E+02  0.51100000000E-03 0.  1.
         12    1    3    3    0    0 -0.15135647491E+02  0.42275229858E+01 -0.17577828322E+01  0.15812955956E+02  0.00000000000E+00 0. -1.
</event>
<event>
 7    1  0.1402367E-008  0.4614232E+02  0.7816164E-02  0.1320468E+00
        -11   -1    0    0    0    0  0.00000000000E+00  0.00000000000E+00  0.45593999997E+02  0.45594000000E+02  0.51100000000E-03 0.  1.
         11   -1    0    0    0    0 -0.00000000000E+00 -0.00000000000E+00 -0.45593999997E+02  0.45594000000E+02  0.51100000000E-03 0. -1.
    9900012    2    1    2    0    0 -0.12054263653E+02 -0.40423676180E+02  0.15802993096E+02  0.46142318088E+02  0.10000002980E+02 0.  0.
         12    1    1    2    0    0  0.12054263653E+02  0.40423676180E+02 -0.15802993096E+02  0.45045681912E+02  0.00000000000E+00 0. -1.
         11    1    3    3    0    0 -0.29167330448E+01 -0.15450634389E+02  0.53936443264E+01  0.16622900892E+02  0.51100000000E-03 0. -1.
        -11    1    3    3    0    0 -0.57447512667E+01 -0.22835320062E+02  0.81545513853E+01  0.24918882760E+02  0.51100000000E-03 0.  1.
         12    1    3    3    0    0 -0.33927793415E+01 -0.21377217288E+01  0.22547973843E+01  0.46005344357E+01  0.00000000000E+00 0. -1.
</event>
<event>
 7    1  0.1402367E-008  0.4614232E+02  0.7816164E-02  0.1320468E+00
        -11   -1    0    0    0    0  0.00000000000E+00  0.00000000000E+00  0.45593999997E+02  0.45594000000E+02  0.51100000000E-03 0.  1.
         11   -1    0    0    0    0 -0.00000000000E+00 -0.00000000000E+00 -0.45593999997E+02  0.45594000000E+02  0.51100000000E-03 0. -1.
    9900012    2    1    2    0    0  0.26543506238E+02  0.36275648062E+02 -0.29382163607E+01  0.46142317842E+02  0.10000000738E+02 0.  0.
         12    1    1    2    0    0 -0.26543506238E+02 -0.36275648062E+02  0.29382163607E+01  0.45045682158E+02  0.00000000000E+00 0. -1.
         11    1    3    3    0    0 -0.12241349031E-01  0.63190074149E+00  0.65905689377E+00  0.91312904239E+00  0.51100000000E-03 0. -1.
        -11    1    3    3    0    0  0.21877039157E+02  0.29945308866E+02 -0.13972916726E+00  0.37085656120E+02  0.51100000000E-03 0.  1.
        -12    1    3    3    0    0  0.46787084297E+01  0.56984384543E+01 -0.34575440872E+01  0.81435326795E+01  0.00000000000E+00 0.  1.
</event>
<event>
 7    1  0.1402367E-008  0.4614232E+02  0.7816164E-02  0.1320468E+00
        -11   -1    0    0    0    0  0.00000000000E+00  0.00000000000E+00  0.45593999997E+02  0.45594000000E+02  0.51100000000E-03 0.  1.
         11   -1    0    0    0    0 -0.00000000000E+00 -0.00000000000E+00 -0.45593999997E+02  0.45594000000E+02  0.51100000000E-03 0. -1.
    9900012    2    1    2    0    0 -0.43434918078E+02  0.12101909839E+01  0.11876735947E+02  0.46142317328E+02  0.99999960473E+01 0.  0.
         12    1    1    2    0    0  0.43434918078E+02 -0.12101909839E+01 -0.11876735947E+02  0.45045682672E+02  0.00000000000E+00 0. -1.
         11    1    3    3    0    0 -0.16951346807E+02  0.64136276171E+00  0.13147872666E+01  0.17014351900E+02  0.51100000000E-03 0. -1.
        -11    1    3    3    0    0 -0.16407906941E+02  0.15203267927E+01  0.36650444663E+01  0.16880857648E+02  0.51100000000E-03 0.  1.
         12    1    3    3    0    0 -0.10075664330E+02 -0.95149857051E+00  0.68969042137E+01  0.12247107779E+02  0.00000000000E+00 0. -1.
</event>
<event>
 7    1  0.1402367E-008  0.4614232E+02  0.7816164E-02  0.1320468E+00
        -11   -1    0    0    0    0  0.00000000000E+00  0.00000000000E+00  0.45593999997E+02  0.45594000000E+02  0.51100000000E-03 0.  1.
         11   -1    0    0    0    0 -0.00000000000E+00 -0.00000000000E+00 -0.45593999997E+02  0.45594000000E+02  0.51100000000E-03 0. -1.
    9900012    2    1    2    0    0 -0.13483030187E+02 -0.42566807797E+02  0.59488015996E+01  0.46142317970E+02  0.10000001906E+02 0.  0.
         12    1    1    2    0    0  0.13483030187E+02  0.42566807797E+02 -0.59488015996E+01  0.45045682030E+02  0.00000000000E+00 0. -1.
         11    1    3    3    0    0 -0.11429373890E+01 -0.50513521420E+01  0.28236992671E+01  0.58987915838E+01  0.51100000000E-03 0. -1.
        -11    1    3    3    0    0 -0.79873712854E+01 -0.14949258692E+02 -0.60780240116E+00  0.16960184536E+02  0.51100000000E-03 0.  1.
        -12    1    3    3    0    0 -0.43527215128E+01 -0.22566196963E+02  0.37329047337E+01  0.23283341850E+02  0.00000000000E+00 0.  1.
</event>
<event>
 7    1  0.1402367E-008  0.4614232E+02  0.7816164E-02  0.1320468E+00
        -11   -1    0    0    0    0  0.00000000000E+00  0.00000000000E+00  0.45593999997E+02  0.45594000000E+02  0.51100000000E-03 0.  1.
         11   -1    0    0    0    0 -0.00000000000E+00 -0.00000000000E+00 -0.45593999997E+02  0.45594000000E+02  0.51100000000E-03 0. -1.
    9900012    2    1    2    0    0 -0.36222715283E+02 -0.21567214438E+02  0.15870848812E+02  0.46142315600E+02  0.99999802917E+01 0.  0.
         12    1    1    2    0    0  0.36222715283E+02  0.21567214438E+02 -0.15870848812E+02  0.45045684400E+02  0.00000000000E+00 0. -1.
         11    1    3    3    0    0 -0.22029848839E+02 -0.12007842170E+02  0.71787482224E+01  0.26096684459E+02  0.51100000000E-03 0. -1.
        -11    1    3    3    0    0 -0.14656674723E+02 -0.97031089323E+01  0.84614601064E+01  0.19508068697E+02  0.51100000000E-03 0.  1.
         12    1    3    3    0    0  0.46380827947E+00  0.14373666407E+00  0.23064048316E+00  0.53756244398E+00  0.00000000000E+00 0. -1.
</event>
<event>
 7    1  0.1402367E-008  0.4614232E+02  0.7816164E-02  0.1320468E+00
        -11   -1    0    0    0    0  0.00000000000E+00  0.00000000000E+00  0.45593999997E+02  0.45594000000E+02  0.51100000000E-03 0.  1.
         11   -1    0    0    0    0 -0.00000000000E+00 -0.00000000000E+00 -0.45593999997E+02  0.45594000000E+02  0.51100000000E-03 0. -1.
    9900012    2    1    2    0    0 -0.34718761114E+02 -0.12594039130E+02  0.25789740250E+02  0.46142324324E+02  0.10000059849E+02 0.  0.
         12    1    1    2    0    0  0.34718761114E+02  0.12594039130E+02 -0.25789740250E+02  0.45045675676E+02  0.00000000000E+00 0. -1.
         11    1    3    3    0    0 -0.41516327796E+00 -0.97218669538E+00  0.12019191990E+01  0.16006615945E+01  0.51100000000E-03 0. -1.
        -11    1    3    3    0    0 -0.31497287732E+02 -0.86748451709E+01  0.23740549830E+02  0.40384969725E+02  0.51100000000E-03 0.  1.
        -12    1    3    3    0    0 -0.28063101041E+01 -0.29470072636E+01  0.84727122092E+00  0.41566930045E+01  0.00000000000E+00 0.  1.
</event>
<event>
 7    1  0.1402367E-008  0.4614232E+02  0.7816164E-02  0.1320468E+00
        -11   -1    0    0    0    0  0.00000000000E+00  0.00000000000E+00  0.45593999997E+02  0.45594000000E+02  0.51100000000E-03 0.  1.
         11   -1    0    0    0    0 -0.00000000000E+00 -0.00000000000E+00 -0.45593999997E+02  0.45594000000E+02  0.51100000000E-03 0. -1.
    9900012    2    1    2    0    0 -0.20485543640E+02 -0.27720048562E+02  0.29000944822E+02  0.46142318841E+02  0.10000009844E+02 0.  0.
         12    1    1    2    0    0  0.20485543640E+02  0.27720048562E+02 -0.29000944822E+02  0.45045681159E+02  0.00000000000E+00 0. -1.
         11    1    3    3    0    0 -0.58967691634E+01 -0.60101359798E+01  0.11765661030E+02  0.14468047580E+02  0.51100000000E-03 0. -1.
        -11    1    3    3    0    0 -0.14824652391E+02 -0.21401229316E+02  0.16443719248E+02  0.30792512689E+02  0.51100000000E-03 0.  1.
         12    1    3    3    0    0  0.23587791388E+00 -0.30868326618E+00  0.79156454465E+00  0.88175857094E+00  0.00000000000E+00 0. -1.
</event>
<event>
 7    1  0.1402367E-008  0.4614232E+02  0.7816164E-02  0.1320468E+00
        -11   -1    0    0    0    0  0.00000000000E+00  0.00000000000E+00  0.45593999997E+02  0.45594000000E+02  0.51100000000E-03 0.  1.
         11   -1    0    0    0    0 -0.00000000000E+00 -0.00000000000E+00 -0.45593999997E+02  0.45594000000E+02  0.51100000000E-03 0. -1.
    9900012    2    1    2    0    0  0.74114006324E+00 -0.34592710620E+02  0.28842825157E+02  0.46142317857E+02  0.10000000878E+02 0.  0.
         12    1    1    2    0    0 -0.74114006324E+00  0.34592710620E+02 -0.28842825157E+02  0.45045682143E+02  0.00000000000E+00 0. -1.
         11    1    3    3    0    0  0.26829260077E+01 -0.15899964493E+02  0.12951247108E+02  0.20681918788E+02  0.51100000000E-03 0. -1.
        -11    1    3    3    0    0  0.24164002220E+01 -0.67011369758E+01  0.60717638304E+01  0.93600503778E+01  0.51100000000E-03 0.  1.
         12    1    3    3    0    0 -0.43581861664E+01 -0.11991609151E+02  0.98198142188E+01  0.16100348692E+02  0.00000000000E+00 0. -1.
</event>
<event>
 7    1  0.1402367E-008  0.4614232E+02  0.7816164E-02  0.1320468E+00
        -11   -1    0    0    0    0  0.00000000000E+00  0.00000000000E+00  0.45593999997E+02  0.45594000000E+02  0.51100000000E-03 0.  1.
         11   -1    0    0    0    0 -0.00000000000E+00 -0.00000000000E+00 -0.45593999997E+02  0.45594000000E+02  0.51100000000E-03 0. -1.
    9900012    2    1    2    0    0  0.21884347090E+02  0.10814354579E+02  0.37858137086E+02  0.46142318119E+02  0.10000003261E+02 0.  0.
         12    1    1    2    0    0 -0.21884347090E+02 -0.10814354579E+02 -0.37858137086E+02  0.45045681881E+02  0.00000000000E+00 0. -1.
         11    1    3    3    0    0  0.40123199131E+01 -0.11991738973E+01  0.73515283713E+01  0.84605968333E+01  0.51100000000E-03 0. -1.
        -11    1    3    3    0    0  0.13773696618E+02  0.11380608869E+02  0.26109246813E+02  0.31637410547E+02  0.51100000000E-03 0.  1.
         12    1    3    3    0    0  0.40983305592E+01  0.63291960765E+00  0.43973619020E+01  0.60443107381E+01  0.00000000000E+00 0. -1.
</event>
<event>
 7    1  0.1402367E-008  0.4614232E+02  0.7816164E-02  0.1320468E+00
        -11   -1    0    0    0    0  0.00000000000E+00  0.00000000000E+00  0.45593999997E+02  0.45594000000E+02  0.51100000000E-03 0.  1.
         11   -1    0    0    0    0 -0.00000000000E+00 -0.00000000000E+00 -0.45593999997E+02  0.45594000000E+02  0.51100000000E-03 0. -1.
    9900012    2    1    2    0    0  0.35837498009E+02  0.20685187630E+02 -0.17801970226E+02  0.46142318800E+02  0.10000009473E+02 0.  0.
         12    1    1    2    0    0 -0.35837498009E+02 -0.20685187630E+02  0.17801970226E+02  0.45045681200E+02  0.00000000000E+00 0. -1.
         11    1    3    3    0    0  0.14536740951E+01  0.40192075576E+01 -0.13130505724E+01  0.44711631409E+01  0.51100000000E-03 0. -1.
        -11    1    3    3    0    0  0.23073896897E+02  0.10193918035E+02 -0.11402688575E+02  0.27682882616E+02  0.51100000000E-03 0.  1.
         12    1    3    3    0    0  0.11309927017E+02  0.64720620371E+01 -0.50862310791E+01  0.13988273043E+02  0.00000000000E+00 0. -1.
</event>
<event>
 7    1  0.1402367E-008  0.4614232E+02  0.7816164E-02  0.1320468E+00
        -11   -1    0    0    0    0  0.00000000000E+00  0.00000000000E+00  0.45593999997E+02  0.45594000000E+02  0.51100000000E-03 0.  1.
         11   -1    0    0    0    0 -0.00000000000E+00 -0.00000000000E+00 -0.45593999997E+02  0.45594000000E+02  0.51100000000E-03 0. -1.
    9900012    2    1    2    0    0  0.25358064420E+02  0.97938676518E+01  0.35918828063E+02  0.46142317808E+02  0.10000000431E+02 0.  0.
         12    1    1    2    0    0 -0.25358064420E+02 -0.97938676518E+01 -0.35918828063E+02  0.45045682192E+02  0.00000000000E+00 0. -1.
         11    1    3    3    0    0  0.65423488718E+01 -0.41640341081E+00  0.59521329212E+01  0.88545811383E+01  0.51100000000E-03 0. -1.
        -11    1    3    3    0    0  0.43613500467E+01  0.54172708733E+01  0.98146793733E+01  0.12028970422E+02  0.51100000000E-03 0.  1.
        -12    1    3    3    0    0  0.14454365501E+02  0.47930001893E+01  0.20152015768E+02  0.25258766248E+02  0.00000000000E+00 0.  1.
</event>
<event>
 7    1  0.1402367E-008  0.4614232E+02  0.7816164E-02  0.1320468E+00
        -11   -1    0    0    0    0  0.00000000000E+00  0.00000000000E+00  0.45593999997E+02  0.45594000000E+02  0.51100000000E-03 0.  1.
         11   -1    0    0    0    0 -0.00000000000E+00 -0.00000000000E+00 -0.45593999997E+02  0.45594000000E+02  0.51100000000E-03 0. -1.
    9900012    2    1    2    0    0 -0.40647796995E+02 -0.95244168460E+01 -0.16916134339E+02  0.46142317435E+02  0.99999970249E+01 0.  0.
         12    1    1    2    0    0  0.40647796995E+02  0.95244168460E+01  0.16916134339E+02  0.45045682565E+02  0.00000000000E+00 0. -1.
         11    1    3    3    0    0 -0.24202451379E+02 -0.39743698716E+01 -0.13031836920E+02  0.27773783365E+02  0.51100000000E-03 0. -1.
        -11    1    3    3    0    0 -0.19385766028E+01  0.28899830853E+00  0.68596309145E+00  0.20765704638E+01  0.51100000000E-03 0.  1.
        -12    1    3    3    0    0 -0.14506769013E+02 -0.58390452829E+01 -0.45702605106E+01  0.16291963606E+02  0.00000000000E+00 0.  1.
</event>
<event>
 7    1  0.1402367E-008  0.4614232E+02  0.7816164E-02  0.1320468E+00
        -11   -1    0    0    0    0  0.00000000000E+00  0.00000000000E+00  0.45593999997E+02  0.45594000000E+02  0.51100000000E-03 0. -1.
         11   -1    0    0    0    0 -0.00000000000E+00 -0.00000000000E+00 -0.45593999997E+02  0.45594000000E+02  0.51100000000E-03 0.  1.
    9900012    2    1    2    0    0  0.34295045190E+02 -0.84470553296E+01 -0.27957297719E+02  0.46142319140E+02  0.10000012577E+02 0.  0.
         12    1    1    2    0    0 -0.34295045190E+02  0.84470553296E+01  0.27957297719E+02  0.45045680860E+02  0.00000000000E+00 0. -1.
         11    1    3    3    0    0  0.20200098103E+01  0.18439388539E+01 -0.27092323158E+01  0.38497389694E+01  0.51100000000E-03 0. -1.
        -11    1    3    3    0    0  0.71758065807E+01 -0.22885270445E+01 -0.66217787010E+01  0.10028833907E+02  0.51100000000E-03 0.  1.
         12    1    3    3    0    0  0.25099228799E+02 -0.80024671390E+01 -0.18626286703E+02  0.32263746263E+02  0.00000000000E+00 0. -1.
</event>
<event>
 7    1  0.1402367E-008  0.4614232E+02  0.7816164E-02  0.1320468E+00
        -11   -1    0    0    0    0  0.00000000000E+00  0.00000000000E+00  0.45593999997E+02  0.45594000000E+02  0.51100000000E-03 0. -1.
         11   -1    0    0    0    0 -0.00000000000E+00 -0.00000000000E+00 -0.45593999997E+02  0.45594000000E+02  0.51100000000E-03 0.  1.
    9900012    2    1    2    0    0 -0.15857385464E+01 -0.41579352036E+02 -0.17255619068E+02  0.46142317944E+02  0.10000001670E+02 0.  0.
         12    1    1    2    0    0  0.15857385464E+01  0.41579352036E+02  0.17255619068E+02  0.45045682056E+02  0.00000000000E+00 0. -1.
         11    1    3    3    0    0 -0.10256862726E+01 -0.29010171475E+01 -0.10579934432E+01  0.32538105671E+01  0.51100000000E-03 0. -1.
        -11    1    3    3    0    0  0.62125156257E+00 -0.33032680790E+02 -0.10223049445E+02  0.34584023680E+02  0.51100000000E-03 0.  1.
        -12    1    3    3    0    0 -0.11813038364E+01 -0.56456540980E+01 -0.59745761794E+01  0.83044836968E+01  0.00000000000E+00 0.  1.
</event>
<event>
 7    1  0.1402367E-008  0.4614232E+02  0.7816164E-02  0.1320468E+00
        -11   -1    0    0    0    0  0.00000000000E+00  0.00000000000E+00  0.45593999997E+02  0.45594000000E+02  0.51100000000E-03 0.  1.
         11   -1    0    0    0    0 -0.00000000000E+00 -0.00000000000E+00 -0.45593999997E+02  0.45594000000E+02  0.51100000000E-03 0. -1.
    9900012    2    1    2    0    0  0.39449130908E+01  0.31760853311E+02  0.31698573394E+02  0.46142315439E+02  0.99999788287E+01 0.  0.
         12    1    1    2    0    0 -0.39449130908E+01 -0.31760853311E+02 -0.31698573394E+02  0.45045684561E+02  0.00000000000E+00 0. -1.
         11    1    3    3    0    0  0.50660788718E+01  0.74935510349E+01  0.97129189404E+01  0.13272500023E+02  0.51100000000E-03 0. -1.
        -11    1    3    3    0    0 -0.11027329054E+01  0.95376232995E+01  0.10175468729E+02  0.13990083708E+02  0.51100000000E-03 0.  1.
         12    1    3    3    0    0 -0.18432875495E-01  0.14729678976E+02  0.11810185725E+02  0.18879731708E+02  0.00000000000E+00 0. -1.
</event>
<event>
 7    1  0.1402367E-008  0.4614232E+02  0.7816164E-02  0.1320468E+00
        -11   -1    0    0    0    0  0.00000000000E+00  0.00000000000E+00  0.45593999997E+02  0.45594000000E+02  0.51100000000E-03 0.  1.
         11   -1    0    0    0    0 -0.00000000000E+00 -0.00000000000E+00 -0.45593999997E+02  0.45594000000E+02  0.51100000000E-03 0. -1.
    9900012    2    1    2    0    0 -0.15941947904E+02  0.41312475828E+02 -0.82611790840E+01  0.46142318278E+02  0.10000004709E+02 0.  0.
         12    1    1    2    0    0  0.15941947904E+02 -0.41312475828E+02  0.82611790840E+01  0.45045681722E+02  0.00000000000E+00 0. -1.
         11    1    3    3    0    0 -0.22514281364E+00  0.13738821153E+00  0.33840867199E+00  0.42905185887E+00  0.51100000000E-03 0. -1.
        -11    1    3    3    0    0 -0.13885962931E+02  0.38350057024E+02 -0.55342637330E+01  0.41160356116E+02  0.51100000000E-03 0.  1.
        -12    1    3    3    0    0 -0.18308421595E+01  0.28250305923E+01 -0.30653240230E+01  0.45529103029E+01  0.00000000000E+00 0.  1.
</event>
<event>
 7    1  0.1402367E-008  0.4614232E+02  0.7816164E-02  0.1320468E+00
        -11   -1    0    0    0    0  0.00000000000E+00  0.00000000000E+00  0.45593999997E+02  0.45594000000E+02  0.51100000000E-03 0.  1.
         11   -1    0    0    0    0 -0.00000000000E+00 -0.00000000000E+00 -0.45593999997E+02  0.45594000000E+02  0.51100000000E-03 0. -1.
    9900012    2    1    2    0    0 -0.20525648362E+01 -0.44928879792E+02 -0.25092484129E+01  0.46142316640E+02  0.99999897802E+01 0.  0.
         12    1    1    2    0    0  0.20525648362E+01  0.44928879792E+02  0.25092484129E+01  0.45045683360E+02  0.00000000000E+00 0. -1.
         11    1    3    3    0    0 -0.36195637555E+00 -0.61561527845E+00  0.12136193105E+01  0.14081429901E+01  0.51100000000E-03 0. -1.
        -11    1    3    3    0    0  0.15207803187E+01 -0.18963104900E+02 -0.18107805076E+01  0.19109972437E+02  0.51100000000E-03 0.  1.
        -12    1    3    3    0    0 -0.32113887793E+01 -0.25350159613E+02 -0.19120872158E+01  0.25624201213E+02  0.00000000000E+00 0.  1.
</event>
<event>
 7    1  0.1402367E-008  0.4614232E+02  0.7816164E-02  0.1320468E+00
        -11   -1    0    0    0    0  0.00000000000E+00  0.00000000000E+00  0.45593999997E+02  0.45594000000E+02  0.51100000000E-03 0. -1.
         11   -1    0    0    0    0 -0.00000000000E+00 -0.00000000000E+00 -0.45593999997E+02  0.45594000000E+02  0.51100000000E-03 0.  1.
    9900012    2    1    2    0    0 -0.19107260703E+02 -0.40722262760E+02 -0.23923557088E+01  0.46142318057E+02  0.10000002701E+02 0.  0.
         12    1    1    2    0    0  0.19107260703E+02  0.40722262760E+02  0.23923557088E+01  0.45045681943E+02  0.00000000000E+00 0. -1.
         11    1    3    3    0    0 -0.25765699097E+01 -0.28701740806E+01  0.15279444592E+01  0.41486414986E+01  0.51100000000E-03 0. -1.
        -11    1    3    3    0    0 -0.79476385603E+01 -0.19387566083E+02  0.12336020076E+01  0.20989627235E+02  0.51100000000E-03 0.  1.
        -12    1    3    3    0    0 -0.85830522328E+01 -0.18464522596E+02 -0.51539021755E+01  0.21004049323E+02  0.00000000000E+00 0.  1.
</event>
<event>
 7    1  0.1402367E-008  0.4614232E+02  0.7816164E-02  0.1320468E+00
        -11   -1    0    0    0    0  0.00000000000E+00  0.00000000000E+00  0.45593999997E+02  0.45594000000E+02  0.51100000000E-03 0.  1.
         11   -1    0    0    0    0 -0.00000000000E+00 -0.00000000000E+00 -0.45593999997E+02  0.45594000000E+02  0.51100000000E-03 0. -1.
    9900012    2    1    2    0    0 -0.33386619339E+02  0.11796779406E+01  0.30216807935E+02  0.46142317935E+02  0.10000001590E+02 0.  0.
         12    1    1    2    0    0  0.33386619339E+02 -0.11796779406E+01 -0.30216807935E+02  0.45045682065E+02  0.00000000000E+00 0. -1.
         11    1    3    3    0    0 -0.24675503186E+01 -0.21331074139E+01  0.99059534306E+00  0.34088460231E+01  0.51100000000E-03 0. -1.
        -11    1    3    3    0    0 -0.26520886195E+02  0.35360936286E+01  0.24590365646E+02  0.36339337440E+02  0.51100000000E-03 0.  1.
        -12    1    3    3    0    0 -0.43981828245E+01 -0.22330827408E+00  0.46358469461E+01  0.63941344723E+01  0.00000000000E+00 0.  1.
</event>
<event>
 7    1  0.1402367E-008  0.4614232E+02  0.7816164E-02  0.1320468E+00
        -11   -1    0    0    0    0  0.00000000000E+00  0.00000000000E+00  0.45593999997E+02  0.45594000000E+02  0.51100000000E-03 0. -1.
         11   -1    0    0    0    0 -0.00000000000E+00 -0.00000000000E+00 -0.45593999997E+02  0.45594000000E+02  0.51100000000E-03 0.  1.
    9900012    2    1    2    0    0  0.30245483808E+01 -0.18873283932E+01 -0.44904383698E+02  0.46142316781E+02  0.99999910582E+01 0.  0.
         12    1    1    2    0    0 -0.30245483808E+01  0.18873283932E+01  0.44904383698E+02  0.45045683219E+02  0.00000000000E+00 0. -1.
         11    1    3    3    0    0 -0.31395942630E+01 -0.20980722260E+01 -0.10617304515E+02  0.11268811589E+02  0.51100000000E-03 0. -1.
        -11    1    3    3    0    0  0.21873826482E+01  0.56951922302E+00 -0.15741755197E+02  0.15903202568E+02  0.51100000000E-03 0.  1.
         12    1    3    3    0    0  0.39767599956E+01 -0.35877539022E+00 -0.18545323987E+02  0.18970302624E+02  0.00000000000E+00 0. -1.
</event>
<event>
 7    1  0.1402367E-008  0.4614232E+02  0.7816164E-02  0.1320468E+00
        -11   -1    0    0    0    0  0.00000000000E+00  0.00000000000E+00  0.45593999997E+02  0.45594000000E+02  0.51100000000E-03 0.  1.
         11   -1    0    0    0    0 -0.00000000000E+00 -0.00000000000E+00 -0.45593999997E+02  0.45594000000E+02  0.51100000000E-03 0. -1.
    9900012    2    1    2    0    0  0.15775626394E+02 -0.22057441684E+02  0.35968214097E+02  0.46142317109E+02  0.99999940540E+01 0.  0.
         12    1    1    2    0    0 -0.15775626394E+02  0.22057441684E+02 -0.35968214097E+02  0.45045682891E+02  0.00000000000E+00 0. -1.
         11    1    3    3    0    0  0.42137254220E+01 -0.33862810135E+01  0.64108233218E+01  0.83857639460E+01  0.51100000000E-03 0.  1.
        -11    1    3    3    0    0  0.50355595152E+01 -0.34232113677E+01  0.39872622478E+01  0.72782893727E+01  0.51100000000E-03 0. -1.
         12    1    3    3    0    0  0.65263414568E+01 -0.15247949303E+02  0.25570128527E+02  0.30478263790E+02  0.00000000000E+00 0. -1.
</event>
<event>
 7    1  0.1402367E-008  0.4614232E+02  0.7816164E-02  0.1320468E+00
        -11   -1    0    0    0    0  0.00000000000E+00  0.00000000000E+00  0.45593999997E+02  0.45594000000E+02  0.51100000000E-03 0. -1.
         11   -1    0    0    0    0 -0.00000000000E+00 -0.00000000000E+00 -0.45593999997E+02  0.45594000000E+02  0.51100000000E-03 0.  1.
    9900012    2    1    2    0    0 -0.88930025231E+01  0.41150552503E+02 -0.16020613128E+02  0.46142317519E+02  0.99999977941E+01 0.  0.
         12    1    1    2    0    0  0.88930025231E+01 -0.41150552503E+02  0.16020613128E+02  0.45045682481E+02  0.00000000000E+00 0. -1.
         11    1    3    3    0    0 -0.74071638698E+01  0.15316997475E+02 -0.49356046703E+01  0.17715436262E+02  0.51100000000E-03 0. -1.
        -11    1    3    3    0    0  0.23034635235E+00  0.84540965696E+01 -0.17947134747E+01  0.86455656245E+01  0.51100000000E-03 0.  1.
        -12    1    3    3    0    0 -0.17161850056E+01  0.17379458459E+02 -0.92902949828E+01  0.19781315633E+02  0.00000000000E+00 0.  1.
</event>
<event>
 7    1  0.1402367E-008  0.4614232E+02  0.7816164E-02  0.1320468E+00
        -11   -1    0    0    0    0  0.00000000000E+00  0.00000000000E+00  0.45593999997E+02  0.45594000000E+02  0.51100000000E-03 0. -1.
         11   -1    0    0    0    0 -0.00000000000E+00 -0.00000000000E+00 -0.45593999997E+02  0.45594000000E+02  0.51100000000E-03 0.  1.
    9900012    2    1    2    0    0  0.31254186513E+02  0.30631766300E+02 -0.10676348819E+02  0.46142315352E+02  0.99999780333E+01 0.  0.
         12    1    1    2    0    0 -0.31254186513E+02 -0.30631766300E+02  0.10676348819E+02  0.45045684648E+02  0.00000000000E+00 0. -1.
         11    1    3    3    0    0  0.94787688603E+01  0.12850823462E+02 -0.42493568692E+01  0.16524156766E+02  0.51100000000E-03 0. -1.
        -11    1    3    3    0    0  0.18651695562E+02  0.17463724530E+02 -0.68409474740E+01  0.26451200056E+02  0.51100000000E-03 0.  1.
         12    1    3    3    0    0  0.31237220910E+01  0.31721830823E+00  0.41395552407E+00  0.31669585303E+01  0.00000000000E+00 0. -1.
</event>
<event>
 7    1  0.1402367E-008  0.4614232E+02  0.7816164E-02  0.1320468E+00
        -11   -1    0    0    0    0  0.00000000000E+00  0.00000000000E+00  0.45593999997E+02  0.45594000000E+02  0.51100000000E-03 0.  1.
         11   -1    0    0    0    0 -0.00000000000E+00 -0.00000000000E+00 -0.45593999997E+02  0.45594000000E+02  0.51100000000E-03 0. -1.
    9900012    2    1    2    0    0  0.90256207889E+01 -0.11454705590E+02  0.42619730179E+02  0.46142317506E+02  0.99999976775E+01 0.  0.
         12    1    1    2    0    0 -0.90256207889E+01  0.11454705590E+02 -0.42619730179E+02  0.45045682494E+02  0.00000000000E+00 0. -1.
         11    1    3    3    0    0  0.36177438995E+01 -0.21506634674E+01  0.22731637913E+02  0.23117975403E+02  0.51100000000E-03 0. -1.
        -11    1    3    3    0    0  0.53155128423E+01 -0.76187580239E+01  0.18922415229E+02  0.21079799548E+02  0.51100000000E-03 0.  1.
         12    1    3    3    0    0  0.92364047053E-01 -0.16852840987E+01  0.96567703667E+00  0.19445425554E+01  0.00000000000E+00 0. -1.
</event>
<event>
 7    1  0.1402367E-008  0.4614232E+02  0.7816164E-02  0.1320468E+00
        -11   -1    0    0    0    0  0.00000000000E+00  0.00000000000E+00  0.45593999997E+02  0.45594000000E+02  0.51100000000E-03 0. -1.
         11   -1    0    0    0    0 -0.00000000000E+00 -0.00000000000E+00 -0.45593999997E+02  0.45594000000E+02  0.51100000000E-03 0.  1.
    9900012    2    1    2    0    0  0.12074556369E+02 -0.30711700040E+02 -0.30661207408E+02  0.46142322398E+02  0.10000042286E+02 0.  0.
         12    1    1    2    0    0 -0.12074556369E+02  0.30711700040E+02  0.30661207408E+02  0.45045677602E+02  0.00000000000E+00 0. -1.
         11    1    3    3    0    0  0.69578463797E+01 -0.98123417145E+01 -0.63673117787E+01  0.13610155609E+02  0.51100000000E-03 0. -1.
        -11    1    3    3    0    0  0.22265281463E+01 -0.58486379007E+01 -0.60365393816E+01  0.86950446144E+01  0.51100000000E-03 0.  1.
         12    1    3    3    0    0  0.28901818432E+01 -0.15050720425E+02 -0.18257356248E+02  0.23837122174E+02  0.00000000000E+00 0. -1.
</event>
<event>
 7    1  0.1402367E-008  0.4614232E+02  0.7816164E-02  0.1320468E+00
        -11   -1    0    0    0    0  0.00000000000E+00  0.00000000000E+00  0.45593999997E+02  0.45594000000E+02  0.51100000000E-03 0.  1.
         11   -1    0    0    0    0 -0.00000000000E+00 -0.00000000000E+00 -0.45593999997E+02  0.45594000000E+02  0.51100000000E-03 0. -1.
    9900012    2    1    2    0    0 -0.28422128678E+02 -0.29915264719E+02  0.18065791328E+02  0.46142320095E+02  0.10000021280E+02 0.  0.
         12    1    1    2    0    0  0.28422128678E+02  0.29915264719E+02 -0.18065791328E+02  0.45045679905E+02  0.00000000000E+00 0. -1.
         11    1    3    3    0    0 -0.63230928405E+01 -0.26450439438E+01  0.37748770878E+01  0.78247976219E+01  0.51100000000E-03 0. -1.
        -11    1    3    3    0    0 -0.15927158373E+02 -0.17196406309E+02  0.11807679358E+02  0.26245229202E+02  0.51100000000E-03 0.  1.
         12    1    3    3    0    0 -0.61718774646E+01 -0.10073814466E+02  0.24832348821E+01  0.12072293271E+02  0.00000000000E+00 0. -1.
</event>
<event>
 7    1  0.1402367E-008  0.4614232E+02  0.7816164E-02  0.1320468E+00
        -11   -1    0    0    0    0  0.00000000000E+00  0.00000000000E+00  0.45593999997E+02  0.45594000000E+02  0.51100000000E-03 0.  1.
         11   -1    0    0    0    0 -0.00000000000E+00 -0.00000000000E+00 -0.45593999997E+02  0.45594000000E+02  0.51100000000E-03 0. -1.
    9900012    2    1    2    0    0  0.39611030525E+02  0.18487316803E+02 -0.10876539427E+02  0.46142315060E+02  0.99999753669E+01 0.  0.
         12    1    1    2    0    0 -0.39611030525E+02 -0.18487316803E+02  0.10876539427E+02  0.45045684940E+02  0.00000000000E+00 0. -1.
         11    1    3    3    0    0  0.16931861000E+02  0.56615474344E+01 -0.87251284654E+01  0.19871308545E+02  0.51100000000E-03 0. -1.
        -11    1    3    3    0    0  0.16046576041E+02  0.92210947648E+01 -0.26954707974E+01  0.18702586837E+02  0.51100000000E-03 0.  1.
         12    1    3    3    0    0  0.66325934839E+01  0.36046746038E+01  0.54405983622E+00  0.75684196784E+01  0.00000000000E+00 0. -1.
</event>
<event>
 7    1  0.1402367E-008  0.4614231E+02  0.7816164E-02  0.1320468E+00
        -11   -1    0    0    0    0  0.00000000000E+00  0.00000000000E+00  0.45593999997E+02  0.45594000000E+02  0.51100000000E-03 0.  1.
         11   -1    0    0    0    0 -0.00000000000E+00 -0.00000000000E+00 -0.45593999997E+02  0.45594000000E+02  0.51100000000E-03 0. -1.
    9900012    2    1    2    0    0  0.78447365108E+01  0.28943059315E+02 -0.33613593010E+02  0.46142309768E+02  0.99999271103E+01 0.  0.
         12    1    1    2    0    0 -0.78447365108E+01 -0.28943059315E+02  0.33613593010E+02  0.45045690232E+02  0.00000000000E+00 0. -1.
         11    1    3    3    0    0  0.86188588368E+01  0.24480807507E+02 -0.26829448576E+02  0.37328460657E+02  0.51100000000E-03 0. -1.
        -11    1    3    3    0    0  0.59800562517E-01  0.47455154933E+01 -0.57086398173E+01  0.74237498766E+01  0.51100000000E-03 0.  1.
         12    1    3    3    0    0 -0.83392288848E+00 -0.28326368596E+00 -0.10755046171E+01  0.13900992343E+01  0.00000000000E+00 0. -1.
</event>
<event>
 7    1  0.1402367E-008  0.4614232E+02  0.7816164E-02  0.1320468E+00
        -11   -1    0    0    0    0  0.00000000000E+00  0.00000000000E+00  0.45593999997E+02  0.45594000000E+02  0.51100000000E-03 0.  1.
         11   -1    0    0    0    0 -0.00000000000E+00 -0.00000000000E+00 -0.45593999997E+02  0.45594000000E+02  0.51100000000E-03 0. -1.
    9900012    2    1    2    0    0 -0.13132023381E+02  0.10732566284E+01  0.43075648813E+02  0.46142318314E+02  0.10000005041E+02 0.  0.
         12    1    1    2    0    0  0.13132023381E+02 -0.10732566284E+01 -0.43075648813E+02  0.45045681686E+02  0.00000000000E+00 0. -1.
         11    1    3    3    0    0 -0.55089534136E-02  0.30212324944E-01  0.74917347792E+01  0.74917977413E+01  0.51100000000E-03 0. -1.
        -11    1    3    3    0    0 -0.72830876387E-01  0.14600030431E+01  0.79809430183E+01  0.81137146206E+01  0.51100000000E-03 0.  1.
        -12    1    3    3    0    0 -0.13053683551E+02 -0.41695873968E+00  0.27602971016E+02  0.30536805952E+02  0.00000000000E+00 0.  1.
</event>
<event>
 7    1  0.1402367E-008  0.4614232E+02  0.7816164E-02  0.1320468E+00
        -11   -1    0    0    0    0  0.00000000000E+00  0.00000000000E+00  0.45593999997E+02  0.45594000000E+02  0.51100000000E-03 0.  1.
         11   -1    0    0    0    0 -0.00000000000E+00 -0.00000000000E+00 -0.45593999997E+02  0.45594000000E+02  0.51100000000E-03 0. -1.
    9900012    2    1    2    0    0 -0.41248875827E+02  0.97612114819E+01  0.15243439087E+02  0.46142318278E+02  0.10000004713E+02 0.  0.
         12    1    1    2    0    0  0.41248875827E+02 -0.97612114819E+01 -0.15243439087E+02  0.45045681722E+02  0.00000000000E+00 0. -1.
         11    1    3    3    0    0 -0.73371809140E+01  0.40467112207E+01  0.56868914888E+01  0.10126738396E+02  0.51100000000E-03 0. -1.
        -11    1    3    3    0    0 -0.27479131693E+02  0.56078618365E+01  0.60577896933E+01  0.28692291809E+02  0.51100000000E-03 0.  1.
         12    1    3    3    0    0 -0.64325632199E+01  0.10663842463E+00  0.34987579050E+01  0.73232880737E+01  0.00000000000E+00 0. -1.
</event>
<event>
 7    1  0.1402367E-008  0.4614232E+02  0.7816164E-02  0.1320468E+00
        -11   -1    0    0    0    0  0.00000000000E+00  0.00000000000E+00  0.45593999997E+02  0.45594000000E+02  0.51100000000E-03 0.  1.
         11   -1    0    0    0    0 -0.00000000000E+00 -0.00000000000E+00 -0.45593999997E+02  0.45594000000E+02  0.51100000000E-03 0. -1.
    9900012    2    1    2    0    0 -0.23451650732E+02 -0.22094445466E+02 -0.31479659659E+02  0.46142318578E+02  0.10000007451E+02 0.  0.
         12    1    1    2    0    0  0.23451650732E+02  0.22094445466E+02  0.31479659659E+02  0.45045681422E+02  0.00000000000E+00 0. -1.
         11    1    3    3    0    0 -0.15824895189E+02 -0.13284970810E+02 -0.16256362711E+02  0.26290437160E+02  0.51100000000E-03 0. -1.
        -11    1    3    3    0    0 -0.68960974064E+01 -0.42848291832E+01 -0.89671107701E+01  0.12096486944E+02  0.51100000000E-03 0.  1.
         12    1    3    3    0    0 -0.73065813650E+00 -0.45246454722E+01 -0.62561861779E+01  0.77553944744E+01  0.00000000000E+00 0. -1.
</event>
<event>
 7    1  0.1402367E-008  0.4614232E+02  0.7816164E-02  0.1320468E+00
        -11   -1    0    0    0    0  0.00000000000E+00  0.00000000000E+00  0.45593999997E+02  0.45594000000E+02  0.51100000000E-03 0.  1.
         11   -1    0    0    0    0 -0.00000000000E+00 -0.00000000000E+00 -0.45593999997E+02  0.45594000000E+02  0.51100000000E-03 0. -1.
    9900012    2    1    2    0    0 -0.26570536551E+02 -0.16244893840E+02  0.32545715290E+02  0.46142316830E+02  0.99999915118E+01 0.  0.
         12    1    1    2    0    0  0.26570536551E+02  0.16244893840E+02 -0.32545715290E+02  0.45045683170E+02  0.00000000000E+00 0. -1.
         11    1    3    3    0    0 -0.19798421215E+01 -0.41524084366E+01  0.28597868961E+01  0.54167012104E+01  0.51100000000E-03 0. -1.
        -11    1    3    3    0    0 -0.15307615498E+02 -0.82949806721E+01  0.22185444012E+02  0.28201484409E+02  0.51100000000E-03 0.  1.
         12    1    3    3    0    0 -0.92830789310E+01 -0.37975047313E+01  0.75004843825E+01  0.12524131211E+02  0.00000000000E+00 0. -1.
</event>
<event>
 7    1  0.1402367E-008  0.4614232E+02  0.7816164E-02  0.1320468E+00
        -11   -1    0    0    0    0  0.00000000000E+00  0.00000000000E+00  0.45593999997E+02  0.45594000000E+02  0.51100000000E-03 0.  1.
         11   -1    0    0    0    0 -0.00000000000E+00 -0.00000000000E+00 -0.45593999997E+02  0.45594000000E+02  0.51100000000E-03 0. -1.
    9900012    2    1    2    0    0 -0.34716729686E+02 -0.24457943300E+02  0.15022355020E+02  0.46142318066E+02  0.10000002780E+02 0.  0.
         12    1    1    2    0    0  0.34716729686E+02  0.24457943300E+02 -0.15022355020E+02  0.45045681934E+02  0.00000000000E+00 0. -1.
         11    1    3    3    0    0 -0.10485189816E+02 -0.32364604797E+01  0.25029730912E+01  0.11255165769E+02  0.51100000000E-03 0. -1.
        -11    1    3    3    0    0 -0.45550271125E+01 -0.17625326513E+01  0.16417772864E+01  0.51526911669E+01  0.51100000000E-03 0.  1.
         12    1    3    3    0    0 -0.19676512757E+02 -0.19458950169E+02  0.10877604643E+02  0.29734461130E+02  0.00000000000E+00 0. -1.
</event>
<event>
 7    1  0.1402367E-008  0.4614232E+02  0.7816164E-02  0.1320468E+00
        -11   -1    0    0    0    0  0.00000000000E+00  0.00000000000E+00  0.45593999997E+02  0.45594000000E+02  0.51100000000E-03 0.  1.
         11   -1    0    0    0    0 -0.00000000000E+00 -0.00000000000E+00 -0.45593999997E+02  0.45594000000E+02  0.51100000000E-03 0. -1.
    9900012    2    1    2    0    0  0.29596543311E+02  0.17665611522E+02  0.29001453159E+02  0.46142317723E+02  0.99999996542E+01 0.  0.
         12    1    1    2    0    0 -0.29596543311E+02 -0.17665611522E+02 -0.29001453159E+02  0.45045682277E+02  0.00000000000E+00 0. -1.
         11    1    3    3    0    0  0.14974127242E+01  0.27416765790E+01  0.28157314345E+01  0.42056365871E+01  0.51100000000E-03 0. -1.
        -11    1    3    3    0    0  0.26681978428E+02  0.11859612648E+02  0.24713221063E+02  0.38253387831E+02  0.51100000000E-03 0.  1.
        -12    1    3    3    0    0  0.14171521587E+01  0.30643222952E+01  0.14725006623E+01  0.36832933050E+01  0.00000000000E+00 0.  1.
</event>
<event>
 7    1  0.1402367E-008  0.4614232E+02  0.7816164E-02  0.1320468E+00
        -11   -1    0    0    0    0  0.00000000000E+00  0.00000000000E+00  0.45593999997E+02  0.45594000000E+02  0.51100000000E-03 0.  1.
         11   -1    0    0    0    0 -0.00000000000E+00 -0.00000000000E+00 -0.45593999997E+02  0.45594000000E+02  0.51100000000E-03 0. -1.
    9900012    2    1    2    0    0 -0.36039374254E+02 -0.30751746579E+01  0.26848096151E+02  0.46142318046E+02  0.10000002597E+02 0.  0.
         12    1    1    2    0    0  0.36039374254E+02  0.30751746579E+01 -0.26848096151E+02  0.45045681954E+02  0.00000000000E+00 0. -1.
         11    1    3    3    0    0 -0.13999414252E+02  0.93861838284E+00  0.13855769521E+02  0.19719202650E+02  0.51100000000E-03 0. -1.
        -11    1    3    3    0    0 -0.14448166350E+02 -0.16500640898E+01  0.56524211392E+01  0.15601989853E+02  0.51100000000E-03 0.  1.
        -12    1    3    3    0    0 -0.75917936513E+01 -0.23637289510E+01  0.73399054907E+01  0.10821125543E+02  0.00000000000E+00 0.  1.
</event>
<event>
 7    1  0.1402367E-008  0.4614232E+02  0.7816164E-02  0.1320468E+00
        -11   -1    0    0    0    0  0.00000000000E+00  0.00000000000E+00  0.45593999997E+02  0.45594000000E+02  0.51100000000E-03 0. -1.
         11   -1    0    0    0    0 -0.00000000000E+00 -0.00000000000E+00 -0.45593999997E+02  0.45594000000E+02  0.51100000000E-03 0.  1.
    9900012    2    1    2    0    0 -0.34252527995E+02 -0.17346712408E+02 -0.23557788145E+02  0.46142317768E+02  0.10000000065E+02 0.  0.
         12    1    1    2    0    0  0.34252527995E+02  0.17346712408E+02  0.23557788145E+02  0.45045682232E+02  0.00000000000E+00 0. -1.
         11    1    3    3    0    0 -0.16073740716E+02 -0.54917796778E+01 -0.13189903575E+02  0.21505774602E+02  0.51100000000E-03 0.  1.
        -11    1    3    3    0    0 -0.13686963690E+02 -0.11043949717E+02 -0.95052829345E+01  0.19991303217E+02  0.51100000000E-03 0. -1.
        -12    1    3    3    0    0 -0.44918235894E+01 -0.81098301374E+00 -0.86260163559E+00  0.46452399495E+01  0.00000000000E+00 0.  1.
</event>
<event>
 7    1  0.1402367E-008  0.4614232E+02  0.7816164E-02  0.1320468E+00
        -11   -1    0    0    0    0  0.00000000000E+00  0.00000000000E+00  0.45593999997E+02  0.45594000000E+02  0.51100000000E-03 0.  1.
         11   -1    0    0    0    0 -0.00000000000E+00 -0.00000000000E+00 -0.45593999997E+02  0.45594000000E+02  0.51100000000E-03 0. -1.
    9900012    2    1    2    0    0 -0.20730080470E+02  0.11516059979E+02  0.38298271096E+02  0.46142318268E+02  0.10000004622E+02 0.  0.
         12    1    1    2    0    0  0.20730080470E+02 -0.11516059979E+02 -0.38298271096E+02  0.45045681732E+02  0.00000000000E+00 0. -1.
         11    1    3    3    0    0  0.28079302533E+00  0.21748800671E+00  0.34238048372E+01  0.34421774476E+01  0.51100000000E-03 0. -1.
        -11    1    3    3    0    0 -0.12722123567E+02  0.92896914057E+01  0.25939436013E+02  0.30348066420E+02  0.51100000000E-03 0.  1.
        -12    1    3    3    0    0 -0.82887499284E+01  0.20088805662E+01  0.89350302459E+01  0.12352074401E+02  0.00000000000E+00 0.  1.
</event>
<event>
 7    1  0.1402367E-008  0.4614232E+02  0.7816164E-02  0.1320468E+00
        -11   -1    0    0    0    0  0.00000000000E+00  0.00000000000E+00  0.45593999997E+02  0.45594000000E+02  0.51100000000E-03 0.  1.
         11   -1    0    0    0    0 -0.00000000000E+00 -0.00000000000E+00 -0.45593999997E+02  0.45594000000E+02  0.51100000000E-03 0. -1.
    9900012    2    1    2    0    0 -0.28500566899E+01  0.40425088213E+02  0.19667304859E+02  0.46142318069E+02  0.10000002810E+02 0.  0.
         12    1    1    2    0    0  0.28500566899E+01 -0.40425088213E+02 -0.19667304859E+02  0.45045681931E+02  0.00000000000E+00 0. -1.
         11    1    3    3    0    0  0.10896271686E+01  0.54751704550E+01  0.49029926396E+00  0.56040318082E+01  0.51100000000E-03 0. -1.
        -11    1    3    3    0    0  0.86365508405E+00  0.11665933339E+02  0.41455118155E+01  0.12410687702E+02  0.51100000000E-03 0.  1.
         12    1    3    3    0    0 -0.48033389426E+01  0.23283984420E+02  0.15031493779E+02  0.28127598559E+02  0.00000000000E+00 0. -1.
</event>
<event>
 7    1  0.1402367E-008  0.4614232E+02  0.7816164E-02  0.1320468E+00
        -11   -1    0    0    0    0  0.00000000000E+00  0.00000000000E+00  0.45593999997E+02  0.45594000000E+02  0.51100000000E-03 0.  1.
         11   -1    0    0    0    0 -0.00000000000E+00 -0.00000000000E+00 -0.45593999997E+02  0.45594000000E+02  0.51100000000E-03 0. -1.
    9900012    2    1    2    0    0  0.33368253722E+02  0.11177903806E+02  0.28119879360E+02  0.46142317575E+02  0.99999982996E+01 0.  0.
         12    1    1    2    0    0 -0.33368253722E+02 -0.11177903806E+02 -0.28119879360E+02  0.45045682425E+02  0.00000000000E+00 0. -1.
         11    1    3    3    0    0  0.20735230940E+02  0.36328350726E+01  0.16478345942E+02  0.26733559023E+02  0.51100000000E-03 0. -1.
        -11    1    3    3    0    0  0.52477827104E+01  0.27416005324E+01  0.17744306906E+01  0.61809547314E+01  0.51100000000E-03 0.  1.
        -12    1    3    3    0    0  0.73852400716E+01  0.48034682008E+01  0.98671027270E+01  0.13227803820E+02  0.00000000000E+00 0.  1.
</event>
<event>
 7    1  0.1402367E-008  0.4614232E+02  0.7816164E-02  0.1320468E+00
        -11   -1    0    0    0    0  0.00000000000E+00  0.00000000000E+00  0.45593999997E+02  0.45594000000E+02  0.51100000000E-03 0.  1.
         11   -1    0    0    0    0 -0.00000000000E+00 -0.00000000000E+00 -0.45593999997E+02  0.45594000000E+02  0.51100000000E-03 0. -1.
    9900012    2    1    2    0    0 -0.44081883114E+02 -0.77528989835E+01 -0.50787397457E+01  0.46142318088E+02  0.10000002979E+02 0.  0.
         12    1    1    2    0    0  0.44081883114E+02  0.77528989835E+01  0.50787397457E+01  0.45045681912E+02  0.00000000000E+00 0. -1.
         11    1    3    3    0    0 -0.26917526448E+02 -0.18419704674E+01 -0.30298291121E+01  0.27150063535E+02  0.51100000000E-03 0. -1.
        -11    1    3    3    0    0 -0.41971315351E+01 -0.27589099231E+01 -0.25603679843E+01  0.56376397155E+01  0.51100000000E-03 0.  1.
        -12    1    3    3    0    0 -0.12967225131E+02 -0.31520185930E+01  0.51145735071E+00  0.13354614837E+02  0.00000000000E+00 0.  1.
</event>
<event>
 7    1  0.1402367E-008  0.4614232E+02  0.7816164E-02  0.1320468E+00
        -11   -1    0    0    0    0  0.00000000000E+00  0.00000000000E+00  0.45593999997E+02  0.45594000000E+02  0.51100000000E-03 0.  1.
         11   -1    0    0    0    0 -0.00000000000E+00 -0.00000000000E+00 -0.45593999997E+02  0.45594000000E+02  0.51100000000E-03 0. -1.
    9900012    2    1    2    0    0 -0.55079716914E+01  0.27300242875E+02  0.35404412545E+02  0.46142318289E+02  0.10000004813E+02 0.  0.
         12    1    1    2    0    0  0.55079716914E+01 -0.27300242875E+02 -0.35404412545E+02  0.45045681711E+02  0.00000000000E+00 0. -1.
         11    1    3    3    0    0 -0.14339429744E+01  0.14361896594E+01  0.68337631879E+00  0.21414566645E+01  0.51100000000E-03 0. -1.
        -11    1    3    3    0    0 -0.12283089281E+01  0.91494453171E+01  0.73339191974E+01  0.11790142641E+02  0.51100000000E-03 0.  1.
         12    1    3    3    0    0 -0.28457197888E+01  0.16714607898E+02  0.27387117029E+02  0.32210718984E+02  0.00000000000E+00 0. -1.
</event>
<event>
 7    1  0.1402367E-008  0.4614232E+02  0.7816164E-02  0.1320468E+00
        -11   -1    0    0    0    0  0.00000000000E+00  0.00000000000E+00  0.45593999997E+02  0.45594000000E+02  0.51100000000E-03 0.  1.
         11   -1    0    0    0    0 -0.00000000000E+00 -0.00000000000E+00 -0.45593999997E+02  0.45594000000E+02  0.51100000000E-03 0. -1.
    9900012    2    1    2    0    0  0.37463184740E+02  0.86131136490E+01  0.23482707495E+02  0.46142317755E+02  0.99999999421E+01 0.  0.
         12    1    1    2    0    0 -0.37463184740E+02 -0.86131136490E+01 -0.23482707495E+02  0.45045682245E+02  0.00000000000E+00 0. -1.
         11    1    3    3    0    0  0.19040342986E+02  0.24024955277E+01  0.15104206913E+02  0.24422197127E+02  0.51100000000E-03 0. -1.
        -11    1    3    3    0    0  0.15774467554E+02  0.35664212445E+01  0.58253914352E+01  0.17189775239E+02  0.51100000000E-03 0.  1.
         12    1    3    3    0    0  0.26483742000E+01  0.26441968768E+01  0.25531091475E+01  0.45303453892E+01  0.00000000000E+00 0. -1.
</event>
<event>
 7    1  0.1402367E-008  0.4614231E+02  0.7816164E-02  0.1320468E+00
        -11   -1    0    0    0    0  0.00000000000E+00  0.00000000000E+00  0.45593999997E+02  0.45594000000E+02  0.51100000000E-03 0.  1.
         11   -1    0    0    0    0 -0.00000000000E+00 -0.00000000000E+00 -0.45593999997E+02  0.45594000000E+02  0.51100000000E-03 0. -1.
    9900012    2    1    2    0    0  0.31507322847E+02  0.27889437183E+02  0.16080482441E+02  0.46142311916E+02  0.99999466993E+01 0.  0.
         12    1    1    2    0    0 -0.31507322847E+02 -0.27889437183E+02 -0.16080482441E+02  0.45045688084E+02  0.00000000000E+00 0. -1.
         11    1    3    3    0    0  0.85789619966E+00  0.37711285468E+01  0.85577850532E+00  0.39610293507E+01  0.51100000000E-03 0. -1.
        -11    1    3    3    0    0  0.52226513327E+01  0.50874094930E+01  0.92079009841E+00  0.73488554863E+01  0.51100000000E-03 0.  1.
        -12    1    3    3    0    0  0.25426775315E+02  0.19030899144E+02  0.14303913838E+02  0.34832427079E+02  0.00000000000E+00 0.  1.
</event>
<event>
 7    1  0.1402367E-008  0.4614231E+02  0.7816164E-02  0.1320468E+00
        -11   -1    0    0    0    0  0.00000000000E+00  0.00000000000E+00  0.45593999997E+02  0.45594000000E+02  0.51100000000E-03 0.  1.
         11   -1    0    0    0    0 -0.00000000000E+00 -0.00000000000E+00 -0.45593999997E+02  0.45594000000E+02  0.51100000000E-03 0. -1.
    9900012    2    1    2    0    0  0.28020573499E+01 -0.34006266376E+02  0.29408095564E+02  0.46142314713E+02  0.99999722039E+01 0.  0.
         12    1    1    2    0    0 -0.28020573499E+01  0.34006266376E+02 -0.29408095564E+02  0.45045685287E+02  0.00000000000E+00 0. -1.
         11    1    3    3    0    0  0.40985702197E+01 -0.22586500022E+02  0.18046435466E+02  0.29199693395E+02  0.51100000000E-03 0. -1.
        -11    1    3    3    0    0 -0.35750418742E+00 -0.98300414501E+01  0.11448931104E+02  0.15094222333E+02  0.51100000000E-03 0.  1.
         12    1    3    3    0    0 -0.93900868244E+00 -0.15897249048E+01 -0.87271005676E-01  0.18483989848E+01  0.00000000000E+00 0. -1.
</event>
<event>
 7    1  0.1402367E-008  0.4614232E+02  0.7816164E-02  0.1320468E+00
        -11   -1    0    0    0    0  0.00000000000E+00  0.00000000000E+00  0.45593999997E+02  0.45594000000E+02  0.51100000000E-03 0. -1.
         11   -1    0    0    0    0 -0.00000000000E+00 -0.00000000000E+00 -0.45593999997E+02  0.45594000000E+02  0.51100000000E-03 0.  1.
    9900012    2    1    2    0    0  0.34404667924E+02  0.27167905564E+02  0.10360356505E+02  0.46142320356E+02  0.10000023664E+02 0.  0.
         12    1    1    2    0    0 -0.34404667924E+02 -0.27167905564E+02 -0.10360356505E+02  0.45045679644E+02  0.00000000000E+00 0. -1.
         11    1    3    3    0    0  0.77583759087E+01  0.42326691303E+01  0.59466300032E+01  0.10652243584E+02  0.51100000000E-03 0. -1.
        -11    1    3    3    0    0  0.18453767426E+02  0.14691318185E+02  0.26885784287E+01  0.23740362601E+02  0.51100000000E-03 0.  1.
        -12    1    3    3    0    0  0.81925245891E+01  0.82439182485E+01  0.17251480736E+01  0.11749714171E+02  0.00000000000E+00 0.  1.
</event>
<event>
 7    1  0.1402367E-008  0.4614232E+02  0.7816164E-02  0.1320468E+00
        -11   -1    0    0    0    0  0.00000000000E+00  0.00000000000E+00  0.45593999997E+02  0.45594000000E+02  0.51100000000E-03 0.  1.
         11   -1    0    0    0    0 -0.00000000000E+00 -0.00000000000E+00 -0.45593999997E+02  0.45594000000E+02  0.51100000000E-03 0. -1.
    9900012    2    1    2    0    0 -0.44627670527E+02 -0.10065176334E+00  0.61216313015E+01  0.46142317885E+02  0.10000001126E+02 0.  0.
         12    1    1    2    0    0  0.44627670527E+02  0.10065176334E+00 -0.61216313015E+01  0.45045682115E+02  0.00000000000E+00 0. -1.
         11    1    3    3    0    0 -0.23037957259E+02  0.23235666193E+01  0.10015210789E+00  0.23155052736E+02  0.51100000000E-03 0.  1.
        -11    1    3    3    0    0 -0.15548596628E+02 -0.31480692560E+01  0.28224888083E+01  0.16113213227E+02  0.51100000000E-03 0. -1.
        -12    1    3    3    0    0 -0.60411166402E+01  0.72385087337E+00  0.31989903853E+01  0.68740519224E+01  0.00000000000E+00 0.  1.
</event>
<event>
 7    1  0.1402367E-008  0.4614232E+02  0.7816164E-02  0.1320468E+00
        -11   -1    0    0    0    0  0.00000000000E+00  0.00000000000E+00  0.45593999997E+02  0.45594000000E+02  0.51100000000E-03 0.  1.
         11   -1    0    0    0    0 -0.00000000000E+00 -0.00000000000E+00 -0.45593999997E+02  0.45594000000E+02  0.51100000000E-03 0. -1.
    9900012    2    1    2    0    0 -0.17611293647E+02 -0.27443422657E+01  0.41369365585E+02  0.46142317773E+02  0.10000000106E+02 0.  0.
         12    1    1    2    0    0  0.17611293647E+02  0.27443422657E+01 -0.41369365585E+02  0.45045682227E+02  0.00000000000E+00 0. -1.
         11    1    3    3    0    0 -0.49212297498E+01 -0.33548242353E+01  0.19090314242E+02  0.19997836034E+02  0.51100000000E-03 0. -1.
        -11    1    3    3    0    0 -0.10579246018E+02 -0.15046342079E+01  0.17048262620E+02  0.20120328751E+02  0.51100000000E-03 0.  1.
         12    1    3    3    0    0 -0.21108178797E+01  0.21151161776E+01  0.52307887228E+01  0.60241529884E+01  0.00000000000E+00 0. -1.
</event>
<event>
 7    1  0.1402367E-008  0.4614232E+02  0.7816164E-02  0.1320468E+00
        -11   -1    0    0    0    0  0.00000000000E+00  0.00000000000E+00  0.45593999997E+02  0.45594000000E+02  0.51100000000E-03 0.  1.
         11   -1    0    0    0    0 -0.00000000000E+00 -0.00000000000E+00 -0.45593999997E+02  0.45594000000E+02  0.51100000000E-03 0. -1.
    9900012    2    1    2    0    0 -0.18777430895E+02  0.18384290932E+02  0.36586052023E+02  0.46142320221E+02  0.10000022435E+02 0.  0.
         12    1    1    2    0    0  0.18777430895E+02 -0.18384290932E+02 -0.36586052023E+02  0.45045679779E+02  0.00000000000E+00 0. -1.
         11    1    3    3    0    0  0.52259413324E+00  0.25350828242E+01  0.50933445096E+01  0.57133097333E+01  0.51100000000E-03 0. -1.
        -11    1    3    3    0    0 -0.19092487295E+02  0.15525994957E+02  0.31579182633E+02  0.40035289016E+02  0.51100000000E-03 0.  1.
        -12    1    3    3    0    0 -0.20753773347E+00  0.32321315058E+00 -0.86475120154E-01  0.39372147253E+00  0.00000000000E+00 0.  1.
</event>
<event>
 7    1  0.1402367E-008  0.4614232E+02  0.7816164E-02  0.1320468E+00
        -11   -1    0    0    0    0  0.00000000000E+00  0.00000000000E+00  0.45593999997E+02  0.45594000000E+02  0.51100000000E-03 0.  1.
         11   -1    0    0    0    0 -0.00000000000E+00 -0.00000000000E+00 -0.45593999997E+02  0.45594000000E+02  0.51100000000E-03 0. -1.
    9900012    2    1    2    0    0 -0.11300123117E+02 -0.20848036352E+02  0.38298565573E+02  0.46142317331E+02  0.99999960798E+01 0.  0.
         12    1    1    2    0    0  0.11300123117E+02  0.20848036352E+02 -0.38298565573E+02  0.45045682669E+02  0.00000000000E+00 0. -1.
         11    1    3    3    0    0 -0.18605517608E+01 -0.15439293048E+01  0.74099302178E+01  0.77943849434E+01  0.51100000000E-03 0. -1.
        -11    1    3    3    0    0 -0.45549878888E+01 -0.78304970141E+01  0.19318465086E+02  0.21337002875E+02  0.51100000000E-03 0.  1.
         12    1    3    3    0    0 -0.48845834671E+01 -0.11473610033E+02  0.11570170269E+02  0.17010929512E+02  0.00000000000E+00 0. -1.
</event>
<event>
 7    1  0.1402367E-008  0.4614232E+02  0.7816164E-02  0.1320468E+00
        -11   -1    0    0    0    0  0.00000000000E+00  0.00000000000E+00  0.45593999997E+02  0.45594000000E+02  0.51100000000E-03 0.  1.
         11   -1    0    0    0    0 -0.00000000000E+00 -0.00000000000E+00 -0.45593999997E+02  0.45594000000E+02  0.51100000000E-03 0. -1.
    9900012    2    1    2    0    0 -0.33312611580E+01 -0.75852538175E+00  0.44915930618E+02  0.46142317799E+02  0.10000000347E+02 0.  0.
         12    1    1    2    0    0  0.33312611580E+01  0.75852538175E+00 -0.44915930618E+02  0.45045682201E+02  0.00000000000E+00 0. -1.
         11    1    3    3    0    0  0.16658975110E+01 -0.10118141248E+01  0.18284150931E+01  0.26724678397E+01  0.51100000000E-03 0. -1.
        -11    1    3    3    0    0 -0.11878933760E+01  0.24515852257E-01  0.22518924837E+02  0.22550247622E+02  0.51100000000E-03 0.  1.
        -12    1    3    3    0    0 -0.38092652929E+01  0.22877289084E+00  0.20568590687E+02  0.20919602338E+02  0.00000000000E+00 0.  1.
</event>
<event>
 7    1  0.1402367E-008  0.4614232E+02  0.7816164E-02  0.1320468E+00
        -11   -1    0    0    0    0  0.00000000000E+00  0.00000000000E+00  0.45593999997E+02  0.45594000000E+02  0.51100000000E-03 0. -1.
         11   -1    0    0    0    0 -0.00000000000E+00 -0.00000000000E+00 -0.45593999997E+02  0.45594000000E+02  0.51100000000E-03 0.  1.
    9900012    2    1    2    0    0  0.40736292897E+02 -0.18504161184E+02 -0.52214834122E+01  0.46142318418E+02  0.10000005994E+02 0.  0.
         12    1    1    2    0    0 -0.40736292897E+02  0.18504161184E+02  0.52214834122E+01  0.45045681582E+02  0.00000000000E+00 0. -1.
         11    1    3    3    0    0  0.22951027709E+01 -0.20901934800E+01  0.19603539558E+01  0.36714293410E+01  0.51100000000E-03 0. -1.
        -11    1    3    3    0    0  0.18542778647E+02 -0.78735594129E+01 -0.23226686075E+01  0.20278618481E+02  0.51100000000E-03 0.  1.
         12    1    3    3    0    0  0.19898411479E+02 -0.85404082915E+01 -0.48591687605E+01  0.22192270596E+02  0.00000000000E+00 0. -1.
</event>
<event>
 7    1  0.1402367E-008  0.4614231E+02  0.7816164E-02  0.1320468E+00
        -11   -1    0    0    0    0  0.00000000000E+00  0.00000000000E+00  0.45593999997E+02  0.45594000000E+02  0.51100000000E-03 0. -1.
         11   -1    0    0    0    0 -0.00000000000E+00 -0.00000000000E+00 -0.45593999997E+02  0.45594000000E+02  0.51100000000E-03 0.  1.
    9900012    2    1    2    0    0 -0.39527934859E+02 -0.11257667405E+02 -0.18436969180E+02  0.46142306064E+02  0.99998933371E+01 0.  0.
         12    1    1    2    0    0  0.39527934859E+02  0.11257667405E+02  0.18436969180E+02  0.45045693936E+02  0.00000000000E+00 0. -1.
         11    1    3    3    0    0 -0.57619840371E+01 -0.33591350594E+01 -0.48481002698E+00  0.66872482693E+01  0.51100000000E-03 0. -1.
        -11    1    3    3    0    0 -0.28703623794E+02 -0.79801626948E+01 -0.13481041083E+02  0.32700450830E+02  0.51100000000E-03 0.  1.
        -12    1    3    3    0    0 -0.50623270276E+01  0.81630349430E-01 -0.44711180705E+01  0.67546069648E+01  0.00000000000E+00 0.  1.
</event>
<event>
 7    1  0.1402367E-008  0.4614232E+02  0.7816164E-02  0.1320468E+00
        -11   -1    0    0    0    0  0.00000000000E+00  0.00000000000E+00  0.45593999997E+02  0.45594000000E+02  0.51100000000E-03 0.  1.
         11   -1    0    0    0    0 -0.00000000000E+00 -0.00000000000E+00 -0.45593999997E+02  0.45594000000E+02  0.51100000000E-03 0. -1.
    9900012    2    1    2    0    0 -0.53811344278E+01 -0.12513521864E+02  0.42936797291E+02  0.46142318755E+02  0.10000009063E+02 0.  0.
         12    1    1    2    0    0  0.53811344278E+01  0.12513521864E+02 -0.42936797291E+02  0.45045681245E+02  0.00000000000E+00 0. -1.
         11    1    3    3    0    0 -0.18362934603E+01 -0.16096333822E+01  0.14872184307E+01  0.28591453652E+01  0.51100000000E-03 0. -1.
        -11    1    3    3    0    0 -0.32642382118E+00 -0.54783042417E+01  0.12458408316E+02  0.13613607454E+02  0.51100000000E-03 0.  1.
         12    1    3    3    0    0 -0.32184171463E+01 -0.54255842406E+01  0.28991170545E+02  0.29669565936E+02  0.00000000000E+00 0. -1.
</event>
<event>
 7    1  0.1402367E-008  0.4614232E+02  0.7816164E-02  0.1320468E+00
        -11   -1    0    0    0    0  0.00000000000E+00  0.00000000000E+00  0.45593999997E+02  0.45594000000E+02  0.51100000000E-03 0.  1.
         11   -1    0    0    0    0 -0.00000000000E+00 -0.00000000000E+00 -0.45593999997E+02  0.45594000000E+02  0.51100000000E-03 0. -1.
    9900012    2    1    2    0    0 -0.14300765361E+02  0.39863094751E+02  0.15347159856E+02  0.46142317314E+02  0.99999959194E+01 0.  0.
         12    1    1    2    0    0  0.14300765361E+02 -0.39863094751E+02 -0.15347159856E+02  0.45045682686E+02  0.00000000000E+00 0. -1.
         11    1    3    3    0    0 -0.89914128304E+00  0.12062650046E+01 -0.47888309680E+00  0.15788792195E+01  0.51100000000E-03 0. -1.
        -11    1    3    3    0    0 -0.11457216495E+02  0.22871973398E+02  0.11718046913E+02  0.28137299101E+02  0.51100000000E-03 0.  1.
        -12    1    3    3    0    0 -0.19444075828E+01  0.15784856348E+02  0.41079960396E+01  0.16426138993E+02  0.00000000000E+00 0.  1.
</event>
<event>
 7    1  0.1402367E-008  0.4614232E+02  0.7816164E-02  0.1320468E+00
        -11   -1    0    0    0    0  0.00000000000E+00  0.00000000000E+00  0.45593999997E+02  0.45594000000E+02  0.51100000000E-03 0.  1.
         11   -1    0    0    0    0 -0.00000000000E+00 -0.00000000000E+00 -0.45593999997E+02  0.45594000000E+02  0.51100000000E-03 0. -1.
    9900012    2    1    2    0    0 -0.59255280016E+00  0.18936263262E+02  0.40867840772E+02  0.46142316583E+02  0.99999892582E+01 0.  0.
         12    1    1    2    0    0  0.59255280016E+00 -0.18936263262E+02 -0.40867840772E+02  0.45045683417E+02  0.00000000000E+00 0. -1.
         11    1    3    3    0    0 -0.13453629078E+01  0.71994751463E+01  0.19074527353E+02  0.20432328250E+02  0.51100000000E-03 0.  1.
        -11    1    3    3    0    0 -0.17266131123E+01  0.81593749685E+00  0.63679141464E+01  0.66481033141E+01  0.51100000000E-03 0. -1.
         12    1    3    3    0    0  0.24794232199E+01  0.10920850619E+02  0.15425399272E+02  0.19061885019E+02  0.00000000000E+00 0. -1.
</event>
<event>
 7    1  0.1402367E-008  0.4614232E+02  0.7816164E-02  0.1320468E+00
        -11   -1    0    0    0    0  0.00000000000E+00  0.00000000000E+00  0.45593999997E+02  0.45594000000E+02  0.51100000000E-03 0.  1.
         11   -1    0    0    0    0 -0.00000000000E+00 -0.00000000000E+00 -0.45593999997E+02  0.45594000000E+02  0.51100000000E-03 0. -1.
    9900012    2    1    2    0    0 -0.15914435581E+02 -0.39725825305E+02  0.14060691784E+02  0.46142317527E+02  0.99999978627E+01 0.  0.
         12    1    1    2    0    0  0.15914435581E+02  0.39725825305E+02 -0.14060691784E+02  0.45045682473E+02  0.00000000000E+00 0. -1.
         11    1    3    3    0    0 -0.25178073107E+01 -0.46110755030E+01 -0.79690655409E+00  0.53137963139E+01  0.51100000000E-03 0. -1.
        -11    1    3    3    0    0 -0.91263771094E+01 -0.24891900908E+02  0.13232752778E+02  0.29631119390E+02  0.51100000000E-03 0.  1.
        -12    1    3    3    0    0 -0.42702511607E+01 -0.10222848894E+02  0.16248455603E+01  0.11197401822E+02  0.00000000000E+00 0.  1.
</event>
<event>
 7    1  0.1402367E-008  0.4614232E+02  0.7816164E-02  0.1320468E+00
        -11   -1    0    0    0    0  0.00000000000E+00  0.00000000000E+00  0.45593999997E+02  0.45594000000E+02  0.51100000000E-03 0.  1.
         11   -1    0    0    0    0 -0.00000000000E+00 -0.00000000000E+00 -0.45593999997E+02  0.45594000000E+02  0.51100000000E-03 0. -1.
    9900012    2    1    2    0    0 -0.30049717040E+02  0.89034523075E+01  0.32355162013E+02  0.46142318009E+02  0.10000002259E+02 0.  0.
         12    1    1    2    0    0  0.30049717040E+02 -0.89034523075E+01 -0.32355162013E+02  0.45045681991E+02  0.00000000000E+00 0. -1.
         11    1    3    3    0    0 -0.88451504256E+00  0.68591700005E+00 -0.20831336897E+00  0.11385269923E+01  0.51100000000E-03 0. -1.
        -11    1    3    3    0    0 -0.22246467936E+02  0.72414986096E+01  0.20713936471E+02  0.31247588741E+02  0.51100000000E-03 0.  1.
        -12    1    3    3    0    0 -0.69187340614E+01  0.97603669777E+00  0.11849538911E+02  0.13756202276E+02  0.00000000000E+00 0.  1.
</event>
<event>
 7    1  0.1402367E-008  0.4614232E+02  0.7816164E-02  0.1320468E+00
        -11   -1    0    0    0    0  0.00000000000E+00  0.00000000000E+00  0.45593999997E+02  0.45594000000E+02  0.51100000000E-03 0.  1.
         11   -1    0    0    0    0 -0.00000000000E+00 -0.00000000000E+00 -0.45593999997E+02  0.45594000000E+02  0.51100000000E-03 0. -1.
    9900012    2    1    2    0    0  0.16750086855E+02 -0.15107997501E+02  0.38990971830E+02  0.46142324488E+02  0.10000061339E+02 0.  0.
         12    1    1    2    0    0 -0.16750086855E+02  0.15107997501E+02 -0.38990971830E+02  0.45045675512E+02  0.00000000000E+00 0. -1.
         11    1    3    3    0    0  0.36821898066E+01 -0.35510881332E+01  0.35206547729E+01  0.62099725436E+01  0.51100000000E-03 0. -1.
        -11    1    3    3    0    0  0.87581551468E+01 -0.90277979070E+01  0.29962636642E+02  0.32495630651E+02  0.51100000000E-03 0.  1.
         12    1    3    3    0    0  0.43097419012E+01 -0.25291114610E+01  0.55076804148E+01  0.74367212929E+01  0.00000000000E+00 0. -1.
</event>
<event>
 7    1  0.1402367E-008  0.4614232E+02  0.7816164E-02  0.1320468E+00
        -11   -1    0    0    0    0  0.00000000000E+00  0.00000000000E+00  0.45593999997E+02  0.45594000000E+02  0.51100000000E-03 0.  1.
         11   -1    0    0    0    0 -0.00000000000E+00 -0.00000000000E+00 -0.45593999997E+02  0.45594000000E+02  0.51100000000E-03 0. -1.
    9900012    2    1    2    0    0  0.56366721757E+01  0.35170753336E+01  0.44553019714E+02  0.46142318101E+02  0.10000003099E+02 0.  0.
         12    1    1    2    0    0 -0.56366721757E+01 -0.35170753336E+01 -0.44553019714E+02  0.45045681899E+02  0.00000000000E+00 0. -1.
         11    1    3    3    0    0  0.52805460266E+01  0.17506537769E+01  0.14487853978E+02  0.15519241867E+02  0.51100000000E-03 0. -1.
        -11    1    3    3    0    0  0.10466528967E+01  0.95244650372E+00  0.29239156455E+02  0.29273382228E+02  0.51100000000E-03 0.  1.
        -12    1    3    3    0    0 -0.69052674760E+00  0.81397505296E+00  0.82600928144E+00  0.13496940057E+01  0.00000000000E+00 0.  1.
</event>
<event>
 7    1  0.1402367E-008  0.4614232E+02  0.7816164E-02  0.1320468E+00
        -11   -1    0    0    0    0  0.00000000000E+00  0.00000000000E+00  0.45593999997E+02  0.45594000000E+02  0.51100000000E-03 0.  1.
         11   -1    0    0    0    0 -0.00000000000E+00 -0.00000000000E+00 -0.45593999997E+02  0.45594000000E+02  0.51100000000E-03 0. -1.
    9900012    2    1    2    0    0  0.34419133914E+02  0.45531231608E+01  0.28700275069E+02  0.46142317644E+02  0.99999989285E+01 0.  0.
         12    1    1    2    0    0 -0.34419133914E+02 -0.45531231608E+01 -0.28700275069E+02  0.45045682356E+02  0.00000000000E+00 0. -1.
         11    1    3    3    0    0  0.15480604260E+02  0.36596332212E+01  0.10514188520E+02  0.19068040908E+02  0.51100000000E-03 0. -1.
        -11    1    3    3    0    0  0.14129010891E+02 -0.13783474144E+01  0.10206340409E+02  0.17484226467E+02  0.51100000000E-03 0.  1.
         12    1    3    3    0    0  0.48095187634E+01  0.22718373539E+01  0.79797461397E+01  0.95900502685E+01  0.00000000000E+00 0. -1.
</event>
<event>
 7    1  0.1402367E-008  0.4614232E+02  0.7816164E-02  0.1320468E+00
        -11   -1    0    0    0    0  0.00000000000E+00  0.00000000000E+00  0.45593999997E+02  0.45594000000E+02  0.51100000000E-03 0. -1.
         11   -1    0    0    0    0 -0.00000000000E+00 -0.00000000000E+00 -0.45593999997E+02  0.45594000000E+02  0.51100000000E-03 0.  1.
    9900012    2    1    2    0    0 -0.38709631307E+01  0.10346395008E+02 -0.43670141283E+02  0.46142317799E+02  0.10000000350E+02 0.  0.
         12    1    1    2    0    0  0.38709631307E+01 -0.10346395008E+02  0.43670141283E+02  0.45045682201E+02  0.00000000000E+00 0. -1.
         11    1    3    3    0    0 -0.15118182392E+00  0.26338709384E+00 -0.29968820706E+01  0.30122302554E+01  0.51100000000E-03 0. -1.
        -11    1    3    3    0    0 -0.43499540532E+01  0.16583519660E+01 -0.23902581240E+02  0.24351706751E+02  0.51100000000E-03 0.  1.
        -12    1    3    3    0    0  0.63017274639E+00  0.84246559486E+01 -0.16770677973E+02  0.18778380793E+02  0.00000000000E+00 0.  1.
</event>
<event>
 7    1  0.1402367E-008  0.4614232E+02  0.7816164E-02  0.1320468E+00
        -11   -1    0    0    0    0  0.00000000000E+00  0.00000000000E+00  0.45593999997E+02  0.45594000000E+02  0.51100000000E-03 0.  1.
         11   -1    0    0    0    0 -0.00000000000E+00 -0.00000000000E+00 -0.45593999997E+02  0.45594000000E+02  0.51100000000E-03 0. -1.
    9900012    2    1    2    0    0  0.26261871953E+02 -0.33959554513E+02  0.13644641477E+02  0.46142317608E+02  0.99999985994E+01 0.  0.
         12    1    1    2    0    0 -0.26261871953E+02  0.33959554513E+02 -0.13644641477E+02  0.45045682392E+02  0.00000000000E+00 0. -1.
         11    1    3    3    0    0  0.14621118093E+02 -0.24183845284E+02  0.60988101313E+01  0.28910741123E+02  0.51100000000E-03 0. -1.
        -11    1    3    3    0    0  0.67740484911E+01 -0.54245384085E+01  0.59160622238E+01  0.10503006351E+02  0.51100000000E-03 0.  1.
         12    1    3    3    0    0  0.48667053688E+01 -0.43511708199E+01  0.16297691220E+01  0.67285701334E+01  0.00000000000E+00 0. -1.
</event>
<event>
 7    1  0.1402367E-008  0.4614232E+02  0.7816164E-02  0.1320468E+00
        -11   -1    0    0    0    0  0.00000000000E+00  0.00000000000E+00  0.45593999997E+02  0.45594000000E+02  0.51100000000E-03 0.  1.
         11   -1    0    0    0    0 -0.00000000000E+00 -0.00000000000E+00 -0.45593999997E+02  0.45594000000E+02  0.51100000000E-03 0. -1.
    9900012    2    1    2    0    0 -0.41395566241E+02 -0.31423331500E+00  0.17760119073E+02  0.46142317893E+02  0.10000001201E+02 0.  0.
         12    1    1    2    0    0  0.41395566241E+02  0.31423331500E+00 -0.17760119073E+02  0.45045682107E+02  0.00000000000E+00 0. -1.
         11    1    3    3    0    0 -0.78698477316E+01  0.15703173967E+01  0.23905544503E+01  0.83734790192E+01  0.51100000000E-03 0. -1.
        -11    1    3    3    0    0 -0.33908815533E+00  0.24102213982E+00  0.18079916830E+01  0.18552376224E+01  0.51100000000E-03 0.  1.
        -12    1    3    3    0    0 -0.33186630354E+02 -0.21255728515E+01  0.13561572940E+02  0.35913601251E+02  0.00000000000E+00 0.  1.
</event>
<event>
 7    1  0.1402367E-008  0.4614232E+02  0.7816164E-02  0.1320468E+00
        -11   -1    0    0    0    0  0.00000000000E+00  0.00000000000E+00  0.45593999997E+02  0.45594000000E+02  0.51100000000E-03 0. -1.
         11   -1    0    0    0    0 -0.00000000000E+00 -0.00000000000E+00 -0.45593999997E+02  0.45594000000E+02  0.51100000000E-03 0.  1.
    9900012    2    1    2    0    0  0.43518918983E+02  0.56693415342E+01  0.10152624655E+02  0.46142317296E+02  0.99999957588E+01 0.  0.
         12    1    1    2    0    0 -0.43518918983E+02 -0.56693415342E+01 -0.10152624655E+02  0.45045682704E+02  0.00000000000E+00 0. -1.
         11    1    3    3    0    0  0.24111246150E+02  0.44722413872E+01  0.35861663443E+01  0.24783335596E+02  0.51100000000E-03 0. -1.
        -11    1    3    3    0    0  0.54705488063E+01  0.19207307525E+01  0.43041031651E+01  0.72209012722E+01  0.51100000000E-03 0.  1.
         12    1    3    3    0    0  0.13937124026E+02 -0.72363060559E+00  0.22623551451E+01  0.14138080428E+02  0.00000000000E+00 0. -1.
</event>
<event>
 7    1  0.1402367E-008  0.4614232E+02  0.7816164E-02  0.1320468E+00
        -11   -1    0    0    0    0  0.00000000000E+00  0.00000000000E+00  0.45593999997E+02  0.45594000000E+02  0.51100000000E-03 0.  1.
         11   -1    0    0    0    0 -0.00000000000E+00 -0.00000000000E+00 -0.45593999997E+02  0.45594000000E+02  0.51100000000E-03 0. -1.
    9900012    2    1    2    0    0 -0.21127192786E+02 -0.20551468911E+02  0.34064532363E+02  0.46142317471E+02  0.99999973514E+01 0.  0.
         12    1    1    2    0    0  0.21127192786E+02  0.20551468911E+02 -0.34064532363E+02  0.45045682529E+02  0.00000000000E+00 0. -1.
         11    1    3    3    0    0 -0.19485229858E+01 -0.56885546337E+01  0.29876872304E+01  0.67143630297E+01  0.51100000000E-03 0. -1.
        -11    1    3    3    0    0 -0.65979758396E+01 -0.52412159152E+01  0.10681303237E+02  0.13604920747E+02  0.51100000000E-03 0.  1.
         12    1    3    3    0    0 -0.12580693961E+02 -0.96216983619E+01  0.20395541896E+02  0.25823033694E+02  0.00000000000E+00 0. -1.
</event>
<event>
 7    1  0.1402367E-008  0.4614232E+02  0.7816164E-02  0.1320468E+00
        -11   -1    0    0    0    0  0.00000000000E+00  0.00000000000E+00  0.45593999997E+02  0.45594000000E+02  0.51100000000E-03 0.  1.
         11   -1    0    0    0    0 -0.00000000000E+00 -0.00000000000E+00 -0.45593999997E+02  0.45594000000E+02  0.51100000000E-03 0. -1.
    9900012    2    1    2    0    0  0.27224813911E+02  0.24942299856E+02  0.25803191407E+02  0.46142317616E+02  0.99999986779E+01 0.  0.
         12    1    1    2    0    0 -0.27224813911E+02 -0.24942299856E+02 -0.25803191407E+02  0.45045682384E+02  0.00000000000E+00 0. -1.
         11    1    3    3    0    0  0.86316513674E+01  0.99667602558E+01  0.45997327612E+01  0.13964213442E+02  0.51100000000E-03 0. -1.
        -11    1    3    3    0    0  0.88812306537E+01  0.75573514678E+01  0.77457512776E+01  0.13999517215E+02  0.51100000000E-03 0.  1.
         12    1    3    3    0    0  0.97119318902E+01  0.74181881327E+01  0.13457707369E+02  0.18178586959E+02  0.00000000000E+00 0. -1.
</event>
<event>
 7    1  0.1402367E-008  0.4614232E+02  0.7816164E-02  0.1320468E+00
        -11   -1    0    0    0    0  0.00000000000E+00  0.00000000000E+00  0.45593999997E+02  0.45594000000E+02  0.51100000000E-03 0.  1.
         11   -1    0    0    0    0 -0.00000000000E+00 -0.00000000000E+00 -0.45593999997E+02  0.45594000000E+02  0.51100000000E-03 0. -1.
    9900012    2    1    2    0    0  0.43483872333E+02 -0.11386347668E+01  0.11703402959E+02  0.46142320040E+02  0.10000020780E+02 0.  0.
         12    1    1    2    0    0 -0.43483872333E+02  0.11386347668E+01 -0.11703402959E+02  0.45045679960E+02  0.00000000000E+00 0. -1.
         11    1    3    3    0    0  0.36649608662E+02  0.47630070176E+00  0.11445175097E+02  0.38398082123E+02  0.51100000000E-03 0. -1.
        -11    1    3    3    0    0  0.57804159897E+01 -0.43523707373E+00  0.11767877835E+01  0.59150207161E+01  0.51100000000E-03 0.  1.
         12    1    3    3    0    0  0.10538476817E+01 -0.11796983948E+01 -0.91855992167E+00  0.18292172010E+01  0.00000000000E+00 0. -1.
</event>
<event>
 7    1  0.1402367E-008  0.4614232E+02  0.7816164E-02  0.1320468E+00
        -11   -1    0    0    0    0  0.00000000000E+00  0.00000000000E+00  0.45593999997E+02  0.45594000000E+02  0.51100000000E-03 0.  1.
         11   -1    0    0    0    0 -0.00000000000E+00 -0.00000000000E+00 -0.45593999997E+02  0.45594000000E+02  0.51100000000E-03 0. -1.
    9900012    2    1    2    0    0 -0.18497289176E+02 -0.40814377498E+02  0.45989591387E+01  0.46142317160E+02  0.99999945162E+01 0.  0.
         12    1    1    2    0    0  0.18497289176E+02  0.40814377498E+02 -0.45989591387E+01  0.45045682840E+02  0.00000000000E+00 0. -1.
         11    1    3    3    0    0 -0.90675920854E+01 -0.14889994879E+02 -0.23759413104E+01  0.17594836489E+02  0.51100000000E-03 0. -1.
        -11    1    3    3    0    0 -0.82278976202E+01 -0.21406768314E+02  0.49976276660E+01  0.23471776912E+02  0.51100000000E-03 0.  1.
         12    1    3    3    0    0 -0.12017994704E+01 -0.45176143055E+01  0.19772727830E+01  0.50757037580E+01  0.00000000000E+00 0. -1.
</event>
<event>
 7    1  0.1402367E-008  0.4614232E+02  0.7816164E-02  0.1320468E+00
        -11   -1    0    0    0    0  0.00000000000E+00  0.00000000000E+00  0.45593999997E+02  0.45594000000E+02  0.51100000000E-03 0.  1.
         11   -1    0    0    0    0 -0.00000000000E+00 -0.00000000000E+00 -0.45593999997E+02  0.45594000000E+02  0.51100000000E-03 0. -1.
    9900012    2    1    2    0    0 -0.21967954749E+02  0.73294581850E+01  0.38636789351E+02  0.46142317804E+02  0.10000000391E+02 0.  0.
         12    1    1    2    0    0  0.21967954749E+02 -0.73294581850E+01 -0.38636789351E+02  0.45045682196E+02  0.00000000000E+00 0. -1.
         11    1    3    3    0    0  0.24682419116E-01 -0.50136167258E+00  0.28812290791E+01  0.29246288681E+01  0.51100000000E-03 0. -1.
        -11    1    3    3    0    0 -0.21246991782E+02  0.83256680925E+01  0.31669098110E+02  0.39034384641E+02  0.51100000000E-03 0.  1.
        -12    1    3    3    0    0 -0.74564538610E+00 -0.49484823491E+00  0.40864621623E+01  0.41833042946E+01  0.00000000000E+00 0.  1.
</event>
<event>
 7    1  0.1402367E-008  0.4614232E+02  0.7816164E-02  0.1320468E+00
        -11   -1    0    0    0    0  0.00000000000E+00  0.00000000000E+00  0.45593999997E+02  0.45594000000E+02  0.51100000000E-03 0.  1.
         11   -1    0    0    0    0 -0.00000000000E+00 -0.00000000000E+00 -0.45593999997E+02  0.45594000000E+02  0.51100000000E-03 0. -1.
    9900012    2    1    2    0    0 -0.21626910946E+02 -0.45121257300E+01  0.39255966563E+02  0.46142318004E+02  0.10000002217E+02 0.  0.
         12    1    1    2    0    0  0.21626910946E+02  0.45121257300E+01 -0.39255966563E+02  0.45045681996E+02  0.00000000000E+00 0. -1.
         11    1    3    3    0    0 -0.11786828581E+01  0.21880858242E+01  0.34911390462E+01  0.42854480460E+01  0.51100000000E-03 0. -1.
        -11    1    3    3    0    0 -0.11469834244E+02 -0.30120284801E+01  0.16959577758E+02  0.20694363753E+02  0.51100000000E-03 0.  1.
         12    1    3    3    0    0 -0.89783938445E+01 -0.36881830741E+01  0.18805249758E+02  0.21162506205E+02  0.00000000000E+00 0. -1.
</event>
<event>
 7    1  0.1402367E-008  0.4614232E+02  0.7816164E-02  0.1320468E+00
        -11   -1    0    0    0    0  0.00000000000E+00  0.00000000000E+00  0.45593999997E+02  0.45594000000E+02  0.51100000000E-03 0. -1.
         11   -1    0    0    0    0 -0.00000000000E+00 -0.00000000000E+00 -0.45593999997E+02  0.45594000000E+02  0.51100000000E-03 0.  1.
    9900012    2    1    2    0    0 -0.65570473429E+01 -0.22575185796E+02 -0.38424986423E+02  0.46142318018E+02  0.10000002346E+02 0.  0.
         12    1    1    2    0    0  0.65570473429E+01  0.22575185796E+02  0.38424986423E+02  0.45045681982E+02  0.00000000000E+00 0. -1.
         11    1    3    3    0    0 -0.45800717421E+00  0.33047716794E+00 -0.65907628710E+00  0.86796747836E+00  0.51100000000E-03 0. -1.
        -11    1    3    3    0    0 -0.18363314720E+01 -0.14205279393E+02 -0.28355936424E+02  0.31768242108E+02  0.51100000000E-03 0.  1.
        -12    1    3    3    0    0 -0.42627086967E+01 -0.87003835707E+01 -0.94099737123E+01  0.13506108432E+02  0.00000000000E+00 0.  1.
</event>
<event>
 7    1  0.1402367E-008  0.4614232E+02  0.7816164E-02  0.1320468E+00
        -11   -1    0    0    0    0  0.00000000000E+00  0.00000000000E+00  0.45593999997E+02  0.45594000000E+02  0.51100000000E-03 0.  1.
         11   -1    0    0    0    0 -0.00000000000E+00 -0.00000000000E+00 -0.45593999997E+02  0.45594000000E+02  0.51100000000E-03 0. -1.
    9900012    2    1    2    0    0 -0.20148081267E+02  0.40172742060E+02  0.30527207616E+01  0.46142317772E+02  0.10000000098E+02 0.  0.
         12    1    1    2    0    0  0.20148081267E+02 -0.40172742060E+02 -0.30527207616E+01  0.45045682228E+02  0.00000000000E+00 0. -1.
         11    1    3    3    0    0 -0.22474206302E+01  0.69712775997E+01 -0.10984404768E+01  0.74064959734E+01  0.51100000000E-03 0. -1.
        -11    1    3    3    0    0 -0.17145052979E+02  0.28551112567E+02  0.15167286081E+01  0.33337956392E+02  0.51100000000E-03 0.  1.
        -12    1    3    3    0    0 -0.75560765762E+00  0.46503518930E+01  0.26344326304E+01  0.53978654063E+01  0.00000000000E+00 0.  1.
</event>
<event>
 7    1  0.1402367E-008  0.4614232E+02  0.7816164E-02  0.1320468E+00
        -11   -1    0    0    0    0  0.00000000000E+00  0.00000000000E+00  0.45593999997E+02  0.45594000000E+02  0.51100000000E-03 0. -1.
         11   -1    0    0    0    0 -0.00000000000E+00 -0.00000000000E+00 -0.45593999997E+02  0.45594000000E+02  0.51100000000E-03 0.  1.
    9900012    2    1    2    0    0 -0.41905229530E+02 -0.16379642640E+02 -0.21846116189E+01  0.46142317821E+02  0.10000000549E+02 0.  0.
         12    1    1    2    0    0  0.41905229530E+02  0.16379642640E+02  0.21846116189E+01  0.45045682179E+02  0.00000000000E+00 0. -1.
         11    1    3    3    0    0 -0.10299715004E+02 -0.15303827411E+01  0.65782193527E+00  0.10433548316E+02  0.51100000000E-03 0. -1.
        -11    1    3    3    0    0 -0.95272337168E+01 -0.16453808191E+01  0.91082788168E+00  0.97110796529E+01  0.51100000000E-03 0.  1.
         12    1    3    3    0    0 -0.22078280810E+02 -0.13203879080E+02 -0.37532614359E+01  0.25997689853E+02  0.00000000000E+00 0. -1.
</event>
<event>
 7    1  0.1402367E-008  0.4614232E+02  0.7816164E-02  0.1320468E+00
        -11   -1    0    0    0    0  0.00000000000E+00  0.00000000000E+00  0.45593999997E+02  0.45594000000E+02  0.51100000000E-03 0.  1.
         11   -1    0    0    0    0 -0.00000000000E+00 -0.00000000000E+00 -0.45593999997E+02  0.45594000000E+02  0.51100000000E-03 0. -1.
    9900012    2    1    2    0    0  0.55500674830E+01  0.39096375238E+02  0.21674494792E+02  0.46142317295E+02  0.99999957509E+01 0.  0.
         12    1    1    2    0    0 -0.55500674830E+01 -0.39096375238E+02 -0.21674494792E+02  0.45045682705E+02  0.00000000000E+00 0. -1.
         11    1    3    3    0    0  0.53659291970E+01  0.90746989902E+01  0.65606533755E+01  0.12417146648E+02  0.51100000000E-03 0. -1.
        -11    1    3    3    0    0  0.11978533887E+01  0.23868980956E+02  0.12402766424E+02  0.26925670276E+02  0.51100000000E-03 0.  1.
         12    1    3    3    0    0 -0.10137151028E+01  0.61526952925E+01  0.27110749931E+01  0.67995003706E+01  0.00000000000E+00 0. -1.
</event>
<event>
 7    1  0.1402367E-008  0.4614232E+02  0.7816164E-02  0.1320468E+00
        -11   -1    0    0    0    0  0.00000000000E+00  0.00000000000E+00  0.45593999997E+02  0.45594000000E+02  0.51100000000E-03 0.  1.
         11   -1    0    0    0    0 -0.00000000000E+00 -0.00000000000E+00 -0.45593999997E+02  0.45594000000E+02  0.51100000000E-03 0. -1.
    9900012    2    1    2    0    0  0.16946652937E+02 -0.83189309622E+01  0.40898897278E+02  0.46142318113E+02  0.10000003210E+02 0.  0.
         12    1    1    2    0    0 -0.16946652937E+02  0.83189309622E+01 -0.40898897278E+02  0.45045681887E+02  0.00000000000E+00 0. -1.
         11    1    3    3    0    0  0.31484261409E+01  0.10259882381E+01  0.32243299418E+01  0.46218549160E+01  0.51100000000E-03 0. -1.
        -11    1    3    3    0    0  0.97384447442E+01 -0.61208527422E+01  0.31026519745E+02  0.33089984468E+02  0.51100000000E-03 0.  1.
        -12    1    3    3    0    0  0.40597820522E+01 -0.32240664581E+01  0.66480475910E+01  0.84304787296E+01  0.00000000000E+00 0.  1.
</event>
<event>
 7    1  0.1402367E-008  0.4614232E+02  0.7816164E-02  0.1320468E+00
        -11   -1    0    0    0    0  0.00000000000E+00  0.00000000000E+00  0.45593999997E+02  0.45594000000E+02  0.51100000000E-03 0.  1.
         11   -1    0    0    0    0 -0.00000000000E+00 -0.00000000000E+00 -0.45593999997E+02  0.45594000000E+02  0.51100000000E-03 0. -1.
    9900012    2    1    2    0    0 -0.31854797191E+02 -0.75305718244E+01  0.30946336694E+02  0.46142319065E+02  0.10000011894E+02 0.  0.
         12    1    1    2    0    0  0.31854797191E+02  0.75305718244E+01 -0.30946336694E+02  0.45045680935E+02  0.00000000000E+00 0. -1.
         11    1    3    3    0    0 -0.42490988698E+01  0.31246955048E+00  0.78615921793E+01  0.89418739803E+01  0.51100000000E-03 0. -1.
        -11    1    3    3    0    0 -0.17179655510E+02 -0.43241238933E+01  0.17330943798E+02  0.24783063251E+02  0.51100000000E-03 0.  1.
        -12    1    3    3    0    0 -0.10426042811E+02 -0.35189174816E+01  0.57538007170E+01  0.12417381834E+02  0.00000000000E+00 0.  1.
</event>
<event>
 7    1  0.1402367E-008  0.4614231E+02  0.7816164E-02  0.1320468E+00
        -11   -1    0    0    0    0  0.00000000000E+00  0.00000000000E+00  0.45593999997E+02  0.45594000000E+02  0.51100000000E-03 0.  1.
         11   -1    0    0    0    0 -0.00000000000E+00 -0.00000000000E+00 -0.45593999997E+02  0.45594000000E+02  0.51100000000E-03 0. -1.
    9900012    2    1    2    0    0 -0.41246444831E+00  0.42734444487E+02  0.14237657334E+02  0.46142314758E+02  0.99999726197E+01 0.  0.
         12    1    1    2    0    0  0.41246444831E+00 -0.42734444487E+02 -0.14237657334E+02  0.45045685242E+02  0.00000000000E+00 0. -1.
         11    1    3    3    0    0 -0.11764583909E+01  0.23667391097E+01  0.47312803805E+00  0.26850249087E+01  0.51100000000E-03 0. -1.
        -11    1    3    3    0    0 -0.11351727795E+01  0.79396856044E+00 -0.29682412816E+00  0.14167244398E+01  0.51100000000E-03 0.  1.
        -12    1    3    3    0    0  0.18991667220E+01  0.39573736817E+02  0.14061353424E+02  0.42040565410E+02  0.00000000000E+00 0.  1.
</event>
<event>
 7    1  0.1402367E-008  0.4614232E+02  0.7816164E-02  0.1320468E+00
        -11   -1    0    0    0    0  0.00000000000E+00  0.00000000000E+00  0.45593999997E+02  0.45594000000E+02  0.51100000000E-03 0.  1.
         11   -1    0    0    0    0 -0.00000000000E+00 -0.00000000000E+00 -0.45593999997E+02  0.45594000000E+02  0.51100000000E-03 0. -1.
    9900012    2    1    2    0    0  0.29078764899E+01  0.44718765979E+02  0.45705451428E+01  0.46142315864E+02  0.99999827048E+01 0.  0.
         12    1    1    2    0    0 -0.29078764899E+01 -0.44718765979E+02 -0.45705451428E+01  0.45045684136E+02  0.00000000000E+00 0. -1.
         11    1    3    3    0    0  0.38452214969E+01  0.97127892412E+01  0.81051470597E+00  0.10477639885E+02  0.51100000000E-03 0. -1.
        -11    1    3    3    0    0 -0.11344006659E+01  0.34901248974E+02  0.41999958750E+01  0.35171352127E+02  0.51100000000E-03 0.  1.
        -12    1    3    3    0    0  0.19705565894E+00  0.10472776364E+00 -0.43996543823E+00  0.49332385309E+00  0.00000000000E+00 0.  1.
</event>
<event>
 7    1  0.1402367E-008  0.4614232E+02  0.7816164E-02  0.1320468E+00
        -11   -1    0    0    0    0  0.00000000000E+00  0.00000000000E+00  0.45593999997E+02  0.45594000000E+02  0.51100000000E-03 0.  1.
         11   -1    0    0    0    0 -0.00000000000E+00 -0.00000000000E+00 -0.45593999997E+02  0.45594000000E+02  0.51100000000E-03 0. -1.
    9900012    2    1    2    0    0  0.22421180102E+02 -0.22810874137E+02  0.31718571932E+02  0.46142322056E+02  0.10000039160E+02 0.  0.
         12    1    1    2    0    0 -0.22421180102E+02  0.22810874137E+02 -0.31718571932E+02  0.45045677944E+02  0.00000000000E+00 0. -1.
         11    1    3    3    0    0  0.17390334720E+01  0.23471535315E+00  0.25342356728E+01  0.30824794273E+01  0.51100000000E-03 0. -1.
        -11    1    3    3    0    0  0.98028593865E+00 -0.44305415428E+01  0.47113145617E+01  0.65411882747E+01  0.51100000000E-03 0.  1.
        -12    1    3    3    0    0  0.19701860692E+02 -0.18615047948E+02  0.24473021697E+02  0.36518654354E+02  0.00000000000E+00 0.  1.
</event>
<event>
 7    1  0.1402367E-008  0.4614232E+02  0.7816164E-02  0.1320468E+00
        -11   -1    0    0    0    0  0.00000000000E+00  0.00000000000E+00  0.45593999997E+02  0.45594000000E+02  0.51100000000E-03 0.  1.
         11   -1    0    0    0    0 -0.00000000000E+00 -0.00000000000E+00 -0.45593999997E+02  0.45594000000E+02  0.51100000000E-03 0. -1.
    9900012    2    1    2    0    0 -0.27840542870E+02 -0.22827469458E+01  0.35338459053E+02  0.46142318197E+02  0.10000003971E+02 0.  0.
         12    1    1    2    0    0  0.27840542870E+02  0.22827469458E+01 -0.35338459053E+02  0.45045681803E+02  0.00000000000E+00 0. -1.
         11    1    3    3    0    0 -0.52419144759E+01 -0.80986016170E+00  0.17502785713E+01  0.55854289174E+01  0.51100000000E-03 0. -1.
        -11    1    3    3    0    0 -0.56394245777E+01 -0.95680068560E+00  0.74063298585E+01  0.93580072319E+01  0.51100000000E-03 0.  1.
         12    1    3    3    0    0 -0.16959203816E+02 -0.51608609853E+00  0.26181850623E+02  0.31198882047E+02  0.00000000000E+00 0. -1.
</event>
<event>
 7    1  0.1402367E-008  0.4614232E+02  0.7816164E-02  0.1320468E+00
        -11   -1    0    0    0    0  0.00000000000E+00  0.00000000000E+00  0.45593999997E+02  0.45594000000E+02  0.51100000000E-03 0.  1.
         11   -1    0    0    0    0 -0.00000000000E+00 -0.00000000000E+00 -0.45593999997E+02  0.45594000000E+02  0.51100000000E-03 0. -1.
    9900012    2    1    2    0    0  0.87059619287E+01 -0.38066185090E+02  0.22456296880E+02  0.46142317743E+02  0.99999998359E+01 0.  0.
         12    1    1    2    0    0 -0.87059619287E+01  0.38066185090E+02 -0.22456296880E+02  0.45045682257E+02  0.00000000000E+00 0. -1.
         11    1    3    3    0    0 -0.12935790450E+01 -0.29239758277E+01  0.37537673188E+01  0.49308975584E+01  0.51100000000E-03 0. -1.
        -11    1    3    3    0    0  0.48303445724E+01 -0.20606091383E+02  0.90912934582E+01  0.23034644512E+02  0.51100000000E-03 0.  1.
         12    1    3    3    0    0  0.51691964012E+01 -0.14536117879E+02  0.96112361033E+01  0.18176775673E+02  0.00000000000E+00 0. -1.
</event>
<event>
 7    1  0.1402367E-008  0.4614232E+02  0.7816164E-02  0.1320468E+00
        -11   -1    0    0    0    0  0.00000000000E+00  0.00000000000E+00  0.45593999997E+02  0.45594000000E+02  0.51100000000E-03 0.  1.
         11   -1    0    0    0    0 -0.00000000000E+00 -0.00000000000E+00 -0.45593999997E+02  0.45594000000E+02  0.51100000000E-03 0. -1.
    9900012    2    1    2    0    0 -0.39572027825E+02  0.20898847474E+02  0.51387007025E+01  0.46142318111E+02  0.10000003193E+02 0.  0.
         12    1    1    2    0    0  0.39572027825E+02 -0.20898847474E+02 -0.51387007025E+01  0.45045681889E+02  0.00000000000E+00 0. -1.
         11    1    3    3    0    0 -0.75430385201E+01  0.28614660650E+01  0.29227285095E+01  0.85806620000E+01  0.51100000000E-03 0. -1.
        -11    1    3    3    0    0 -0.18681232973E+02  0.14304097369E+02  0.19145122153E-01  0.23528621586E+02  0.51100000000E-03 0.  1.
        -12    1    3    3    0    0 -0.13347756332E+02  0.37332840404E+01  0.21968270708E+01  0.14033034525E+02  0.00000000000E+00 0.  1.
</event>
<event>
 7    1  0.1402367E-008  0.4614232E+02  0.7816164E-02  0.1320468E+00
        -11   -1    0    0    0    0  0.00000000000E+00  0.00000000000E+00  0.45593999997E+02  0.45594000000E+02  0.51100000000E-03 0.  1.
         11   -1    0    0    0    0 -0.00000000000E+00 -0.00000000000E+00 -0.45593999997E+02  0.45594000000E+02  0.51100000000E-03 0. -1.
    9900012    2    1    2    0    0  0.18777281784E+02  0.11867928257E+02  0.39187745796E+02  0.46142318155E+02  0.10000003593E+02 0.  0.
         12    1    1    2    0    0 -0.18777281784E+02 -0.11867928257E+02 -0.39187745796E+02  0.45045681845E+02  0.00000000000E+00 0. -1.
         11    1    3    3    0    0  0.11364930165E+02  0.44770942513E+01  0.14846009742E+02  0.19225244240E+02  0.51100000000E-03 0. -1.
        -11    1    3    3    0    0  0.50306456750E+01  0.45270688389E+01  0.98264496778E+01  0.11931507101E+02  0.51100000000E-03 0.  1.
         12    1    3    3    0    0  0.23817059443E+01  0.28637651665E+01  0.14515286376E+02  0.14985566813E+02  0.00000000000E+00 0. -1.
</event>
<event>
 7    1  0.1402367E-008  0.4614232E+02  0.7816164E-02  0.1320468E+00
        -11   -1    0    0    0    0  0.00000000000E+00  0.00000000000E+00  0.45593999997E+02  0.45594000000E+02  0.51100000000E-03 0.  1.
         11   -1    0    0    0    0 -0.00000000000E+00 -0.00000000000E+00 -0.45593999997E+02  0.45594000000E+02  0.51100000000E-03 0. -1.
    9900012    2    1    2    0    0 -0.10714360186E+02 -0.42800919181E+02  0.90772993409E+01  0.46142316963E+02  0.99999927267E+01 0.  0.
         12    1    1    2    0    0  0.10714360186E+02  0.42800919181E+02 -0.90772993409E+01  0.45045683037E+02  0.00000000000E+00 0. -1.
         11    1    3    3    0    0 -0.73719941921E+01 -0.15306218904E+02  0.59749010380E+01  0.18009055449E+02  0.51100000000E-03 0. -1.
        -11    1    3    3    0    0 -0.37299611356E+01 -0.25880590718E+02  0.36132008058E+01  0.26396454427E+02  0.51100000000E-03 0.  1.
         12    1    3    3    0    0  0.38759514176E+00 -0.16141095593E+01 -0.51080250286E+00  0.17368070878E+01  0.00000000000E+00 0. -1.
</event>
<event>
 7    1  0.1402367E-008  0.4614232E+02  0.7816164E-02  0.1320468E+00
        -11   -1    0    0    0    0  0.00000000000E+00  0.00000000000E+00  0.45593999997E+02  0.45594000000E+02  0.51100000000E-03 0.  1.
         11   -1    0    0    0    0 -0.00000000000E+00 -0.00000000000E+00 -0.45593999997E+02  0.45594000000E+02  0.51100000000E-03 0. -1.
    9900012    2    1    2    0    0 -0.42316171245E+02  0.49758702013E+01 -0.14618342037E+02  0.46142316999E+02  0.99999930477E+01 0.  0.
         12    1    1    2    0    0  0.42316171245E+02 -0.49758702013E+01  0.14618342037E+02  0.45045683001E+02  0.00000000000E+00 0. -1.
         11    1    3    3    0    0 -0.21517075118E+02  0.37913072269E+01 -0.47260064180E+01  0.22353828957E+02  0.51100000000E-03 0. -1.
        -11    1    3    3    0    0 -0.17674515223E+02  0.18341073630E+01 -0.10350828416E+02  0.20564340187E+02  0.51100000000E-03 0.  1.
         12    1    3    3    0    0 -0.31245809047E+01 -0.64954438860E+00  0.45849279634E+00  0.32241478544E+01  0.00000000000E+00 0. -1.
</event>
<event>
 7    1  0.1402367E-008  0.4614232E+02  0.7816164E-02  0.1320468E+00
        -11   -1    0    0    0    0  0.00000000000E+00  0.00000000000E+00  0.45593999997E+02  0.45594000000E+02  0.51100000000E-03 0.  1.
         11   -1    0    0    0    0 -0.00000000000E+00 -0.00000000000E+00 -0.45593999997E+02  0.45594000000E+02  0.51100000000E-03 0. -1.
    9900012    2    1    2    0    0 -0.17258628090E+02 -0.36464383367E+02 -0.20040012851E+02  0.46142316378E+02  0.99999873871E+01 0.  0.
         12    1    1    2    0    0  0.17258628090E+02  0.36464383367E+02  0.20040012851E+02  0.45045683622E+02  0.00000000000E+00 0. -1.
         11    1    3    3    0    0 -0.97225281262E+00 -0.47839321371E+01 -0.49359407130E+01  0.69422469854E+01  0.51100000000E-03 0. -1.
        -11    1    3    3    0    0 -0.75805331425E+01 -0.20860764966E+02 -0.79325147802E+01  0.23570337051E+02  0.51100000000E-03 0.  1.
         12    1    3    3    0    0 -0.87058421349E+01 -0.10819686264E+02 -0.71715573577E+01  0.15629732342E+02  0.00000000000E+00 0. -1.
</event>
<event>
 7    1  0.1402367E-008  0.4614232E+02  0.7816164E-02  0.1320468E+00
        -11   -1    0    0    0    0  0.00000000000E+00  0.00000000000E+00  0.45593999997E+02  0.45594000000E+02  0.51100000000E-03 0.  1.
         11   -1    0    0    0    0 -0.00000000000E+00 -0.00000000000E+00 -0.45593999997E+02  0.45594000000E+02  0.51100000000E-03 0. -1.
    9900012    2    1    2    0    0 -0.26891749205E+02 -0.36122358347E+02 -0.10594925422E+01  0.46142317940E+02  0.10000001629E+02 0.  0.
         12    1    1    2    0    0  0.26891749205E+02  0.36122358347E+02  0.10594925422E+01  0.45045682060E+02  0.00000000000E+00 0. -1.
         11    1    3    3    0    0 -0.19938664210E+01 -0.28740663318E+00 -0.24422427603E+00  0.20292243926E+01  0.51100000000E-03 0. -1.
        -11    1    3    3    0    0 -0.16950877541E+02 -0.19057689322E+02  0.40645759611E+00  0.25508684398E+02  0.51100000000E-03 0.  1.
         12    1    3    3    0    0 -0.79470052429E+01 -0.16777262392E+02 -0.12217258623E+01  0.18604409149E+02  0.00000000000E+00 0. -1.
</event>
<event>
 7    1  0.1402367E-008  0.4614232E+02  0.7816164E-02  0.1320468E+00
        -11   -1    0    0    0    0  0.00000000000E+00  0.00000000000E+00  0.45593999997E+02  0.45594000000E+02  0.51100000000E-03 0.  1.
         11   -1    0    0    0    0 -0.00000000000E+00 -0.00000000000E+00 -0.45593999997E+02  0.45594000000E+02  0.51100000000E-03 0. -1.
    9900012    2    1    2    0    0 -0.19816976939E+01 -0.28678699955E+02  0.34680233435E+02  0.46142317100E+02  0.99999939677E+01 0.  0.
         12    1    1    2    0    0  0.19816976939E+01  0.28678699955E+02 -0.34680233435E+02  0.45045682900E+02  0.00000000000E+00 0. -1.
         11    1    3    3    0    0 -0.10642191549E+01  0.41254330326E+00  0.17462045574E+01  0.20861411755E+01  0.51100000000E-03 0. -1.
        -11    1    3    3    0    0 -0.19237745735E+01 -0.23226329300E+02  0.25870408491E+02  0.34820128045E+02  0.51100000000E-03 0.  1.
         12    1    3    3    0    0  0.10062960346E+01 -0.58649139588E+01  0.70636203867E+01  0.92360478788E+01  0.00000000000E+00 0. -1.
</event>
<event>
 7    1  0.1402367E-008  0.4614231E+02  0.7816164E-02  0.1320468E+00
        -11   -1    0    0    0    0  0.00000000000E+00  0.00000000000E+00  0.45593999997E+02  0.45594000000E+02  0.51100000000E-03 0.  1.
         11   -1    0    0    0    0 -0.00000000000E+00 -0.00000000000E+00 -0.45593999997E+02  0.45594000000E+02  0.51100000000E-03 0. -1.
    9900012    2    1    2    0    0  0.60376166480E+00 -0.37394625853E+01  0.44886143708E+02  0.46142312021E+02  0.99999476563E+01 0.  0.
         12    1    1    2    0    0 -0.60376166480E+00  0.37394625853E+01 -0.44886143708E+02  0.45045687979E+02  0.00000000000E+00 0. -1.
         11    1    3    3    0    0  0.16752905540E+01 -0.30673222554E+01  0.16432780853E+02  0.16800337827E+02  0.51100000000E-03 0. -1.
        -11    1    3    3    0    0 -0.28797275934E+01 -0.30195154542E-01  0.47062924165E+01  0.55175113348E+01  0.51100000000E-03 0.  1.
        -12    1    3    3    0    0  0.18081987041E+01 -0.64194517542E+00  0.23747070438E+02  0.23824462859E+02  0.00000000000E+00 0.  1.
</event>
<event>
 7    1  0.1402367E-008  0.4614232E+02  0.7816164E-02  0.1320468E+00
        -11   -1    0    0    0    0  0.00000000000E+00  0.00000000000E+00  0.45593999997E+02  0.45594000000E+02  0.51100000000E-03 0.  1.
         11   -1    0    0    0    0 -0.00000000000E+00 -0.00000000000E+00 -0.45593999997E+02  0.45594000000E+02  0.51100000000E-03 0. -1.
    9900012    2    1    2    0    0  0.17256705269E+02  0.34609383857E+02  0.23097838236E+02  0.46142318089E+02  0.10000002987E+02 0.  0.
         12    1    1    2    0    0 -0.17256705269E+02 -0.34609383857E+02 -0.23097838236E+02  0.45045681911E+02  0.00000000000E+00 0. -1.
         11    1    3    3    0    0  0.60920151531E+01  0.16401447500E+02  0.53749056915E+01  0.18303271297E+02  0.51100000000E-03 0. -1.
        -11    1    3    3    0    0  0.92459755717E+01  0.13473145101E+02  0.13998474169E+02  0.21516760502E+02  0.51100000000E-03 0.  1.
         12    1    3    3    0    0  0.19187145442E+01  0.47347912557E+01  0.37244583754E+01  0.63222862896E+01  0.00000000000E+00 0. -1.
</event>
<event>
 7    1  0.1402367E-008  0.4614232E+02  0.7816164E-02  0.1320468E+00
        -11   -1    0    0    0    0  0.00000000000E+00  0.00000000000E+00  0.45593999997E+02  0.45594000000E+02  0.51100000000E-03 0. -1.
         11   -1    0    0    0    0 -0.00000000000E+00 -0.00000000000E+00 -0.45593999997E+02  0.45594000000E+02  0.51100000000E-03 0.  1.
    9900012    2    1    2    0    0  0.31151765744E+01  0.25107259748E+02 -0.37269754139E+02  0.46142318845E+02  0.10000009882E+02 0.  0.
         12    1    1    2    0    0 -0.31151765744E+01 -0.25107259748E+02  0.37269754139E+02  0.45045681155E+02  0.00000000000E+00 0. -1.
         11    1    3    3    0    0 -0.17045080532E+01  0.88834632821E+01 -0.94889506032E+01  0.13109593869E+02  0.51100000000E-03 0. -1.
        -11    1    3    3    0    0  0.91049993352E+00  0.47918616770E+01 -0.38099424283E+01  0.61892333959E+01  0.51100000000E-03 0.  1.
         12    1    3    3    0    0  0.39091846940E+01  0.11431934789E+02 -0.23970861107E+02  0.26843491580E+02  0.00000000000E+00 0. -1.
</event>
<event>
 7    1  0.1402367E-008  0.4614232E+02  0.7816164E-02  0.1320468E+00
        -11   -1    0    0    0    0  0.00000000000E+00  0.00000000000E+00  0.45593999997E+02  0.45594000000E+02  0.51100000000E-03 0.  1.
         11   -1    0    0    0    0 -0.00000000000E+00 -0.00000000000E+00 -0.45593999997E+02  0.45594000000E+02  0.51100000000E-03 0. -1.
    9900012    2    1    2    0    0  0.16385207965E+02 -0.40954685053E+02  0.91297438260E+01  0.46142317741E+02  0.99999998184E+01 0.  0.
         12    1    1    2    0    0 -0.16385207965E+02  0.40954685053E+02 -0.91297438260E+01  0.45045682259E+02  0.00000000000E+00 0. -1.
         11    1    3    3    0    0  0.71904008108E+01 -0.27311103087E+02  0.32662755067E+01  0.28430032916E+02  0.51100000000E-03 0. -1.
        -11    1    3    3    0    0  0.40368622159E+01 -0.85927174515E+01  0.32471746359E+01  0.10033702862E+02  0.51100000000E-03 0.  1.
         12    1    3    3    0    0  0.51579449379E+01 -0.50508645145E+01  0.26162936834E+01  0.76785819631E+01  0.00000000000E+00 0. -1.
</event>
<event>
 7    1  0.1402367E-008  0.4614232E+02  0.7816164E-02  0.1320468E+00
        -11   -1    0    0    0    0  0.00000000000E+00  0.00000000000E+00  0.45593999997E+02  0.45594000000E+02  0.51100000000E-03 0.  1.
         11   -1    0    0    0    0 -0.00000000000E+00 -0.00000000000E+00 -0.45593999997E+02  0.45594000000E+02  0.51100000000E-03 0. -1.
    9900012    2    1    2    0    0  0.37058805842E+00 -0.17220283289E+02  0.41622565832E+02  0.46142317870E+02  0.10000000996E+02 0.  0.
         12    1    1    2    0    0 -0.37058805842E+00  0.17220283289E+02 -0.41622565832E+02  0.45045682130E+02  0.00000000000E+00 0. -1.
         11    1    3    3    0    0  0.15213893333E+00 -0.66022680380E+01  0.88969197019E+01  0.11080084383E+02  0.51100000000E-03 0. -1.
        -11    1    3    3    0    0  0.31906239474E+01 -0.72639128884E+01  0.23553319328E+02  0.24853638833E+02  0.51100000000E-03 0.  1.
        -12    1    3    3    0    0 -0.29721748223E+01 -0.33541023630E+01  0.91723268022E+01  0.10208594654E+02  0.00000000000E+00 0.  1.
</event>
<event>
 7    1  0.1402367E-008  0.4614232E+02  0.7816164E-02  0.1320468E+00
        -11   -1    0    0    0    0  0.00000000000E+00  0.00000000000E+00  0.45593999997E+02  0.45594000000E+02  0.51100000000E-03 0. -1.
         11   -1    0    0    0    0 -0.00000000000E+00 -0.00000000000E+00 -0.45593999997E+02  0.45594000000E+02  0.51100000000E-03 0.  1.
    9900012    2    1    2    0    0 -0.29554999411E+02 -0.22003862757E+02 -0.25912266556E+02  0.46142317360E+02  0.99999963421E+01 0.  0.
         12    1    1    2    0    0  0.29554999411E+02  0.22003862757E+02  0.25912266556E+02  0.45045682640E+02  0.00000000000E+00 0. -1.
         11    1    3    3    0    0 -0.13422694056E+02 -0.75600855428E+01 -0.14147969197E+02  0.20916229149E+02  0.51100000000E-03 0. -1.
        -11    1    3    3    0    0 -0.78952941533E+01 -0.64892495552E+01 -0.85711615181E+01  0.13338322218E+02  0.51100000000E-03 0.  1.
         12    1    3    3    0    0 -0.82370112019E+01 -0.79545276589E+01 -0.31931358413E+01  0.11887765994E+02  0.00000000000E+00 0. -1.
</event>
<event>
 7    1  0.1402367E-008  0.4614232E+02  0.7816164E-02  0.1320468E+00
        -11   -1    0    0    0    0  0.00000000000E+00  0.00000000000E+00  0.45593999997E+02  0.45594000000E+02  0.51100000000E-03 0.  1.
         11   -1    0    0    0    0 -0.00000000000E+00 -0.00000000000E+00 -0.45593999997E+02  0.45594000000E+02  0.51100000000E-03 0. -1.
    9900012    2    1    2    0    0  0.18602893647E+02  0.36842104739E+02  0.18047303314E+02  0.46142317737E+02  0.99999997780E+01 0.  0.
         12    1    1    2    0    0 -0.18602893647E+02 -0.36842104739E+02 -0.18047303314E+02  0.45045682263E+02  0.00000000000E+00 0. -1.
         11    1    3    3    0    0  0.18374695393E+01  0.41912112096E+01  0.11690017197E+01  0.47232521627E+01  0.51100000000E-03 0.  1.
        -11    1    3    3    0    0  0.10614455482E+02  0.21497418138E+02  0.61135212167E+01  0.24742287560E+02  0.51100000000E-03 0. -1.
        -12    1    3    3    0    0  0.61509686258E+01  0.11153475391E+02  0.10764780378E+02  0.16676778014E+02  0.00000000000E+00 0.  1.
</event>
<event>
 7    1  0.1402367E-008  0.4614232E+02  0.7816164E-02  0.1320468E+00
        -11   -1    0    0    0    0  0.00000000000E+00  0.00000000000E+00  0.45593999997E+02  0.45594000000E+02  0.51100000000E-03 0.  1.
         11   -1    0    0    0    0 -0.00000000000E+00 -0.00000000000E+00 -0.45593999997E+02  0.45594000000E+02  0.51100000000E-03 0. -1.
    9900012    2    1    2    0    0  0.14943287241E+02 -0.42045822219E+02 -0.61612106906E+01  0.46142317445E+02  0.99999971180E+01 0.  0.
         12    1    1    2    0    0 -0.14943287241E+02  0.42045822219E+02  0.61612106906E+01  0.45045682555E+02  0.00000000000E+00 0. -1.
         11    1    3    3    0    0  0.35383061988E+00 -0.53703360062E+01  0.11103739700E+01  0.54953285199E+01  0.51100000000E-03 0. -1.
        -11    1    3    3    0    0  0.24070737503E+01 -0.33658996737E+01 -0.25652730138E+01  0.48686661982E+01  0.51100000000E-03 0.  1.
        -12    1    3    3    0    0  0.12182382871E+02 -0.33309586539E+02 -0.47063116467E+01  0.35778322727E+02  0.00000000000E+00 0.  1.
</event>
<event>
 7    1  0.1402367E-008  0.4614232E+02  0.7816164E-02  0.1320468E+00
        -11   -1    0    0    0    0  0.00000000000E+00  0.00000000000E+00  0.45593999997E+02  0.45594000000E+02  0.51100000000E-03 0.  1.
         11   -1    0    0    0    0 -0.00000000000E+00 -0.00000000000E+00 -0.45593999997E+02  0.45594000000E+02  0.51100000000E-03 0. -1.
    9900012    2    1    2    0    0 -0.20239119646E+02  0.13827343561E+02  0.37792804209E+02  0.46142318254E+02  0.10000004492E+02 0.  0.
         12    1    1    2    0    0  0.20239119646E+02 -0.13827343561E+02 -0.37792804209E+02  0.45045681746E+02  0.00000000000E+00 0. -1.
         11    1    3    3    0    0 -0.23212830815E+01  0.15761084848E+01  0.14903013409E+01  0.31770224186E+01  0.51100000000E-03 0. -1.
        -11    1    3    3    0    0 -0.75951365221E+01  0.20928555083E+01  0.17824478939E+02  0.19487898621E+02  0.51100000000E-03 0.  1.
        -12    1    3    3    0    0 -0.10322700042E+02  0.10158379568E+02  0.18478023930E+02  0.23477397214E+02  0.00000000000E+00 0.  1.
</event>
<event>
 7    1  0.1402367E-008  0.4614232E+02  0.7816164E-02  0.1320468E+00
        -11   -1    0    0    0    0  0.00000000000E+00  0.00000000000E+00  0.45593999997E+02  0.45594000000E+02  0.51100000000E-03 0.  1.
         11   -1    0    0    0    0 -0.00000000000E+00 -0.00000000000E+00 -0.45593999997E+02  0.45594000000E+02  0.51100000000E-03 0. -1.
    9900012    2    1    2    0    0 -0.42896927324E+02  0.11678324045E+02  0.72514605558E+01  0.46142319780E+02  0.10000018407E+02 0.  0.
         12    1    1    2    0    0  0.42896927324E+02 -0.11678324045E+02 -0.72514605558E+01  0.45045680220E+02  0.00000000000E+00 0. -1.
         11    1    3    3    0    0 -0.50887976132E+01  0.45379278540E+01 -0.25904087753E+00  0.68231776170E+01  0.51100000000E-03 0. -1.
        -11    1    3    3    0    0 -0.88943357539E+01  0.12388467043E+01  0.29906071537E+01  0.94650769183E+01  0.51100000000E-03 0.  1.
         12    1    3    3    0    0 -0.28913793957E+02  0.59015494862E+01  0.45198942797E+01  0.29854065244E+02  0.00000000000E+00 0. -1.
</event>
<event>
 7    1  0.1402367E-008  0.4614232E+02  0.7816164E-02  0.1320468E+00
        -11   -1    0    0    0    0  0.00000000000E+00  0.00000000000E+00  0.45593999997E+02  0.45594000000E+02  0.51100000000E-03 0.  1.
         11   -1    0    0    0    0 -0.00000000000E+00 -0.00000000000E+00 -0.45593999997E+02  0.45594000000E+02  0.51100000000E-03 0. -1.
    9900012    2    1    2    0    0 -0.16867604930E+02 -0.91795526704E+01  0.40747184807E+02  0.46142319264E+02  0.10000013707E+02 0.  0.
         12    1    1    2    0    0  0.16867604930E+02  0.91795526704E+01 -0.40747184807E+02  0.45045680736E+02  0.00000000000E+00 0. -1.
         11    1    3    3    0    0 -0.52239655450E+01 -0.84746426654E+01  0.19490317188E+02  0.21885653946E+02  0.51100000000E-03 0. -1.
        -11    1    3    3    0    0 -0.18741035170E+01 -0.98541690799E-01  0.29268348189E+01  0.34768285514E+01  0.51100000000E-03 0.  1.
         12    1    3    3    0    0 -0.97695358675E+01 -0.60636831426E+00  0.18330032800E+02  0.20779836766E+02  0.00000000000E+00 0. -1.
</event>
<event>
 7    1  0.1402367E-008  0.4614232E+02  0.7816164E-02  0.1320468E+00
        -11   -1    0    0    0    0  0.00000000000E+00  0.00000000000E+00  0.45593999997E+02  0.45594000000E+02  0.51100000000E-03 0.  1.
         11   -1    0    0    0    0 -0.00000000000E+00 -0.00000000000E+00 -0.45593999997E+02  0.45594000000E+02  0.51100000000E-03 0. -1.
    9900012    2    1    2    0    0 -0.41785764536E+02  0.14342922011E+02  0.87945404713E+01  0.46142317945E+02  0.10000001680E+02 0.  0.
         12    1    1    2    0    0  0.41785764536E+02 -0.14342922011E+02 -0.87945404713E+01  0.45045682055E+02  0.00000000000E+00 0. -1.
         11    1    3    3    0    0 -0.94472206334E+01  0.55958953622E+01  0.32654067798E+01  0.11455431214E+02  0.51100000000E-03 0. -1.
        -11    1    3    3    0    0 -0.86075315208E+01  0.17687613564E+01  0.46353037370E+01  0.99349965582E+01  0.51100000000E-03 0.  1.
         12    1    3    3    0    0 -0.23731012382E+02  0.69782652920E+01  0.89382995458E+00  0.24751890173E+02  0.00000000000E+00 0. -1.
</event>
<event>
 7    1  0.1402367E-008  0.4614232E+02  0.7816164E-02  0.1320468E+00
        -11   -1    0    0    0    0  0.00000000000E+00  0.00000000000E+00  0.45593999997E+02  0.45594000000E+02  0.51100000000E-03 0.  1.
         11   -1    0    0    0    0 -0.00000000000E+00 -0.00000000000E+00 -0.45593999997E+02  0.45594000000E+02  0.51100000000E-03 0. -1.
    9900012    2    1    2    0    0  0.29682583862E+02 -0.22776092854E+02  0.25085998024E+02  0.46142317773E+02  0.10000000109E+02 0.  0.
         12    1    1    2    0    0 -0.29682583862E+02  0.22776092854E+02 -0.25085998024E+02  0.45045682227E+02  0.00000000000E+00 0. -1.
         11    1    3    3    0    0  0.72091222671E+01 -0.10419452127E+02  0.10447633414E+02  0.16422224901E+02  0.51100000000E-03 0. -1.
        -11    1    3    3    0    0  0.21769395739E+02 -0.11277498292E+02  0.14320141601E+02  0.28392869075E+02  0.51100000000E-03 0.  1.
        -12    1    3    3    0    0  0.70406585609E+00 -0.10791424350E+01  0.31822300952E+00  0.13272237974E+01  0.00000000000E+00 0.  1.
</event>
<event>
 7    1  0.1402367E-008  0.4614232E+02  0.7816164E-02  0.1320468E+00
        -11   -1    0    0    0    0  0.00000000000E+00  0.00000000000E+00  0.45593999997E+02  0.45594000000E+02  0.51100000000E-03 0. -1.
         11   -1    0    0    0    0 -0.00000000000E+00 -0.00000000000E+00 -0.45593999997E+02  0.45594000000E+02  0.51100000000E-03 0.  1.
    9900012    2    1    2    0    0  0.13422537561E+01  0.24853198644E+02 -0.37545044600E+02  0.46142317610E+02  0.99999986192E+01 0.  0.
         12    1    1    2    0    0 -0.13422537561E+01 -0.24853198644E+02  0.37545044600E+02  0.45045682390E+02  0.00000000000E+00 0. -1.
         11    1    3    3    0    0  0.14691706286E+01  0.57172350059E+01 -0.35688611754E+01  0.68979713539E+01  0.51100000000E-03 0. -1.
        -11    1    3    3    0    0 -0.17602243559E+01  0.14350344540E+02 -0.27013428794E+02  0.30639127168E+02  0.51100000000E-03 0.  1.
         12    1    3    3    0    0  0.16333074834E+01  0.47856190978E+01 -0.69627546313E+01  0.86052190873E+01  0.00000000000E+00 0. -1.
</event>
<event>
 7    1  0.1402367E-008  0.4614232E+02  0.7816164E-02  0.1320468E+00
        -11   -1    0    0    0    0  0.00000000000E+00  0.00000000000E+00  0.45593999997E+02  0.45594000000E+02  0.51100000000E-03 0.  1.
         11   -1    0    0    0    0 -0.00000000000E+00 -0.00000000000E+00 -0.45593999997E+02  0.45594000000E+02  0.51100000000E-03 0. -1.
    9900012    2    1    2    0    0  0.11479419206E+02  0.16235907210E+02  0.40419447243E+02  0.46142318035E+02  0.10000002498E+02 0.  0.
         12    1    1    2    0    0 -0.11479419206E+02 -0.16235907210E+02 -0.40419447243E+02  0.45045681965E+02  0.00000000000E+00 0. -1.
         11    1    3    3    0    0  0.47487188865E+01  0.11888465731E+02  0.31080737341E+02  0.33613958149E+02  0.51100000000E-03 0. -1.
        -11    1    3    3    0    0  0.15472622159E+01  0.17743762632E+01  0.40721106267E+01  0.47036705566E+01  0.51100000000E-03 0.  1.
         12    1    3    3    0    0  0.51834381036E+01  0.25730652164E+01  0.52665992753E+01  0.78246893298E+01  0.00000000000E+00 0. -1.
</event>
<event>
 7    1  0.1402367E-008  0.4614232E+02  0.7816164E-02  0.1320468E+00
        -11   -1    0    0    0    0  0.00000000000E+00  0.00000000000E+00  0.45593999997E+02  0.45594000000E+02  0.51100000000E-03 0.  1.
         11   -1    0    0    0    0 -0.00000000000E+00 -0.00000000000E+00 -0.45593999997E+02  0.45594000000E+02  0.51100000000E-03 0. -1.
    9900012    2    1    2    0    0 -0.16261451432E+02 -0.25045803991E+02  0.33725160057E+02  0.46142317398E+02  0.99999966887E+01 0.  0.
         12    1    1    2    0    0  0.16261451432E+02  0.25045803991E+02 -0.33725160057E+02  0.45045682602E+02  0.00000000000E+00 0. -1.
         11    1    3    3    0    0 -0.61454973069E+01 -0.10981950998E+02  0.87904379126E+01  0.15350641154E+02  0.51100000000E-03 0. -1.
        -11    1    3    3    0    0 -0.47179902909E+01 -0.45239950581E+01  0.57948340428E+01  0.87353343105E+01  0.51100000000E-03 0.  1.
         12    1    3    3    0    0 -0.53979638345E+01 -0.95398579347E+01  0.19139888101E+02  0.22056341934E+02  0.00000000000E+00 0. -1.
</event>
<event>
 7    1  0.1402367E-008  0.4614232E+02  0.7816164E-02  0.1320468E+00
        -11   -1    0    0    0    0  0.00000000000E+00  0.00000000000E+00  0.45593999997E+02  0.45594000000E+02  0.51100000000E-03 0.  1.
         11   -1    0    0    0    0 -0.00000000000E+00 -0.00000000000E+00 -0.45593999997E+02  0.45594000000E+02  0.51100000000E-03 0. -1.
    9900012    2    1    2    0    0  0.12545517641E+02  0.31915001145E+02  0.29208837152E+02  0.46142317868E+02  0.10000000977E+02 0.  0.
         12    1    1    2    0    0 -0.12545517641E+02 -0.31915001145E+02 -0.29208837152E+02  0.45045682132E+02  0.00000000000E+00 0. -1.
         11    1    3    3    0    0  0.37376275170E+01  0.88762149082E+01  0.42458293564E+01  0.10525403448E+02  0.51100000000E-03 0.  1.
        -11    1    3    3    0    0 -0.35052361367E+00  0.31862179338E+01  0.53963649716E+01  0.62765919648E+01  0.51100000000E-03 0. -1.
         12    1    3    3    0    0  0.91584137375E+01  0.19852568303E+02  0.19566642824E+02  0.29340322456E+02  0.00000000000E+00 0. -1.
</event>
<event>
 7    1  0.1402367E-008  0.4614233E+02  0.7816164E-02  0.1320468E+00
        -11   -1    0    0    0    0  0.00000000000E+00  0.00000000000E+00  0.45593999997E+02  0.45594000000E+02  0.51100000000E-03 0.  1.
         11   -1    0    0    0    0 -0.00000000000E+00 -0.00000000000E+00 -0.45593999997E+02  0.45594000000E+02  0.51100000000E-03 0. -1.
    9900012    2    1    2    0    0 -0.35978490042E+02 -0.18149166928E+02  0.20131289049E+02  0.46142325351E+02  0.10000069206E+02 0.  0.
         12    1    1    2    0    0  0.35978490042E+02  0.18149166928E+02 -0.20131289049E+02  0.45045674649E+02  0.00000000000E+00 0. -1.
         11    1    3    3    0    0 -0.71601493664E+00 -0.26738675856E+01  0.23202404504E+01  0.36118916461E+01  0.51100000000E-03 0. -1.
        -11    1    3    3    0    0 -0.23117217089E+02 -0.94528650343E+01  0.10149307760E+02  0.26958687497E+02  0.51100000000E-03 0.  1.
         12    1    3    3    0    0 -0.12145258016E+02 -0.60224343079E+01  0.76617408379E+01  0.15571746207E+02  0.00000000000E+00 0. -1.
</event>
<event>
 7    1  0.1402367E-008  0.4614232E+02  0.7816164E-02  0.1320468E+00
        -11   -1    0    0    0    0  0.00000000000E+00  0.00000000000E+00  0.45593999997E+02  0.45594000000E+02  0.51100000000E-03 0. -1.
         11   -1    0    0    0    0 -0.00000000000E+00 -0.00000000000E+00 -0.45593999997E+02  0.45594000000E+02  0.51100000000E-03 0.  1.
    9900012    2    1    2    0    0 -0.25667348994E+02 -0.29917960245E+02 -0.21799455752E+02  0.46142318512E+02  0.10000006849E+02 0.  0.
         12    1    1    2    0    0  0.25667348994E+02  0.29917960245E+02  0.21799455752E+02  0.45045681488E+02  0.00000000000E+00 0. -1.
         11    1    3    3    0    0 -0.53951479505E+01 -0.60084038072E+01 -0.17441947218E+01  0.82614014069E+01  0.51100000000E-03 0. -1.
        -11    1    3    3    0    0 -0.16008006294E+02 -0.14840108346E+02 -0.16023897351E+02  0.27078596120E+02  0.51100000000E-03 0.  1.
         12    1    3    3    0    0 -0.42641947496E+01 -0.90694480924E+01 -0.40313636784E+01  0.10802320985E+02  0.00000000000E+00 0. -1.
</event>
<event>
 7    1  0.1402367E-008  0.4614231E+02  0.7816164E-02  0.1320468E+00
        -11   -1    0    0    0    0  0.00000000000E+00  0.00000000000E+00  0.45593999997E+02  0.45594000000E+02  0.51100000000E-03 0. -1.
         11   -1    0    0    0    0 -0.00000000000E+00 -0.00000000000E+00 -0.45593999997E+02  0.45594000000E+02  0.51100000000E-03 0.  1.
    9900012    2    1    2    0    0 -0.35421999495E+02 -0.27381455897E+02 -0.49650775109E+01  0.46142310196E+02  0.99999310110E+01 0.  0.
         12    1    1    2    0    0  0.35421999495E+02  0.27381455897E+02  0.49650775109E+01  0.45045689804E+02  0.00000000000E+00 0. -1.
         11    1    3    3    0    0 -0.20875066682E+02 -0.15864999068E+02 -0.33687033866E+01  0.26435104827E+02  0.51100000000E-03 0. -1.
        -11    1    3    3    0    0 -0.12937195152E+02 -0.12082209245E+02 -0.23214187679E+01  0.17853284964E+02  0.51100000000E-03 0.  1.
         12    1    3    3    0    0 -0.16097376610E+01  0.56575241632E+00  0.72504464362E+00  0.18539204053E+01  0.00000000000E+00 0. -1.
</event>
<event>
 7    1  0.1402367E-008  0.4614232E+02  0.7816164E-02  0.1320468E+00
        -11   -1    0    0    0    0  0.00000000000E+00  0.00000000000E+00  0.45593999997E+02  0.45594000000E+02  0.51100000000E-03 0.  1.
         11   -1    0    0    0    0 -0.00000000000E+00 -0.00000000000E+00 -0.45593999997E+02  0.45594000000E+02  0.51100000000E-03 0. -1.
    9900012    2    1    2    0    0 -0.16643978863E+02  0.41835663125E+02 -0.13670044241E+01  0.46142318269E+02  0.10000004630E+02 0.  0.
         12    1    1    2    0    0  0.16643978863E+02 -0.41835663125E+02  0.13670044241E+01  0.45045681731E+02  0.00000000000E+00 0. -1.
         11    1    3    3    0    0  0.42737050388E+00  0.77764754853E+01  0.51917308004E+00  0.78054953379E+01  0.51100000000E-03 0. -1.
        -11    1    3    3    0    0 -0.15734719003E+02  0.33079286820E+02 -0.18877454902E+01  0.36679479031E+02  0.51100000000E-03 0.  1.
        -12    1    3    3    0    0 -0.13366303637E+01  0.97990081961E+00  0.15679859925E-02  0.16573439004E+01  0.00000000000E+00 0.  1.
</event>
<event>
 7    1  0.1402367E-008  0.4614232E+02  0.7816164E-02  0.1320468E+00
        -11   -1    0    0    0    0  0.00000000000E+00  0.00000000000E+00  0.45593999997E+02  0.45594000000E+02  0.51100000000E-03 0.  1.
         11   -1    0    0    0    0 -0.00000000000E+00 -0.00000000000E+00 -0.45593999997E+02  0.45594000000E+02  0.51100000000E-03 0. -1.
    9900012    2    1    2    0    0 -0.40351790065E+01  0.23544781433E+02  0.38189973469E+02  0.46142317899E+02  0.10000001260E+02 0.  0.
         12    1    1    2    0    0  0.40351790065E+01 -0.23544781433E+02 -0.38189973469E+02  0.45045682101E+02  0.00000000000E+00 0. -1.
         11    1    3    3    0    0  0.29928723262E+01  0.35945210078E+01  0.75564804366E+01  0.88869715250E+01  0.51100000000E-03 0. -1.
        -11    1    3    3    0    0 -0.26503866254E+01  0.85162514847E+01  0.11789403975E+02  0.14783136844E+02  0.51100000000E-03 0.  1.
         12    1    3    3    0    0 -0.43776647073E+01  0.11434008941E+02  0.18844089058E+02  0.22472209530E+02  0.00000000000E+00 0. -1.
</event>
<event>
 7    1  0.1402367E-008  0.4614232E+02  0.7816164E-02  0.1320468E+00
        -11   -1    0    0    0    0  0.00000000000E+00  0.00000000000E+00  0.45593999997E+02  0.45594000000E+02  0.51100000000E-03 0. -1.
         11   -1    0    0    0    0 -0.00000000000E+00 -0.00000000000E+00 -0.45593999997E+02  0.45594000000E+02  0.51100000000E-03 0.  1.
    9900012    2    1    2    0    0  0.42961442216E+02 -0.22900787267E+01 -0.13348544698E+02  0.46142316263E+02  0.99999863351E+01 0.  0.
         12    1    1    2    0    0 -0.42961442216E+02  0.22900787267E+01  0.13348544698E+02  0.45045683737E+02  0.00000000000E+00 0. -1.
         11    1    3    3    0    0  0.34586471875E+02 -0.11987702069E+01 -0.10472218778E+02  0.36156997291E+02  0.51100000000E-03 0.  1.
        -11    1    3    3    0    0  0.86325330967E+00  0.65599722215E+00  0.88982246183E+00  0.14026128856E+01  0.51100000000E-03 0. -1.
         12    1    3    3    0    0  0.75117170314E+01 -0.17473057419E+01 -0.37661483824E+01  0.85827060857E+01  0.00000000000E+00 0. -1.
</event>
<event>
 7    1  0.1402367E-008  0.4614232E+02  0.7816164E-02  0.1320468E+00
        -11   -1    0    0    0    0  0.00000000000E+00  0.00000000000E+00  0.45593999997E+02  0.45594000000E+02  0.51100000000E-03 0. -1.
         11   -1    0    0    0    0 -0.00000000000E+00 -0.00000000000E+00 -0.45593999997E+02  0.45594000000E+02  0.51100000000E-03 0.  1.
    9900012    2    1    2    0    0  0.11494174705E+02 -0.41091571315E+02 -0.14438841854E+02  0.46142318305E+02  0.10000004958E+02 0.  0.
         12    1    1    2    0    0 -0.11494174705E+02  0.41091571315E+02  0.14438841854E+02  0.45045681695E+02  0.00000000000E+00 0. -1.
         11    1    3    3    0    0 -0.91493086500E+00 -0.34885669073E+01  0.16852980759E+00  0.36104847475E+01  0.51100000000E-03 0. -1.
        -11    1    3    3    0    0  0.50636416289E+01 -0.81947116832E+01 -0.35335939786E+01  0.10260606843E+02  0.51100000000E-03 0.  1.
        -12    1    3    3    0    0  0.73454639410E+01 -0.29408292725E+02 -0.11073777683E+02  0.32271226715E+02  0.00000000000E+00 0.  1.
</event>
<event>
 7    1  0.1402367E-008  0.4614232E+02  0.7816164E-02  0.1320468E+00
        -11   -1    0    0    0    0  0.00000000000E+00  0.00000000000E+00  0.45593999997E+02  0.45594000000E+02  0.51100000000E-03 0.  1.
         11   -1    0    0    0    0 -0.00000000000E+00 -0.00000000000E+00 -0.45593999997E+02  0.45594000000E+02  0.51100000000E-03 0. -1.
    9900012    2    1    2    0    0 -0.46458675562E+01 -0.39807863793E+02  0.20563640524E+02  0.46142318557E+02  0.10000007256E+02 0.  0.
         12    1    1    2    0    0  0.46458675562E+01  0.39807863793E+02 -0.20563640524E+02  0.45045681443E+02  0.00000000000E+00 0. -1.
         11    1    3    3    0    0 -0.38398279872E+01 -0.14755391726E+02  0.31472975977E+01  0.15568280136E+02  0.51100000000E-03 0. -1.
        -11    1    3    3    0    0 -0.79569984910E+00 -0.24820270025E+02  0.16991275459E+02  0.30089572684E+02  0.51100000000E-03 0.  1.
        -12    1    3    3    0    0 -0.10339719904E-01 -0.23220204149E+00  0.42506746720E+00  0.48446573620E+00  0.00000000000E+00 0.  1.
</event>
<event>
 7    1  0.1402367E-008  0.4614232E+02  0.7816164E-02  0.1320468E+00
        -11   -1    0    0    0    0  0.00000000000E+00  0.00000000000E+00  0.45593999997E+02  0.45594000000E+02  0.51100000000E-03 0.  1.
         11   -1    0    0    0    0 -0.00000000000E+00 -0.00000000000E+00 -0.45593999997E+02  0.45594000000E+02  0.51100000000E-03 0. -1.
    9900012    2    1    2    0    0 -0.19975020095E+02 -0.36716751373E+02  0.16792625731E+02  0.46142317208E+02  0.99999949608E+01 0.  0.
         12    1    1    2    0    0  0.19975020095E+02  0.36716751373E+02 -0.16792625731E+02  0.45045682792E+02  0.00000000000E+00 0. -1.
         11    1    3    3    0    0 -0.70998538895E+01 -0.18748730997E+02  0.70837170141E+01  0.21262687654E+02  0.51100000000E-03 0. -1.
        -11    1    3    3    0    0 -0.12290929730E+02 -0.17617374289E+02  0.78011071844E+01  0.22853798460E+02  0.51100000000E-03 0.  1.
         12    1    3    3    0    0 -0.58423647507E+00 -0.35064608688E+00  0.19078015327E+01  0.20258310950E+01  0.00000000000E+00 0. -1.
</event>
<event>
 7    1  0.1402367E-008  0.4614231E+02  0.7816164E-02  0.1320468E+00
        -11   -1    0    0    0    0  0.00000000000E+00  0.00000000000E+00  0.45593999997E+02  0.45594000000E+02  0.51100000000E-03 0.  1.
         11   -1    0    0    0    0 -0.00000000000E+00 -0.00000000000E+00 -0.45593999997E+02  0.45594000000E+02  0.51100000000E-03 0. -1.
    9900012    2    1    2    0    0 -0.36643845775E+02 -0.17029357166E+02 -0.19908376908E+02  0.46142313084E+02  0.99999573469E+01 0.  0.
         12    1    1    2    0    0  0.36643845775E+02  0.17029357166E+02  0.19908376908E+02  0.45045686916E+02  0.00000000000E+00 0. -1.
         11    1    3    3    0    0 -0.11034601757E+02 -0.47748887994E+01 -0.10410543543E+02  0.15904132045E+02  0.51100000000E-03 0. -1.
        -11    1    3    3    0    0 -0.23659547593E+02 -0.10935874270E+02 -0.98389441210E+01  0.27859870065E+02  0.51100000000E-03 0.  1.
         12    1    3    3    0    0 -0.19496964252E+01 -0.13185940964E+01  0.34111075597E+00  0.23783109741E+01  0.00000000000E+00 0. -1.
</event>
<event>
 7    1  0.1402367E-008  0.4614232E+02  0.7816164E-02  0.1320468E+00
        -11   -1    0    0    0    0  0.00000000000E+00  0.00000000000E+00  0.45593999997E+02  0.45594000000E+02  0.51100000000E-03 0.  1.
         11   -1    0    0    0    0 -0.00000000000E+00 -0.00000000000E+00 -0.45593999997E+02  0.45594000000E+02  0.51100000000E-03 0. -1.
    9900012    2    1    2    0    0  0.44400009433E+01  0.20310837940E+02  0.39960852593E+02  0.46142317786E+02  0.10000000226E+02 0.  0.
         12    1    1    2    0    0 -0.44400009433E+01 -0.20310837940E+02 -0.39960852593E+02  0.45045682214E+02  0.00000000000E+00 0. -1.
         11    1    3    3    0    0  0.18555293088E+01  0.12337878542E+01  0.85409893326E+00  0.23863584672E+01  0.51100000000E-03 0. -1.
        -11    1    3    3    0    0  0.27438239018E+01  0.18589483011E+02  0.38904022418E+02  0.43204402655E+02  0.51100000000E-03 0.  1.
        -12    1    3    3    0    0 -0.15935226729E+00  0.48756707424E+00  0.20273124205E+00  0.55155666388E+00  0.00000000000E+00 0.  1.
</event>
<event>
 7    1  0.1402367E-008  0.4614232E+02  0.7816164E-02  0.1320468E+00
        -11   -1    0    0    0    0  0.00000000000E+00  0.00000000000E+00  0.45593999997E+02  0.45594000000E+02  0.51100000000E-03 0.  1.
         11   -1    0    0    0    0 -0.00000000000E+00 -0.00000000000E+00 -0.45593999997E+02  0.45594000000E+02  0.51100000000E-03 0. -1.
    9900012    2    1    2    0    0 -0.32987218778E+02 -0.28936134830E+02  0.10181204020E+02  0.46142318555E+02  0.10000007235E+02 0.  0.
         12    1    1    2    0    0  0.32987218778E+02  0.28936134830E+02 -0.10181204020E+02  0.45045681445E+02  0.00000000000E+00 0. -1.
         11    1    3    3    0    0 -0.43798881750E+01 -0.31702739636E+01  0.28992559033E+01  0.61351236731E+01  0.51100000000E-03 0. -1.
        -11    1    3    3    0    0 -0.23916573925E+02 -0.20445057180E+02  0.89658645447E+01  0.32716809116E+02  0.51100000000E-03 0.  1.
         12    1    3    3    0    0 -0.46907566776E+01 -0.53208036858E+01 -0.16839164284E+01  0.72903857655E+01  0.00000000000E+00 0. -1.
</event>
<event>
 7    1  0.1402367E-008  0.4614232E+02  0.7816164E-02  0.1320468E+00
        -11   -1    0    0    0    0  0.00000000000E+00  0.00000000000E+00  0.45593999997E+02  0.45594000000E+02  0.51100000000E-03 0.  1.
         11   -1    0    0    0    0 -0.00000000000E+00 -0.00000000000E+00 -0.45593999997E+02  0.45594000000E+02  0.51100000000E-03 0. -1.
    9900012    2    1    2    0    0  0.38244549773E+02  0.38132148029E+01  0.23493134028E+02  0.46142317177E+02  0.99999946757E+01 0.  0.
         12    1    1    2    0    0 -0.38244549773E+02 -0.38132148029E+01 -0.23493134028E+02  0.45045682823E+02  0.00000000000E+00 0. -1.
         11    1    3    3    0    0  0.21539177205E+02  0.47632904958E+01  0.17262618757E+02  0.28011124533E+02  0.51100000000E-03 0. -1.
        -11    1    3    3    0    0  0.11512878318E+02  0.81649601277E+00  0.42876986202E+01  0.12312489295E+02  0.51100000000E-03 0.  1.
         12    1    3    3    0    0  0.51924942498E+01 -0.17665717057E+01  0.19428166515E+01  0.58187033493E+01  0.00000000000E+00 0. -1.
</event>
<event>
 7    1  0.1402367E-008  0.4614232E+02  0.7816164E-02  0.1320468E+00
        -11   -1    0    0    0    0  0.00000000000E+00  0.00000000000E+00  0.45593999997E+02  0.45594000000E+02  0.51100000000E-03 0. -1.
         11   -1    0    0    0    0 -0.00000000000E+00 -0.00000000000E+00 -0.45593999997E+02  0.45594000000E+02  0.51100000000E-03 0.  1.
    9900012    2    1    2    0    0  0.34437059391E+02 -0.28994001140E+02 -0.15970022804E+01  0.46142316767E+02  0.99999909391E+01 0.  0.
         12    1    1    2    0    0 -0.34437059391E+02  0.28994001140E+02  0.15970022804E+01  0.45045683233E+02  0.00000000000E+00 0. -1.
         11    1    3    3    0    0  0.26647112596E+01 -0.90586618831E+00 -0.15034667200E+00  0.28184896720E+01  0.51100000000E-03 0. -1.
        -11    1    3    3    0    0  0.22532666432E+02 -0.21858774132E+02 -0.46345100418E+01  0.31733353852E+02  0.51100000000E-03 0.  1.
        -12    1    3    3    0    0  0.92396816989E+01 -0.62293608201E+01  0.31878544335E+01  0.11590473244E+02  0.00000000000E+00 0.  1.
</event>
<event>
 7    1  0.1402367E-008  0.4614232E+02  0.7816164E-02  0.1320468E+00
        -11   -1    0    0    0    0  0.00000000000E+00  0.00000000000E+00  0.45593999997E+02  0.45594000000E+02  0.51100000000E-03 0.  1.
         11   -1    0    0    0    0 -0.00000000000E+00 -0.00000000000E+00 -0.45593999997E+02  0.45594000000E+02  0.51100000000E-03 0. -1.
    9900012    2    1    2    0    0  0.50928112822E+01  0.24307596171E+02  0.37580813859E+02  0.46142317313E+02  0.99999959155E+01 0.  0.
         12    1    1    2    0    0 -0.50928112822E+01 -0.24307596171E+02 -0.37580813859E+02  0.45045682687E+02  0.00000000000E+00 0. -1.
         11    1    3    3    0    0  0.63705644926E+00  0.59196456280E+01  0.16671409885E+02  0.17702653843E+02  0.51100000000E-03 0. -1.
        -11    1    3    3    0    0  0.45106937523E+01  0.11428625740E+02  0.12562999354E+02  0.17572387358E+02  0.51100000000E-03 0.  1.
        -12    1    3    3    0    0 -0.54938919389E-01  0.69593248035E+01  0.83464046209E+01  0.10867276112E+02  0.00000000000E+00 0.  1.
</event>
<event>
 7    1  0.1402367E-008  0.4614232E+02  0.7816164E-02  0.1320468E+00
        -11   -1    0    0    0    0  0.00000000000E+00  0.00000000000E+00  0.45593999997E+02  0.45594000000E+02  0.51100000000E-03 0.  1.
         11   -1    0    0    0    0 -0.00000000000E+00 -0.00000000000E+00 -0.45593999997E+02  0.45594000000E+02  0.51100000000E-03 0. -1.
    9900012    2    1    2    0    0  0.22715642052E+02  0.10059553316E+02  0.37575502450E+02  0.46142318841E+02  0.10000009844E+02 0.  0.
         12    1    1    2    0    0 -0.22715642052E+02 -0.10059553316E+02 -0.37575502450E+02  0.45045681159E+02  0.00000000000E+00 0. -1.
         11    1    3    3    0    0  0.92124918648E+00  0.33770571251E+01  0.59210442159E+01  0.68783704290E+01  0.51100000000E-03 0. -1.
        -11    1    3    3    0    0  0.86497100532E+00  0.11496020175E+01  0.32168205298E+01  0.35238748872E+01  0.51100000000E-03 0.  1.
         12    1    3    3    0    0  0.20929421861E+02  0.55328941734E+01  0.28437637704E+02  0.35740073524E+02  0.00000000000E+00 0. -1.
</event>
<event>
 7    1  0.1402367E-008  0.4614232E+02  0.7816164E-02  0.1320468E+00
        -11   -1    0    0    0    0  0.00000000000E+00  0.00000000000E+00  0.45593999997E+02  0.45594000000E+02  0.51100000000E-03 0.  1.
         11   -1    0    0    0    0 -0.00000000000E+00 -0.00000000000E+00 -0.45593999997E+02  0.45594000000E+02  0.51100000000E-03 0. -1.
    9900012    2    1    2    0    0  0.33252468179E+02 -0.20683599135E+02  0.22261524871E+02  0.46142318712E+02  0.10000008668E+02 0.  0.
         12    1    1    2    0    0 -0.33252468179E+02  0.20683599135E+02 -0.22261524871E+02  0.45045681288E+02  0.00000000000E+00 0. -1.
         11    1    3    3    0    0  0.52241496036E+01 -0.62751288797E+01  0.14022445795E+01  0.82846407079E+01  0.51100000000E-03 0. -1.
        -11    1    3    3    0    0  0.25605281268E+02 -0.12806691629E+02  0.18237285211E+02  0.33944666023E+02  0.51100000000E-03 0.  1.
         12    1    3    3    0    0  0.24230373074E+01 -0.16017786263E+01  0.26219950809E+01  0.39130119812E+01  0.00000000000E+00 0. -1.
</event>
<event>
 7    1  0.1402367E-008  0.4614232E+02  0.7816164E-02  0.1320468E+00
        -11   -1    0    0    0    0  0.00000000000E+00  0.00000000000E+00  0.45593999997E+02  0.45594000000E+02  0.51100000000E-03 0. -1.
         11   -1    0    0    0    0 -0.00000000000E+00 -0.00000000000E+00 -0.45593999997E+02  0.45594000000E+02  0.51100000000E-03 0.  1.
    9900012    2    1    2    0    0  0.30467445845E+01  0.14145730547E+02 -0.42658283576E+02  0.46142317600E+02  0.99999985308E+01 0.  0.
         12    1    1    2    0    0 -0.30467445845E+01 -0.14145730547E+02  0.42658283576E+02  0.45045682400E+02  0.00000000000E+00 0. -1.
         11    1    3    3    0    0  0.23675154806E+01  0.47727844760E+01 -0.23135981855E+02  0.23741488114E+02  0.51100000000E-03 0. -1.
        -11    1    3    3    0    0  0.49796168290E+00  0.43667795209E+01 -0.35143872008E+01  0.56274014323E+01  0.51100000000E-03 0.  1.
        -12    1    3    3    0    0  0.18126742101E+00  0.50061665501E+01 -0.16007914519E+02  0.16773428053E+02  0.00000000000E+00 0.  1.
</event>
<event>
 7    1  0.1402367E-008  0.4614232E+02  0.7816164E-02  0.1320468E+00
        -11   -1    0    0    0    0  0.00000000000E+00  0.00000000000E+00  0.45593999997E+02  0.45594000000E+02  0.51100000000E-03 0.  1.
         11   -1    0    0    0    0 -0.00000000000E+00 -0.00000000000E+00 -0.45593999997E+02  0.45594000000E+02  0.51100000000E-03 0. -1.
    9900012    2    1    2    0    0 -0.31140126415E+02 -0.57511165545E+01  0.32036394500E+02  0.46142318883E+02  0.10000010229E+02 0.  0.
         12    1    1    2    0    0  0.31140126415E+02  0.57511165545E+01 -0.32036394500E+02  0.45045681117E+02  0.00000000000E+00 0. -1.
         11    1    3    3    0    0 -0.59272865897E+00 -0.22930638018E-01 -0.44932932639E+00  0.74414392559E+00  0.51100000000E-03 0. -1.
        -11    1    3    3    0    0 -0.11211672378E+02 -0.25108112512E+01  0.78465636813E+01  0.13913099314E+02  0.51100000000E-03 0.  1.
        -12    1    3    3    0    0 -0.19335725378E+02 -0.32173746653E+01  0.24639160145E+02  0.31485075644E+02  0.00000000000E+00 0.  1.
</event>
<event>
 7    1  0.1402367E-008  0.4614232E+02  0.7816164E-02  0.1320468E+00
        -11   -1    0    0    0    0  0.00000000000E+00  0.00000000000E+00  0.45593999997E+02  0.45594000000E+02  0.51100000000E-03 0.  1.
         11   -1    0    0    0    0 -0.00000000000E+00 -0.00000000000E+00 -0.45593999997E+02  0.45594000000E+02  0.51100000000E-03 0. -1.
    9900012    2    1    2    0    0  0.27656507382E+02 -0.21918135757E+02  0.27996900187E+02  0.46142317679E+02  0.99999992529E+01 0.  0.
         12    1    1    2    0    0 -0.27656507382E+02  0.21918135757E+02 -0.27996900187E+02  0.45045682321E+02  0.00000000000E+00 0. -1.
         11    1    3    3    0    0  0.12213872653E+02 -0.13382534678E+02  0.11204563793E+02  0.21302891110E+02  0.51100000000E-03 0. -1.
        -11    1    3    3    0    0  0.80382417977E+01 -0.16871808489E+01  0.77982004357E+01  0.11325715903E+02  0.51100000000E-03 0.  1.
         12    1    3    3    0    0  0.74043929317E+01 -0.68484202304E+01  0.89941359586E+01  0.13513710667E+02  0.00000000000E+00 0. -1.
</event>
<event>
 7    1  0.1402367E-008  0.4614232E+02  0.7816164E-02  0.1320468E+00
        -11   -1    0    0    0    0  0.00000000000E+00  0.00000000000E+00  0.45593999997E+02  0.45594000000E+02  0.51100000000E-03 0. -1.
         11   -1    0    0    0    0 -0.00000000000E+00 -0.00000000000E+00 -0.45593999997E+02  0.45594000000E+02  0.51100000000E-03 0.  1.
    9900012    2    1    2    0    0 -0.23070723142E+02  0.38410860694E+02 -0.46326011080E+01  0.46142317869E+02  0.10000000988E+02 0.  0.
         12    1    1    2    0    0  0.23070723142E+02 -0.38410860694E+02  0.46326011080E+01  0.45045682131E+02  0.00000000000E+00 0. -1.
         11    1    3    3    0    0 -0.73256586706E+01  0.10018814494E+02  0.29212349968E+01  0.12750511087E+02  0.51100000000E-03 0. -1.
        -11    1    3    3    0    0 -0.12558083309E+02  0.24151336359E+02 -0.62741890238E+01  0.27934887730E+02  0.51100000000E-03 0.  1.
         12    1    3    3    0    0 -0.31869811620E+01  0.42407098413E+01 -0.12796470810E+01  0.54569190517E+01  0.00000000000E+00 0. -1.
</event>
<event>
 7    1  0.1402367E-008  0.4614231E+02  0.7816164E-02  0.1320468E+00
        -11   -1    0    0    0    0  0.00000000000E+00  0.00000000000E+00  0.45593999997E+02  0.45594000000E+02  0.51100000000E-03 0.  1.
         11   -1    0    0    0    0 -0.00000000000E+00 -0.00000000000E+00 -0.45593999997E+02  0.45594000000E+02  0.51100000000E-03 0. -1.
    9900012    2    1    2    0    0 -0.29538143081E+01 -0.15609819354E+02  0.42151189644E+02  0.46142309112E+02  0.99999211256E+01 0.  0.
         12    1    1    2    0    0  0.29538143081E+01  0.15609819354E+02 -0.42151189644E+02  0.45045690888E+02  0.00000000000E+00 0. -1.
         11    1    3    3    0    0 -0.14570538119E+01 -0.50607117228E+01  0.49046345714E+01  0.71964747962E+01  0.51100000000E-03 0. -1.
        -11    1    3    3    0    0  0.19571124902E-01 -0.74590232166E+01  0.30144257888E+02  0.31053400687E+02  0.51100000000E-03 0.  1.
        -12    1    3    3    0    0 -0.15163316211E+01 -0.30900844146E+01  0.71022971846E+01  0.78924336280E+01  0.00000000000E+00 0.  1.
</event>
<event>
 7    1  0.1402367E-008  0.4614232E+02  0.7816164E-02  0.1320468E+00
        -11   -1    0    0    0    0  0.00000000000E+00  0.00000000000E+00  0.45593999997E+02  0.45594000000E+02  0.51100000000E-03 0. -1.
         11   -1    0    0    0    0 -0.00000000000E+00 -0.00000000000E+00 -0.45593999997E+02  0.45594000000E+02  0.51100000000E-03 0.  1.
    9900012    2    1    2    0    0  0.98926436315E+01 -0.30944999755E+02 -0.31203455913E+02  0.46142322418E+02  0.10000042468E+02 0.  0.
         12    1    1    2    0    0 -0.98926436315E+01  0.30944999755E+02  0.31203455913E+02  0.45045677582E+02  0.00000000000E+00 0. -1.
         11    1    3    3    0    0  0.50284878531E+01 -0.16488206219E+02 -0.21096429288E+02  0.27243457258E+02  0.51100000000E-03 0. -1.
        -11    1    3    3    0    0  0.17100986706E+01 -0.11538825889E+02 -0.71268208100E+01  0.13669693320E+02  0.51100000000E-03 0.  1.
        -12    1    3    3    0    0  0.31540571079E+01 -0.29179676478E+01 -0.29802058152E+01  0.52291718402E+01  0.00000000000E+00 0.  1.
</event>
<event>
 7    1  0.1402367E-008  0.4614232E+02  0.7816164E-02  0.1320468E+00
        -11   -1    0    0    0    0  0.00000000000E+00  0.00000000000E+00  0.45593999997E+02  0.45594000000E+02  0.51100000000E-03 0.  1.
         11   -1    0    0    0    0 -0.00000000000E+00 -0.00000000000E+00 -0.45593999997E+02  0.45594000000E+02  0.51100000000E-03 0. -1.
    9900012    2    1    2    0    0 -0.29912474179E+02 -0.31061793682E+02 -0.13020076061E+02  0.46142317422E+02  0.99999969066E+01 0.  0.
         12    1    1    2    0    0  0.29912474179E+02  0.31061793682E+02  0.13020076061E+02  0.45045682578E+02  0.00000000000E+00 0. -1.
         11    1    3    3    0    0 -0.30493823597E+00 -0.58791496413E+00  0.88768923256E+00  0.11075304815E+01  0.51100000000E-03 0. -1.
        -11    1    3    3    0    0 -0.20533171525E+02 -0.22743944492E+02 -0.12251119200E+02  0.32999819179E+02  0.51100000000E-03 0.  1.
        -12    1    3    3    0    0 -0.90743644181E+01 -0.77299342266E+01 -0.16566460936E+01  0.12034967761E+02  0.00000000000E+00 0.  1.
</event>
<event>
 7    1  0.1402367E-008  0.4614232E+02  0.7816164E-02  0.1320468E+00
        -11   -1    0    0    0    0  0.00000000000E+00  0.00000000000E+00  0.45593999997E+02  0.45594000000E+02  0.51100000000E-03 0.  1.
         11   -1    0    0    0    0 -0.00000000000E+00 -0.00000000000E+00 -0.45593999997E+02  0.45594000000E+02  0.51100000000E-03 0. -1.
    9900012    2    1    2    0    0 -0.39700523443E+02  0.74818382682E+01  0.19924959182E+02  0.46142318033E+02  0.10000002479E+02 0.  0.
         12    1    1    2    0    0  0.39700523443E+02 -0.74818382682E+01 -0.19924959182E+02  0.45045681967E+02  0.00000000000E+00 0. -1.
         11    1    3    3    0    0 -0.20311044871E+01 -0.52717913420E+00  0.30244584558E+01  0.36811210913E+01  0.51100000000E-03 0. -1.
        -11    1    3    3    0    0 -0.37406217395E+02  0.85229068005E+01  0.16765746839E+02  0.41868309107E+02  0.51100000000E-03 0.  1.
        -12    1    3    3    0    0 -0.26320156070E+00 -0.51388939804E+00  0.13475388702E+00  0.59288783513E+00  0.00000000000E+00 0.  1.
</event>
<event>
 7    1  0.1402367E-008  0.4614232E+02  0.7816164E-02  0.1320468E+00
        -11   -1    0    0    0    0  0.00000000000E+00  0.00000000000E+00  0.45593999997E+02  0.45594000000E+02  0.51100000000E-03 0. -1.
         11   -1    0    0    0    0 -0.00000000000E+00 -0.00000000000E+00 -0.45593999997E+02  0.45594000000E+02  0.51100000000E-03 0.  1.
    9900012    2    1    2    0    0 -0.27586698671E+02  0.23885654791E+02 -0.26411413070E+02  0.46142321087E+02  0.10000030332E+02 0.  0.
         12    1    1    2    0    0  0.27586698671E+02 -0.23885654791E+02  0.26411413070E+02  0.45045678913E+02  0.00000000000E+00 0. -1.
         11    1    3    3    0    0 -0.13426372241E+02  0.75507059483E+01 -0.10933375356E+02  0.18889661956E+02  0.51100000000E-03 0.  1.
        -11    1    3    3    0    0 -0.99363690131E+01  0.14966876463E+02 -0.11878590052E+02  0.21536938550E+02  0.51100000000E-03 0. -1.
         12    1    3    3    0    0 -0.42239574167E+01  0.13680723797E+01 -0.35994476618E+01  0.57157205814E+01  0.00000000000E+00 0. -1.
</event>
<event>
 7    1  0.1402367E-008  0.4614232E+02  0.7816164E-02  0.1320468E+00
        -11   -1    0    0    0    0  0.00000000000E+00  0.00000000000E+00  0.45593999997E+02  0.45594000000E+02  0.51100000000E-03 0.  1.
         11   -1    0    0    0    0 -0.00000000000E+00 -0.00000000000E+00 -0.45593999997E+02  0.45594000000E+02  0.51100000000E-03 0. -1.
    9900012    2    1    2    0    0 -0.24136622097E+02  0.18197884856E+02  0.33397214453E+02  0.46142317935E+02  0.10000001586E+02 0.  0.
         12    1    1    2    0    0  0.24136622097E+02 -0.18197884856E+02 -0.33397214453E+02  0.45045682065E+02  0.00000000000E+00 0. -1.
         11    1    3    3    0    0 -0.28960011252E+01  0.60240197199E+01  0.55175238745E+01  0.86671048263E+01  0.51100000000E-03 0. -1.
        -11    1    3    3    0    0 -0.16630112272E+02  0.11287934475E+02  0.20354986038E+02  0.28606005589E+02  0.51100000000E-03 0.  1.
        -12    1    3    3    0    0 -0.46105087003E+01  0.88593066120E+00  0.75247045404E+01  0.88692075200E+01  0.00000000000E+00 0.  1.
</event>
<event>
 7    1  0.1402367E-008  0.4614232E+02  0.7816164E-02  0.1320468E+00
        -11   -1    0    0    0    0  0.00000000000E+00  0.00000000000E+00  0.45593999997E+02  0.45594000000E+02  0.51100000000E-03 0.  1.
         11   -1    0    0    0    0 -0.00000000000E+00 -0.00000000000E+00 -0.45593999997E+02  0.45594000000E+02  0.51100000000E-03 0. -1.
    9900012    2    1    2    0    0 -0.21672072742E+02  0.26506562100E+02 -0.29271776219E+02  0.46142318139E+02  0.10000003443E+02 0.  0.
         12    1    1    2    0    0  0.21672072742E+02 -0.26506562100E+02  0.29271776219E+02  0.45045681861E+02  0.00000000000E+00 0. -1.
         11    1    3    3    0    0 -0.69004505836E+01  0.48707486505E+01 -0.87681953610E+01  0.12174631856E+02  0.51100000000E-03 0. -1.
        -11    1    3    3    0    0 -0.13685380576E+02  0.14801026722E+02 -0.15059357176E+02  0.25162358243E+02  0.51100000000E-03 0.  1.
        -12    1    3    3    0    0 -0.10862415832E+01  0.68347867277E+01 -0.54442236827E+01  0.88053280403E+01  0.00000000000E+00 0.  1.
</event>
<event>
 7    1  0.1402367E-008  0.4614232E+02  0.7816164E-02  0.1320468E+00
        -11   -1    0    0    0    0  0.00000000000E+00  0.00000000000E+00  0.45593999997E+02  0.45594000000E+02  0.51100000000E-03 0. -1.
         11   -1    0    0    0    0 -0.00000000000E+00 -0.00000000000E+00 -0.45593999997E+02  0.45594000000E+02  0.51100000000E-03 0.  1.
    9900012    2    1    2    0    0 -0.14979386131E+02  0.21918641509E+02 -0.36390995818E+02  0.46142318397E+02  0.10000005797E+02 0.  0.
         12    1    1    2    0    0  0.14979386131E+02 -0.21918641509E+02  0.36390995818E+02  0.45045681603E+02  0.00000000000E+00 0. -1.
         11    1    3    3    0    0  0.75521797132E+00  0.17550002377E+01 -0.49463952882E+00  0.19735877338E+01  0.51100000000E-03 0. -1.
        -11    1    3    3    0    0 -0.63965812530E+01  0.10293491839E+02 -0.15875009854E+02  0.19972184760E+02  0.51100000000E-03 0.  1.
         12    1    3    3    0    0 -0.93380228490E+01  0.98701494324E+01 -0.20021346435E+02  0.24196545903E+02  0.00000000000E+00 0. -1.
</event>
<event>
 7    1  0.1402367E-008  0.4614232E+02  0.7816164E-02  0.1320468E+00
        -11   -1    0    0    0    0  0.00000000000E+00  0.00000000000E+00  0.45593999997E+02  0.45594000000E+02  0.51100000000E-03 0.  1.
         11   -1    0    0    0    0 -0.00000000000E+00 -0.00000000000E+00 -0.45593999997E+02  0.45594000000E+02  0.51100000000E-03 0. -1.
    9900012    2    1    2    0    0  0.75901521912E+01 -0.46730429304E+01  0.44155019436E+02  0.46142317832E+02  0.10000000650E+02 0.  0.
         12    1    1    2    0    0 -0.75901521912E+01  0.46730429304E+01 -0.44155019436E+02  0.45045682168E+02  0.00000000000E+00 0. -1.
         11    1    3    3    0    0 -0.18809563113E+00  0.10399053313E+01  0.18361754234E+02  0.18392139677E+02  0.51100000000E-03 0. -1.
        -11    1    3    3    0    0  0.46366513481E+01 -0.14027144671E+01  0.13761480755E+02  0.14589191082E+02  0.51100000000E-03 0.  1.
         12    1    3    3    0    0  0.31415964743E+01 -0.43102337946E+01  0.12031784447E+02  0.13160987074E+02  0.00000000000E+00 0. -1.
</event>
<event>
 7    1  0.1402367E-008  0.4614232E+02  0.7816164E-02  0.1320468E+00
        -11   -1    0    0    0    0  0.00000000000E+00  0.00000000000E+00  0.45593999997E+02  0.45594000000E+02  0.51100000000E-03 0.  1.
         11   -1    0    0    0    0 -0.00000000000E+00 -0.00000000000E+00 -0.45593999997E+02  0.45594000000E+02  0.51100000000E-03 0. -1.
    9900012    2    1    2    0    0  0.34145687781E+01  0.13721364357E+02  0.42768895860E+02  0.46142316823E+02  0.99999914467E+01 0.  0.
         12    1    1    2    0    0 -0.34145687781E+01 -0.13721364357E+02 -0.42768895860E+02  0.45045683177E+02  0.00000000000E+00 0. -1.
         11    1    3    3    0    0 -0.90722623044E+00  0.29376970463E+01  0.42452004812E+01  0.52416458060E+01  0.51100000000E-03 0. -1.
        -11    1    3    3    0    0  0.13797322322E+01  0.76012538256E+01  0.32932077252E+02  0.33826091011E+02  0.51100000000E-03 0.  1.
        -12    1    3    3    0    0  0.29420627763E+01  0.31824134855E+01  0.55916181275E+01  0.70745800056E+01  0.00000000000E+00 0.  1.
</event>
<event>
 7    1  0.1402367E-008  0.4614232E+02  0.7816164E-02  0.1320468E+00
        -11   -1    0    0    0    0  0.00000000000E+00  0.00000000000E+00  0.45593999997E+02  0.45594000000E+02  0.51100000000E-03 0.  1.
         11   -1    0    0    0    0 -0.00000000000E+00 -0.00000000000E+00 -0.45593999997E+02  0.45594000000E+02  0.51100000000E-03 0. -1.
    9900012    2    1    2    0    0 -0.29207175495E+01  0.21730532231E+02  0.39349292092E+02  0.46142318629E+02  0.10000007913E+02 0.  0.
         12    1    1    2    0    0  0.29207175495E+01 -0.21730532231E+02 -0.39349292092E+02  0.45045681371E+02  0.00000000000E+00 0. -1.
         11    1    3    3    0    0 -0.11235431637E+01  0.14445710873E+02  0.16403555218E+02  0.21886469242E+02  0.51100000000E-03 0. -1.
        -11    1    3    3    0    0 -0.22672476030E+01  0.44963158246E+01  0.14583418952E+02  0.15428330314E+02  0.51100000000E-03 0.  1.
         12    1    3    3    0    0  0.47007321726E+00  0.27885055339E+01  0.83623179218E+01  0.88275190720E+01  0.00000000000E+00 0. -1.
</event>
<event>
 7    1  0.1402367E-008  0.4614232E+02  0.7816164E-02  0.1320468E+00
        -11   -1    0    0    0    0  0.00000000000E+00  0.00000000000E+00  0.45593999997E+02  0.45594000000E+02  0.51100000000E-03 0.  1.
         11   -1    0    0    0    0 -0.00000000000E+00 -0.00000000000E+00 -0.45593999997E+02  0.45594000000E+02  0.51100000000E-03 0. -1.
    9900012    2    1    2    0    0 -0.28981242081E+02  0.34478061358E+02  0.68151592150E+00  0.46142316838E+02  0.99999915846E+01 0.  0.
         12    1    1    2    0    0  0.28981242081E+02 -0.34478061358E+02 -0.68151592150E+00  0.45045683162E+02  0.00000000000E+00 0. -1.
         11    1    3    3    0    0 -0.24791374199E+00  0.43362028941E+00 -0.84145849971E+00  0.97853995662E+00  0.51100000000E-03 0. -1.
        -11    1    3    3    0    0 -0.15495361579E+02  0.17503636403E+02  0.43873469145E+01  0.23785128358E+02  0.51100000000E-03 0.  1.
         12    1    3    3    0    0 -0.13237966760E+02  0.16540804665E+02 -0.28643724932E+01  0.21378648524E+02  0.00000000000E+00 0. -1.
</event>
<event>
 7    1  0.1402367E-008  0.4614232E+02  0.7816164E-02  0.1320468E+00
        -11   -1    0    0    0    0  0.00000000000E+00  0.00000000000E+00  0.45593999997E+02  0.45594000000E+02  0.51100000000E-03 0.  1.
         11   -1    0    0    0    0 -0.00000000000E+00 -0.00000000000E+00 -0.45593999997E+02  0.45594000000E+02  0.51100000000E-03 0. -1.
    9900012    2    1    2    0    0 -0.17400364492E+02 -0.24729386329E+02  0.33388592131E+02  0.46142319661E+02  0.10000017324E+02 0.  0.
         12    1    1    2    0    0  0.17400364492E+02  0.24729386329E+02 -0.33388592131E+02  0.45045680339E+02  0.00000000000E+00 0. -1.
         11    1    3    3    0    0 -0.12665629611E+02 -0.14854942671E+02  0.23753384103E+02  0.30745906261E+02  0.51100000000E-03 0.  1.
        -11    1    3    3    0    0 -0.14406035857E+01 -0.80864306409E+01  0.72336250211E+01  0.10944908881E+02  0.51100000000E-03 0. -1.
        -12    1    3    3    0    0 -0.32941312956E+01 -0.17880130169E+01  0.24015830071E+01  0.44515045189E+01  0.00000000000E+00 0.  1.
</event>
<event>
 7    1  0.1402367E-008  0.4614232E+02  0.7816164E-02  0.1320468E+00
        -11   -1    0    0    0    0  0.00000000000E+00  0.00000000000E+00  0.45593999997E+02  0.45594000000E+02  0.51100000000E-03 0.  1.
         11   -1    0    0    0    0 -0.00000000000E+00 -0.00000000000E+00 -0.45593999997E+02  0.45594000000E+02  0.51100000000E-03 0. -1.
    9900012    2    1    2    0    0 -0.15386512453E+02  0.16439159592E+02  0.39014392823E+02  0.46142316734E+02  0.99999906332E+01 0.  0.
         12    1    1    2    0    0  0.15386512453E+02 -0.16439159592E+02 -0.39014392823E+02  0.45045683266E+02  0.00000000000E+00 0. -1.
         11    1    3    3    0    0 -0.77720394267E+01  0.57660410496E+01  0.21761506756E+02  0.23816276006E+02  0.51100000000E-03 0. -1.
        -11    1    3    3    0    0 -0.78993854077E+01  0.73402097651E+01  0.13869763868E+02  0.17568418234E+02  0.51100000000E-03 0.  1.
         12    1    3    3    0    0  0.28491238175E+00  0.33329087775E+01  0.33831221983E+01  0.47576224937E+01  0.00000000000E+00 0. -1.
</event>
<event>
 7    1  0.1402367E-008  0.4614232E+02  0.7816164E-02  0.1320468E+00
        -11   -1    0    0    0    0  0.00000000000E+00  0.00000000000E+00  0.45593999997E+02  0.45594000000E+02  0.51100000000E-03 0.  1.
         11   -1    0    0    0    0 -0.00000000000E+00 -0.00000000000E+00 -0.45593999997E+02  0.45594000000E+02  0.51100000000E-03 0. -1.
    9900012    2    1    2    0    0 -0.29716457605E+02  0.58014308835E+01  0.33352496444E+02  0.46142317943E+02  0.10000001658E+02 0.  0.
         12    1    1    2    0    0  0.29716457605E+02 -0.58014308835E+01 -0.33352496444E+02  0.45045682057E+02  0.00000000000E+00 0. -1.
         11    1    3    3    0    0 -0.12517812242E+02  0.23591915886E+01  0.15605175894E+02  0.20144054289E+02  0.51100000000E-03 0. -1.
        -11    1    3    3    0    0 -0.16995378421E+02  0.17443502164E+01  0.14862147398E+02  0.22644404847E+02  0.51100000000E-03 0.  1.
         12    1    3    3    0    0 -0.20326694297E+00  0.16978890784E+01  0.28851731529E+01  0.33538588067E+01  0.00000000000E+00 0. -1.
</event>
<event>
 7    1  0.1402367E-008  0.4614232E+02  0.7816164E-02  0.1320468E+00
        -11   -1    0    0    0    0  0.00000000000E+00  0.00000000000E+00  0.45593999997E+02  0.45594000000E+02  0.51100000000E-03 0.  1.
         11   -1    0    0    0    0 -0.00000000000E+00 -0.00000000000E+00 -0.45593999997E+02  0.45594000000E+02  0.51100000000E-03 0. -1.
    9900012    2    1    2    0    0 -0.18969647852E+02 -0.12591535293E+02  0.38867972063E+02  0.46142317044E+02  0.99999934599E+01 0.  0.
         12    1    1    2    0    0  0.18969647852E+02  0.12591535293E+02 -0.38867972063E+02  0.45045682956E+02  0.00000000000E+00 0. -1.
         11    1    3    3    0    0 -0.86643827279E+01 -0.33892564961E+01  0.89584024364E+01  0.12915555045E+02  0.51100000000E-03 0. -1.
        -11    1    3    3    0    0 -0.80852813135E+01 -0.89632360717E+01  0.23152428918E+02  0.26110272688E+02  0.51100000000E-03 0.  1.
        -12    1    3    3    0    0 -0.22199838102E+01 -0.23904272553E+00  0.67571407095E+01  0.71164893108E+01  0.00000000000E+00 0.  1.
</event>
<event>
 7    1  0.1402367E-008  0.4614232E+02  0.7816164E-02  0.1320468E+00
        -11   -1    0    0    0    0  0.00000000000E+00  0.00000000000E+00  0.45593999997E+02  0.45594000000E+02  0.51100000000E-03 0.  1.
         11   -1    0    0    0    0 -0.00000000000E+00 -0.00000000000E+00 -0.45593999997E+02  0.45594000000E+02  0.51100000000E-03 0. -1.
    9900012    2    1    2    0    0  0.43550345084E+01  0.68954529730E+01  0.44301238768E+02  0.46142319257E+02  0.10000013639E+02 0.  0.
         12    1    1    2    0    0 -0.43550345084E+01 -0.68954529730E+01 -0.44301238768E+02  0.45045680743E+02  0.00000000000E+00 0. -1.
         11    1    3    3    0    0  0.20272511150E+01 -0.10835152158E+01  0.56557299685E+01  0.61050007408E+01  0.51100000000E-03 0. -1.
        -11    1    3    3    0    0  0.20528960363E+01  0.35057436721E+01  0.30240016300E+02  0.30511689677E+02  0.51100000000E-03 0.  1.
         12    1    3    3    0    0  0.27488735706E+00  0.44732245167E+01  0.84054924986E+01  0.95256288391E+01  0.00000000000E+00 0. -1.
</event>
<event>
 7    1  0.1402367E-008  0.4614232E+02  0.7816164E-02  0.1320468E+00
        -11   -1    0    0    0    0  0.00000000000E+00  0.00000000000E+00  0.45593999997E+02  0.45594000000E+02  0.51100000000E-03 0. -1.
         11   -1    0    0    0    0 -0.00000000000E+00 -0.00000000000E+00 -0.45593999997E+02  0.45594000000E+02  0.51100000000E-03 0.  1.
    9900012    2    1    2    0    0  0.39992014340E+02 -0.20668785961E+02 -0.15979898666E+01  0.46142317680E+02  0.99999992574E+01 0.  0.
         12    1    1    2    0    0 -0.39992014340E+02  0.20668785961E+02  0.15979898666E+01  0.45045682320E+02  0.00000000000E+00 0. -1.
         11    1    3    3    0    0  0.19079931456E+02 -0.47125705395E+01 -0.96073173712E-01  0.19653532399E+02  0.51100000000E-03 0. -1.
        -11    1    3    3    0    0  0.13837603177E+02 -0.98249851361E+01  0.20878103350E+00  0.16972129636E+02  0.51100000000E-03 0.  1.
        -12    1    3    3    0    0  0.70744797077E+01 -0.61312302849E+01 -0.17106977264E+01  0.95166556443E+01  0.00000000000E+00 0.  1.
</event>
<event>
 7    1  0.1402367E-008  0.4614232E+02  0.7816164E-02  0.1320468E+00
        -11   -1    0    0    0    0  0.00000000000E+00  0.00000000000E+00  0.45593999997E+02  0.45594000000E+02  0.51100000000E-03 0.  1.
         11   -1    0    0    0    0 -0.00000000000E+00 -0.00000000000E+00 -0.45593999997E+02  0.45594000000E+02  0.51100000000E-03 0. -1.
    9900012    2    1    2    0    0  0.22934461582E+02  0.67673028239E+00  0.38764236214E+02  0.46142317619E+02  0.99999987004E+01 0.  0.
         12    1    1    2    0    0 -0.22934461582E+02 -0.67673028239E+00 -0.38764236214E+02  0.45045682381E+02  0.00000000000E+00 0. -1.
         11    1    3    3    0    0  0.78076876569E+01 -0.34844266341E+01  0.12737044472E+02  0.15340584006E+02  0.51100000000E-03 0. -1.
        -11    1    3    3    0    0  0.33496765585E+01  0.20150679802E+01  0.33049501701E+01  0.51189381613E+01  0.51100000000E-03 0.  1.
        -12    1    3    3    0    0  0.11777097367E+02  0.21460889363E+01  0.22722241572E+02  0.25682795451E+02  0.00000000000E+00 0.  1.
</event>
<event>
 7    1  0.1402367E-008  0.4614232E+02  0.7816164E-02  0.1320468E+00
        -11   -1    0    0    0    0  0.00000000000E+00  0.00000000000E+00  0.45593999997E+02  0.45594000000E+02  0.51100000000E-03 0.  1.
         11   -1    0    0    0    0 -0.00000000000E+00 -0.00000000000E+00 -0.45593999997E+02  0.45594000000E+02  0.51100000000E-03 0. -1.
    9900012    2    1    2    0    0 -0.44518775021E+02  0.37001868889E+01  0.57879792184E+01  0.46142318566E+02  0.10000007339E+02 0.  0.
         12    1    1    2    0    0  0.44518775021E+02 -0.37001868889E+01 -0.57879792184E+01  0.45045681434E+02  0.00000000000E+00 0. -1.
         11    1    3    3    0    0 -0.53044750797E+01  0.11542594850E+01 -0.78103411943E+00  0.54845041150E+01  0.51100000000E-03 0. -1.
        -11    1    3    3    0    0 -0.16625476655E+02  0.65560539264E+00 -0.12352487210E+01  0.16684188086E+02  0.51100000000E-03 0.  1.
        -12    1    3    3    0    0 -0.22588823287E+02  0.18903220113E+01  0.78042620589E+01  0.23973626365E+02  0.00000000000E+00 0.  1.
</event>
<event>
 7    1  0.1402367E-008  0.4614232E+02  0.7816164E-02  0.1320468E+00
        -11   -1    0    0    0    0  0.00000000000E+00  0.00000000000E+00  0.45593999997E+02  0.45594000000E+02  0.51100000000E-03 0. -1.
         11   -1    0    0    0    0 -0.00000000000E+00 -0.00000000000E+00 -0.45593999997E+02  0.45594000000E+02  0.51100000000E-03 0.  1.
    9900012    2    1    2    0    0 -0.34598118769E+02  0.20510667845E+02 -0.20282904888E+02  0.46142317094E+02  0.99999939161E+01 0.  0.
         12    1    1    2    0    0  0.34598118769E+02 -0.20510667845E+02  0.20282904888E+02  0.45045682906E+02  0.00000000000E+00 0. -1.
         11    1    3    3    0    0 -0.12329819933E+02  0.64536379290E+01 -0.10457545218E+02  0.17407876216E+02  0.51100000000E-03 0. -1.
        -11    1    3    3    0    0 -0.13321483862E+02  0.49036842217E+01 -0.55042914064E+01  0.15225152721E+02  0.51100000000E-03 0.  1.
        -12    1    3    3    0    0 -0.89468149740E+01  0.91533456941E+01 -0.43210682633E+01  0.13509288157E+02  0.00000000000E+00 0.  1.
</event>
<event>
 7    1  0.1402367E-008  0.4614232E+02  0.7816164E-02  0.1320468E+00
        -11   -1    0    0    0    0  0.00000000000E+00  0.00000000000E+00  0.45593999997E+02  0.45594000000E+02  0.51100000000E-03 0. -1.
         11   -1    0    0    0    0 -0.00000000000E+00 -0.00000000000E+00 -0.45593999997E+02  0.45594000000E+02  0.51100000000E-03 0.  1.
    9900012    2    1    2    0    0  0.24416818308E+02 -0.32533368554E+02 -0.19352323680E+02  0.46142317437E+02  0.99999970454E+01 0.  0.
         12    1    1    2    0    0 -0.24416818308E+02  0.32533368554E+02  0.19352323680E+02  0.45045682563E+02  0.00000000000E+00 0. -1.
         11    1    3    3    0    0  0.46099038258E+01 -0.50676307492E+01 -0.65819413225E+01  0.95002129727E+01  0.51100000000E-03 0. -1.
        -11    1    3    3    0    0  0.10651926777E+02 -0.17244403673E+02 -0.50147674100E+01  0.20880155520E+02  0.51100000000E-03 0.  1.
        -12    1    3    3    0    0  0.91549877049E+01 -0.10221334132E+02 -0.77556149474E+01  0.15761948944E+02  0.00000000000E+00 0.  1.
</event>
<event>
 7    1  0.1402367E-008  0.4614232E+02  0.7816164E-02  0.1320468E+00
        -11   -1    0    0    0    0  0.00000000000E+00  0.00000000000E+00  0.45593999997E+02  0.45594000000E+02  0.51100000000E-03 0.  1.
         11   -1    0    0    0    0 -0.00000000000E+00 -0.00000000000E+00 -0.45593999997E+02  0.45594000000E+02  0.51100000000E-03 0. -1.
    9900012    2    1    2    0    0  0.13118022067E+02 -0.26688673370E+02  0.33834091358E+02  0.46142317330E+02  0.99999960693E+01 0.  0.
         12    1    1    2    0    0 -0.13118022067E+02  0.26688673370E+02 -0.33834091358E+02  0.45045682670E+02  0.00000000000E+00 0. -1.
         11    1    3    3    0    0  0.54462918700E+00 -0.31156620086E+01  0.48585065851E+01  0.57973319037E+01  0.51100000000E-03 0. -1.
        -11    1    3    3    0    0  0.13002135729E+02 -0.23461571536E+02  0.26067708513E+02  0.37403559989E+02  0.51100000000E-03 0.  1.
        -12    1    3    3    0    0 -0.42874284900E+00 -0.11143982576E+00  0.29078762595E+01  0.29414254377E+01  0.00000000000E+00 0.  1.
</event>
<event>
 7    1  0.1402367E-008  0.4614232E+02  0.7816164E-02  0.1320468E+00
        -11   -1    0    0    0    0  0.00000000000E+00  0.00000000000E+00  0.45593999997E+02  0.45594000000E+02  0.51100000000E-03 0.  1.
         11   -1    0    0    0    0 -0.00000000000E+00 -0.00000000000E+00 -0.45593999997E+02  0.45594000000E+02  0.51100000000E-03 0. -1.
    9900012    2    1    2    0    0  0.13583767154E+02 -0.38136730409E+02  0.19753089831E+02  0.46142317696E+02  0.99999994066E+01 0.  0.
         12    1    1    2    0    0 -0.13583767154E+02  0.38136730409E+02 -0.19753089831E+02  0.45045682304E+02  0.00000000000E+00 0. -1.
         11    1    3    3    0    0  0.86300535207E+01 -0.17388432265E+02  0.62576554120E+01  0.20395922434E+02  0.51100000000E-03 0. -1.
        -11    1    3    3    0    0  0.32858164014E+01 -0.14761404213E+02  0.67086272459E+01  0.16543921045E+02  0.51100000000E-03 0.  1.
         12    1    3    3    0    0  0.16678972320E+01 -0.59868939302E+01  0.67868071727E+01  0.92024742166E+01  0.00000000000E+00 0. -1.
</event>
<event>
 7    1  0.1402367E-008  0.4614232E+02  0.7816164E-02  0.1320468E+00
        -11   -1    0    0    0    0  0.00000000000E+00  0.00000000000E+00  0.45593999997E+02  0.45594000000E+02  0.51100000000E-03 0.  1.
         11   -1    0    0    0    0 -0.00000000000E+00 -0.00000000000E+00 -0.45593999997E+02  0.45594000000E+02  0.51100000000E-03 0. -1.
    9900012    2    1    2    0    0  0.14905221849E+02 -0.33541708692E+02  0.26113245402E+02  0.46142318234E+02  0.10000004309E+02 0.  0.
         12    1    1    2    0    0 -0.14905221849E+02  0.33541708692E+02 -0.26113245402E+02  0.45045681766E+02  0.00000000000E+00 0. -1.
         11    1    3    3    0    0  0.47975547479E+01 -0.41597806837E+01  0.18511225686E+01  0.66141486164E+01  0.51100000000E-03 0. -1.
        -11    1    3    3    0    0  0.68112252225E+01 -0.20656451860E+02  0.18583089158E+02  0.28607918404E+02  0.51100000000E-03 0.  1.
        -12    1    3    3    0    0  0.32964418789E+01 -0.87254761481E+01  0.56790336754E+01  0.10920251213E+02  0.00000000000E+00 0.  1.
</event>
<event>
 7    1  0.1402367E-008  0.4614232E+02  0.7816164E-02  0.1320468E+00
        -11   -1    0    0    0    0  0.00000000000E+00  0.00000000000E+00  0.45593999997E+02  0.45594000000E+02  0.51100000000E-03 0.  1.
         11   -1    0    0    0    0 -0.00000000000E+00 -0.00000000000E+00 -0.45593999997E+02  0.45594000000E+02  0.51100000000E-03 0. -1.
    9900012    2    1    2    0    0 -0.43689077552E+02  0.10201893163E+02  0.40372266063E+01  0.46142319628E+02  0.10000017027E+02 0.  0.
         12    1    1    2    0    0  0.43689077552E+02 -0.10201893163E+02 -0.40372266063E+01  0.45045680372E+02  0.00000000000E+00 0. -1.
         11    1    3    3    0    0 -0.71289365144E+01 -0.16278795447E+01 -0.89233294882E+00  0.73666807988E+01  0.51100000000E-03 0. -1.
        -11    1    3    3    0    0 -0.10229416192E+02  0.26247590515E+01  0.16812361101E+01  0.10693777201E+02  0.51100000000E-03 0.  1.
         12    1    3    3    0    0 -0.26330724846E+02  0.92050136566E+01  0.32483234450E+01  0.28081861629E+02  0.00000000000E+00 0. -1.
</event>
<event>
 7    1  0.1402367E-008  0.4614232E+02  0.7816164E-02  0.1320468E+00
        -11   -1    0    0    0    0  0.00000000000E+00  0.00000000000E+00  0.45593999997E+02  0.45594000000E+02  0.51100000000E-03 0. -1.
         11   -1    0    0    0    0 -0.00000000000E+00 -0.00000000000E+00 -0.45593999997E+02  0.45594000000E+02  0.51100000000E-03 0.  1.
    9900012    2    1    2    0    0  0.43047191007E+02  0.11693510538E+02 -0.62701431908E+01  0.46142317211E+02  0.99999949807E+01 0.  0.
         12    1    1    2    0    0 -0.43047191007E+02 -0.11693510538E+02  0.62701431908E+01  0.45045682789E+02  0.00000000000E+00 0. -1.
         11    1    3    3    0    0  0.14008527766E+01 -0.47318105625E+00 -0.24884002190E+00  0.14994033584E+01  0.51100000000E-03 0. -1.
        -11    1    3    3    0    0  0.36511093141E+02  0.11234378855E+02 -0.23710859555E+01  0.38273923753E+02  0.51100000000E-03 0.  1.
        -12    1    3    3    0    0  0.51352450896E+01  0.93231273990E+00 -0.36502172134E+01  0.63689900990E+01  0.00000000000E+00 0.  1.
</event>
<event>
 7    1  0.1402367E-008  0.4614232E+02  0.7816164E-02  0.1320468E+00
        -11   -1    0    0    0    0  0.00000000000E+00  0.00000000000E+00  0.45593999997E+02  0.45594000000E+02  0.51100000000E-03 0.  1.
         11   -1    0    0    0    0 -0.00000000000E+00 -0.00000000000E+00 -0.45593999997E+02  0.45594000000E+02  0.51100000000E-03 0. -1.
    9900012    2    1    2    0    0 -0.34764908045E+02 -0.13976556136E+02  0.25003409649E+02  0.46142318221E+02  0.10000004197E+02 0.  0.
         12    1    1    2    0    0  0.34764908045E+02  0.13976556136E+02 -0.25003409649E+02  0.45045681779E+02  0.00000000000E+00 0. -1.
         11    1    3    3    0    0 -0.72851270270E+01 -0.53665470279E+01  0.25153876055E+01  0.93914896512E+01  0.51100000000E-03 0. -1.
        -11    1    3    3    0    0 -0.19336384974E+02 -0.42033898769E+01  0.15951924221E+02  0.25417083958E+02  0.51100000000E-03 0.  1.
         12    1    3    3    0    0 -0.81433960442E+01 -0.44066192313E+01  0.65360978228E+01  0.11333744612E+02  0.00000000000E+00 0. -1.
</event>
<event>
 7    1  0.1402367E-008  0.4614231E+02  0.7816164E-02  0.1320468E+00
        -11   -1    0    0    0    0  0.00000000000E+00  0.00000000000E+00  0.45593999997E+02  0.45594000000E+02  0.51100000000E-03 0. -1.
         11   -1    0    0    0    0 -0.00000000000E+00 -0.00000000000E+00 -0.45593999997E+02  0.45594000000E+02  0.51100000000E-03 0.  1.
    9900012    2    1    2    0    0 -0.27414958497E+02  0.35616072640E+02  0.30048620906E+01  0.46142314570E+02  0.99999709036E+01 0.  0.
         12    1    1    2    0    0  0.27414958497E+02 -0.35616072640E+02 -0.30048620906E+01  0.45045685430E+02  0.00000000000E+00 0. -1.
         11    1    3    3    0    0 -0.19091717341E+02  0.18670694367E+02  0.27119623872E+01  0.26841073739E+02  0.51100000000E-03 0.  1.
        -11    1    3    3    0    0 -0.81876667759E+01  0.13574340345E+02 -0.39800867571E+00  0.15857459260E+02  0.51100000000E-03 0. -1.
         12    1    3    3    0    0 -0.13557437949E+00  0.33710379276E+01  0.69090837917E+00  0.34437815712E+01  0.00000000000E+00 0. -1.
</event>
<event>
 7    1  0.1402367E-008  0.4614232E+02  0.7816164E-02  0.1320468E+00
        -11   -1    0    0    0    0  0.00000000000E+00  0.00000000000E+00  0.45593999997E+02  0.45594000000E+02  0.51100000000E-03 0. -1.
         11   -1    0    0    0    0 -0.00000000000E+00 -0.00000000000E+00 -0.45593999997E+02  0.45594000000E+02  0.51100000000E-03 0.  1.
    9900012    2    1    2    0    0  0.17972860665E+02  0.41008525540E+02 -0.49386914448E+01  0.46142316959E+02  0.99999926828E+01 0.  0.
         12    1    1    2    0    0 -0.17972860665E+02 -0.41008525540E+02  0.49386914448E+01  0.45045683041E+02  0.00000000000E+00 0. -1.
         11    1    3    3    0    0 -0.94580913270E+00  0.22348769406E+01 -0.61744670471E+00  0.25040907630E+01  0.51100000000E-03 0. -1.
        -11    1    3    3    0    0  0.17694202403E+02  0.33056524430E+02 -0.46540077206E+01  0.37781985048E+02  0.51100000000E-03 0.  1.
        -12    1    3    3    0    0  0.12244673941E+01  0.57171241703E+01  0.33276298047E+00  0.58562411476E+01  0.00000000000E+00 0.  1.
</event>
<event>
 7    1  0.1502472E-008  0.4614232E+02  0.7816164E-02  0.1320468E+00
        -11   -1    0    0    0    0  0.00000000000E+00  0.00000000000E+00  0.45593999997E+02  0.45594000000E+02  0.51100000000E-03 0. -1.
         11   -1    0    0    0    0 -0.00000000000E+00 -0.00000000000E+00 -0.45593999997E+02  0.45594000000E+02  0.51100000000E-03 0.  1.
    9900012    2    1    2    0    0 -0.33378867886E+01 -0.34953321878E+02 -0.28217676199E+02  0.46142318203E+02  0.10000004030E+02 0.  0.
         12    1    1    2    0    0  0.33378867886E+01  0.34953321878E+02  0.28217676199E+02  0.45045681797E+02  0.00000000000E+00 0. -1.
         11    1    3    3    0    0 -0.27658806656E+00  0.79919196440E-01 -0.10595475870E+01  0.10979660225E+01  0.51100000000E-03 0. -1.
        -11    1    3    3    0    0 -0.35366583617E+01 -0.27374212199E+02 -0.17392521067E+02  0.32624457623E+02  0.51100000000E-03 0.  1.
        -12    1    3    3    0    0  0.47535963965E+00 -0.76590288751E+01 -0.97656075445E+01  0.12419894557E+02  0.00000000000E+00 0.  1.
</event>
<event>
 7    1  0.1402367E-008  0.4614232E+02  0.7816164E-02  0.1320468E+00
        -11   -1    0    0    0    0  0.00000000000E+00  0.00000000000E+00  0.45593999997E+02  0.45594000000E+02  0.51100000000E-03 0. -1.
         11   -1    0    0    0    0 -0.00000000000E+00 -0.00000000000E+00 -0.45593999997E+02  0.45594000000E+02  0.51100000000E-03 0.  1.
    9900012    2    1    2    0    0 -0.30200506586E+02  0.11023001454E+02 -0.31552121587E+02  0.46142317235E+02  0.99999952010E+01 0.  0.
         12    1    1    2    0    0  0.30200506586E+02 -0.11023001454E+02  0.31552121587E+02  0.45045682765E+02  0.00000000000E+00 0. -1.
         11    1    3    3    0    0 -0.11163300759E+01 -0.63598891139E+00 -0.18450173276E+01  0.22482802170E+01  0.51100000000E-03 0. -1.
        -11    1    3    3    0    0 -0.21915953931E+02  0.12091460744E+02 -0.24486111865E+02  0.35015455647E+02  0.51100000000E-03 0.  1.
        -12    1    3    3    0    0 -0.71682225797E+01 -0.43247037862E+00 -0.52209923945E+01  0.88785813711E+01  0.00000000000E+00 0.  1.
</event>
<event>
 7    1  0.1402367E-008  0.4614232E+02  0.7816164E-02  0.1320468E+00
        -11   -1    0    0    0    0  0.00000000000E+00  0.00000000000E+00  0.45593999997E+02  0.45594000000E+02  0.51100000000E-03 0. -1.
         11   -1    0    0    0    0 -0.00000000000E+00 -0.00000000000E+00 -0.45593999997E+02  0.45594000000E+02  0.51100000000E-03 0.  1.
    9900012    2    1    2    0    0 -0.41925542133E+02  0.12135596719E+02  0.11139561237E+02  0.46142316350E+02  0.99999871349E+01 0.  0.
         12    1    1    2    0    0  0.41925542133E+02 -0.12135596719E+02 -0.11139561237E+02  0.45045683650E+02  0.00000000000E+00 0. -1.
         11    1    3    3    0    0 -0.83623265092E+01  0.38511825316E+01  0.58904251992E+01  0.10929648705E+02  0.51100000000E-03 0. -1.
        -11    1    3    3    0    0 -0.23160282881E+02  0.67595206319E+01  0.20061912247E+01  0.24209804332E+02  0.51100000000E-03 0.  1.
         12    1    3    3    0    0 -0.10402932744E+02  0.15248935554E+01  0.32429448136E+01  0.11002863313E+02  0.00000000000E+00 0. -1.
</event>
<event>
 7    1  0.1402367E-008  0.4614232E+02  0.7816164E-02  0.1320468E+00
        -11   -1    0    0    0    0  0.00000000000E+00  0.00000000000E+00  0.45593999997E+02  0.45594000000E+02  0.51100000000E-03 0.  1.
         11   -1    0    0    0    0 -0.00000000000E+00 -0.00000000000E+00 -0.45593999997E+02  0.45594000000E+02  0.51100000000E-03 0. -1.
    9900012    2    1    2    0    0 -0.17582609093E+02  0.41451066475E+02  0.13320864540E+01  0.46142317534E+02  0.99999979318E+01 0.  0.
         12    1    1    2    0    0  0.17582609093E+02 -0.41451066475E+02 -0.13320864540E+01  0.45045682466E+02  0.00000000000E+00 0. -1.
         11    1    3    3    0    0 -0.34190489472E+01  0.10522279111E+02 -0.21678368165E+01  0.11274208181E+02  0.51100000000E-03 0. -1.
        -11    1    3    3    0    0 -0.36072862650E+01  0.91878205392E+01  0.41101742045E+01  0.10692150986E+02  0.51100000000E-03 0.  1.
        -12    1    3    3    0    0 -0.10556273881E+02  0.21740966826E+02 -0.61025093396E+00  0.24175958367E+02  0.00000000000E+00 0.  1.
</event>
<event>
 7    1  0.1402367E-008  0.4614232E+02  0.7816164E-02  0.1320468E+00
        -11   -1    0    0    0    0  0.00000000000E+00  0.00000000000E+00  0.45593999997E+02  0.45594000000E+02  0.51100000000E-03 0.  1.
         11   -1    0    0    0    0 -0.00000000000E+00 -0.00000000000E+00 -0.45593999997E+02  0.45594000000E+02  0.51100000000E-03 0. -1.
    9900012    2    1    2    0    0  0.14015997421E+02 -0.29010764009E+02  0.31480800926E+02  0.46142318308E+02  0.10000004988E+02 0.  0.
         12    1    1    2    0    0 -0.14015997421E+02  0.29010764009E+02 -0.31480800926E+02  0.45045681692E+02  0.00000000000E+00 0. -1.
         11    1    3    3    0    0  0.61074741063E+00 -0.42569565207E+00  0.13521126658E+01  0.15435148558E+01  0.51100000000E-03 0. -1.
        -11    1    3    3    0    0 -0.35017104992E+00 -0.69573172872E+01  0.90029738622E+01  0.11383339678E+02  0.51100000000E-03 0.  1.
        -12    1    3    3    0    0  0.13755421061E+02 -0.21627751070E+02  0.21125714398E+02  0.33215463774E+02  0.00000000000E+00 0.  1.
</event>
<event>
 7    1  0.1402367E-008  0.4614232E+02  0.7816164E-02  0.1320468E+00
        -11   -1    0    0    0    0  0.00000000000E+00  0.00000000000E+00  0.45593999997E+02  0.45594000000E+02  0.51100000000E-03 0.  1.
         11   -1    0    0    0    0 -0.00000000000E+00 -0.00000000000E+00 -0.45593999997E+02  0.45594000000E+02  0.51100000000E-03 0. -1.
    9900012    2    1    2    0    0 -0.81153443745E+00 -0.16532043771E+02  0.41894468635E+02  0.46142316948E+02  0.99999925890E+01 0.  0.
         12    1    1    2    0    0  0.81153443745E+00  0.16532043771E+02 -0.41894468635E+02  0.45045683052E+02  0.00000000000E+00 0. -1.
         11    1    3    3    0    0 -0.36415240343E+00  0.81738867440E+00  0.48088414743E+01  0.48913891487E+01  0.51100000000E-03 0. -1.
        -11    1    3    3    0    0 -0.13773681143E+01 -0.96040952219E+01  0.25503061175E+02  0.27286295416E+02  0.51100000000E-03 0.  1.
         12    1    3    3    0    0  0.92998608024E+00 -0.77453372230E+01  0.11582565986E+02  0.13964632384E+02  0.00000000000E+00 0. -1.
</event>
<event>
 7    1  0.1402367E-008  0.4614232E+02  0.7816164E-02  0.1320468E+00
        -11   -1    0    0    0    0  0.00000000000E+00  0.00000000000E+00  0.45593999997E+02  0.45594000000E+02  0.51100000000E-03 0. -1.
         11   -1    0    0    0    0 -0.00000000000E+00 -0.00000000000E+00 -0.45593999997E+02  0.45594000000E+02  0.51100000000E-03 0.  1.
    9900012    2    1    2    0    0  0.32552603900E+02  0.28249852897E+02 -0.13091496329E+02  0.46142317793E+02  0.10000000294E+02 0.  0.
         12    1    1    2    0    0 -0.32552603900E+02 -0.28249852897E+02  0.13091496329E+02  0.45045682207E+02  0.00000000000E+00 0. -1.
         11    1    3    3    0    0  0.76549807883E+01  0.71713766978E+01 -0.58129926685E+01  0.11992425052E+02  0.51100000000E-03 0. -1.
        -11    1    3    3    0    0  0.20153511521E+02  0.16688619528E+02 -0.28637132566E+01  0.26322517020E+02  0.51100000000E-03 0.  1.
        -12    1    3    3    0    0  0.47441115903E+01  0.43898566710E+01 -0.44147904035E+01  0.78273757212E+01  0.00000000000E+00 0.  1.
</event>
<event>
 7    1  0.1402367E-008  0.4614232E+02  0.7816164E-02  0.1320468E+00
        -11   -1    0    0    0    0  0.00000000000E+00  0.00000000000E+00  0.45593999997E+02  0.45594000000E+02  0.51100000000E-03 0.  1.
         11   -1    0    0    0    0 -0.00000000000E+00 -0.00000000000E+00 -0.45593999997E+02  0.45594000000E+02  0.51100000000E-03 0. -1.
    9900012    2    1    2    0    0  0.91749396082E+01  0.43135522692E+02  0.91793568741E+01  0.46142318438E+02  0.10000006173E+02 0.  0.
         12    1    1    2    0    0 -0.91749396082E+01 -0.43135522692E+02 -0.91793568741E+01  0.45045681562E+02  0.00000000000E+00 0. -1.
         11    1    3    3    0    0  0.11945956916E+01  0.46454843049E+01  0.24481572384E+01  0.53852629851E+01  0.51100000000E-03 0. -1.
        -11    1    3    3    0    0  0.73030522094E+01  0.15654582034E+02  0.41534498111E+01  0.17766588188E+02  0.51100000000E-03 0.  1.
        -12    1    3    3    0    0  0.67729170709E+00  0.22835456353E+02  0.25777498246E+01  0.22990467265E+02  0.00000000000E+00 0.  1.
</event>
<event>
 7    1  0.1402367E-008  0.4614232E+02  0.7816164E-02  0.1320468E+00
        -11   -1    0    0    0    0  0.00000000000E+00  0.00000000000E+00  0.45593999997E+02  0.45594000000E+02  0.51100000000E-03 0.  1.
         11   -1    0    0    0    0 -0.00000000000E+00 -0.00000000000E+00 -0.45593999997E+02  0.45594000000E+02  0.51100000000E-03 0. -1.
    9900012    2    1    2    0    0 -0.14879353197E+02  0.32390787942E+02  0.27541882007E+02  0.46142316971E+02  0.99999927916E+01 0.  0.
         12    1    1    2    0    0  0.14879353197E+02 -0.32390787942E+02 -0.27541882007E+02  0.45045683029E+02  0.00000000000E+00 0. -1.
         11    1    3    3    0    0 -0.74677306700E+01  0.23379905758E+02  0.15266405443E+02  0.28904154200E+02  0.51100000000E-03 0.  1.
        -11    1    3    3    0    0 -0.41959437350E+01  0.67048589057E+01  0.97032708808E+01  0.12518567922E+02  0.51100000000E-03 0. -1.
        -12    1    3    3    0    0 -0.32156787922E+01  0.23060232786E+01  0.25722056833E+01  0.47195948484E+01  0.00000000000E+00 0.  1.
</event>
<event>
 7    1  0.1402367E-008  0.4614232E+02  0.7816164E-02  0.1320468E+00
        -11   -1    0    0    0    0  0.00000000000E+00  0.00000000000E+00  0.45593999997E+02  0.45594000000E+02  0.51100000000E-03 0.  1.
         11   -1    0    0    0    0 -0.00000000000E+00 -0.00000000000E+00 -0.45593999997E+02  0.45594000000E+02  0.51100000000E-03 0. -1.
    9900012    2    1    2    0    0  0.81660552475E+01 -0.41500958705E+02  0.15495143818E+02  0.46142317481E+02  0.99999974427E+01 0.  0.
         12    1    1    2    0    0 -0.81660552475E+01  0.41500958705E+02 -0.15495143818E+02  0.45045682519E+02  0.00000000000E+00 0. -1.
         11    1    3    3    0    0  0.99111850834E-01  0.68288262312E-01 -0.43759530959E-01  0.12806874488E+00  0.51100000000E-03 0. -1.
        -11    1    3    3    0    0 -0.10371965408E+01 -0.61670154033E+01  0.48962148288E+01  0.79423406852E+01  0.51100000000E-03 0.  1.
        -12    1    3    3    0    0  0.91041399376E+01 -0.35402231564E+02  0.10642688520E+02  0.38071908051E+02  0.00000000000E+00 0.  1.
</event>
<event>
 7    1  0.1402367E-008  0.4614232E+02  0.7816164E-02  0.1320468E+00
        -11   -1    0    0    0    0  0.00000000000E+00  0.00000000000E+00  0.45593999997E+02  0.45594000000E+02  0.51100000000E-03 0.  1.
         11   -1    0    0    0    0 -0.00000000000E+00 -0.00000000000E+00 -0.45593999997E+02  0.45594000000E+02  0.51100000000E-03 0. -1.
    9900012    2    1    2    0    0  0.10988690549E+02  0.23159959119E+02  0.37040228597E+02  0.46142316956E+02  0.99999926580E+01 0.  0.
         12    1    1    2    0    0 -0.10988690549E+02 -0.23159959119E+02 -0.37040228597E+02  0.45045683044E+02  0.00000000000E+00 0. -1.
         11    1    3    3    0    0  0.82463528557E+01  0.19269672338E+02  0.23928982478E+02  0.31810671324E+02  0.51100000000E-03 0. -1.
        -11    1    3    3    0    0  0.35601607745E+00  0.23812582268E+01  0.91868653139E+01  0.94971381346E+01  0.51100000000E-03 0.  1.
         12    1    3    3    0    0  0.23863216160E+01  0.15090285547E+01  0.39243808052E+01  0.48345074969E+01  0.00000000000E+00 0. -1.
</event>
<event>
 7    1  0.1402367E-008  0.4614232E+02  0.7816164E-02  0.1320468E+00
        -11   -1    0    0    0    0  0.00000000000E+00  0.00000000000E+00  0.45593999997E+02  0.45594000000E+02  0.51100000000E-03 0.  1.
         11   -1    0    0    0    0 -0.00000000000E+00 -0.00000000000E+00 -0.45593999997E+02  0.45594000000E+02  0.51100000000E-03 0. -1.
    9900012    2    1    2    0    0  0.26769338972E+02 -0.34895606035E+02  0.97371781332E+01  0.46142317993E+02  0.10000002111E+02 0.  0.
         12    1    1    2    0    0 -0.26769338972E+02  0.34895606035E+02 -0.97371781332E+01  0.45045682007E+02  0.00000000000E+00 0. -1.
         11    1    3    3    0    0  0.65797056668E+01 -0.49916098690E+01  0.62508139767E+00  0.82824768494E+01  0.51100000000E-03 0. -1.
        -11    1    3    3    0    0  0.16505906819E+02 -0.20848225172E+02  0.42069546660E+01  0.26921959820E+02  0.51100000000E-03 0.  1.
        -12    1    3    3    0    0  0.36837264862E+01 -0.90557709938E+01  0.49051420695E+01  0.10937881323E+02  0.00000000000E+00 0.  1.
</event>
<event>
 7    1  0.1402367E-008  0.4614232E+02  0.7816164E-02  0.1320468E+00
        -11   -1    0    0    0    0  0.00000000000E+00  0.00000000000E+00  0.45593999997E+02  0.45594000000E+02  0.51100000000E-03 0.  1.
         11   -1    0    0    0    0 -0.00000000000E+00 -0.00000000000E+00 -0.45593999997E+02  0.45594000000E+02  0.51100000000E-03 0. -1.
    9900012    2    1    2    0    0 -0.35834945849E+02  0.21818305582E+02  0.16399136678E+02  0.46142317785E+02  0.10000000214E+02 0.  0.
         12    1    1    2    0    0  0.35834945849E+02 -0.21818305582E+02 -0.16399136678E+02  0.45045682215E+02  0.00000000000E+00 0. -1.
         11    1    3    3    0    0 -0.13791245302E+01  0.23463002905E+01  0.20397677844E-01  0.27216770288E+01  0.51100000000E-03 0. -1.
        -11    1    3    3    0    0 -0.11787056953E+02  0.10619678961E+02  0.59531537901E+01  0.16945569721E+02  0.51100000000E-03 0.  1.
        -12    1    3    3    0    0 -0.22668764366E+02  0.88523263306E+01  0.10425585210E+02  0.26475071035E+02  0.00000000000E+00 0.  1.
</event>
<event>
 7    1  0.1402367E-008  0.4614232E+02  0.7816164E-02  0.1320468E+00
        -11   -1    0    0    0    0  0.00000000000E+00  0.00000000000E+00  0.45593999997E+02  0.45594000000E+02  0.51100000000E-03 0. -1.
         11   -1    0    0    0    0 -0.00000000000E+00 -0.00000000000E+00 -0.45593999997E+02  0.45594000000E+02  0.51100000000E-03 0.  1.
    9900012    2    1    2    0    0 -0.20545944711E+01 -0.44089835399E+02 -0.89988002659E+01  0.46142319295E+02  0.10000013985E+02 0.  0.
         12    1    1    2    0    0  0.20545944711E+01  0.44089835399E+02  0.89988002659E+01  0.45045680705E+02  0.00000000000E+00 0. -1.
         11    1    3    3    0    0  0.66259593204E+00 -0.13835355634E+02 -0.56590966053E+01  0.14962669332E+02  0.51100000000E-03 0. -1.
        -11    1    3    3    0    0 -0.36946815720E+01 -0.28181427981E+02 -0.19281828958E+01  0.28487917518E+02  0.51100000000E-03 0.  1.
        -12    1    3    3    0    0  0.97749116883E+00 -0.20730517847E+01 -0.14115207649E+01  0.26917324452E+01  0.00000000000E+00 0.  1.
</event>
<event>
 7    1  0.1402367E-008  0.4614232E+02  0.7816164E-02  0.1320468E+00
        -11   -1    0    0    0    0  0.00000000000E+00  0.00000000000E+00  0.45593999997E+02  0.45594000000E+02  0.51100000000E-03 0.  1.
         11   -1    0    0    0    0 -0.00000000000E+00 -0.00000000000E+00 -0.45593999997E+02  0.45594000000E+02  0.51100000000E-03 0. -1.
    9900012    2    1    2    0    0  0.37779286522E+02  0.22780821672E+02  0.91034657473E+01  0.46142318579E+02  0.10000007454E+02 0.  0.
         12    1    1    2    0    0 -0.37779286522E+02 -0.22780821672E+02 -0.91034657473E+01  0.45045681421E+02  0.00000000000E+00 0. -1.
         11    1    3    3    0    0  0.22665846232E+02  0.15012021540E+02  0.26831867871E+01  0.27318507787E+02  0.51100000000E-03 0. -1.
        -11    1    3    3    0    0  0.14923910270E+02  0.81811431724E+01  0.67001844879E+01  0.18290617097E+02  0.51100000000E-03 0.  1.
         12    1    3    3    0    0  0.18953001952E+00 -0.41234304045E+00 -0.27990552773E+00  0.53319369441E+00  0.00000000000E+00 0. -1.
</event>
<event>
 7    1  0.1402367E-008  0.4614232E+02  0.7816164E-02  0.1320468E+00
        -11   -1    0    0    0    0  0.00000000000E+00  0.00000000000E+00  0.45593999997E+02  0.45594000000E+02  0.51100000000E-03 0.  1.
         11   -1    0    0    0    0 -0.00000000000E+00 -0.00000000000E+00 -0.45593999997E+02  0.45594000000E+02  0.51100000000E-03 0. -1.
    9900012    2    1    2    0    0  0.23004932213E+02 -0.23849542380E+02  0.30513699186E+02  0.46142318566E+02  0.10000007338E+02 0.  0.
         12    1    1    2    0    0 -0.23004932213E+02  0.23849542380E+02 -0.30513699186E+02  0.45045681434E+02  0.00000000000E+00 0. -1.
         11    1    3    3    0    0  0.64011365163E+00  0.15900000037E+00  0.28257877862E+01  0.29017414359E+01  0.51100000000E-03 0. -1.
        -11    1    3    3    0    0  0.56941822917E+01 -0.42891049717E+01  0.83572922762E+01  0.10984737952E+02  0.51100000000E-03 0.  1.
         12    1    3    3    0    0  0.16670636270E+02 -0.19719437409E+02  0.19330619124E+02  0.32255839178E+02  0.00000000000E+00 0. -1.
</event>
<event>
 7    1  0.1402367E-008  0.4614232E+02  0.7816164E-02  0.1320468E+00
        -11   -1    0    0    0    0  0.00000000000E+00  0.00000000000E+00  0.45593999997E+02  0.45594000000E+02  0.51100000000E-03 0.  1.
         11   -1    0    0    0    0 -0.00000000000E+00 -0.00000000000E+00 -0.45593999997E+02  0.45594000000E+02  0.51100000000E-03 0. -1.
    9900012    2    1    2    0    0 -0.13892086773E+01 -0.44596783820E+02 -0.61895254667E+01  0.46142320370E+02  0.10000023791E+02 0.  0.
         12    1    1    2    0    0  0.13892086773E+01  0.44596783820E+02  0.61895254667E+01  0.45045679630E+02  0.00000000000E+00 0. -1.
         11    1    3    3    0    0 -0.32667454409E-01 -0.32259993229E+01 -0.27171687668E+01  0.42179550926E+01  0.51100000000E-03 0. -1.
        -11    1    3    3    0    0 -0.47916077185E+00 -0.12058806381E+02 -0.36177124824E+01  0.12598898771E+02  0.51100000000E-03 0.  1.
         12    1    3    3    0    0 -0.87738045101E+00 -0.29311978116E+02  0.14535578256E+00  0.29325466507E+02  0.00000000000E+00 0. -1.
</event>
<event>
 7    1  0.1402367E-008  0.4614232E+02  0.7816164E-02  0.1320468E+00
        -11   -1    0    0    0    0  0.00000000000E+00  0.00000000000E+00  0.45593999997E+02  0.45594000000E+02  0.51100000000E-03 0. -1.
         11   -1    0    0    0    0 -0.00000000000E+00 -0.00000000000E+00 -0.45593999997E+02  0.45594000000E+02  0.51100000000E-03 0.  1.
    9900012    2    1    2    0    0  0.37283028670E+02  0.21031199561E+02 -0.14027760244E+02  0.46142316086E+02  0.99999847292E+01 0.  0.
         12    1    1    2    0    0 -0.37283028670E+02 -0.21031199561E+02  0.14027760244E+02  0.45045683914E+02  0.00000000000E+00 0. -1.
         11    1    3    3    0    0  0.81951864919E+01  0.68147542412E+01 -0.60053089134E+01  0.12233793051E+02  0.51100000000E-03 0. -1.
        -11    1    3    3    0    0  0.22022056529E+02  0.77971401723E+01 -0.49538159254E+01  0.23881094219E+02  0.51100000000E-03 0.  1.
        -12    1    3    3    0    0  0.70657856491E+01  0.64193051473E+01 -0.30686354057E+01  0.10027428816E+02  0.00000000000E+00 0.  1.
</event>
<event>
 7    1  0.1402367E-008  0.4614232E+02  0.7816164E-02  0.1320468E+00
        -11   -1    0    0    0    0  0.00000000000E+00  0.00000000000E+00  0.45593999997E+02  0.45594000000E+02  0.51100000000E-03 0.  1.
         11   -1    0    0    0    0 -0.00000000000E+00 -0.00000000000E+00 -0.45593999997E+02  0.45594000000E+02  0.51100000000E-03 0. -1.
    9900012    2    1    2    0    0 -0.16841888376E+02  0.94432899401E+01  0.40697523032E+02  0.46142319742E+02  0.10000018066E+02 0.  0.
         12    1    1    2    0    0  0.16841888376E+02 -0.94432899401E+01 -0.40697523032E+02  0.45045680258E+02  0.00000000000E+00 0. -1.
         11    1    3    3    0    0 -0.48749535272E+01  0.13960205275E+01  0.39820124732E+01  0.64475164834E+01  0.51100000000E-03 0. -1.
        -11    1    3    3    0    0 -0.51218689071E+01  0.22654230131E+01  0.19483753097E+02  0.20272698822E+02  0.51100000000E-03 0.  1.
        -12    1    3    3    0    0 -0.68450659419E+01  0.57818463996E+01  0.17231757461E+02  0.19422104437E+02  0.00000000000E+00 0.  1.
</event>
<event>
 7    1  0.1402367E-008  0.4614232E+02  0.7816164E-02  0.1320468E+00
        -11   -1    0    0    0    0  0.00000000000E+00  0.00000000000E+00  0.45593999997E+02  0.45594000000E+02  0.51100000000E-03 0.  1.
         11   -1    0    0    0    0 -0.00000000000E+00 -0.00000000000E+00 -0.45593999997E+02  0.45594000000E+02  0.51100000000E-03 0. -1.
    9900012    2    1    2    0    0  0.33876133871E+02 -0.10129131588E+02  0.27909169153E+02  0.46142317903E+02  0.10000001293E+02 0.  0.
         12    1    1    2    0    0 -0.33876133871E+02  0.10129131588E+02 -0.27909169153E+02  0.45045682097E+02  0.00000000000E+00 0. -1.
         11    1    3    3    0    0  0.28457592787E+01 -0.83844358155E+00 -0.46679362137E+00  0.30032032994E+01  0.51100000000E-03 0. -1.
        -11    1    3    3    0    0  0.15862875265E+02 -0.34634663465E+01  0.14659754949E+02  0.21875438881E+02  0.51100000000E-03 0.  1.
         12    1    3    3    0    0  0.15167499327E+02 -0.58272216603E+01  0.13716207826E+02  0.21263675722E+02  0.00000000000E+00 0. -1.
</event>
<event>
 7    1  0.1402367E-008  0.4614232E+02  0.7816164E-02  0.1320468E+00
        -11   -1    0    0    0    0  0.00000000000E+00  0.00000000000E+00  0.45593999997E+02  0.45594000000E+02  0.51100000000E-03 0.  1.
         11   -1    0    0    0    0 -0.00000000000E+00 -0.00000000000E+00 -0.45593999997E+02  0.45594000000E+02  0.51100000000E-03 0. -1.
    9900012    2    1    2    0    0 -0.44987627551E+01 -0.44814404898E+02  0.73738198835E+00  0.46142317800E+02  0.10000000351E+02 0.  0.
         12    1    1    2    0    0  0.44987627551E+01  0.44814404898E+02 -0.73738198835E+00  0.45045682200E+02  0.00000000000E+00 0. -1.
         11    1    3    3    0    0  0.12682987225E+01 -0.22297183304E+02  0.66072143551E+00  0.22342997069E+02  0.51100000000E-03 0. -1.
        -11    1    3    3    0    0 -0.12476540762E+01 -0.11889613775E+02  0.19085759282E+01  0.12106288397E+02  0.51100000000E-03 0.  1.
        -12    1    3    3    0    0 -0.45194074014E+01 -0.10627607819E+02 -0.18319153753E+01  0.11693032334E+02  0.00000000000E+00 0.  1.
</event>
<event>
 7    1  0.1402367E-008  0.4614232E+02  0.7816164E-02  0.1320468E+00
        -11   -1    0    0    0    0  0.00000000000E+00  0.00000000000E+00  0.45593999997E+02  0.45594000000E+02  0.51100000000E-03 0.  1.
         11   -1    0    0    0    0 -0.00000000000E+00 -0.00000000000E+00 -0.45593999997E+02  0.45594000000E+02  0.51100000000E-03 0. -1.
    9900012    2    1    2    0    0  0.29708153852E+02  0.33113917075E+02 -0.70715908334E+01  0.46142319782E+02  0.10000018432E+02 0.  0.
         12    1    1    2    0    0 -0.29708153852E+02 -0.33113917075E+02  0.70715908334E+01  0.45045680218E+02  0.00000000000E+00 0. -1.
         11    1    3    3    0    0  0.23473129674E+02  0.19727555933E+02 -0.56324592139E+01  0.31175132346E+02  0.51100000000E-03 0. -1.
        -11    1    3    3    0    0  0.29698192682E+01  0.42643877251E+01 -0.21092764718E+00  0.52008960660E+01  0.51100000000E-03 0.  1.
         12    1    3    3    0    0  0.32652049103E+01  0.91219734172E+01 -0.12282039723E+01  0.97662913702E+01  0.00000000000E+00 0. -1.
</event>
<event>
 7    1  0.1402367E-008  0.4614232E+02  0.7816164E-02  0.1320468E+00
        -11   -1    0    0    0    0  0.00000000000E+00  0.00000000000E+00  0.45593999997E+02  0.45594000000E+02  0.51100000000E-03 0. -1.
         11   -1    0    0    0    0 -0.00000000000E+00 -0.00000000000E+00 -0.45593999997E+02  0.45594000000E+02  0.51100000000E-03 0.  1.
    9900012    2    1    2    0    0 -0.75950199274E+01  0.16111984347E+02 -0.41374305034E+02  0.46142317806E+02  0.10000000406E+02 0.  0.
         12    1    1    2    0    0  0.75950199274E+01 -0.16111984347E+02  0.41374305034E+02  0.45045682194E+02  0.00000000000E+00 0. -1.
         11    1    3    3    0    0 -0.44123346501E+01  0.83938899439E+01 -0.13718913524E+02  0.16677370117E+02  0.51100000000E-03 0. -1.
        -11    1    3    3    0    0 -0.18744491280E+01  0.68738171484E+01 -0.26708798690E+02  0.27642772102E+02  0.51100000000E-03 0.  1.
        -12    1    3    3    0    0 -0.13082361494E+01  0.84427725510E+00 -0.94659281933E+00  0.18221755875E+01  0.00000000000E+00 0.  1.
</event>
<event>
 7    1  0.1402367E-008  0.4614231E+02  0.7816164E-02  0.1320468E+00
        -11   -1    0    0    0    0  0.00000000000E+00  0.00000000000E+00  0.45593999997E+02  0.45594000000E+02  0.51100000000E-03 0.  1.
         11   -1    0    0    0    0 -0.00000000000E+00 -0.00000000000E+00 -0.45593999997E+02  0.45594000000E+02  0.51100000000E-03 0. -1.
    9900012    2    1    2    0    0 -0.30237294776E+02 -0.33200478806E+02  0.35423224781E+01  0.46142313893E+02  0.99999647292E+01 0.  0.
         12    1    1    2    0    0  0.30237294776E+02  0.33200478806E+02 -0.35423224781E+01  0.45045686107E+02  0.00000000000E+00 0. -1.
         11    1    3    3    0    0 -0.14360747811E+01 -0.37360350524E+01 -0.21508384409E+01  0.45438282262E+01  0.51100000000E-03 0. -1.
        -11    1    3    3    0    0 -0.22289488555E+02 -0.22673475309E+02  0.46295304578E+01  0.32130053457E+02  0.51100000000E-03 0.  1.
         12    1    3    3    0    0 -0.65117314400E+01 -0.67909684439E+01  0.10636304612E+01  0.94684322098E+01  0.00000000000E+00 0. -1.
</event>
<event>
 7    1  0.1402367E-008  0.4614232E+02  0.7816164E-02  0.1320468E+00
        -11   -1    0    0    0    0  0.00000000000E+00  0.00000000000E+00  0.45593999997E+02  0.45594000000E+02  0.51100000000E-03 0. -1.
         11   -1    0    0    0    0 -0.00000000000E+00 -0.00000000000E+00 -0.45593999997E+02  0.45594000000E+02  0.51100000000E-03 0.  1.
    9900012    2    1    2    0    0 -0.98026764844E+01 -0.19423846213E+02 -0.39442809768E+02  0.46142317517E+02  0.99999977779E+01 0.  0.
         12    1    1    2    0    0  0.98026764844E+01  0.19423846213E+02  0.39442809768E+02  0.45045682483E+02  0.00000000000E+00 0. -1.
         11    1    3    3    0    0 -0.64037911001E-01 -0.44398993241E+01 -0.45539471121E+01  0.63604434926E+01  0.51100000000E-03 0. -1.
        -11    1    3    3    0    0 -0.55068947652E+01 -0.42049613340E+01 -0.18153159048E+02  0.19430511405E+02  0.51100000000E-03 0.  1.
        -12    1    3    3    0    0 -0.42317438082E+01 -0.10778985555E+02 -0.16735703608E+02  0.20351362620E+02  0.00000000000E+00 0.  1.
</event>
<event>
 7    1  0.1402367E-008  0.4614232E+02  0.7816164E-02  0.1320468E+00
        -11   -1    0    0    0    0  0.00000000000E+00  0.00000000000E+00  0.45593999997E+02  0.45594000000E+02  0.51100000000E-03 0.  1.
         11   -1    0    0    0    0 -0.00000000000E+00 -0.00000000000E+00 -0.45593999997E+02  0.45594000000E+02  0.51100000000E-03 0. -1.
    9900012    2    1    2    0    0 -0.25858631167E+02  0.22645299533E+02  0.29114174683E+02  0.46142316918E+02  0.99999923154E+01 0.  0.
         12    1    1    2    0    0  0.25858631167E+02 -0.22645299533E+02 -0.29114174683E+02  0.45045683082E+02  0.00000000000E+00 0. -1.
         11    1    3    3    0    0 -0.97057456260E+01  0.95394946663E+01  0.79536330516E+01  0.15762732492E+02  0.51100000000E-03 0. -1.
        -11    1    3    3    0    0 -0.55596540590E+01  0.21636966984E+01  0.29980722725E+01  0.66768086891E+01  0.51100000000E-03 0.  1.
         12    1    3    3    0    0 -0.10593231482E+02  0.10942108169E+02  0.18162469359E+02  0.23702775737E+02  0.00000000000E+00 0. -1.
</event>
<event>
 7    1  0.1402367E-008  0.4614232E+02  0.7816164E-02  0.1320468E+00
        -11   -1    0    0    0    0  0.00000000000E+00  0.00000000000E+00  0.45593999997E+02  0.45594000000E+02  0.51100000000E-03 0.  1.
         11   -1    0    0    0    0 -0.00000000000E+00 -0.00000000000E+00 -0.45593999997E+02  0.45594000000E+02  0.51100000000E-03 0. -1.
    9900012    2    1    2    0    0  0.19045047842E+02 -0.17939417837E+02  0.36668472986E+02  0.46142317957E+02  0.10000001784E+02 0.  0.
         12    1    1    2    0    0 -0.19045047842E+02  0.17939417837E+02 -0.36668472986E+02  0.45045682043E+02  0.00000000000E+00 0. -1.
         11    1    3    3    0    0  0.82014914812E+01 -0.11412139945E+02  0.18263079358E+02  0.23044337017E+02  0.51100000000E-03 0. -1.
        -11    1    3    3    0    0  0.17075190754E+01 -0.41682443343E+01  0.54460509953E+01  0.70674856864E+01  0.51100000000E-03 0.  1.
         12    1    3    3    0    0  0.91360372854E+01 -0.23590335575E+01  0.12959342632E+02  0.16030495253E+02  0.00000000000E+00 0. -1.
</event>
<event>
 7    1  0.1402367E-008  0.4614232E+02  0.7816164E-02  0.1320468E+00
        -11   -1    0    0    0    0  0.00000000000E+00  0.00000000000E+00  0.45593999997E+02  0.45594000000E+02  0.51100000000E-03 0.  1.
         11   -1    0    0    0    0 -0.00000000000E+00 -0.00000000000E+00 -0.45593999997E+02  0.45594000000E+02  0.51100000000E-03 0. -1.
    9900012    2    1    2    0    0 -0.31657074339E+02 -0.26328563922E+02  0.18268822262E+02  0.46142317624E+02  0.99999987474E+01 0.  0.
         12    1    1    2    0    0  0.31657074339E+02  0.26328563922E+02 -0.18268822262E+02  0.45045682376E+02  0.00000000000E+00 0. -1.
         11    1    3    3    0    0 -0.88188114906E-01 -0.76019395245E+00  0.57170297463E+00  0.95525731679E+00  0.51100000000E-03 0. -1.
        -11    1    3    3    0    0 -0.16583768003E+02 -0.11823246889E+02  0.13469470642E+02  0.24417968134E+02  0.51100000000E-03 0.  1.
        -12    1    3    3    0    0 -0.14985118221E+02 -0.13745123081E+02  0.42276486452E+01  0.20769092173E+02  0.00000000000E+00 0.  1.
</event>
<event>
 7    1  0.1402367E-008  0.4614232E+02  0.7816164E-02  0.1320468E+00
        -11   -1    0    0    0    0  0.00000000000E+00  0.00000000000E+00  0.45593999997E+02  0.45594000000E+02  0.51100000000E-03 0. -1.
         11   -1    0    0    0    0 -0.00000000000E+00 -0.00000000000E+00 -0.45593999997E+02  0.45594000000E+02  0.51100000000E-03 0.  1.
    9900012    2    1    2    0    0 -0.43443501059E+02  0.75225975082E+01 -0.92296395298E+01  0.46142317594E+02  0.99999984774E+01 0.  0.
         12    1    1    2    0    0  0.43443501059E+02 -0.75225975082E+01  0.92296395298E+01  0.45045682406E+02  0.00000000000E+00 0. -1.
         11    1    3    3    0    0 -0.21434646670E+02 -0.69993491772E+00 -0.34760646651E+01  0.21725952512E+02  0.51100000000E-03 0. -1.
        -11    1    3    3    0    0 -0.17824218483E+02  0.54816062381E+01 -0.53364999300E+01  0.19396623501E+02  0.51100000000E-03 0.  1.
         12    1    3    3    0    0 -0.41846359068E+01  0.27409261877E+01 -0.41707493464E+00  0.50197415810E+01  0.00000000000E+00 0. -1.
</event>
<event>
 7    1  0.1402367E-008  0.4614232E+02  0.7816164E-02  0.1320468E+00
        -11   -1    0    0    0    0  0.00000000000E+00  0.00000000000E+00  0.45593999997E+02  0.45594000000E+02  0.51100000000E-03 0. -1.
         11   -1    0    0    0    0 -0.00000000000E+00 -0.00000000000E+00 -0.45593999997E+02  0.45594000000E+02  0.51100000000E-03 0.  1.
    9900012    2    1    2    0    0 -0.20941822419E+02  0.22054831081E+02 -0.33228572253E+02  0.46142317474E+02  0.99999973843E+01 0.  0.
         12    1    1    2    0    0  0.20941822419E+02 -0.22054831081E+02  0.33228572253E+02  0.45045682526E+02  0.00000000000E+00 0. -1.
         11    1    3    3    0    0 -0.24937595590E+01  0.74690712489E+01 -0.84487331223E+01  0.11549326980E+02  0.51100000000E-03 0. -1.
        -11    1    3    3    0    0 -0.24395285733E+01  0.47063882193E+01 -0.61167581045E+01  0.80942028453E+01  0.51100000000E-03 0.  1.
        -12    1    3    3    0    0 -0.16008534287E+02  0.98793716124E+01 -0.18663081026E+02  0.26498787649E+02  0.00000000000E+00 0.  1.
</event>
<event>
 7    1  0.1402367E-008  0.4614232E+02  0.7816164E-02  0.1320468E+00
        -11   -1    0    0    0    0  0.00000000000E+00  0.00000000000E+00  0.45593999997E+02  0.45594000000E+02  0.51100000000E-03 0.  1.
         11   -1    0    0    0    0 -0.00000000000E+00 -0.00000000000E+00 -0.45593999997E+02  0.45594000000E+02  0.51100000000E-03 0. -1.
    9900012    2    1    2    0    0 -0.43757236368E+02  0.94091655343E+01  0.50877641935E+01  0.46142317908E+02  0.10000001339E+02 0.  0.
         12    1    1    2    0    0  0.43757236368E+02 -0.94091655343E+01 -0.50877641935E+01  0.45045682092E+02  0.00000000000E+00 0. -1.
         11    1    3    3    0    0 -0.20527156726E+02  0.40614498536E+01  0.60796965300E+01  0.21790416434E+02  0.51100000000E-03 0.  1.
        -11    1    3    3    0    0 -0.67710674371E+01  0.72959542259E+00 -0.23477860564E+01  0.72035937800E+01  0.51100000000E-03 0. -1.
         12    1    3    3    0    0 -0.16459012205E+02  0.46181202581E+01  0.13558537198E+01  0.17148307694E+02  0.00000000000E+00 0. -1.
</event>
<event>
 7    1  0.1402367E-008  0.4614231E+02  0.7816164E-02  0.1320468E+00
        -11   -1    0    0    0    0  0.00000000000E+00  0.00000000000E+00  0.45593999997E+02  0.45594000000E+02  0.51100000000E-03 0.  1.
         11   -1    0    0    0    0 -0.00000000000E+00 -0.00000000000E+00 -0.45593999997E+02  0.45594000000E+02  0.51100000000E-03 0. -1.
    9900012    2    1    2    0    0 -0.20050730999E+01  0.21210619530E+02  0.39688827984E+02  0.46142314683E+02  0.99999719290E+01 0.  0.
         12    1    1    2    0    0  0.20050730999E+01 -0.21210619530E+02 -0.39688827984E+02  0.45045685317E+02  0.00000000000E+00 0. -1.
         11    1    3    3    0    0  0.36875329803E+00  0.68412599040E+01  0.21233283722E+02  0.22311233806E+02  0.51100000000E-03 0. -1.
        -11    1    3    3    0    0 -0.31787863152E+01  0.13482278252E+02  0.17346981864E+02  0.22198970457E+02  0.51100000000E-03 0.  1.
         12    1    3    3    0    0  0.80495991728E+00  0.88708137340E+00  0.11085623981E+01  0.16321104197E+01  0.00000000000E+00 0. -1.
</event>
<event>
 7    1  0.1402367E-008  0.4614232E+02  0.7816164E-02  0.1320468E+00
        -11   -1    0    0    0    0  0.00000000000E+00  0.00000000000E+00  0.45593999997E+02  0.45594000000E+02  0.51100000000E-03 0.  1.
         11   -1    0    0    0    0 -0.00000000000E+00 -0.00000000000E+00 -0.45593999997E+02  0.45594000000E+02  0.51100000000E-03 0. -1.
    9900012    2    1    2    0    0  0.65875834793E+01  0.40408209273E+02  0.18785469423E+02  0.46142317697E+02  0.99999994121E+01 0.  0.
         12    1    1    2    0    0 -0.65875834793E+01 -0.40408209273E+02 -0.18785469423E+02  0.45045682303E+02  0.00000000000E+00 0. -1.
         11    1    3    3    0    0  0.69788077147E+00  0.91788009944E+01  0.15375923738E+01  0.93328246440E+01  0.51100000000E-03 0. -1.
        -11    1    3    3    0    0  0.31085032077E+00  0.19477097311E+02  0.11108085874E+02  0.22424172663E+02  0.51100000000E-03 0.  1.
         12    1    3    3    0    0  0.55788523871E+01  0.11752310967E+02  0.61397911754E+01  0.14385320389E+02  0.00000000000E+00 0. -1.
</event>
<event>
 7    1  0.1402367E-008  0.4614232E+02  0.7816164E-02  0.1320468E+00
        -11   -1    0    0    0    0  0.00000000000E+00  0.00000000000E+00  0.45593999997E+02  0.45594000000E+02  0.51100000000E-03 0.  1.
         11   -1    0    0    0    0 -0.00000000000E+00 -0.00000000000E+00 -0.45593999997E+02  0.45594000000E+02  0.51100000000E-03 0. -1.
    9900012    2    1    2    0    0  0.14979191911E+02 -0.97936547124E+01  0.41337895620E+02  0.46142317885E+02  0.10000001126E+02 0.  0.
         12    1    1    2    0    0 -0.14979191911E+02  0.97936547124E+01 -0.41337895620E+02  0.45045682115E+02  0.00000000000E+00 0. -1.
         11    1    3    3    0    0  0.67197751352E+01 -0.95688857864E+01  0.22000394213E+02  0.24914580046E+02  0.51100000000E-03 0. -1.
        -11    1    3    3    0    0  0.77385718678E+01 -0.96667261294E+00  0.16525944183E+02  0.18273663615E+02  0.51100000000E-03 0.  1.
         12    1    3    3    0    0  0.52084490798E+00  0.74190368688E+00  0.28115572237E+01  0.29540742240E+01  0.00000000000E+00 0. -1.
</event>
<event>
 7    1  0.1402367E-008  0.4614232E+02  0.7816164E-02  0.1320468E+00
        -11   -1    0    0    0    0  0.00000000000E+00  0.00000000000E+00  0.45593999997E+02  0.45594000000E+02  0.51100000000E-03 0. -1.
         11   -1    0    0    0    0 -0.00000000000E+00 -0.00000000000E+00 -0.45593999997E+02  0.45594000000E+02  0.51100000000E-03 0.  1.
    9900012    2    1    2    0    0  0.70393919718E+01 -0.29153393645E+02 -0.33610119552E+02  0.46142317225E+02  0.99999951105E+01 0.  0.
         12    1    1    2    0    0 -0.70393919718E+01  0.29153393645E+02  0.33610119552E+02  0.45045682775E+02  0.00000000000E+00 0. -1.
         11    1    3    3    0    0 -0.19797783882E+01 -0.91542619994E+01 -0.86719352943E+01  0.12764109731E+02  0.51100000000E-03 0. -1.
        -11    1    3    3    0    0  0.91470970511E+01 -0.19725770120E+02 -0.23963022912E+02  0.32357408095E+02  0.51100000000E-03 0.  1.
        -12    1    3    3    0    0 -0.12792669108E+00 -0.27336152604E+00 -0.97516134570E+00  0.10207993987E+01  0.00000000000E+00 0.  1.
</event>
<event>
 7    1  0.1402367E-008  0.4614232E+02  0.7816164E-02  0.1320468E+00
        -11   -1    0    0    0    0  0.00000000000E+00  0.00000000000E+00  0.45593999997E+02  0.45594000000E+02  0.51100000000E-03 0. -1.
         11   -1    0    0    0    0 -0.00000000000E+00 -0.00000000000E+00 -0.45593999997E+02  0.45594000000E+02  0.51100000000E-03 0.  1.
    9900012    2    1    2    0    0  0.41873035487E+02 -0.16529188137E+02  0.15963625324E+01  0.46142317247E+02  0.99999953136E+01 0.  0.
         12    1    1    2    0    0 -0.41873035487E+02  0.16529188137E+02 -0.15963625324E+01  0.45045682753E+02  0.00000000000E+00 0. -1.
         11    1    3    3    0    0  0.17830058972E+01 -0.11383438973E+01 -0.19762396440E+01  0.28949024595E+01  0.51100000000E-03 0. -1.
        -11    1    3    3    0    0  0.20211438648E+02 -0.57935350396E+01  0.17853153984E+01  0.21101058074E+02  0.51100000000E-03 0.  1.
        -12    1    3    3    0    0  0.19878590941E+02 -0.95973091998E+01  0.17872867780E+01  0.22146356714E+02  0.00000000000E+00 0.  1.
</event>
<event>
 7    1  0.1402367E-008  0.4614232E+02  0.7816164E-02  0.1320468E+00
        -11   -1    0    0    0    0  0.00000000000E+00  0.00000000000E+00  0.45593999997E+02  0.45594000000E+02  0.51100000000E-03 0. -1.
         11   -1    0    0    0    0 -0.00000000000E+00 -0.00000000000E+00 -0.45593999997E+02  0.45594000000E+02  0.51100000000E-03 0.  1.
    9900012    2    1    2    0    0  0.38246904945E+02 -0.16335610077E+02 -0.17304207235E+02  0.46142317826E+02  0.10000000594E+02 0.  0.
         12    1    1    2    0    0 -0.38246904945E+02  0.16335610077E+02  0.17304207235E+02  0.45045682174E+02  0.00000000000E+00 0. -1.
         11    1    3    3    0    0  0.17361964517E+02 -0.78413155996E+01 -0.63612008559E+01  0.20084544277E+02  0.51100000000E-03 0. -1.
        -11    1    3    3    0    0 -0.40833729141E+00  0.39992612042E+00 -0.29949206989E+00  0.64527204061E+00  0.51100000000E-03 0.  1.
        -12    1    3    3    0    0  0.21293277719E+02 -0.88942205982E+01 -0.10643514309E+02  0.25412501509E+02  0.00000000000E+00 0.  1.
</event>
<event>
 7    1  0.1402367E-008  0.4614231E+02  0.7816164E-02  0.1320468E+00
        -11   -1    0    0    0    0  0.00000000000E+00  0.00000000000E+00  0.45593999997E+02  0.45594000000E+02  0.51100000000E-03 0.  1.
         11   -1    0    0    0    0 -0.00000000000E+00 -0.00000000000E+00 -0.45593999997E+02  0.45594000000E+02  0.51100000000E-03 0. -1.
    9900012    2    1    2    0    0 -0.39788867078E+02 -0.12971998744E+02  0.16663947216E+02  0.46142313952E+02  0.99999652613E+01 0.  0.
         12    1    1    2    0    0  0.39788867078E+02  0.12971998744E+02 -0.16663947216E+02  0.45045686048E+02  0.00000000000E+00 0. -1.
         11    1    3    3    0    0  0.12008190479E+00  0.35592275537E+00  0.85394465777E+00  0.93291071990E+00  0.51100000000E-03 0. -1.
        -11    1    3    3    0    0 -0.25116049314E+02 -0.70788970536E+01  0.76288263351E+01  0.27186866464E+02  0.51100000000E-03 0.  1.
         12    1    3    3    0    0 -0.14792899669E+02 -0.62490244463E+01  0.81811762235E+01  0.18022536767E+02  0.00000000000E+00 0. -1.
</event>
<event>
 7    1  0.1402367E-008  0.4614232E+02  0.7816164E-02  0.1320468E+00
        -11   -1    0    0    0    0  0.00000000000E+00  0.00000000000E+00  0.45593999997E+02  0.45594000000E+02  0.51100000000E-03 0.  1.
         11   -1    0    0    0    0 -0.00000000000E+00 -0.00000000000E+00 -0.45593999997E+02  0.45594000000E+02  0.51100000000E-03 0. -1.
    9900012    2    1    2    0    0 -0.28165987202E+02  0.78809110020E+01  0.34259043409E+02  0.46142315983E+02  0.99999837817E+01 0.  0.
         12    1    1    2    0    0  0.28165987202E+02 -0.78809110020E+01 -0.34259043409E+02  0.45045684017E+02  0.00000000000E+00 0. -1.
         11    1    3    3    0    0 -0.95007395636E+01  0.51395193196E+01  0.12023025845E+02  0.16162668772E+02  0.51100000000E-03 0. -1.
        -11    1    3    3    0    0 -0.14501264624E+02 -0.31213550636E+00  0.13408197611E+02  0.19752566104E+02  0.51100000000E-03 0.  1.
         12    1    3    3    0    0 -0.41639830147E+01  0.30535271888E+01  0.88278199532E+01  0.10227081107E+02  0.00000000000E+00 0. -1.
</event>
<event>
 7    1  0.1402367E-008  0.4614232E+02  0.7816164E-02  0.1320468E+00
        -11   -1    0    0    0    0  0.00000000000E+00  0.00000000000E+00  0.45593999997E+02  0.45594000000E+02  0.51100000000E-03 0. -1.
         11   -1    0    0    0    0 -0.00000000000E+00 -0.00000000000E+00 -0.45593999997E+02  0.45594000000E+02  0.51100000000E-03 0.  1.
    9900012    2    1    2    0    0  0.55862054494E+01  0.28676077785E+02 -0.34286886328E+02  0.46142315384E+02  0.99999783251E+01 0.  0.
         12    1    1    2    0    0 -0.55862054494E+01 -0.28676077785E+02  0.34286886328E+02  0.45045684616E+02  0.00000000000E+00 0. -1.
         11    1    3    3    0    0  0.53855435606E-01  0.10682290459E+02 -0.82800153275E+01  0.13515653293E+02  0.51100000000E-03 0. -1.
        -11    1    3    3    0    0  0.59384339435E+01  0.99527056500E+01 -0.14077346374E+02  0.18234391370E+02  0.51100000000E-03 0.  1.
        -12    1    3    3    0    0 -0.40608392970E+00  0.80410816755E+01 -0.11929524627E+02  0.14392270721E+02  0.00000000000E+00 0.  1.
</event>
<event>
 7    1  0.1402367E-008  0.4614232E+02  0.7816164E-02  0.1320468E+00
        -11   -1    0    0    0    0  0.00000000000E+00  0.00000000000E+00  0.45593999997E+02  0.45594000000E+02  0.51100000000E-03 0.  1.
         11   -1    0    0    0    0 -0.00000000000E+00 -0.00000000000E+00 -0.45593999997E+02  0.45594000000E+02  0.51100000000E-03 0. -1.
    9900012    2    1    2    0    0 -0.32021398544E+02 -0.65421546227E+01  0.30999091656E+02  0.46142318350E+02  0.10000005371E+02 0.  0.
         12    1    1    2    0    0  0.32021398544E+02  0.65421546227E+01 -0.30999091656E+02  0.45045681650E+02  0.00000000000E+00 0. -1.
         11    1    3    3    0    0 -0.22422584904E+02 -0.59798226915E+01  0.23859139482E+02  0.33283466320E+02  0.51100000000E-03 0.  1.
        -11    1    3    3    0    0 -0.18290233713E+01 -0.17836549319E+01  0.58646020549E+00  0.26211995808E+01  0.51100000000E-03 0. -1.
        -12    1    3    3    0    0 -0.77697902687E+01  0.12213230007E+01  0.65534919687E+01  0.10237652449E+02  0.00000000000E+00 0.  1.
</event>
<event>
 7    1  0.1402367E-008  0.4614231E+02  0.7816164E-02  0.1320468E+00
        -11   -1    0    0    0    0  0.00000000000E+00  0.00000000000E+00  0.45593999997E+02  0.45594000000E+02  0.51100000000E-03 0. -1.
         11   -1    0    0    0    0 -0.00000000000E+00 -0.00000000000E+00 -0.45593999997E+02  0.45594000000E+02  0.51100000000E-03 0.  1.
    9900012    2    1    2    0    0  0.36360554621E+02  0.17791736536E+02 -0.19760518507E+02  0.46142313048E+02  0.99999570225E+01 0.  0.
         12    1    1    2    0    0 -0.36360554621E+02 -0.17791736536E+02  0.19760518507E+02  0.45045686952E+02  0.00000000000E+00 0. -1.
         11    1    3    3    0    0  0.16301661281E+01  0.19265056841E+01  0.75705859365E+00  0.26347682500E+01  0.51100000000E-03 0. -1.
        -11    1    3    3    0    0  0.26241925711E+02  0.10462243371E+02 -0.16122714159E+02  0.32527513177E+02  0.51100000000E-03 0.  1.
        -12    1    3    3    0    0  0.84884627813E+01  0.54029874815E+01 -0.43948629417E+01  0.10980031621E+02  0.00000000000E+00 0.  1.
</event>
<event>
 7    1  0.1402367E-008  0.4614232E+02  0.7816164E-02  0.1320468E+00
        -11   -1    0    0    0    0  0.00000000000E+00  0.00000000000E+00  0.45593999997E+02  0.45594000000E+02  0.51100000000E-03 0.  1.
         11   -1    0    0    0    0 -0.00000000000E+00 -0.00000000000E+00 -0.45593999997E+02  0.45594000000E+02  0.51100000000E-03 0. -1.
    9900012    2    1    2    0    0 -0.10648756217E+02  0.12921382231E+01  0.43749833067E+02  0.46142317371E+02  0.99999964416E+01 0.  0.
         12    1    1    2    0    0  0.10648756217E+02 -0.12921382231E+01 -0.43749833067E+02  0.45045682629E+02  0.00000000000E+00 0. -1.
         11    1    3    3    0    0 -0.45350889326E+01  0.43361437763E+01  0.13845618114E+02  0.15200997194E+02  0.51100000000E-03 0. -1.
        -11    1    3    3    0    0 -0.40635265905E+01 -0.25812232903E+01  0.26550928843E+02  0.26983824501E+02  0.51100000000E-03 0.  1.
         12    1    3    3    0    0 -0.20501406942E+01 -0.46278226287E+00  0.33532861098E+01  0.39574956757E+01  0.00000000000E+00 0. -1.
</event>
<event>
 7    1  0.1402367E-008  0.4614232E+02  0.7816164E-02  0.1320468E+00
        -11   -1    0    0    0    0  0.00000000000E+00  0.00000000000E+00  0.45593999997E+02  0.45594000000E+02  0.51100000000E-03 0.  1.
         11   -1    0    0    0    0 -0.00000000000E+00 -0.00000000000E+00 -0.45593999997E+02  0.45594000000E+02  0.51100000000E-03 0. -1.
    9900012    2    1    2    0    0  0.42503056570E+02  0.23708369468E+01  0.14730336389E+02  0.46142317679E+02  0.99999992486E+01 0.  0.
         12    1    1    2    0    0 -0.42503056570E+02 -0.23708369468E+01 -0.14730336389E+02  0.45045682321E+02  0.00000000000E+00 0. -1.
         11    1    3    3    0    0  0.19135020871E+02 -0.14416626089E+01  0.40844977863E+01  0.19619137015E+02  0.51100000000E-03 0. -1.
        -11    1    3    3    0    0  0.14807942438E+02  0.50463922034E+01  0.68139414528E+01  0.17063734406E+02  0.51100000000E-03 0.  1.
        -12    1    3    3    0    0  0.85600932620E+01 -0.12338926477E+01  0.38318971500E+01  0.94594462569E+01  0.00000000000E+00 0.  1.
</event>
<event>
 7    1  0.1402367E-008  0.4614232E+02  0.7816164E-02  0.1320468E+00
        -11   -1    0    0    0    0  0.00000000000E+00  0.00000000000E+00  0.45593999997E+02  0.45594000000E+02  0.51100000000E-03 0.  1.
         11   -1    0    0    0    0 -0.00000000000E+00 -0.00000000000E+00 -0.45593999997E+02  0.45594000000E+02  0.51100000000E-03 0. -1.
    9900012    2    1    2    0    0 -0.66091816888E+01 -0.27136797284E+02  0.35341566797E+02  0.46142318819E+02  0.10000009642E+02 0.  0.
         12    1    1    2    0    0  0.66091816888E+01  0.27136797284E+02 -0.35341566797E+02  0.45045681181E+02  0.00000000000E+00 0. -1.
         11    1    3    3    0    0 -0.31561522377E+01 -0.21971012803E+01  0.23544955139E+01  0.45091241244E+01  0.51100000000E-03 0. -1.
        -11    1    3    3    0    0  0.24142259976E-01 -0.52017100760E+01  0.50433645854E+01  0.72452672253E+01  0.51100000000E-03 0.  1.
         12    1    3    3    0    0 -0.34771717111E+01 -0.19737985928E+02  0.27943706698E+02  0.34387927469E+02  0.00000000000E+00 0. -1.
</event>
<event>
 7    1  0.1402367E-008  0.4614232E+02  0.7816164E-02  0.1320468E+00
        -11   -1    0    0    0    0  0.00000000000E+00  0.00000000000E+00  0.45593999997E+02  0.45594000000E+02  0.51100000000E-03 0.  1.
         11   -1    0    0    0    0 -0.00000000000E+00 -0.00000000000E+00 -0.45593999997E+02  0.45594000000E+02  0.51100000000E-03 0. -1.
    9900012    2    1    2    0    0 -0.39662066657E+02 -0.76145061455E+00  0.21341371940E+02  0.46142317690E+02  0.99999993476E+01 0.  0.
         12    1    1    2    0    0  0.39662066657E+02  0.76145061455E+00 -0.21341371940E+02  0.45045682310E+02  0.00000000000E+00 0. -1.
         11    1    3    3    0    0 -0.11028835172E+02  0.25428979990E+01  0.76723464540E+01  0.13673567050E+02  0.51100000000E-03 0. -1.
        -11    1    3    3    0    0 -0.82109082575E+01 -0.86196734829E+00  0.10104264308E+01  0.83176297078E+01  0.51100000000E-03 0.  1.
        -12    1    3    3    0    0 -0.20422323227E+02 -0.24423812653E+01  0.12658599055E+02  0.24151120932E+02  0.00000000000E+00 0.  1.
</event>
<event>
 7    1  0.1402367E-008  0.4614232E+02  0.7816164E-02  0.1320468E+00
        -11   -1    0    0    0    0  0.00000000000E+00  0.00000000000E+00  0.45593999997E+02  0.45594000000E+02  0.51100000000E-03 0. -1.
         11   -1    0    0    0    0 -0.00000000000E+00 -0.00000000000E+00 -0.45593999997E+02  0.45594000000E+02  0.51100000000E-03 0.  1.
    9900012    2    1    2    0    0  0.35142221514E+02 -0.24939549340E+02  0.13120847220E+02  0.46142317788E+02  0.10000000242E+02 0.  0.
         12    1    1    2    0    0 -0.35142221514E+02  0.24939549340E+02 -0.13120847220E+02  0.45045682212E+02  0.00000000000E+00 0. -1.
         11    1    3    3    0    0 -0.61473825365E+00 -0.54372094901E+00 -0.12091620216E+00  0.82955203572E+00  0.51100000000E-03 0. -1.
        -11    1    3    3    0    0  0.16698040821E+02 -0.10294406468E+02  0.64797993997E+01  0.20658827951E+02  0.51100000000E-03 0.  1.
         12    1    3    3    0    0  0.19058918947E+02 -0.14101421922E+02  0.67619640226E+01  0.24653937801E+02  0.00000000000E+00 0. -1.
</event>
<event>
 7    1  0.1402367E-008  0.4614232E+02  0.7816164E-02  0.1320468E+00
        -11   -1    0    0    0    0  0.00000000000E+00  0.00000000000E+00  0.45593999997E+02  0.45594000000E+02  0.51100000000E-03 0.  1.
         11   -1    0    0    0    0 -0.00000000000E+00 -0.00000000000E+00 -0.45593999997E+02  0.45594000000E+02  0.51100000000E-03 0. -1.
    9900012    2    1    2    0    0 -0.90753928559E+01  0.76978488562E+01  0.43445297812E+02  0.46142317250E+02  0.99999953351E+01 0.  0.
         12    1    1    2    0    0  0.90753928559E+01 -0.76978488562E+01 -0.43445297812E+02  0.45045682750E+02  0.00000000000E+00 0. -1.
         11    1    3    3    0    0  0.38203102819E+00 -0.74769966781E+00  0.80981296517E+00  0.11665332397E+01  0.51100000000E-03 0. -1.
        -11    1    3    3    0    0 -0.66838805385E+01  0.52252843445E+01  0.36747674640E+02  0.37714313559E+02  0.51100000000E-03 0.  1.
        -12    1    3    3    0    0 -0.27735433456E+01  0.32202641795E+01  0.58878102064E+01  0.72614704504E+01  0.00000000000E+00 0.  1.
</event>
<event>
 7    1  0.1402367E-008  0.4614232E+02  0.7816164E-02  0.1320468E+00
        -11   -1    0    0    0    0  0.00000000000E+00  0.00000000000E+00  0.45593999997E+02  0.45594000000E+02  0.51100000000E-03 0.  1.
         11   -1    0    0    0    0 -0.00000000000E+00 -0.00000000000E+00 -0.45593999997E+02  0.45594000000E+02  0.51100000000E-03 0. -1.
    9900012    2    1    2    0    0  0.42227510815E+02 -0.91143354195E+01 -0.12762439687E+02  0.46142316006E+02  0.99999839930E+01 0.  0.
         12    1    1    2    0    0 -0.42227510815E+02  0.91143354195E+01  0.12762439687E+02  0.45045683994E+02  0.00000000000E+00 0. -1.
         11    1    3    3    0    0  0.69850439787E+00  0.32878695478E+00 -0.16113428180E+01  0.17867387032E+01  0.51100000000E-03 0. -1.
        -11    1    3    3    0    0  0.63699037229E+01 -0.35044848628E+01 -0.21043633413E+01  0.75687140867E+01  0.51100000000E-03 0.  1.
        -12    1    3    3    0    0  0.35159102694E+02 -0.59386375115E+01 -0.90467335274E+01  0.36786863216E+02  0.00000000000E+00 0.  1.
</event>
<event>
 7    1  0.1402367E-008  0.4614232E+02  0.7816164E-02  0.1320468E+00
        -11   -1    0    0    0    0  0.00000000000E+00  0.00000000000E+00  0.45593999997E+02  0.45594000000E+02  0.51100000000E-03 0.  1.
         11   -1    0    0    0    0 -0.00000000000E+00 -0.00000000000E+00 -0.45593999997E+02  0.45594000000E+02  0.51100000000E-03 0. -1.
    9900012    2    1    2    0    0 -0.31176166070E+01 -0.28795494810E+02  0.34499470363E+02  0.46142317521E+02  0.99999978123E+01 0.  0.
         12    1    1    2    0    0  0.31176166070E+01  0.28795494810E+02 -0.34499470363E+02  0.45045682479E+02  0.00000000000E+00 0. -1.
         11    1    3    3    0    0 -0.36155970942E+01 -0.17716469602E+02  0.15593569222E+02  0.23876876656E+02  0.51100000000E-03 0. -1.
        -11    1    3    3    0    0  0.12299000883E+01 -0.10155224509E+02  0.18237576998E+02  0.20910534523E+02  0.51100000000E-03 0.  1.
        -12    1    3    3    0    0 -0.73191960112E+00 -0.92380069917E+00  0.66832414327E+00  0.13549063417E+01  0.00000000000E+00 0.  1.
</event>
<event>
 7    1  0.1402367E-008  0.4614232E+02  0.7816164E-02  0.1320468E+00
        -11   -1    0    0    0    0  0.00000000000E+00  0.00000000000E+00  0.45593999997E+02  0.45594000000E+02  0.51100000000E-03 0.  1.
         11   -1    0    0    0    0 -0.00000000000E+00 -0.00000000000E+00 -0.45593999997E+02  0.45594000000E+02  0.51100000000E-03 0. -1.
    9900012    2    1    2    0    0 -0.12170200587E+02 -0.23797013471E+02  0.36258817908E+02  0.46142317537E+02  0.99999979562E+01 0.  0.
         12    1    1    2    0    0  0.12170200587E+02  0.23797013471E+02 -0.36258817908E+02  0.45045682463E+02  0.00000000000E+00 0. -1.
         11    1    3    3    0    0 -0.68403081760E+01 -0.10208864677E+02  0.19960013653E+02  0.23439558000E+02  0.51100000000E-03 0.  1.
        -11    1    3    3    0    0  0.44289138385E+00 -0.46643523273E+01  0.25801730713E+01  0.53487969442E+01  0.51100000000E-03 0. -1.
        -12    1    3    3    0    0 -0.57727837953E+01 -0.89237964666E+01  0.13718631184E+02  0.17353962593E+02  0.00000000000E+00 0.  1.
</event>
<event>
 7    1  0.1402367E-008  0.4614232E+02  0.7816164E-02  0.1320468E+00
        -11   -1    0    0    0    0  0.00000000000E+00  0.00000000000E+00  0.45593999997E+02  0.45594000000E+02  0.51100000000E-03 0.  1.
         11   -1    0    0    0    0 -0.00000000000E+00 -0.00000000000E+00 -0.45593999997E+02  0.45594000000E+02  0.51100000000E-03 0. -1.
    9900012    2    1    2    0    0 -0.32090510961E+02 -0.27017511366E+02  0.16412390280E+02  0.46142319088E+02  0.10000012095E+02 0.  0.
         12    1    1    2    0    0  0.32090510961E+02  0.27017511366E+02 -0.16412390280E+02  0.45045680912E+02  0.00000000000E+00 0. -1.
         11    1    3    3    0    0 -0.81503387497E+01 -0.59678164930E+01 -0.11818241437E+00  0.10102317693E+02  0.51100000000E-03 0. -1.
        -11    1    3    3    0    0 -0.85195740399E+01 -0.74492308400E+01  0.42390467315E+01  0.12084854132E+02  0.51100000000E-03 0.  1.
         12    1    3    3    0    0 -0.15420598171E+02 -0.13600464033E+02  0.12291525963E+02  0.23955147263E+02  0.00000000000E+00 0. -1.
</event>
<event>
 7    1  0.1402367E-008  0.4614232E+02  0.7816164E-02  0.1320468E+00
        -11   -1    0    0    0    0  0.00000000000E+00  0.00000000000E+00  0.45593999997E+02  0.45594000000E+02  0.51100000000E-03 0.  1.
         11   -1    0    0    0    0 -0.00000000000E+00 -0.00000000000E+00 -0.45593999997E+02  0.45594000000E+02  0.51100000000E-03 0. -1.
    9900012    2    1    2    0    0  0.10746882421E+02 -0.21547731168E+02  0.38069847721E+02  0.46142317568E+02  0.99999982407E+01 0.  0.
         12    1    1    2    0    0 -0.10746882421E+02  0.21547731168E+02 -0.38069847721E+02  0.45045682432E+02  0.00000000000E+00 0. -1.
         11    1    3    3    0    0 -0.12418159935E+00 -0.47486085249E+01  0.35872806349E+01  0.59525865476E+01  0.51100000000E-03 0. -1.
        -11    1    3    3    0    0  0.81743342953E+01 -0.14559248629E+02  0.24844692213E+02  0.29934097501E+02  0.51100000000E-03 0.  1.
        -12    1    3    3    0    0  0.26967297250E+01 -0.22398740142E+01  0.96378748732E+01  0.10255633519E+02  0.00000000000E+00 0.  1.
</event>
<event>
 7    1  0.1402367E-008  0.4614232E+02  0.7816164E-02  0.1320468E+00
        -11   -1    0    0    0    0  0.00000000000E+00  0.00000000000E+00  0.45593999997E+02  0.45594000000E+02  0.51100000000E-03 0. -1.
         11   -1    0    0    0    0 -0.00000000000E+00 -0.00000000000E+00 -0.45593999997E+02  0.45594000000E+02  0.51100000000E-03 0.  1.
    9900012    2    1    2    0    0 -0.35940871172E+02 -0.23241981786E+02 -0.14041994315E+02  0.46142317163E+02  0.99999945429E+01 0.  0.
         12    1    1    2    0    0  0.35940871172E+02  0.23241981786E+02  0.14041994315E+02  0.45045682837E+02  0.00000000000E+00 0. -1.
         11    1    3    3    0    0 -0.36589204805E+01 -0.66441232867E+01 -0.17753334004E+01  0.77899860254E+01  0.51100000000E-03 0. -1.
        -11    1    3    3    0    0 -0.25035235530E+02 -0.12559020085E+02 -0.10141152916E+02  0.29788168562E+02  0.51100000000E-03 0.  1.
        -12    1    3    3    0    0 -0.72467151619E+01 -0.40388384137E+01 -0.21255079986E+01  0.85641625756E+01  0.00000000000E+00 0.  1.
</event>
<event>
 7    1  0.1402367E-008  0.4614232E+02  0.7816164E-02  0.1320468E+00
        -11   -1    0    0    0    0  0.00000000000E+00  0.00000000000E+00  0.45593999997E+02  0.45594000000E+02  0.51100000000E-03 0.  1.
         11   -1    0    0    0    0 -0.00000000000E+00 -0.00000000000E+00 -0.45593999997E+02  0.45594000000E+02  0.51100000000E-03 0. -1.
    9900012    2    1    2    0    0 -0.36653356602E+02  0.23131934948E+02  0.12270227586E+02  0.46142318191E+02  0.10000003919E+02 0.  0.
         12    1    1    2    0    0  0.36653356602E+02 -0.23131934948E+02 -0.12270227586E+02  0.45045681809E+02  0.00000000000E+00 0. -1.
         11    1    3    3    0    0 -0.56153575073E+01  0.31157635130E+01  0.34136172791E+01  0.72727577570E+01  0.51100000000E-03 0. -1.
        -11    1    3    3    0    0 -0.27462408299E+01  0.41711503034E+01 -0.74949377340E+00  0.50499578935E+01  0.51100000000E-03 0.  1.
        -12    1    3    3    0    0 -0.28291758265E+02  0.15845021131E+02  0.96061040802E+01  0.33819602540E+02  0.00000000000E+00 0.  1.
</event>
<event>
 7    1  0.1402367E-008  0.4614232E+02  0.7816164E-02  0.1320468E+00
        -11   -1    0    0    0    0  0.00000000000E+00  0.00000000000E+00  0.45593999997E+02  0.45594000000E+02  0.51100000000E-03 0.  1.
         11   -1    0    0    0    0 -0.00000000000E+00 -0.00000000000E+00 -0.45593999997E+02  0.45594000000E+02  0.51100000000E-03 0. -1.
    9900012    2    1    2    0    0  0.34966012754E+02  0.26982555594E+02 -0.88562495799E+01  0.46142317511E+02  0.99999977205E+01 0.  0.
         12    1    1    2    0    0 -0.34966012754E+02 -0.26982555594E+02  0.88562495799E+01  0.45045682489E+02  0.00000000000E+00 0. -1.
         11    1    3    3    0    0  0.30547566367E+02  0.25775350712E+02 -0.78561186910E+01  0.40733783478E+02  0.51100000000E-03 0. -1.
        -11    1    3    3    0    0  0.47409102546E+01  0.88888347723E+00 -0.72303590537E+00  0.48774096670E+01  0.51100000000E-03 0.  1.
         12    1    3    3    0    0 -0.32246386778E+00  0.31832140506E+00 -0.27709498352E+00  0.53112436663E+00  0.00000000000E+00 0. -1.
</event>
<event>
 7    1  0.1402367E-008  0.4614233E+02  0.7816164E-02  0.1320468E+00
        -11   -1    0    0    0    0  0.00000000000E+00  0.00000000000E+00  0.45593999997E+02  0.45594000000E+02  0.51100000000E-03 0. -1.
         11   -1    0    0    0    0 -0.00000000000E+00 -0.00000000000E+00 -0.45593999997E+02  0.45594000000E+02  0.51100000000E-03 0.  1.
    9900012    2    1    2    0    0  0.82739899009E+01  0.19248610062E+01 -0.44237408139E+02  0.46142331200E+02  0.10000122543E+02 0.  0.
         12    1    1    2    0    0 -0.82739899009E+01 -0.19248610062E+01  0.44237408139E+02  0.45045668800E+02  0.00000000000E+00 0. -1.
         11    1    3    3    0    0  0.43547051051E+01 -0.10844016101E+01 -0.14891357921E+02  0.15552875117E+02  0.51100000000E-03 0. -1.
        -11    1    3    3    0    0  0.19788629495E+01  0.60870714028E+00 -0.25821365500E+02  0.25904234007E+02  0.51100000000E-03 0.  1.
        -12    1    3    3    0    0  0.19404218463E+01  0.24005554760E+01 -0.35246847186E+01  0.46852220759E+01  0.00000000000E+00 0.  1.
</event>
<event>
 7    1  0.1402367E-008  0.4614232E+02  0.7816164E-02  0.1320468E+00
        -11   -1    0    0    0    0  0.00000000000E+00  0.00000000000E+00  0.45593999997E+02  0.45594000000E+02  0.51100000000E-03 0.  1.
         11   -1    0    0    0    0 -0.00000000000E+00 -0.00000000000E+00 -0.45593999997E+02  0.45594000000E+02  0.51100000000E-03 0. -1.
    9900012    2    1    2    0    0  0.28198400980E+02  0.26667589188E+02  0.22864894175E+02  0.46142317448E+02  0.99999971460E+01 0.  0.
         12    1    1    2    0    0 -0.28198400980E+02 -0.26667589188E+02 -0.22864894175E+02  0.45045682552E+02  0.00000000000E+00 0. -1.
         11    1    3    3    0    0  0.12534369271E+01  0.23961789201E+01  0.32133798151E+01  0.41998318591E+01  0.51100000000E-03 0. -1.
        -11    1    3    3    0    0  0.33659682478E+01  0.68345817221E+01  0.53917534350E+01  0.93333946089E+01  0.51100000000E-03 0.  1.
        -12    1    3    3    0    0  0.23578995805E+02  0.17436828546E+02  0.14259760925E+02  0.32609090980E+02  0.00000000000E+00 0.  1.
</event>
<event>
 7    1  0.1402367E-008  0.4614232E+02  0.7816164E-02  0.1320468E+00
        -11   -1    0    0    0    0  0.00000000000E+00  0.00000000000E+00  0.45593999997E+02  0.45594000000E+02  0.51100000000E-03 0.  1.
         11   -1    0    0    0    0 -0.00000000000E+00 -0.00000000000E+00 -0.45593999997E+02  0.45594000000E+02  0.51100000000E-03 0. -1.
    9900012    2    1    2    0    0  0.61961589013E+01  0.10071880269E+02  0.43465830428E+02  0.46142316832E+02  0.99999915233E+01 0.  0.
         12    1    1    2    0    0 -0.61961589013E+01 -0.10071880269E+02 -0.43465830428E+02  0.45045683168E+02  0.00000000000E+00 0. -1.
         11    1    3    3    0    0  0.33394443916E+00 -0.94442571206E+00  0.20239747762E+01  0.22583031174E+01  0.51100000000E-03 0. -1.
        -11    1    3    3    0    0  0.38051685542E+00 -0.10368110029E+01  0.47311475546E+01  0.48583461772E+01  0.51100000000E-03 0.  1.
        -12    1    3    3    0    0  0.54816976067E+01  0.12053116984E+02  0.36710708098E+02  0.39025667537E+02  0.00000000000E+00 0.  1.
</event>
<event>
 7    1  0.1402367E-008  0.4614232E+02  0.7816164E-02  0.1320468E+00
        -11   -1    0    0    0    0  0.00000000000E+00  0.00000000000E+00  0.45593999997E+02  0.45594000000E+02  0.51100000000E-03 0. -1.
         11   -1    0    0    0    0 -0.00000000000E+00 -0.00000000000E+00 -0.45593999997E+02  0.45594000000E+02  0.51100000000E-03 0.  1.
    9900012    2    1    2    0    0  0.65989471021E+00 -0.44574261070E+02  0.64663160183E+01  0.46142318144E+02  0.10000003495E+02 0.  0.
         12    1    1    2    0    0 -0.65989471021E+00  0.44574261070E+02 -0.64663160183E+01  0.45045681856E+02  0.00000000000E+00 0. -1.
         11    1    3    3    0    0  0.89346497122E+00 -0.70614665593E+01  0.68369121181E+00  0.71505261035E+01  0.51100000000E-03 0.  1.
        -11    1    3    3    0    0  0.29172475125E+01 -0.10902896932E+02 -0.10600876606E+01  0.11336105181E+02  0.51100000000E-03 0. -1.
        -12    1    3    3    0    0 -0.31508177735E+01 -0.26609897579E+02  0.68427124671E+01  0.27655686860E+02  0.00000000000E+00 0.  1.
</event>
<event>
 7    1  0.1402367E-008  0.4614232E+02  0.7816164E-02  0.1320468E+00
        -11   -1    0    0    0    0  0.00000000000E+00  0.00000000000E+00  0.45593999997E+02  0.45594000000E+02  0.51100000000E-03 0.  1.
         11   -1    0    0    0    0 -0.00000000000E+00 -0.00000000000E+00 -0.45593999997E+02  0.45594000000E+02  0.51100000000E-03 0. -1.
    9900012    2    1    2    0    0  0.34838838715E+02  0.25761167882E+02  0.12317912817E+02  0.46142318410E+02  0.10000005919E+02 0.  0.
         12    1    1    2    0    0 -0.34838838715E+02 -0.25761167882E+02 -0.12317912817E+02  0.45045681590E+02  0.00000000000E+00 0. -1.
         11    1    3    3    0    0  0.18222455579E+01  0.95190604163E+00  0.23468459644E+01  0.31199984339E+01  0.51100000000E-03 0. -1.
        -11    1    3    3    0    0  0.21041774940E+02  0.13556695206E+02  0.31405875449E+01  0.25227040411E+02  0.51100000000E-03 0.  1.
         12    1    3    3    0    0  0.11974818218E+02  0.11252566635E+02  0.68304793081E+01  0.17795279565E+02  0.00000000000E+00 0. -1.
</event>
<event>
 7    1  0.1402367E-008  0.4614232E+02  0.7816164E-02  0.1320468E+00
        -11   -1    0    0    0    0  0.00000000000E+00  0.00000000000E+00  0.45593999997E+02  0.45594000000E+02  0.51100000000E-03 0.  1.
         11   -1    0    0    0    0 -0.00000000000E+00 -0.00000000000E+00 -0.45593999997E+02  0.45594000000E+02  0.51100000000E-03 0. -1.
    9900012    2    1    2    0    0  0.18343950896E+02  0.40848563950E+02  0.48997766679E+01  0.46142317380E+02  0.99999965271E+01 0.  0.
         12    1    1    2    0    0 -0.18343950896E+02 -0.40848563950E+02 -0.48997766679E+01  0.45045682620E+02  0.00000000000E+00 0. -1.
         11    1    3    3    0    0  0.55628543151E+01  0.63290367740E+01 -0.16308941859E+01  0.85826494001E+01  0.51100000000E-03 0. -1.
        -11    1    3    3    0    0  0.10888892458E+02  0.28465393937E+02  0.40329549126E+01  0.30742663459E+02  0.51100000000E-03 0.  1.
         12    1    3    3    0    0  0.18922041233E+01  0.60541332394E+01  0.24977159412E+01  0.68170045216E+01  0.00000000000E+00 0. -1.
</event>
<event>
 7    1  0.1402367E-008  0.4614233E+02  0.7816164E-02  0.1320468E+00
        -11   -1    0    0    0    0  0.00000000000E+00  0.00000000000E+00  0.45593999997E+02  0.45594000000E+02  0.51100000000E-03 0. -1.
         11   -1    0    0    0    0 -0.00000000000E+00 -0.00000000000E+00 -0.45593999997E+02  0.45594000000E+02  0.51100000000E-03 0.  1.
    9900012    2    1    2    0    0 -0.36239918201E+02 -0.20376583539E+02 -0.17337127859E+02  0.46142325065E+02  0.10000066604E+02 0.  0.
         12    1    1    2    0    0  0.36239918201E+02  0.20376583539E+02  0.17337127859E+02  0.45045674935E+02  0.00000000000E+00 0. -1.
         11    1    3    3    0    0 -0.45653828068E+01 -0.48977743483E+01 -0.43628415058E+00  0.67097882127E+01  0.51100000000E-03 0. -1.
        -11    1    3    3    0    0 -0.24961988404E+02 -0.10913748529E+02 -0.14980958458E+02  0.31090832871E+02  0.51100000000E-03 0.  1.
         12    1    3    3    0    0 -0.67125469902E+01 -0.45650606621E+01 -0.19198852513E+01  0.83417039819E+01  0.00000000000E+00 0. -1.
</event>
<event>
 7    1  0.1402367E-008  0.4614232E+02  0.7816164E-02  0.1320468E+00
        -11   -1    0    0    0    0  0.00000000000E+00  0.00000000000E+00  0.45593999997E+02  0.45594000000E+02  0.51100000000E-03 0.  1.
         11   -1    0    0    0    0 -0.00000000000E+00 -0.00000000000E+00 -0.45593999997E+02  0.45594000000E+02  0.51100000000E-03 0. -1.
    9900012    2    1    2    0    0 -0.40183728857E+01  0.43324070129E+02  0.11661515392E+02  0.46142319692E+02  0.10000017604E+02 0.  0.
         12    1    1    2    0    0  0.40183728857E+01 -0.43324070129E+02 -0.11661515392E+02  0.45045680308E+02  0.00000000000E+00 0. -1.
         11    1    3    3    0    0 -0.33784998404E+01  0.90900190638E+01  0.13661683786E+01  0.97933203793E+01  0.51100000000E-03 0. -1.
        -11    1    3    3    0    0 -0.23984936054E+01  0.27889070293E+02  0.64548783095E+01  0.28726616014E+02  0.51100000000E-03 0.  1.
        -12    1    3    3    0    0  0.17586205601E+01  0.63449807727E+01  0.38404687037E+01  0.76223832982E+01  0.00000000000E+00 0.  1.
</event>
<event>
 7    1  0.1402367E-008  0.4614231E+02  0.7816164E-02  0.1320468E+00
        -11   -1    0    0    0    0  0.00000000000E+00  0.00000000000E+00  0.45593999997E+02  0.45594000000E+02  0.51100000000E-03 0.  1.
         11   -1    0    0    0    0 -0.00000000000E+00 -0.00000000000E+00 -0.45593999997E+02  0.45594000000E+02  0.51100000000E-03 0. -1.
    9900012    2    1    2    0    0  0.51946941945E+01  0.40160849127E+02  0.19729043930E+02  0.46142314027E+02  0.99999659503E+01 0.  0.
         12    1    1    2    0    0 -0.51946941945E+01 -0.40160849127E+02 -0.19729043930E+02  0.45045685973E+02  0.00000000000E+00 0. -1.
         11    1    3    3    0    0  0.23556962503E+01  0.38330443297E+01  0.19053418983E+01  0.48858839188E+01  0.51100000000E-03 0. -1.
        -11    1    3    3    0    0  0.12725972934E+01  0.63609554655E+01  0.27235606129E+00  0.64927218014E+01  0.51100000000E-03 0.  1.
        -12    1    3    3    0    0  0.15664006508E+01  0.29966849332E+02  0.17551345971E+02  0.34763708307E+02  0.00000000000E+00 0.  1.
</event>
<event>
 7    1  0.1402367E-008  0.4614232E+02  0.7816164E-02  0.1320468E+00
        -11   -1    0    0    0    0  0.00000000000E+00  0.00000000000E+00  0.45593999997E+02  0.45594000000E+02  0.51100000000E-03 0.  1.
         11   -1    0    0    0    0 -0.00000000000E+00 -0.00000000000E+00 -0.45593999997E+02  0.45594000000E+02  0.51100000000E-03 0. -1.
    9900012    2    1    2    0    0 -0.88817980382E+01  0.39266649190E+02  0.20207858268E+02  0.46142316402E+02  0.99999876074E+01 0.  0.
         12    1    1    2    0    0  0.88817980382E+01 -0.39266649190E+02 -0.20207858268E+02  0.45045683598E+02  0.00000000000E+00 0. -1.
         11    1    3    3    0    0 -0.52956198688E+00  0.83048170291E+01  0.81989802758E+01  0.11682195838E+02  0.51100000000E-03 0. -1.
        -11    1    3    3    0    0 -0.63723954123E+01  0.23209288482E+02  0.10751984958E+02  0.26360646349E+02  0.51100000000E-03 0.  1.
         12    1    3    3    0    0 -0.19798406390E+01  0.77525436797E+01  0.12568930338E+01  0.80994742150E+01  0.00000000000E+00 0. -1.
</event>
<event>
 7    1  0.1402367E-008  0.4614232E+02  0.7816164E-02  0.1320468E+00
        -11   -1    0    0    0    0  0.00000000000E+00  0.00000000000E+00  0.45593999997E+02  0.45594000000E+02  0.51100000000E-03 0.  1.
         11   -1    0    0    0    0 -0.00000000000E+00 -0.00000000000E+00 -0.45593999997E+02  0.45594000000E+02  0.51100000000E-03 0. -1.
    9900012    2    1    2    0    0 -0.30004688536E+02 -0.30087029166E+02  0.14953358951E+02  0.46142316498E+02  0.99999884834E+01 0.  0.
         12    1    1    2    0    0  0.30004688536E+02  0.30087029166E+02 -0.14953358951E+02  0.45045683502E+02  0.00000000000E+00 0. -1.
         11    1    3    3    0    0 -0.10681282190E+02 -0.68213240731E+01  0.53043379364E+01  0.13738859215E+02  0.51100000000E-03 0. -1.
        -11    1    3    3    0    0 -0.12769573277E+02 -0.17189659765E+02  0.95978374144E+01  0.23466249973E+02  0.51100000000E-03 0.  1.
         12    1    3    3    0    0 -0.65538330691E+01 -0.60760453284E+01  0.51183600110E-01  0.89372073094E+01  0.00000000000E+00 0. -1.
</event>
<event>
 7    1  0.1402367E-008  0.4614232E+02  0.7816164E-02  0.1320468E+00
        -11   -1    0    0    0    0  0.00000000000E+00  0.00000000000E+00  0.45593999997E+02  0.45594000000E+02  0.51100000000E-03 0.  1.
         11   -1    0    0    0    0 -0.00000000000E+00 -0.00000000000E+00 -0.45593999997E+02  0.45594000000E+02  0.51100000000E-03 0. -1.
    9900012    2    1    2    0    0  0.41212184625E+02  0.18897815837E+01  0.18085850638E+02  0.46142318417E+02  0.10000005979E+02 0.  0.
         12    1    1    2    0    0 -0.41212184625E+02 -0.18897815837E+01 -0.18085850638E+02  0.45045681583E+02  0.00000000000E+00 0. -1.
         11    1    3    3    0    0  0.19856904351E+02  0.34022859490E+00  0.11311373955E+02  0.22855187309E+02  0.51100000000E-03 0. -1.
        -11    1    3    3    0    0  0.97850943492E+01  0.19315002915E+01  0.20398241014E+00  0.99759898698E+01  0.51100000000E-03 0.  1.
        -12    1    3    3    0    0  0.11570185924E+02 -0.38194730270E+00  0.65704942725E+01  0.13311141238E+02  0.00000000000E+00 0.  1.
</event>
<event>
 7    1  0.1402367E-008  0.4614232E+02  0.7816164E-02  0.1320468E+00
        -11   -1    0    0    0    0  0.00000000000E+00  0.00000000000E+00  0.45593999997E+02  0.45594000000E+02  0.51100000000E-03 0. -1.
         11   -1    0    0    0    0 -0.00000000000E+00 -0.00000000000E+00 -0.45593999997E+02  0.45594000000E+02  0.51100000000E-03 0.  1.
    9900012    2    1    2    0    0 -0.21976226045E+02 -0.39013747219E+02  0.49077994875E+01  0.46142317864E+02  0.10000000938E+02 0.  0.
         12    1    1    2    0    0  0.21976226045E+02  0.39013747219E+02 -0.49077994875E+01  0.45045682136E+02  0.00000000000E+00 0. -1.
         11    1    3    3    0    0 -0.52013446989E+01 -0.13495159499E+02  0.12770787093E+01  0.14519099383E+02  0.51100000000E-03 0. -1.
        -11    1    3    3    0    0 -0.12797717288E+02 -0.18866736880E+02  0.58978881063E+01  0.23548257105E+02  0.51100000000E-03 0.  1.
         12    1    3    3    0    0 -0.39771640585E+01 -0.66518508398E+01 -0.22671673281E+01  0.80749613768E+01  0.00000000000E+00 0. -1.
</event>
<event>
 7    1  0.1402367E-008  0.4614232E+02  0.7816164E-02  0.1320468E+00
        -11   -1    0    0    0    0  0.00000000000E+00  0.00000000000E+00  0.45593999997E+02  0.45594000000E+02  0.51100000000E-03 0.  1.
         11   -1    0    0    0    0 -0.00000000000E+00 -0.00000000000E+00 -0.45593999997E+02  0.45594000000E+02  0.51100000000E-03 0. -1.
    9900012    2    1    2    0    0 -0.12797733315E+02  0.37794379817E+02  0.20902544219E+02  0.46142317869E+02  0.10000000988E+02 0.  0.
         12    1    1    2    0    0  0.12797733315E+02 -0.37794379817E+02 -0.20902544219E+02  0.45045682131E+02  0.00000000000E+00 0. -1.
         11    1    3    3    0    0 -0.30743720846E+01  0.35730648296E+01 -0.25424117522E+00  0.47205078993E+01  0.51100000000E-03 0. -1.
        -11    1    3    3    0    0 -0.11964268706E+01  0.60606786333E+01  0.32986799995E+01  0.70031816165E+01  0.51100000000E-03 0.  1.
         12    1    3    3    0    0 -0.85269343594E+01  0.28160636354E+02  0.17858105395E+02  0.34418628354E+02  0.00000000000E+00 0. -1.
</event>
<event>
 7    1  0.1402367E-008  0.4614231E+02  0.7816164E-02  0.1320468E+00
        -11   -1    0    0    0    0  0.00000000000E+00  0.00000000000E+00  0.45593999997E+02  0.45594000000E+02  0.51100000000E-03 0.  1.
         11   -1    0    0    0    0 -0.00000000000E+00 -0.00000000000E+00 -0.45593999997E+02  0.45594000000E+02  0.51100000000E-03 0. -1.
    9900012    2    1    2    0    0  0.25063966105E+01 -0.10290289690E+01  0.44964129911E+02  0.46142313156E+02  0.99999580068E+01 0.  0.
         12    1    1    2    0    0 -0.25063966105E+01  0.10290289690E+01 -0.44964129911E+02  0.45045686844E+02  0.00000000000E+00 0. -1.
         11    1    3    3    0    0 -0.34716828017E+00 -0.30830511098E+01  0.32669345196E+02  0.32816335045E+02  0.51100000000E-03 0. -1.
        -11    1    3    3    0    0  0.37297520412E+01  0.15168166551E+01  0.10658925852E+02  0.11394054749E+02  0.51100000000E-03 0.  1.
         12    1    3    3    0    0 -0.87618715055E+00  0.53720548559E+00  0.16358588630E+01  0.19319233619E+01  0.00000000000E+00 0. -1.
</event>
<event>
 7    1  0.1402367E-008  0.4614232E+02  0.7816164E-02  0.1320468E+00
        -11   -1    0    0    0    0  0.00000000000E+00  0.00000000000E+00  0.45593999997E+02  0.45594000000E+02  0.51100000000E-03 0.  1.
         11   -1    0    0    0    0 -0.00000000000E+00 -0.00000000000E+00 -0.45593999997E+02  0.45594000000E+02  0.51100000000E-03 0. -1.
    9900012    2    1    2    0    0 -0.50846574301E+00 -0.44386983733E+02 -0.76583714640E+01  0.46142317456E+02  0.99999972208E+01 0.  0.
         12    1    1    2    0    0  0.50846574301E+00  0.44386983733E+02  0.76583714640E+01  0.45045682544E+02  0.00000000000E+00 0. -1.
         11    1    3    3    0    0  0.77811214630E+00 -0.28763829199E+01  0.16693969883E+01  0.34155415061E+01  0.51100000000E-03 0. -1.
        -11    1    3    3    0    0 -0.46083906312E+00 -0.39016756503E+02 -0.82207778693E+01  0.39876068634E+02  0.51100000000E-03 0.  1.
        -12    1    3    3    0    0 -0.82573882620E+00 -0.24938443107E+01 -0.11069905830E+01  0.28507073168E+01  0.00000000000E+00 0.  1.
</event>
<event>
 7    1  0.1402367E-008  0.4614232E+02  0.7816164E-02  0.1320468E+00
        -11   -1    0    0    0    0  0.00000000000E+00  0.00000000000E+00  0.45593999997E+02  0.45594000000E+02  0.51100000000E-03 0.  1.
         11   -1    0    0    0    0 -0.00000000000E+00 -0.00000000000E+00 -0.45593999997E+02  0.45594000000E+02  0.51100000000E-03 0. -1.
    9900012    2    1    2    0    0 -0.14185279446E+02  0.22289697136E+02  0.36483704879E+02  0.46142317931E+02  0.10000001549E+02 0.  0.
         12    1    1    2    0    0  0.14185279446E+02 -0.22289697136E+02 -0.36483704879E+02  0.45045682069E+02  0.00000000000E+00 0. -1.
         11    1    3    3    0    0 -0.11489327908E+01  0.37261089490E+00  0.33973878032E+00  0.12547143646E+01  0.51100000000E-03 0. -1.
        -11    1    3    3    0    0 -0.89446294641E+01  0.19453050957E+02  0.26044430530E+02  0.33715574289E+02  0.51100000000E-03 0.  1.
        -12    1    3    3    0    0 -0.40917171916E+01  0.24640352835E+01  0.10099535569E+02  0.11172029277E+02  0.00000000000E+00 0.  1.
</event>
<event>
 7    1  0.1402367E-008  0.4614232E+02  0.7816164E-02  0.1320468E+00
        -11   -1    0    0    0    0  0.00000000000E+00  0.00000000000E+00  0.45593999997E+02  0.45594000000E+02  0.51100000000E-03 0. -1.
         11   -1    0    0    0    0 -0.00000000000E+00 -0.00000000000E+00 -0.45593999997E+02  0.45594000000E+02  0.51100000000E-03 0.  1.
    9900012    2    1    2    0    0 -0.21313988087E+02  0.13821518378E+02 -0.37199368126E+02  0.46142318216E+02  0.10000004146E+02 0.  0.
         12    1    1    2    0    0  0.21313988087E+02 -0.13821518378E+02  0.37199368126E+02  0.45045681784E+02  0.00000000000E+00 0. -1.
         11    1    3    3    0    0 -0.53821939610E+01  0.58620247683E+00 -0.64740998932E+01  0.84395269337E+01  0.51100000000E-03 0. -1.
        -11    1    3    3    0    0 -0.61912776981E+01  0.72580753391E+01 -0.88049575493E+01  0.12982251533E+02  0.51100000000E-03 0.  1.
        -12    1    3    3    0    0 -0.97405164278E+01  0.59772405620E+01 -0.21920310684E+02  0.24720539749E+02  0.00000000000E+00 0.  1.
</event>
<event>
 7    1  0.1402367E-008  0.4614232E+02  0.7816164E-02  0.1320468E+00
        -11   -1    0    0    0    0  0.00000000000E+00  0.00000000000E+00  0.45593999997E+02  0.45594000000E+02  0.51100000000E-03 0. -1.
         11   -1    0    0    0    0 -0.00000000000E+00 -0.00000000000E+00 -0.45593999997E+02  0.45594000000E+02  0.51100000000E-03 0.  1.
    9900012    2    1    2    0    0 -0.39047387899E+01  0.72370071305E+00 -0.44870288871E+02  0.46142317065E+02  0.99999936500E+01 0.  0.
         12    1    1    2    0    0  0.39047387899E+01 -0.72370071305E+00  0.44870288871E+02  0.45045682935E+02  0.00000000000E+00 0. -1.
         11    1    3    3    0    0 -0.52273037930E+01  0.30744865802E+00 -0.24225189589E+02  0.24784653326E+02  0.51100000000E-03 0. -1.
        -11    1    3    3    0    0  0.14235514132E+01  0.22556919136E+00 -0.11044333700E+01  0.18158065470E+01  0.51100000000E-03 0.  1.
         12    1    3    3    0    0 -0.10098641015E+00  0.19068286367E+00 -0.19540665912E+02  0.19541857192E+02  0.00000000000E+00 0. -1.
</event>
<event>
 7    1  0.1402367E-008  0.4614232E+02  0.7816164E-02  0.1320468E+00
        -11   -1    0    0    0    0  0.00000000000E+00  0.00000000000E+00  0.45593999997E+02  0.45594000000E+02  0.51100000000E-03 0. -1.
         11   -1    0    0    0    0 -0.00000000000E+00 -0.00000000000E+00 -0.45593999997E+02  0.45594000000E+02  0.51100000000E-03 0.  1.
    9900012    2    1    2    0    0 -0.10841059542E+02  0.39711257647E+02 -0.18292094418E+02  0.46142320139E+02  0.10000021688E+02 0.  0.
         12    1    1    2    0    0  0.10841059542E+02 -0.39711257647E+02  0.18292094418E+02  0.45045679861E+02  0.00000000000E+00 0. -1.
         11    1    3    3    0    0 -0.19651389183E+00  0.16679270992E+00  0.54483165023E+00  0.60272655987E+00  0.51100000000E-03 0. -1.
        -11    1    3    3    0    0 -0.71293306596E+01  0.22585138343E+02 -0.14182001566E+02  0.27605162530E+02  0.51100000000E-03 0.  1.
         12    1    3    3    0    0 -0.35152149909E+01  0.16959326594E+02 -0.46549245025E+01  0.17934431050E+02  0.00000000000E+00 0. -1.
</event>
<event>
 7    1  0.1402367E-008  0.4614232E+02  0.7816164E-02  0.1320468E+00
        -11   -1    0    0    0    0  0.00000000000E+00  0.00000000000E+00  0.45593999997E+02  0.45594000000E+02  0.51100000000E-03 0. -1.
         11   -1    0    0    0    0 -0.00000000000E+00 -0.00000000000E+00 -0.45593999997E+02  0.45594000000E+02  0.51100000000E-03 0.  1.
    9900012    2    1    2    0    0  0.42459500642E+02 -0.14206618788E+02 -0.49473374862E+01  0.46142319182E+02  0.10000012955E+02 0.  0.
         12    1    1    2    0    0 -0.42459500642E+02  0.14206618788E+02  0.49473374862E+01  0.45045680818E+02  0.00000000000E+00 0. -1.
         11    1    3    3    0    0  0.30954703255E+02 -0.99207796739E+01  0.85775514294E+00  0.32516938157E+02  0.51100000000E-03 0. -1.
        -11    1    3    3    0    0  0.51600397767E+01 -0.20709922594E+01 -0.20417295259E+01  0.59231477403E+01  0.51100000000E-03 0.  1.
         12    1    3    3    0    0  0.63447576106E+01 -0.22148468545E+01 -0.37633631032E+01  0.77022332848E+01  0.00000000000E+00 0. -1.
</event>
<event>
 7    1  0.1402367E-008  0.4614231E+02  0.7816164E-02  0.1320468E+00
        -11   -1    0    0    0    0  0.00000000000E+00  0.00000000000E+00  0.45593999997E+02  0.45594000000E+02  0.51100000000E-03 0. -1.
         11   -1    0    0    0    0 -0.00000000000E+00 -0.00000000000E+00 -0.45593999997E+02  0.45594000000E+02  0.51100000000E-03 0.  1.
    9900012    2    1    2    0    0  0.16092540742E+02 -0.35135647511E+02 -0.23143685615E+02  0.46142314553E+02  0.99999707472E+01 0.  0.
         12    1    1    2    0    0 -0.16092540742E+02  0.35135647511E+02  0.23143685615E+02  0.45045685447E+02  0.00000000000E+00 0. -1.
         11    1    3    3    0    0  0.11780466031E+02 -0.20083471746E+02 -0.10033649443E+02  0.25353487703E+02  0.51100000000E-03 0.  1.
        -11    1    3    3    0    0  0.52276736914E+00 -0.74727516750E+01 -0.76576254627E+01  0.10712354144E+02  0.51100000000E-03 0. -1.
         12    1    3    3    0    0  0.37893073420E+01 -0.75794240899E+01 -0.54524107089E+01  0.10076472707E+02  0.00000000000E+00 0. -1.
</event>
<event>
 7    1  0.1402367E-008  0.4614232E+02  0.7816164E-02  0.1320468E+00
        -11   -1    0    0    0    0  0.00000000000E+00  0.00000000000E+00  0.45593999997E+02  0.45594000000E+02  0.51100000000E-03 0.  1.
         11   -1    0    0    0    0 -0.00000000000E+00 -0.00000000000E+00 -0.45593999997E+02  0.45594000000E+02  0.51100000000E-03 0. -1.
    9900012    2    1    2    0    0 -0.15944887841E+02  0.30744589362E+01  0.42016922503E+02  0.46142317380E+02  0.99999965265E+01 0.  0.
         12    1    1    2    0    0  0.15944887841E+02 -0.30744589362E+01 -0.42016922503E+02  0.45045682620E+02  0.00000000000E+00 0. -1.
         11    1    3    3    0    0 -0.57411697528E+00  0.20935537397E+01  0.38674966786E+01  0.44350995911E+01  0.51100000000E-03 0. -1.
        -11    1    3    3    0    0 -0.10408112996E+02  0.26013541795E+01  0.31349790417E+02  0.33134652845E+02  0.51100000000E-03 0.  1.
        -12    1    3    3    0    0 -0.49626578700E+01 -0.16204489830E+01  0.67996354073E+01  0.85725649437E+01  0.00000000000E+00 0.  1.
</event>
<event>
 7    1  0.1402367E-008  0.4614232E+02  0.7816164E-02  0.1320468E+00
        -11   -1    0    0    0    0  0.00000000000E+00  0.00000000000E+00  0.45593999997E+02  0.45594000000E+02  0.51100000000E-03 0. -1.
         11   -1    0    0    0    0 -0.00000000000E+00 -0.00000000000E+00 -0.45593999997E+02  0.45594000000E+02  0.51100000000E-03 0.  1.
    9900012    2    1    2    0    0  0.18914850370E+02  0.98907888868E+01 -0.39667546332E+02  0.46142317617E+02  0.99999986879E+01 0.  0.
         12    1    1    2    0    0 -0.18914850370E+02 -0.98907888868E+01  0.39667546332E+02  0.45045682383E+02  0.00000000000E+00 0. -1.
         11    1    3    3    0    0  0.92542089710E+00  0.90638529314E+00  0.34809344383E+00  0.13413081090E+01  0.51100000000E-03 0.  1.
        -11    1    3    3    0    0  0.10871506401E+02  0.47989318687E+01 -0.24125921014E+02  0.26893855498E+02  0.51100000000E-03 0. -1.
        -12    1    3    3    0    0  0.71179230713E+01  0.41854717250E+01 -0.15889718763E+02  0.17907154011E+02  0.00000000000E+00 0.  1.
</event>
<event>
 7    1  0.1402367E-008  0.4614232E+02  0.7816164E-02  0.1320468E+00
        -11   -1    0    0    0    0  0.00000000000E+00  0.00000000000E+00  0.45593999997E+02  0.45594000000E+02  0.51100000000E-03 0.  1.
         11   -1    0    0    0    0 -0.00000000000E+00 -0.00000000000E+00 -0.45593999997E+02  0.45594000000E+02  0.51100000000E-03 0. -1.
    9900012    2    1    2    0    0  0.37444868047E+02  0.22045351529E+02  0.11874246706E+02  0.46142318720E+02  0.10000008748E+02 0.  0.
         12    1    1    2    0    0 -0.37444868047E+02 -0.22045351529E+02 -0.11874246706E+02  0.45045681280E+02  0.00000000000E+00 0. -1.
         11    1    3    3    0    0  0.73773210671E+01  0.26834639401E+01  0.59139299555E+01  0.98285508914E+01  0.51100000000E-03 0. -1.
        -11    1    3    3    0    0  0.28172266601E+02  0.17566800447E+02  0.57520043201E+01  0.33695023926E+02  0.51100000000E-03 0.  1.
         12    1    3    3    0    0  0.18952803787E+01  0.17950871422E+01  0.20831242996E+00  0.26187439032E+01  0.00000000000E+00 0. -1.
</event>
<event>
 7    1  0.1402367E-008  0.4614232E+02  0.7816164E-02  0.1320468E+00
        -11   -1    0    0    0    0  0.00000000000E+00  0.00000000000E+00  0.45593999997E+02  0.45594000000E+02  0.51100000000E-03 0.  1.
         11   -1    0    0    0    0 -0.00000000000E+00 -0.00000000000E+00 -0.45593999997E+02  0.45594000000E+02  0.51100000000E-03 0. -1.
    9900012    2    1    2    0    0 -0.36328443059E+02 -0.12136313064E+02  0.23707964584E+02  0.46142318136E+02  0.10000003418E+02 0.  0.
         12    1    1    2    0    0  0.36328443059E+02  0.12136313064E+02 -0.23707964584E+02  0.45045681864E+02  0.00000000000E+00 0. -1.
         11    1    3    3    0    0 -0.18536945800E+02 -0.11201192717E+02  0.12654634362E+02  0.25084354665E+02  0.51100000000E-03 0. -1.
        -11    1    3    3    0    0 -0.14080927387E+02 -0.13316955136E+01  0.93573284441E+01  0.16958936431E+02  0.51100000000E-03 0.  1.
        -12    1    3    3    0    0 -0.37105698720E+01  0.39657516597E+00  0.16960017778E+01  0.40990270391E+01  0.00000000000E+00 0.  1.
</event>
<event>
 7    1  0.1402367E-008  0.4614232E+02  0.7816164E-02  0.1320468E+00
        -11   -1    0    0    0    0  0.00000000000E+00  0.00000000000E+00  0.45593999997E+02  0.45594000000E+02  0.51100000000E-03 0. -1.
         11   -1    0    0    0    0 -0.00000000000E+00 -0.00000000000E+00 -0.45593999997E+02  0.45594000000E+02  0.51100000000E-03 0.  1.
    9900012    2    1    2    0    0  0.35384786226E+02 -0.26184979015E+01 -0.27752004159E+02  0.46142319159E+02  0.10000012751E+02 0.  0.
         12    1    1    2    0    0 -0.35384786226E+02  0.26184979015E+01  0.27752004159E+02  0.45045680841E+02  0.00000000000E+00 0. -1.
         11    1    3    3    0    0  0.10201852656E+02  0.91919335297E+00 -0.11197372891E+02  0.15175766009E+02  0.51100000000E-03 0. -1.
        -11    1    3    3    0    0  0.15451248182E+01 -0.18816105530E+01 -0.20591712654E+01  0.31887388633E+01  0.51100000000E-03 0.  1.
        -12    1    3    3    0    0  0.23637808752E+02 -0.16560807014E+01 -0.14495460003E+02  0.27777814287E+02  0.00000000000E+00 0.  1.
</event>
<event>
 7    1  0.1402367E-008  0.4614232E+02  0.7816164E-02  0.1320468E+00
        -11   -1    0    0    0    0  0.00000000000E+00  0.00000000000E+00  0.45593999997E+02  0.45594000000E+02  0.51100000000E-03 0.  1.
         11   -1    0    0    0    0 -0.00000000000E+00 -0.00000000000E+00 -0.45593999997E+02  0.45594000000E+02  0.51100000000E-03 0. -1.
    9900012    2    1    2    0    0  0.93076633338E+01  0.12051788363E+02  0.42393811880E+02  0.46142317797E+02  0.10000000325E+02 0.  0.
         12    1    1    2    0    0 -0.93076633338E+01 -0.12051788363E+02 -0.42393811880E+02  0.45045682203E+02  0.00000000000E+00 0. -1.
         11    1    3    3    0    0  0.35522658641E+01  0.31168033866E+01  0.53277990738E+01  0.71216921692E+01  0.51100000000E-03 0. -1.
        -11    1    3    3    0    0  0.64979773877E+01  0.58587179380E+01  0.30527771789E+02  0.31756780956E+02  0.51100000000E-03 0.  1.
        -12    1    3    3    0    0 -0.74257991807E+00  0.30762670380E+01  0.65382410167E+01  0.72638446718E+01  0.00000000000E+00 0.  1.
</event>
<event>
 7    1  0.1402367E-008  0.4614232E+02  0.7816164E-02  0.1320468E+00
        -11   -1    0    0    0    0  0.00000000000E+00  0.00000000000E+00  0.45593999997E+02  0.45594000000E+02  0.51100000000E-03 0.  1.
         11   -1    0    0    0    0 -0.00000000000E+00 -0.00000000000E+00 -0.45593999997E+02  0.45594000000E+02  0.51100000000E-03 0. -1.
    9900012    2    1    2    0    0  0.57224347910E+01 -0.29920088459E+02  0.33183663663E+02  0.46142317772E+02  0.10000000098E+02 0.  0.
         12    1    1    2    0    0 -0.57224347910E+01  0.29920088459E+02 -0.33183663663E+02  0.45045682228E+02  0.00000000000E+00 0. -1.
         11    1    3    3    0    0  0.26333742454E+01 -0.10535158482E+02  0.17219050292E+02  0.20357306240E+02  0.51100000000E-03 0.  1.
        -11    1    3    3    0    0  0.55024177086E+00 -0.92335656038E+01  0.45790971014E+01  0.10321319213E+02  0.51100000000E-03 0. -1.
         12    1    3    3    0    0  0.25388187748E+01 -0.10151364373E+02  0.11385516270E+02  0.15463692319E+02  0.00000000000E+00 0. -1.
</event>
<event>
 7    1  0.1950660E-008  0.4614232E+02  0.7816164E-02  0.1320468E+00
        -11   -1    0    0    0    0  0.00000000000E+00  0.00000000000E+00  0.45593999997E+02  0.45594000000E+02  0.51100000000E-03 0.  1.
         11   -1    0    0    0    0 -0.00000000000E+00 -0.00000000000E+00 -0.45593999997E+02  0.45594000000E+02  0.51100000000E-03 0. -1.
    9900012    2    1    2    0    0 -0.44348490397E+02  0.77460643082E+01 -0.15242654659E+01  0.46142317654E+02  0.99999990267E+01 0.  0.
         12    1    1    2    0    0  0.44348490397E+02 -0.77460643082E+01  0.15242654659E+01  0.45045682346E+02  0.00000000000E+00 0. -1.
         11    1    3    3    0    0 -0.30482406671E+01 -0.16806102345E+01  0.14919429608E+00  0.34840323081E+01  0.51100000000E-03 0. -1.
        -11    1    3    3    0    0 -0.37845438803E+02  0.86989150028E+01 -0.28500660785E+01  0.38936759461E+02  0.51100000000E-03 0.  1.
        -12    1    3    3    0    0 -0.34548109269E+01  0.72775953986E+00  0.11766063166E+01  0.37215258850E+01  0.00000000000E+00 0.  1.
</event>
<event>
 7    1  0.1402367E-008  0.4614232E+02  0.7816164E-02  0.1320468E+00
        -11   -1    0    0    0    0  0.00000000000E+00  0.00000000000E+00  0.45593999997E+02  0.45594000000E+02  0.51100000000E-03 0.  1.
         11   -1    0    0    0    0 -0.00000000000E+00 -0.00000000000E+00 -0.45593999997E+02  0.45594000000E+02  0.51100000000E-03 0. -1.
    9900012    2    1    2    0    0  0.94045629691E+01 -0.25351279518E+02  0.36027494925E+02  0.46142316873E+02  0.99999918978E+01 0.  0.
         12    1    1    2    0    0 -0.94045629691E+01  0.25351279518E+02 -0.36027494925E+02  0.45045683127E+02  0.00000000000E+00 0. -1.
         11    1    3    3    0    0  0.40816716667E+01 -0.20620766243E+01  0.51380865915E+01  0.68783819087E+01  0.51100000000E-03 0. -1.
        -11    1    3    3    0    0  0.59271377488E+01 -0.22134032096E+02  0.29571743568E+02  0.37410350928E+02  0.51100000000E-03 0.  1.
         12    1    3    3    0    0 -0.60424644641E+00 -0.11551707982E+01  0.13176647660E+01  0.18535840354E+01  0.00000000000E+00 0. -1.
</event>
<event>
 7    1  0.1402367E-008  0.4614232E+02  0.7816164E-02  0.1320468E+00
        -11   -1    0    0    0    0  0.00000000000E+00  0.00000000000E+00  0.45593999997E+02  0.45594000000E+02  0.51100000000E-03 0.  1.
         11   -1    0    0    0    0 -0.00000000000E+00 -0.00000000000E+00 -0.45593999997E+02  0.45594000000E+02  0.51100000000E-03 0. -1.
    9900012    2    1    2    0    0  0.22516704809E+02  0.24641558856E+02  0.30247399270E+02  0.46142316735E+02  0.99999906388E+01 0.  0.
         12    1    1    2    0    0 -0.22516704809E+02 -0.24641558856E+02 -0.30247399270E+02  0.45045683265E+02  0.00000000000E+00 0. -1.
         11    1    3    3    0    0 -0.46804411461E+00  0.30726298275E+01  0.18611596055E+01  0.36227109584E+01  0.51100000000E-03 0. -1.
        -11    1    3    3    0    0  0.17904843209E+02  0.17367144933E+02  0.20881853342E+02  0.32530799755E+02  0.51100000000E-03 0.  1.
        -12    1    3    3    0    0  0.50799057143E+01  0.42017840950E+01  0.75043863222E+01  0.99888060208E+01  0.00000000000E+00 0.  1.
</event>
<event>
 7    1  0.1402367E-008  0.4614232E+02  0.7816164E-02  0.1320468E+00
        -11   -1    0    0    0    0  0.00000000000E+00  0.00000000000E+00  0.45593999997E+02  0.45594000000E+02  0.51100000000E-03 0.  1.
         11   -1    0    0    0    0 -0.00000000000E+00 -0.00000000000E+00 -0.45593999997E+02  0.45594000000E+02  0.51100000000E-03 0. -1.
    9900012    2    1    2    0    0 -0.91068699424E+01 -0.37146755649E+02  0.23796996611E+02  0.46142316710E+02  0.99999904128E+01 0.  0.
         12    1    1    2    0    0  0.91068699424E+01  0.37146755649E+02 -0.23796996611E+02  0.45045683290E+02  0.00000000000E+00 0. -1.
         11    1    3    3    0    0 -0.11942504485E+01 -0.29677090485E+01  0.60391262896E+00  0.32554941031E+01  0.51100000000E-03 0. -1.
        -11    1    3    3    0    0 -0.42020376146E+01 -0.48846871720E+01  0.54382981883E+01  0.84316295180E+01  0.51100000000E-03 0.  1.
        -12    1    3    3    0    0 -0.37105818794E+01 -0.29294359428E+02  0.17754785793E+02  0.34455193089E+02  0.00000000000E+00 0.  1.
</event>
<event>
 7    1  0.1402367E-008  0.4614232E+02  0.7816164E-02  0.1320468E+00
        -11   -1    0    0    0    0  0.00000000000E+00  0.00000000000E+00  0.45593999997E+02  0.45594000000E+02  0.51100000000E-03 0.  1.
         11   -1    0    0    0    0 -0.00000000000E+00 -0.00000000000E+00 -0.45593999997E+02  0.45594000000E+02  0.51100000000E-03 0. -1.
    9900012    2    1    2    0    0 -0.11184956755E+01  0.23649579977E+02  0.38321793039E+02  0.46142317772E+02  0.10000000100E+02 0.  0.
         12    1    1    2    0    0  0.11184956755E+01 -0.23649579977E+02 -0.38321793039E+02  0.45045682228E+02  0.00000000000E+00 0. -1.
         11    1    3    3    0    0 -0.45810059857E+01  0.13774739558E+02  0.21469843070E+02  0.25916852190E+02  0.51100000000E-03 0. -1.
        -11    1    3    3    0    0  0.31177359718E+01  0.94054004965E+01  0.13083052424E+02  0.16411827962E+02  0.51100000000E-03 0.  1.
         12    1    3    3    0    0  0.34477433845E+00  0.46943992241E+00  0.37688975457E+01  0.38136376198E+01  0.00000000000E+00 0. -1.
</event>
<event>
 7    1  0.1402367E-008  0.4614231E+02  0.7816164E-02  0.1320468E+00
        -11   -1    0    0    0    0  0.00000000000E+00  0.00000000000E+00  0.45593999997E+02  0.45594000000E+02  0.51100000000E-03 0.  1.
         11   -1    0    0    0    0 -0.00000000000E+00 -0.00000000000E+00 -0.45593999997E+02  0.45594000000E+02  0.51100000000E-03 0. -1.
    9900012    2    1    2    0    0  0.19422023411E+02 -0.21804056594E+02  0.34299883780E+02  0.46142313140E+02  0.99999578621E+01 0.  0.
         12    1    1    2    0    0 -0.19422023411E+02  0.21804056594E+02 -0.34299883780E+02  0.45045686860E+02  0.00000000000E+00 0. -1.
         11    1    3    3    0    0  0.72580985975E+01 -0.60235464641E+01  0.96438814969E+01  0.13489535123E+02  0.51100000000E-03 0. -1.
        -11    1    3    3    0    0  0.14175870470E+01 -0.78584892571E+01  0.79574803204E+01  0.11273282563E+02  0.51100000000E-03 0.  1.
        -12    1    3    3    0    0  0.10746337766E+02 -0.79220208731E+01  0.16698521963E+02  0.21379495454E+02  0.00000000000E+00 0.  1.
</event>
<event>
 7    1  0.1402367E-008  0.4614232E+02  0.7816164E-02  0.1320468E+00
        -11   -1    0    0    0    0  0.00000000000E+00  0.00000000000E+00  0.45593999997E+02  0.45594000000E+02  0.51100000000E-03 0.  1.
         11   -1    0    0    0    0 -0.00000000000E+00 -0.00000000000E+00 -0.45593999997E+02  0.45594000000E+02  0.51100000000E-03 0. -1.
    9900012    2    1    2    0    0 -0.33273616255E+02 -0.26996999755E+02  0.13897553327E+02  0.46142317377E+02  0.99999964975E+01 0.  0.
         12    1    1    2    0    0  0.33273616255E+02  0.26996999755E+02 -0.13897553327E+02  0.45045682623E+02  0.00000000000E+00 0. -1.
         11    1    3    3    0    0 -0.72100827910E+01 -0.57915364202E+01 -0.92833171064E-01  0.92485569803E+01  0.51100000000E-03 0.  1.
        -11    1    3    3    0    0 -0.81923080887E+01 -0.38667344204E+01  0.54382824525E+01  0.10566005073E+02  0.51100000000E-03 0. -1.
        -12    1    3    3    0    0 -0.17871225376E+02 -0.17338728915E+02  0.85521040455E+01  0.26327755324E+02  0.00000000000E+00 0.  1.
</event>
<event>
 7    1  0.1402367E-008  0.4614232E+02  0.7816164E-02  0.1320468E+00
        -11   -1    0    0    0    0  0.00000000000E+00  0.00000000000E+00  0.45593999997E+02  0.45594000000E+02  0.51100000000E-03 0.  1.
         11   -1    0    0    0    0 -0.00000000000E+00 -0.00000000000E+00 -0.45593999997E+02  0.45594000000E+02  0.51100000000E-03 0. -1.
    9900012    2    1    2    0    0 -0.42817317723E+02  0.29471860403E+01  0.13678631279E+02  0.46142317008E+02  0.99999931356E+01 0.  0.
         12    1    1    2    0    0  0.42817317723E+02 -0.29471860403E+01 -0.13678631279E+02  0.45045682992E+02  0.00000000000E+00 0. -1.
         11    1    3    3    0    0 -0.28467584180E+02  0.55068771623E-01  0.10611759050E+02  0.30381175290E+02  0.51100000000E-03 0. -1.
        -11    1    3    3    0    0 -0.40422281143E+01  0.21150382936E+01  0.29328384215E+01  0.54235169936E+01  0.51100000000E-03 0.  1.
         12    1    3    3    0    0 -0.10307505428E+02  0.77707897504E+00  0.13403380793E+00  0.10337624724E+02  0.00000000000E+00 0. -1.
</event>
<event>
 7    1  0.1402367E-008  0.4614232E+02  0.7816164E-02  0.1320468E+00
        -11   -1    0    0    0    0  0.00000000000E+00  0.00000000000E+00  0.45593999997E+02  0.45594000000E+02  0.51100000000E-03 0. -1.
         11   -1    0    0    0    0 -0.00000000000E+00 -0.00000000000E+00 -0.45593999997E+02  0.45594000000E+02  0.51100000000E-03 0.  1.
    9900012    2    1    2    0    0  0.63283759882E+01  0.40942553330E+02  0.17685372337E+02  0.46142318625E+02  0.10000007878E+02 0.  0.
         12    1    1    2    0    0 -0.63283759882E+01 -0.40942553330E+02 -0.17685372337E+02  0.45045681375E+02  0.00000000000E+00 0. -1.
         11    1    3    3    0    0  0.46303758205E+01  0.70984223150E+01  0.38364490051E+01  0.93030275088E+01  0.51100000000E-03 0. -1.
        -11    1    3    3    0    0 -0.92069352007E+00  0.14575207783E+02  0.46455819741E+01  0.15325331664E+02  0.51100000000E-03 0.  1.
         12    1    3    3    0    0  0.26186936878E+01  0.19268923232E+02  0.92033413583E+01  0.21513959452E+02  0.00000000000E+00 0. -1.
</event>
<event>
 7    1  0.1402367E-008  0.4614232E+02  0.7816164E-02  0.1320468E+00
        -11   -1    0    0    0    0  0.00000000000E+00  0.00000000000E+00  0.45593999997E+02  0.45594000000E+02  0.51100000000E-03 0.  1.
         11   -1    0    0    0    0 -0.00000000000E+00 -0.00000000000E+00 -0.45593999997E+02  0.45594000000E+02  0.51100000000E-03 0. -1.
    9900012    2    1    2    0    0 -0.18198461762E+02  0.15966687955E+02  0.37986765265E+02  0.46142317964E+02  0.10000001848E+02 0.  0.
         12    1    1    2    0    0  0.18198461762E+02 -0.15966687955E+02 -0.37986765265E+02  0.45045682036E+02  0.00000000000E+00 0. -1.
         11    1    3    3    0    0 -0.90462529324E+01  0.41346507069E+01  0.11016170043E+02  0.14842035954E+02  0.51100000000E-03 0. -1.
        -11    1    3    3    0    0 -0.83134289800E+00  0.10148044092E-01  0.45337318857E+01  0.46093339074E+01  0.51100000000E-03 0.  1.
        -12    1    3    3    0    0 -0.83208659318E+01  0.11821889204E+02  0.22436863337E+02  0.26690948102E+02  0.00000000000E+00 0.  1.
</event>
<event>
 7    1  0.1402367E-008  0.4614231E+02  0.7816164E-02  0.1320468E+00
        -11   -1    0    0    0    0  0.00000000000E+00  0.00000000000E+00  0.45593999997E+02  0.45594000000E+02  0.51100000000E-03 0. -1.
         11   -1    0    0    0    0 -0.00000000000E+00 -0.00000000000E+00 -0.45593999997E+02  0.45594000000E+02  0.51100000000E-03 0.  1.
    9900012    2    1    2    0    0  0.33320801636E+02 -0.27825213793E+02  0.12024784027E+02  0.46142314577E+02  0.99999709650E+01 0.  0.
         12    1    1    2    0    0 -0.33320801636E+02  0.27825213793E+02 -0.12024784027E+02  0.45045685423E+02  0.00000000000E+00 0. -1.
         11    1    3    3    0    0 -0.14621496107E+00 -0.44283289969E-01  0.61018579009E+00  0.62902049582E+00  0.51100000000E-03 0. -1.
        -11    1    3    3    0    0  0.26452374269E+02 -0.19738234484E+02  0.59983236553E+01  0.33545579320E+02  0.51100000000E-03 0.  1.
        -12    1    3    3    0    0  0.70146423288E+01 -0.80426960195E+01  0.54162745812E+01  0.11967714761E+02  0.00000000000E+00 0.  1.
</event>
<event>
 7    1  0.1402367E-008  0.4614232E+02  0.7816164E-02  0.1320468E+00
        -11   -1    0    0    0    0  0.00000000000E+00  0.00000000000E+00  0.45593999997E+02  0.45594000000E+02  0.51100000000E-03 0.  1.
         11   -1    0    0    0    0 -0.00000000000E+00 -0.00000000000E+00 -0.45593999997E+02  0.45594000000E+02  0.51100000000E-03 0. -1.
    9900012    2    1    2    0    0 -0.21087168937E+02  0.26457932978E+02  0.29739242919E+02  0.46142317847E+02  0.10000000785E+02 0.  0.
         12    1    1    2    0    0  0.21087168937E+02 -0.26457932978E+02 -0.29739242919E+02  0.45045682153E+02  0.00000000000E+00 0. -1.
         11    1    3    3    0    0 -0.80655027948E+01  0.48108112358E+01  0.58927541096E+01  0.11086964929E+02  0.51100000000E-03 0. -1.
        -11    1    3    3    0    0 -0.11376235738E+02  0.19298005326E+02  0.18774619143E+02  0.29228720009E+02  0.51100000000E-03 0.  1.
        -12    1    3    3    0    0 -0.16454304039E+01  0.23491164163E+01  0.50718696661E+01  0.58266329094E+01  0.00000000000E+00 0.  1.
</event>
<event>
 7    1  0.1402367E-008  0.4614233E+02  0.7816164E-02  0.1320468E+00
        -11   -1    0    0    0    0  0.00000000000E+00  0.00000000000E+00  0.45593999997E+02  0.45594000000E+02  0.51100000000E-03 0.  1.
         11   -1    0    0    0    0 -0.00000000000E+00 -0.00000000000E+00 -0.45593999997E+02  0.45594000000E+02  0.51100000000E-03 0. -1.
    9900012    2    1    2    0    0  0.22889450413E+02 -0.38275726629E+02  0.63367555912E+01  0.46142326949E+02  0.10000083783E+02 0.  0.
         12    1    1    2    0    0 -0.22889450413E+02  0.38275726629E+02 -0.63367555912E+01  0.45045673051E+02  0.00000000000E+00 0. -1.
         11    1    3    3    0    0  0.38254243579E+01 -0.13398002003E+02  0.14566406302E-01  0.13933432514E+02  0.51100000000E-03 0. -1.
        -11    1    3    3    0    0  0.13307265811E+02 -0.14274001782E+02  0.40745970752E+01  0.19935716486E+02  0.51100000000E-03 0.  1.
        -12    1    3    3    0    0  0.57567602440E+01 -0.10603722844E+02  0.22475921097E+01  0.12273177948E+02  0.00000000000E+00 0.  1.
</event>
<event>
 7    1  0.1402367E-008  0.4614232E+02  0.7816164E-02  0.1320468E+00
        -11   -1    0    0    0    0  0.00000000000E+00  0.00000000000E+00  0.45593999997E+02  0.45594000000E+02  0.51100000000E-03 0.  1.
         11   -1    0    0    0    0 -0.00000000000E+00 -0.00000000000E+00 -0.45593999997E+02  0.45594000000E+02  0.51100000000E-03 0. -1.
    9900012    2    1    2    0    0  0.40975986637E+02  0.15842557129E+02  0.99546687908E+01  0.46142317321E+02  0.99999959851E+01 0.  0.
         12    1    1    2    0    0 -0.40975986637E+02 -0.15842557129E+02 -0.99546687908E+01  0.45045682679E+02  0.00000000000E+00 0. -1.
         11    1    3    3    0    0  0.30666996148E+01  0.21353262868E+01 -0.12276819882E+00  0.37388951804E+01  0.51100000000E-03 0. -1.
        -11    1    3    3    0    0  0.90570355331E+01  0.21474921577E+01 -0.10999683909E+01  0.93729155516E+01  0.51100000000E-03 0.  1.
        -12    1    3    3    0    0  0.28852251490E+02  0.11559738685E+02  0.11177405381E+02  0.33030506589E+02  0.00000000000E+00 0.  1.
</event>
<event>
 7    1  0.1402367E-008  0.4614232E+02  0.7816164E-02  0.1320468E+00
        -11   -1    0    0    0    0  0.00000000000E+00  0.00000000000E+00  0.45593999997E+02  0.45594000000E+02  0.51100000000E-03 0. -1.
         11   -1    0    0    0    0 -0.00000000000E+00 -0.00000000000E+00 -0.45593999997E+02  0.45594000000E+02  0.51100000000E-03 0.  1.
    9900012    2    1    2    0    0  0.80640198911E-01 -0.36442053120E+02 -0.26477988088E+02  0.46142316615E+02  0.99999895454E+01 0.  0.
         12    1    1    2    0    0 -0.80640198911E-01  0.36442053120E+02  0.26477988088E+02  0.45045683385E+02  0.00000000000E+00 0. -1.
         11    1    3    3    0    0  0.10384544728E+01 -0.21661662853E+02 -0.15922928993E+02  0.26904380559E+02  0.51100000000E-03 0. -1.
        -11    1    3    3    0    0 -0.22527790583E+01 -0.13777776238E+02 -0.10706093730E+02  0.17593253672E+02  0.51100000000E-03 0.  1.
         12    1    3    3    0    0  0.12949647843E+01 -0.10026140289E+01  0.15103463481E+00  0.16446823841E+01  0.00000000000E+00 0. -1.
</event>
<event>
 7    1  0.1402367E-008  0.4614232E+02  0.7816164E-02  0.1320468E+00
        -11   -1    0    0    0    0  0.00000000000E+00  0.00000000000E+00  0.45593999997E+02  0.45594000000E+02  0.51100000000E-03 0.  1.
         11   -1    0    0    0    0 -0.00000000000E+00 -0.00000000000E+00 -0.45593999997E+02  0.45594000000E+02  0.51100000000E-03 0. -1.
    9900012    2    1    2    0    0  0.33092041159E+02  0.29152623137E+02 -0.91735944656E+01  0.46142318084E+02  0.10000002947E+02 0.  0.
         12    1    1    2    0    0 -0.33092041159E+02 -0.29152623137E+02  0.91735944656E+01  0.45045681916E+02  0.00000000000E+00 0. -1.
         11    1    3    3    0    0  0.58668458830E+01  0.98026846069E+01 -0.46002365054E+00  0.11433465273E+02  0.51100000000E-03 0. -1.
        -11    1    3    3    0    0  0.18824804527E+02  0.13652090857E+02 -0.77554741802E+01  0.24513266414E+02  0.51100000000E-03 0.  1.
        -12    1    3    3    0    0  0.84003907491E+01  0.56978476727E+01 -0.95809663488E+00  0.10195586398E+02  0.00000000000E+00 0.  1.
</event>
<event>
 7    1  0.1402367E-008  0.4614232E+02  0.7816164E-02  0.1320468E+00
        -11   -1    0    0    0    0  0.00000000000E+00  0.00000000000E+00  0.45593999997E+02  0.45594000000E+02  0.51100000000E-03 0.  1.
         11   -1    0    0    0    0 -0.00000000000E+00 -0.00000000000E+00 -0.45593999997E+02  0.45594000000E+02  0.51100000000E-03 0. -1.
    9900012    2    1    2    0    0 -0.21942228317E+02  0.12883267178E+02  0.37170869727E+02  0.46142317489E+02  0.99999975149E+01 0.  0.
         12    1    1    2    0    0  0.21942228317E+02 -0.12883267178E+02 -0.37170869727E+02  0.45045682511E+02  0.00000000000E+00 0. -1.
         11    1    3    3    0    0 -0.14968131165E+02  0.83873670680E+01  0.22276760912E+02  0.28118445083E+02  0.51100000000E-03 0. -1.
        -11    1    3    3    0    0 -0.32890237322E+01  0.16631195993E+01  0.17457854257E+01  0.40781626900E+01  0.51100000000E-03 0.  1.
         12    1    3    3    0    0 -0.36850734199E+01  0.28327805107E+01  0.13148323389E+02  0.13945709715E+02  0.00000000000E+00 0. -1.
</event>
<event>
 7    1  0.1402367E-008  0.4614232E+02  0.7816164E-02  0.1320468E+00
        -11   -1    0    0    0    0  0.00000000000E+00  0.00000000000E+00  0.45593999997E+02  0.45594000000E+02  0.51100000000E-03 0.  1.
         11   -1    0    0    0    0 -0.00000000000E+00 -0.00000000000E+00 -0.45593999997E+02  0.45594000000E+02  0.51100000000E-03 0. -1.
    9900012    2    1    2    0    0 -0.19323280639E+02 -0.13119085909E+02  0.38517706375E+02  0.46142319917E+02  0.10000019659E+02 0.  0.
         12    1    1    2    0    0  0.19323280639E+02  0.13119085909E+02 -0.38517706375E+02  0.45045680083E+02  0.00000000000E+00 0. -1.
         11    1    3    3    0    0 -0.63547199346E+01 -0.22819534174E+01  0.76348451094E+01  0.10192185092E+02  0.51100000000E-03 0. -1.
        -11    1    3    3    0    0 -0.56306697793E+01 -0.87487560949E+01  0.14180653892E+02  0.17587953844E+02  0.51100000000E-03 0.  1.
         12    1    3    3    0    0 -0.73378909254E+01 -0.20883763968E+01  0.16702207374E+02  0.18362180981E+02  0.00000000000E+00 0. -1.
</event>
<event>
 7    1  0.1402367E-008  0.4614232E+02  0.7816164E-02  0.1320468E+00
        -11   -1    0    0    0    0  0.00000000000E+00  0.00000000000E+00  0.45593999997E+02  0.45594000000E+02  0.51100000000E-03 0.  1.
         11   -1    0    0    0    0 -0.00000000000E+00 -0.00000000000E+00 -0.45593999997E+02  0.45594000000E+02  0.51100000000E-03 0. -1.
    9900012    2    1    2    0    0 -0.25690733795E+01 -0.42034141912E+02  0.15988881429E+02  0.46142317037E+02  0.99999933936E+01 0.  0.
         12    1    1    2    0    0  0.25690733795E+01  0.42034141912E+02 -0.15988881429E+02  0.45045682963E+02  0.00000000000E+00 0. -1.
         11    1    3    3    0    0  0.12043096550E+01 -0.47823886814E+01  0.28535179840E+01  0.56977336188E+01  0.51100000000E-03 0. -1.
        -11    1    3    3    0    0 -0.16654694404E+01 -0.77965428150E+01  0.62286554860E+01  0.10117115090E+02  0.51100000000E-03 0.  1.
        -12    1    3    3    0    0 -0.21079135941E+01 -0.29455210415E+02  0.69067079588E+01  0.30327468328E+02  0.00000000000E+00 0.  1.
</event>
<event>
 7    1  0.1402367E-008  0.4614232E+02  0.7816164E-02  0.1320468E+00
        -11   -1    0    0    0    0  0.00000000000E+00  0.00000000000E+00  0.45593999997E+02  0.45594000000E+02  0.51100000000E-03 0.  1.
         11   -1    0    0    0    0 -0.00000000000E+00 -0.00000000000E+00 -0.45593999997E+02  0.45594000000E+02  0.51100000000E-03 0. -1.
    9900012    2    1    2    0    0 -0.11324753231E+02 -0.36414964204E+02  0.23975279706E+02  0.46142315515E+02  0.99999795204E+01 0.  0.
         12    1    1    2    0    0  0.11324753231E+02  0.36414964204E+02 -0.23975279706E+02  0.45045684485E+02  0.00000000000E+00 0. -1.
         11    1    3    3    0    0 -0.21613553344E+01 -0.22083758288E+01  0.20523849664E+01  0.37095370323E+01  0.51100000000E-03 0. -1.
        -11    1    3    3    0    0  0.48226083953E+00  0.25385719822E+00  0.29342287093E+00  0.61896384122E+00  0.51100000000E-03 0.  1.
        -12    1    3    3    0    0 -0.96456587358E+01 -0.34460445574E+02  0.21629471868E+02  0.41813814642E+02  0.00000000000E+00 0.  1.
</event>
<event>
 7    1  0.1402367E-008  0.4614232E+02  0.7816164E-02  0.1320468E+00
        -11   -1    0    0    0    0  0.00000000000E+00  0.00000000000E+00  0.45593999997E+02  0.45594000000E+02  0.51100000000E-03 0.  1.
         11   -1    0    0    0    0 -0.00000000000E+00 -0.00000000000E+00 -0.45593999997E+02  0.45594000000E+02  0.51100000000E-03 0. -1.
    9900012    2    1    2    0    0  0.41191889213E+02  0.59454920983E+01  0.17233483291E+02  0.46142316971E+02  0.99999927958E+01 0.  0.
         12    1    1    2    0    0 -0.41191889213E+02 -0.59454920983E+01 -0.17233483291E+02  0.45045683029E+02  0.00000000000E+00 0. -1.
         11    1    3    3    0    0  0.86880573130E+01  0.11886900994E+01  0.80233527201E+01  0.11885685220E+02  0.51100000000E-03 0. -1.
        -11    1    3    3    0    0  0.25619739122E+02  0.44587639835E+01  0.83504796679E+01  0.27312673247E+02  0.51100000000E-03 0.  1.
         12    1    3    3    0    0  0.68840927773E+01  0.29803801538E+00  0.85965090336E+00  0.69439585036E+01  0.00000000000E+00 0. -1.
</event>
<event>
 7    1  0.1402367E-008  0.4614232E+02  0.7816164E-02  0.1320468E+00
        -11   -1    0    0    0    0  0.00000000000E+00  0.00000000000E+00  0.45593999997E+02  0.45594000000E+02  0.51100000000E-03 0.  1.
         11   -1    0    0    0    0 -0.00000000000E+00 -0.00000000000E+00 -0.45593999997E+02  0.45594000000E+02  0.51100000000E-03 0. -1.
    9900012    2    1    2    0    0 -0.69602436943E+01 -0.12348585238E+00  0.44504531022E+02  0.46142317382E+02  0.99999965446E+01 0.  0.
         12    1    1    2    0    0  0.69602436943E+01  0.12348585238E+00 -0.44504531022E+02  0.45045682618E+02  0.00000000000E+00 0. -1.
         11    1    3    3    0    0 -0.10993627959E+00  0.76862975664E+00  0.78289696422E+01  0.78673784457E+01  0.51100000000E-03 0. -1.
        -11    1    3    3    0    0 -0.18167247865E+01 -0.28118617753E+01  0.26948781981E+02  0.27155918436E+02  0.51100000000E-03 0.  1.
        -12    1    3    3    0    0 -0.50335826283E+01  0.19197461663E+01  0.97267793990E+01  0.11119020501E+02  0.00000000000E+00 0.  1.
</event>
<event>
 7    1  0.1402367E-008  0.4614232E+02  0.7816164E-02  0.1320468E+00
        -11   -1    0    0    0    0  0.00000000000E+00  0.00000000000E+00  0.45593999997E+02  0.45594000000E+02  0.51100000000E-03 0. -1.
         11   -1    0    0    0    0 -0.00000000000E+00 -0.00000000000E+00 -0.45593999997E+02  0.45594000000E+02  0.51100000000E-03 0.  1.
    9900012    2    1    2    0    0  0.41979920313E+02 -0.79062411097E+01 -0.14293036548E+02  0.46142320387E+02  0.10000023948E+02 0.  0.
         12    1    1    2    0    0 -0.41979920313E+02  0.79062411097E+01  0.14293036548E+02  0.45045679613E+02  0.00000000000E+00 0. -1.
         11    1    3    3    0    0  0.44797487823E+01  0.11709172076E+00 -0.35695824215E+01  0.57292040065E+01  0.51100000000E-03 0. -1.
        -11    1    3    3    0    0  0.35378263545E+02 -0.85968763447E+01 -0.11335160576E+02  0.38131531308E+02  0.51100000000E-03 0.  1.
        -12    1    3    3    0    0  0.21219079857E+01  0.57354351423E+00  0.61170644941E+00  0.22815850724E+01  0.00000000000E+00 0.  1.
</event>
<event>
 7    1  0.1402367E-008  0.4614232E+02  0.7816164E-02  0.1320468E+00
        -11   -1    0    0    0    0  0.00000000000E+00  0.00000000000E+00  0.45593999997E+02  0.45594000000E+02  0.51100000000E-03 0.  1.
         11   -1    0    0    0    0 -0.00000000000E+00 -0.00000000000E+00 -0.45593999997E+02  0.45594000000E+02  0.51100000000E-03 0. -1.
    9900012    2    1    2    0    0  0.44673492406E+02  0.55956113604E+00  0.57514781678E+01  0.46142317260E+02  0.99999954268E+01 0.  0.
         12    1    1    2    0    0 -0.44673492406E+02 -0.55956113604E+00 -0.57514781678E+01  0.45045682740E+02  0.00000000000E+00 0. -1.
         11    1    3    3    0    0  0.38269597906E+02 -0.17763684184E+01  0.54276955452E+01  0.38693377829E+02  0.51100000000E-03 0.  1.
        -11    1    3    3    0    0  0.90826770130E+00  0.72544559781E+00 -0.10425567125E+01  0.15614564651E+01  0.51100000000E-03 0. -1.
        -12    1    3    3    0    0  0.54956267994E+01  0.16104839567E+01  0.13663393351E+01  0.58874829657E+01  0.00000000000E+00 0.  1.
</event>
<event>
 7    1  0.1402367E-008  0.4614232E+02  0.7816164E-02  0.1320468E+00
        -11   -1    0    0    0    0  0.00000000000E+00  0.00000000000E+00  0.45593999997E+02  0.45594000000E+02  0.51100000000E-03 0. -1.
         11   -1    0    0    0    0 -0.00000000000E+00 -0.00000000000E+00 -0.45593999997E+02  0.45594000000E+02  0.51100000000E-03 0.  1.
    9900012    2    1    2    0    0  0.37167739617E+02 -0.23570573556E+02 -0.95969109761E+01  0.46142317562E+02  0.99999981856E+01 0.  0.
         12    1    1    2    0    0 -0.37167739617E+02  0.23570573556E+02  0.95969109761E+01  0.45045682438E+02  0.00000000000E+00 0. -1.
         11    1    3    3    0    0 -0.28284173647E-01  0.49668887252E+00 -0.59249371598E+00  0.77365941807E+00  0.51100000000E-03 0. -1.
        -11    1    3    3    0    0  0.30300691652E+02 -0.17813413011E+02 -0.74730183879E+01  0.35934601734E+02  0.51100000000E-03 0.  1.
         12    1    3    3    0    0  0.68953321384E+01 -0.62538494178E+01 -0.15313988722E+01  0.94340564099E+01  0.00000000000E+00 0. -1.
</event>
<event>
 7    1  0.1402367E-008  0.4614232E+02  0.7816164E-02  0.1320468E+00
        -11   -1    0    0    0    0  0.00000000000E+00  0.00000000000E+00  0.45593999997E+02  0.45594000000E+02  0.51100000000E-03 0.  1.
         11   -1    0    0    0    0 -0.00000000000E+00 -0.00000000000E+00 -0.45593999997E+02  0.45594000000E+02  0.51100000000E-03 0. -1.
    9900012    2    1    2    0    0 -0.91793248448E+01  0.36400270611E+02  0.24897264119E+02  0.46142318012E+02  0.10000002290E+02 0.  0.
         12    1    1    2    0    0  0.91793248448E+01 -0.36400270611E+02 -0.24897264119E+02  0.45045681988E+02  0.00000000000E+00 0. -1.
         11    1    3    3    0    0 -0.40340270655E+01  0.61036498005E+01  0.28729473028E+01  0.78601362404E+01  0.51100000000E-03 0. -1.
        -11    1    3    3    0    0 -0.61395143647E+01  0.22377677978E+02  0.17846425365E+02  0.29273691378E+02  0.51100000000E-03 0.  1.
        -12    1    3    3    0    0  0.99421658542E+00  0.79189428324E+01  0.41778914509E+01  0.90084903939E+01  0.00000000000E+00 0.  1.
</event>
<event>
 7    1  0.1402367E-008  0.4614232E+02  0.7816164E-02  0.1320468E+00
        -11   -1    0    0    0    0  0.00000000000E+00  0.00000000000E+00  0.45593999997E+02  0.45594000000E+02  0.51100000000E-03 0.  1.
         11   -1    0    0    0    0 -0.00000000000E+00 -0.00000000000E+00 -0.45593999997E+02  0.45594000000E+02  0.51100000000E-03 0. -1.
    9900012    2    1    2    0    0 -0.36974028901E+02  0.11835303237E+02  0.22846450321E+02  0.46142317542E+02  0.99999980003E+01 0.  0.
         12    1    1    2    0    0  0.36974028901E+02 -0.11835303237E+02 -0.22846450321E+02  0.45045682458E+02  0.00000000000E+00 0. -1.
         11    1    3    3    0    0 -0.33298603460E+01  0.27669024853E+01  0.24210514822E-02  0.43294024310E+01  0.51100000000E-03 0. -1.
        -11    1    3    3    0    0 -0.18465284191E+02  0.67728094382E+01  0.13009732457E+02  0.23581577699E+02  0.51100000000E-03 0.  1.
         12    1    3    3    0    0 -0.15178884364E+02  0.22955913134E+01  0.98342968129E+01  0.18231337412E+02  0.00000000000E+00 0. -1.
</event>
<event>
 7    1  0.1402367E-008  0.4614232E+02  0.7816164E-02  0.1320468E+00
        -11   -1    0    0    0    0  0.00000000000E+00  0.00000000000E+00  0.45593999997E+02  0.45594000000E+02  0.51100000000E-03 0.  1.
         11   -1    0    0    0    0 -0.00000000000E+00 -0.00000000000E+00 -0.45593999997E+02  0.45594000000E+02  0.51100000000E-03 0. -1.
    9900012    2    1    2    0    0  0.42479610792E+02 -0.71496393463E+00  0.14969469581E+02  0.46142317344E+02  0.99999961933E+01 0.  0.
         12    1    1    2    0    0 -0.42479610792E+02  0.71496393463E+00 -0.14969469581E+02  0.45045682656E+02  0.00000000000E+00 0. -1.
         11    1    3    3    0    0  0.19953731156E+02  0.32904033112E+01  0.47354178192E+01  0.20770226845E+02  0.51100000000E-03 0. -1.
        -11    1    3    3    0    0  0.22456275324E+02 -0.38592745268E+01  0.10478109549E+02  0.25079255995E+02  0.51100000000E-03 0.  1.
         12    1    3    3    0    0  0.69604312195E-01 -0.14609271903E+00 -0.24405778781E+00  0.29283450380E+00  0.00000000000E+00 0. -1.
</event>
<event>
 7    1  0.1402367E-008  0.4614232E+02  0.7816164E-02  0.1320468E+00
        -11   -1    0    0    0    0  0.00000000000E+00  0.00000000000E+00  0.45593999997E+02  0.45594000000E+02  0.51100000000E-03 0.  1.
         11   -1    0    0    0    0 -0.00000000000E+00 -0.00000000000E+00 -0.45593999997E+02  0.45594000000E+02  0.51100000000E-03 0. -1.
    9900012    2    1    2    0    0  0.35557321030E+02 -0.76055029378E+00  0.27644382556E+02  0.46142318714E+02  0.10000008693E+02 0.  0.
         12    1    1    2    0    0 -0.35557321030E+02  0.76055029378E+00 -0.27644382556E+02  0.45045681286E+02  0.00000000000E+00 0. -1.
         11    1    3    3    0    0  0.30814987097E+00 -0.32260915461E+00 -0.35478748495E+00  0.57000651770E+00  0.51100000000E-03 0. -1.
        -11    1    3    3    0    0  0.10619502348E+02  0.28787362051E+01  0.70405878514E+01  0.13062573629E+02  0.51100000000E-03 0.  1.
        -12    1    3    3    0    0  0.24629668811E+02 -0.33166773443E+01  0.20958582189E+02  0.32509738568E+02  0.00000000000E+00 0.  1.
</event>
<event>
 7    1  0.1402367E-008  0.4614232E+02  0.7816164E-02  0.1320468E+00
        -11   -1    0    0    0    0  0.00000000000E+00  0.00000000000E+00  0.45593999997E+02  0.45594000000E+02  0.51100000000E-03 0.  1.
         11   -1    0    0    0    0 -0.00000000000E+00 -0.00000000000E+00 -0.45593999997E+02  0.45594000000E+02  0.51100000000E-03 0. -1.
    9900012    2    1    2    0    0  0.19556604369E+02  0.87326994283E+01  0.39628180512E+02  0.46142317583E+02  0.99999983720E+01 0.  0.
         12    1    1    2    0    0 -0.19556604369E+02 -0.87326994283E+01 -0.39628180512E+02  0.45045682417E+02  0.00000000000E+00 0. -1.
         11    1    3    3    0    0  0.83890193588E+01  0.70752147540E+01  0.17125953710E+02  0.20340417901E+02  0.51100000000E-03 0. -1.
        -11    1    3    3    0    0  0.91103700930E+01  0.78806877143E+00  0.21480465601E+02  0.23345883969E+02  0.51100000000E-03 0.  1.
         12    1    3    3    0    0  0.20572149177E+01  0.86941590287E+00  0.10217612006E+01  0.24560157127E+01  0.00000000000E+00 0. -1.
</event>
<event>
 7    1  0.1402367E-008  0.4614233E+02  0.7816164E-02  0.1320468E+00
        -11   -1    0    0    0    0  0.00000000000E+00  0.00000000000E+00  0.45593999997E+02  0.45594000000E+02  0.51100000000E-03 0. -1.
         11   -1    0    0    0    0 -0.00000000000E+00 -0.00000000000E+00 -0.45593999997E+02  0.45594000000E+02  0.51100000000E-03 0.  1.
    9900012    2    1    2    0    0 -0.93943516061E-03  0.79830736827E+00 -0.45038599766E+02  0.46142325797E+02  0.10000073279E+02 0.  0.
         12    1    1    2    0    0  0.93943516061E-03 -0.79830736827E+00  0.45038599766E+02  0.45045674203E+02  0.00000000000E+00 0. -1.
         11    1    3    3    0    0 -0.60464650457E+00  0.34950785834E+01 -0.40803508779E+02  0.40957386399E+02  0.51100000000E-03 0. -1.
        -11    1    3    3    0    0  0.77520449631E+00 -0.11153306559E+01 -0.15223531538E+01  0.20402117217E+01  0.51100000000E-03 0.  1.
         12    1    3    3    0    0 -0.17149742690E+00 -0.15814405592E+01 -0.27127378324E+01  0.31447276761E+01  0.00000000000E+00 0. -1.
</event>
<event>
 7    1  0.1402367E-008  0.4614232E+02  0.7816164E-02  0.1320468E+00
        -11   -1    0    0    0    0  0.00000000000E+00  0.00000000000E+00  0.45593999997E+02  0.45594000000E+02  0.51100000000E-03 0.  1.
         11   -1    0    0    0    0 -0.00000000000E+00 -0.00000000000E+00 -0.45593999997E+02  0.45594000000E+02  0.51100000000E-03 0. -1.
    9900012    2    1    2    0    0  0.41622385498E+02  0.16065428674E+02  0.62122381296E+01  0.46142324562E+02  0.10000062019E+02 0.  0.
         12    1    1    2    0    0 -0.41622385498E+02 -0.16065428674E+02 -0.62122381296E+01  0.45045675438E+02  0.00000000000E+00 0. -1.
         11    1    3    3    0    0  0.18068097884E+02  0.65970786977E+01  0.34466295175E+01  0.19541158199E+02  0.51100000000E-03 0. -1.
        -11    1    3    3    0    0  0.23888832154E+02  0.83800250715E+01  0.27191519814E+01  0.25461636036E+02  0.51100000000E-03 0.  1.
         12    1    3    3    0    0 -0.33454453940E+00  0.10883249046E+01  0.46456630664E-01  0.11395303267E+01  0.00000000000E+00 0. -1.
</event>
<event>
 7    1  0.1402367E-008  0.4614232E+02  0.7816164E-02  0.1320468E+00
        -11   -1    0    0    0    0  0.00000000000E+00  0.00000000000E+00  0.45593999997E+02  0.45594000000E+02  0.51100000000E-03 0.  1.
         11   -1    0    0    0    0 -0.00000000000E+00 -0.00000000000E+00 -0.45593999997E+02  0.45594000000E+02  0.51100000000E-03 0. -1.
    9900012    2    1    2    0    0 -0.14570247085E+02 -0.88143041349E+01  0.41702867153E+02  0.46142321114E+02  0.10000030576E+02 0.  0.
         12    1    1    2    0    0  0.14570247085E+02  0.88143041349E+01 -0.41702867153E+02  0.45045678886E+02  0.00000000000E+00 0. -1.
         11    1    3    3    0    0 -0.17675431830E+01 -0.39422744333E+01  0.53078165337E+01  0.68438770611E+01  0.51100000000E-03 0. -1.
        -11    1    3    3    0    0 -0.79943470261E+01 -0.12644522741E+00  0.21657941620E+02  0.23086619680E+02  0.51100000000E-03 0.  1.
        -12    1    3    3    0    0 -0.48083568757E+01 -0.47455844742E+01  0.14737108999E+02  0.16211824373E+02  0.00000000000E+00 0.  1.
</event>
<event>
 7    1  0.1402367E-008  0.4614232E+02  0.7816164E-02  0.1320468E+00
        -11   -1    0    0    0    0  0.00000000000E+00  0.00000000000E+00  0.45593999997E+02  0.45594000000E+02  0.51100000000E-03 0.  1.
         11   -1    0    0    0    0 -0.00000000000E+00 -0.00000000000E+00 -0.45593999997E+02  0.45594000000E+02  0.51100000000E-03 0. -1.
    9900012    2    1    2    0    0 -0.93932022300E+00  0.31399398767E+02  0.32284807406E+02  0.46142319245E+02  0.10000013534E+02 0.  0.
         12    1    1    2    0    0  0.93932022300E+00 -0.31399398767E+02 -0.32284807406E+02  0.45045680755E+02  0.00000000000E+00 0. -1.
         11    1    3    3    0    0 -0.45958333211E+01  0.18732447960E+02  0.18217777618E+02  0.26531372224E+02  0.51100000000E-03 0. -1.
        -11    1    3    3    0    0  0.14811466087E+01  0.99100009617E+01  0.91547630244E+01  0.13572457428E+02  0.51100000000E-03 0.  1.
         12    1    3    3    0    0  0.21753664894E+01  0.27569498452E+01  0.49122667643E+01  0.60384895939E+01  0.00000000000E+00 0. -1.
</event>
<event>
 7    1  0.1402367E-008  0.4614232E+02  0.7816164E-02  0.1320468E+00
        -11   -1    0    0    0    0  0.00000000000E+00  0.00000000000E+00  0.45593999997E+02  0.45594000000E+02  0.51100000000E-03 0.  1.
         11   -1    0    0    0    0 -0.00000000000E+00 -0.00000000000E+00 -0.45593999997E+02  0.45594000000E+02  0.51100000000E-03 0. -1.
    9900012    2    1    2    0    0 -0.27338717618E+02 -0.20895462655E+01  0.35739919075E+02  0.46142317631E+02  0.99999988175E+01 0.  0.
         12    1    1    2    0    0  0.27338717618E+02  0.20895462655E+01 -0.35739919075E+02  0.45045682369E+02  0.00000000000E+00 0. -1.
         11    1    3    3    0    0  0.10580603870E+00 -0.99100218766E+00  0.11250361711E+01  0.15029926484E+01  0.51100000000E-03 0. -1.
        -11    1    3    3    0    0 -0.16252465415E+02 -0.15106001490E+01  0.15641818209E+02  0.22607322310E+02  0.51100000000E-03 0.  1.
        -12    1    3    3    0    0 -0.11192058241E+02  0.41205607118E+00  0.18973064695E+02  0.22032002673E+02  0.00000000000E+00 0.  1.
</event>
<event>
 7    1  0.1402367E-008  0.4614232E+02  0.7816164E-02  0.1320468E+00
        -11   -1    0    0    0    0  0.00000000000E+00  0.00000000000E+00  0.45593999997E+02  0.45594000000E+02  0.51100000000E-03 0. -1.
         11   -1    0    0    0    0 -0.00000000000E+00 -0.00000000000E+00 -0.45593999997E+02  0.45594000000E+02  0.51100000000E-03 0.  1.
    9900012    2    1    2    0    0 -0.34690913864E+02  0.19618264856E+02 -0.20994704837E+02  0.46142318166E+02  0.10000003693E+02 0.  0.
         12    1    1    2    0    0  0.34690913864E+02 -0.19618264856E+02  0.20994704837E+02  0.45045681834E+02  0.00000000000E+00 0. -1.
         11    1    3    3    0    0 -0.54643099633E+01  0.33344812362E+01 -0.62510545663E+01  0.89472415829E+01  0.51100000000E-03 0. -1.
        -11    1    3    3    0    0 -0.23441553337E+02  0.10133940276E+02 -0.94552816171E+01  0.27232435056E+02  0.51100000000E-03 0.  1.
        -12    1    3    3    0    0 -0.57850505637E+01  0.61498433442E+01 -0.52883686537E+01  0.99626415272E+01  0.00000000000E+00 0.  1.
</event>
<event>
 7    1  0.1402367E-008  0.4614232E+02  0.7816164E-02  0.1320468E+00
        -11   -1    0    0    0    0  0.00000000000E+00  0.00000000000E+00  0.45593999997E+02  0.45594000000E+02  0.51100000000E-03 0.  1.
         11   -1    0    0    0    0 -0.00000000000E+00 -0.00000000000E+00 -0.45593999997E+02  0.45594000000E+02  0.51100000000E-03 0. -1.
    9900012    2    1    2    0    0  0.30095334491E+02  0.22427808281E+02  0.24907383713E+02  0.46142317567E+02  0.99999982300E+01 0.  0.
         12    1    1    2    0    0 -0.30095334491E+02 -0.22427808281E+02 -0.24907383713E+02  0.45045682433E+02  0.00000000000E+00 0. -1.
         11    1    3    3    0    0  0.11782353586E+01 -0.55094391534E+00 -0.27701094501E+00  0.13298545345E+01  0.51100000000E-03 0. -1.
        -11    1    3    3    0    0  0.14392976939E+02  0.13381256502E+02  0.13727039567E+02  0.23971804819E+02  0.51100000000E-03 0.  1.
         12    1    3    3    0    0  0.14524122193E+02  0.95974956938E+01  0.11457355091E+02  0.20840658213E+02  0.00000000000E+00 0. -1.
</event>
<event>
 7    1  0.1402367E-008  0.4614232E+02  0.7816164E-02  0.1320468E+00
        -11   -1    0    0    0    0  0.00000000000E+00  0.00000000000E+00  0.45593999997E+02  0.45594000000E+02  0.51100000000E-03 0.  1.
         11   -1    0    0    0    0 -0.00000000000E+00 -0.00000000000E+00 -0.45593999997E+02  0.45594000000E+02  0.51100000000E-03 0. -1.
    9900012    2    1    2    0    0  0.18032166388E+02  0.26257600401E+01  0.41195387057E+02  0.46142317020E+02  0.99999932374E+01 0.  0.
         12    1    1    2    0    0 -0.18032166388E+02 -0.26257600401E+01 -0.41195387057E+02  0.45045682980E+02  0.00000000000E+00 0. -1.
         11    1    3    3    0    0  0.52143706682E+00 -0.18820682339E+01  0.24748893356E+01  0.31526425322E+01  0.51100000000E-03 0. -1.
        -11    1    3    3    0    0  0.43988396141E+01  0.13336533527E+01  0.57191172523E+01  0.73373512675E+01  0.51100000000E-03 0.  1.
        -12    1    3    3    0    0  0.13111889707E+02  0.31741749213E+01  0.33001380469E+02  0.35652323220E+02  0.00000000000E+00 0.  1.
</event>
<event>
 7    1  0.1402367E-008  0.4614232E+02  0.7816164E-02  0.1320468E+00
        -11   -1    0    0    0    0  0.00000000000E+00  0.00000000000E+00  0.45593999997E+02  0.45594000000E+02  0.51100000000E-03 0. -1.
         11   -1    0    0    0    0 -0.00000000000E+00 -0.00000000000E+00 -0.45593999997E+02  0.45594000000E+02  0.51100000000E-03 0.  1.
    9900012    2    1    2    0    0  0.37150436572E+02  0.72524734525E+00 -0.25464339381E+02  0.46142317618E+02  0.99999986920E+01 0.  0.
         12    1    1    2    0    0 -0.37150436572E+02 -0.72524734525E+00  0.25464339381E+02  0.45045682382E+02  0.00000000000E+00 0. -1.
         11    1    3    3    0    0 -0.41639508337E-01 -0.10286291863E+00  0.54805811183E+00  0.55918027840E+00  0.51100000000E-03 0. -1.
        -11    1    3    3    0    0  0.30262217364E+02  0.23348887283E+00 -0.19154759520E+02  0.35815654808E+02  0.51100000000E-03 0.  1.
         12    1    3    3    0    0  0.69298587165E+01  0.59462139106E+00 -0.68576379724E+01  0.97674825308E+01  0.00000000000E+00 0. -1.
</event>
<event>
 7    1  0.1402367E-008  0.4614232E+02  0.7816164E-02  0.1320468E+00
        -11   -1    0    0    0    0  0.00000000000E+00  0.00000000000E+00  0.45593999997E+02  0.45594000000E+02  0.51100000000E-03 0. -1.
         11   -1    0    0    0    0 -0.00000000000E+00 -0.00000000000E+00 -0.45593999997E+02  0.45594000000E+02  0.51100000000E-03 0.  1.
    9900012    2    1    2    0    0  0.97183417344E+01  0.10547909720E+02 -0.42701393007E+02  0.46142317296E+02  0.99999957556E+01 0.  0.
         12    1    1    2    0    0 -0.97183417344E+01 -0.10547909720E+02  0.42701393007E+02  0.45045682704E+02  0.00000000000E+00 0. -1.
         11    1    3    3    0    0  0.63691759259E+01  0.22167157320E+01 -0.14724981841E+02  0.16195842710E+02  0.51100000000E-03 0. -1.
        -11    1    3    3    0    0  0.44671759215E+01  0.57070212129E+01 -0.14984857951E+02  0.16645471453E+02  0.51100000000E-03 0.  1.
         12    1    3    3    0    0 -0.11180101131E+01  0.26241727748E+01 -0.12991553216E+02  0.13301003133E+02  0.00000000000E+00 0. -1.
</event>
<event>
 7    1  0.1402367E-008  0.4614232E+02  0.7816164E-02  0.1320468E+00
        -11   -1    0    0    0    0  0.00000000000E+00  0.00000000000E+00  0.45593999997E+02  0.45594000000E+02  0.51100000000E-03 0.  1.
         11   -1    0    0    0    0 -0.00000000000E+00 -0.00000000000E+00 -0.45593999997E+02  0.45594000000E+02  0.51100000000E-03 0. -1.
    9900012    2    1    2    0    0  0.32724376913E+02 -0.15569470267E+02  0.26754816741E+02  0.46142317992E+02  0.10000002104E+02 0.  0.
         12    1    1    2    0    0 -0.32724376913E+02  0.15569470267E+02 -0.26754816741E+02  0.45045682008E+02  0.00000000000E+00 0. -1.
         11    1    3    3    0    0  0.25422293210E+02 -0.13805938063E+02  0.17568890271E+02  0.33846164088E+02  0.51100000000E-03 0. -1.
        -11    1    3    3    0    0  0.55011415672E+01 -0.56378268435E+00  0.44814742649E+01  0.71178663450E+01  0.51100000000E-03 0.  1.
         12    1    3    3    0    0  0.18009421354E+01 -0.11997495192E+01  0.47044522058E+01  0.51782875587E+01  0.00000000000E+00 0. -1.
</event>
<event>
 7    1  0.1402367E-008  0.4614232E+02  0.7816164E-02  0.1320468E+00
        -11   -1    0    0    0    0  0.00000000000E+00  0.00000000000E+00  0.45593999997E+02  0.45594000000E+02  0.51100000000E-03 0. -1.
         11   -1    0    0    0    0 -0.00000000000E+00 -0.00000000000E+00 -0.45593999997E+02  0.45594000000E+02  0.51100000000E-03 0.  1.
    9900012    2    1    2    0    0 -0.33065420717E+02 -0.29319290601E+02 -0.87275782469E+01  0.46142317959E+02  0.10000001800E+02 0.  0.
         12    1    1    2    0    0  0.33065420717E+02  0.29319290601E+02  0.87275782469E+01  0.45045682041E+02  0.00000000000E+00 0. -1.
         11    1    3    3    0    0 -0.37232792618E+01 -0.67715624341E+01 -0.28292850499E+00  0.77328465043E+01  0.51100000000E-03 0. -1.
        -11    1    3    3    0    0 -0.12503450019E+02 -0.10951696575E+02 -0.65899079613E+01  0.17880235106E+02  0.51100000000E-03 0.  1.
         12    1    3    3    0    0 -0.16838691437E+02 -0.11596031591E+02 -0.18547417807E+01  0.20529236348E+02  0.00000000000E+00 0. -1.
</event>
<event>
 7    1  0.1402367E-008  0.4614232E+02  0.7816164E-02  0.1320468E+00
        -11   -1    0    0    0    0  0.00000000000E+00  0.00000000000E+00  0.45593999997E+02  0.45594000000E+02  0.51100000000E-03 0. -1.
         11   -1    0    0    0    0 -0.00000000000E+00 -0.00000000000E+00 -0.45593999997E+02  0.45594000000E+02  0.51100000000E-03 0.  1.
    9900012    2    1    2    0    0  0.15547699627E+02 -0.40260758560E+02 -0.12901695328E+02  0.46142318899E+02  0.10000010375E+02 0.  0.
         12    1    1    2    0    0 -0.15547699627E+02  0.40260758560E+02  0.12901695328E+02  0.45045681101E+02  0.00000000000E+00 0. -1.
         11    1    3    3    0    0  0.21755836403E+01 -0.97922680459E+01 -0.43261729903E+01  0.10924168191E+02  0.51100000000E-03 0. -1.
        -11    1    3    3    0    0  0.11559898508E+02 -0.27908216180E+02 -0.99350632046E+01  0.31799453847E+02  0.51100000000E-03 0.  1.
         12    1    3    3    0    0  0.18122174783E+01 -0.25602743345E+01  0.13595408665E+01  0.34186968605E+01  0.00000000000E+00 0. -1.
</event>
<event>
 7    1  0.1402367E-008  0.4614232E+02  0.7816164E-02  0.1320468E+00
        -11   -1    0    0    0    0  0.00000000000E+00  0.00000000000E+00  0.45593999997E+02  0.45594000000E+02  0.51100000000E-03 0.  1.
         11   -1    0    0    0    0 -0.00000000000E+00 -0.00000000000E+00 -0.45593999997E+02  0.45594000000E+02  0.51100000000E-03 0. -1.
    9900012    2    1    2    0    0  0.19105812516E+02 -0.10297585726E+02  0.39472029855E+02  0.46142317803E+02  0.10000000382E+02 0.  0.
         12    1    1    2    0    0 -0.19105812516E+02  0.10297585726E+02 -0.39472029855E+02  0.45045682197E+02  0.00000000000E+00 0. -1.
         11    1    3    3    0    0 -0.30158748449E+00 -0.17327759590E+00  0.24308973242E-01  0.34867079508E+00  0.51100000000E-03 0. -1.
        -11    1    3    3    0    0  0.12774782224E+02 -0.10611200922E+02  0.28309265583E+02  0.32820834298E+02  0.51100000000E-03 0.  1.
        -12    1    3    3    0    0  0.66326177765E+01  0.48689279208E+00  0.11138455299E+02  0.12972812710E+02  0.00000000000E+00 0.  1.
</event>
<event>
 7    1  0.1402367E-008  0.4614231E+02  0.7816164E-02  0.1320468E+00
        -11   -1    0    0    0    0  0.00000000000E+00  0.00000000000E+00  0.45593999997E+02  0.45594000000E+02  0.51100000000E-03 0.  1.
         11   -1    0    0    0    0 -0.00000000000E+00 -0.00000000000E+00 -0.45593999997E+02  0.45594000000E+02  0.51100000000E-03 0. -1.
    9900012    2    1    2    0    0 -0.31054202209E+02  0.14603551172E+02  0.29180246313E+02  0.46142312564E+02  0.99999526103E+01 0.  0.
         12    1    1    2    0    0  0.31054202209E+02 -0.14603551172E+02 -0.29180246313E+02  0.45045687436E+02  0.00000000000E+00 0. -1.
         11    1    3    3    0    0 -0.23969135043E+01  0.47056325775E+00  0.15344916764E+01  0.28846644680E+01  0.51100000000E-03 0. -1.
        -11    1    3    3    0    0  0.67607540045E+00 -0.28989363451E-01  0.79696773207E+00  0.10455028251E+01  0.51100000000E-03 0.  1.
        -12    1    3    3    0    0 -0.29333364105E+02  0.14161977277E+02  0.26848786905E+02  0.42212145271E+02  0.00000000000E+00 0.  1.
</event>
<event>
 7    1  0.1402367E-008  0.4614232E+02  0.7816164E-02  0.1320468E+00
        -11   -1    0    0    0    0  0.00000000000E+00  0.00000000000E+00  0.45593999997E+02  0.45594000000E+02  0.51100000000E-03 0.  1.
         11   -1    0    0    0    0 -0.00000000000E+00 -0.00000000000E+00 -0.45593999997E+02  0.45594000000E+02  0.51100000000E-03 0. -1.
    9900012    2    1    2    0    0  0.20056319310E+02  0.27982920241E+02  0.29048471279E+02  0.46142318152E+02  0.10000003564E+02 0.  0.
         12    1    1    2    0    0 -0.20056319310E+02 -0.27982920241E+02 -0.29048471279E+02  0.45045681848E+02  0.00000000000E+00 0. -1.
         11    1    3    3    0    0  0.81878946666E+01  0.12998336809E+02  0.86095152078E+01  0.17610284814E+02  0.51100000000E-03 0. -1.
        -11    1    3    3    0    0  0.98843376415E+01  0.86866914163E+01  0.11932246953E+02  0.17763368374E+02  0.51100000000E-03 0.  1.
         12    1    3    3    0    0  0.19840870021E+01  0.62978920160E+01  0.85067091179E+01  0.10768664963E+02  0.00000000000E+00 0. -1.
</event>
<event>
 7    1  0.1402367E-008  0.4614232E+02  0.7816164E-02  0.1320468E+00
        -11   -1    0    0    0    0  0.00000000000E+00  0.00000000000E+00  0.45593999997E+02  0.45594000000E+02  0.51100000000E-03 0.  1.
         11   -1    0    0    0    0 -0.00000000000E+00 -0.00000000000E+00 -0.45593999997E+02  0.45594000000E+02  0.51100000000E-03 0. -1.
    9900012    2    1    2    0    0  0.16699034907E+02 -0.51668962336E+01  0.41515766872E+02  0.46142317827E+02  0.10000000600E+02 0.  0.
         12    1    1    2    0    0 -0.16699034907E+02  0.51668962336E+01 -0.41515766872E+02  0.45045682173E+02  0.00000000000E+00 0. -1.
         11    1    3    3    0    0  0.92899995374E+01 -0.59372716577E+01  0.17165135164E+02  0.20400910558E+02  0.51100000000E-03 0. -1.
        -11    1    3    3    0    0  0.66093791231E+01  0.95369586801E+00  0.15823248663E+02  0.17174650702E+02  0.51100000000E-03 0.  1.
        -12    1    3    3    0    0  0.79965624621E+00 -0.18332044386E+00  0.85273830443E+01  0.85667565672E+01  0.00000000000E+00 0.  1.
</event>
<event>
 7    1  0.1402367E-008  0.4614232E+02  0.7816164E-02  0.1320468E+00
        -11   -1    0    0    0    0  0.00000000000E+00  0.00000000000E+00  0.45593999997E+02  0.45594000000E+02  0.51100000000E-03 0.  1.
         11   -1    0    0    0    0 -0.00000000000E+00 -0.00000000000E+00 -0.45593999997E+02  0.45594000000E+02  0.51100000000E-03 0. -1.
    9900012    2    1    2    0    0 -0.27966047341E+01 -0.19970395255E+02  0.40279966586E+02  0.46142318821E+02  0.10000009669E+02 0.  0.
         12    1    1    2    0    0  0.27966047341E+01  0.19970395255E+02 -0.40279966586E+02  0.45045681179E+02  0.00000000000E+00 0. -1.
         11    1    3    3    0    0 -0.27318117057E+01 -0.81127178787E+01  0.21624733261E+02  0.23257430543E+02  0.51100000000E-03 0. -1.
        -11    1    3    3    0    0 -0.57150004719E+00 -0.92020649144E+01  0.90991247014E+01  0.12953713042E+02  0.51100000000E-03 0.  1.
        -12    1    3    3    0    0  0.50670701881E+00 -0.26556124618E+01  0.95561086236E+01  0.99311752364E+01  0.00000000000E+00 0.  1.
</event>
<event>
 7    1  0.1402367E-008  0.4614232E+02  0.7816164E-02  0.1320468E+00
        -11   -1    0    0    0    0  0.00000000000E+00  0.00000000000E+00  0.45593999997E+02  0.45594000000E+02  0.51100000000E-03 0.  1.
         11   -1    0    0    0    0 -0.00000000000E+00 -0.00000000000E+00 -0.45593999997E+02  0.45594000000E+02  0.51100000000E-03 0. -1.
    9900012    2    1    2    0    0 -0.35123560515E+02 -0.21855163083E+02  0.17826971628E+02  0.46142316810E+02  0.99999913241E+01 0.  0.
         12    1    1    2    0    0  0.35123560515E+02  0.21855163083E+02 -0.17826971628E+02  0.45045683190E+02  0.00000000000E+00 0. -1.
         11    1    3    3    0    0 -0.93577377789E+01 -0.10355912626E+02  0.46918771795E+01  0.14725009147E+02  0.51100000000E-03 0. -1.
        -11    1    3    3    0    0 -0.34502801024E+01 -0.55006583712E+00  0.28805842758E+01  0.45282194339E+01  0.51100000000E-03 0.  1.
        -12    1    3    3    0    0 -0.22315542634E+02 -0.10949184620E+02  0.10254510173E+02  0.26889088229E+02  0.00000000000E+00 0.  1.
</event>
<event>
 7    1  0.1402367E-008  0.4614232E+02  0.7816164E-02  0.1320468E+00
        -11   -1    0    0    0    0  0.00000000000E+00  0.00000000000E+00  0.45593999997E+02  0.45594000000E+02  0.51100000000E-03 0.  1.
         11   -1    0    0    0    0 -0.00000000000E+00 -0.00000000000E+00 -0.45593999997E+02  0.45594000000E+02  0.51100000000E-03 0. -1.
    9900012    2    1    2    0    0  0.31627881253E+02 -0.14988292551E+02  0.28357392630E+02  0.46142317599E+02  0.99999985249E+01 0.  0.
         12    1    1    2    0    0 -0.31627881253E+02  0.14988292551E+02 -0.28357392630E+02  0.45045682401E+02  0.00000000000E+00 0. -1.
         11    1    3    3    0    0  0.61241092904E+01 -0.68345487513E+01  0.87420682607E+01  0.12674365032E+02  0.51100000000E-03 0. -1.
        -11    1    3    3    0    0  0.24132916597E+02 -0.86553917867E+01  0.18260205639E+02  0.31476158925E+02  0.51100000000E-03 0.  1.
         12    1    3    3    0    0  0.13708553661E+01  0.50164798734E+00  0.13551187304E+01  0.19917936418E+01  0.00000000000E+00 0. -1.
</event>
<event>
 7    1  0.1402367E-008  0.4614232E+02  0.7816164E-02  0.1320468E+00
        -11   -1    0    0    0    0  0.00000000000E+00  0.00000000000E+00  0.45593999997E+02  0.45594000000E+02  0.51100000000E-03 0.  1.
         11   -1    0    0    0    0 -0.00000000000E+00 -0.00000000000E+00 -0.45593999997E+02  0.45594000000E+02  0.51100000000E-03 0. -1.
    9900012    2    1    2    0    0 -0.20730819770E+02  0.74074884464E+01  0.39299819677E+02  0.46142316522E+02  0.99999886968E+01 0.  0.
         12    1    1    2    0    0  0.20730819770E+02 -0.74074884464E+01 -0.39299819677E+02  0.45045683478E+02  0.00000000000E+00 0. -1.
         11    1    3    3    0    0 -0.57512580618E+01  0.63035258711E+01  0.15225241120E+02  0.17453348536E+02  0.51100000000E-03 0. -1.
        -11    1    3    3    0    0 -0.10413234080E+02 -0.10664634566E+01  0.14830359780E+02  0.18152475307E+02  0.51100000000E-03 0.  1.
        -12    1    3    3    0    0 -0.45663276279E+01  0.21704260319E+01  0.92442187772E+01  0.10536492679E+02  0.00000000000E+00 0.  1.
</event>
<event>
 7    1  0.1402367E-008  0.4614232E+02  0.7816164E-02  0.1320468E+00
        -11   -1    0    0    0    0  0.00000000000E+00  0.00000000000E+00  0.45593999997E+02  0.45594000000E+02  0.51100000000E-03 0.  1.
         11   -1    0    0    0    0 -0.00000000000E+00 -0.00000000000E+00 -0.45593999997E+02  0.45594000000E+02  0.51100000000E-03 0. -1.
    9900012    2    1    2    0    0  0.19447737618E+02 -0.37268728886E+02  0.16184586517E+02  0.46142317721E+02  0.99999996346E+01 0.  0.
         12    1    1    2    0    0 -0.19447737618E+02  0.37268728886E+02 -0.16184586517E+02  0.45045682279E+02  0.00000000000E+00 0. -1.
         11    1    3    3    0    0  0.16935439487E+02 -0.25873121451E+02  0.10316574108E+02  0.32598454347E+02  0.51100000000E-03 0. -1.
        -11    1    3    3    0    0 -0.78199061251E-01 -0.20601438904E+01 -0.26349237631E+00  0.20783975644E+01  0.51100000000E-03 0.  1.
        -12    1    3    3    0    0  0.25904971925E+01 -0.93354635454E+01  0.61315047849E+01  0.11465465810E+02  0.00000000000E+00 0.  1.
</event>
<event>
 7    1  0.1402367E-008  0.4614232E+02  0.7816164E-02  0.1320468E+00
        -11   -1    0    0    0    0  0.00000000000E+00  0.00000000000E+00  0.45593999997E+02  0.45594000000E+02  0.51100000000E-03 0.  1.
         11   -1    0    0    0    0 -0.00000000000E+00 -0.00000000000E+00 -0.45593999997E+02  0.45594000000E+02  0.51100000000E-03 0. -1.
    9900012    2    1    2    0    0  0.10447699474E+02 -0.23260589269E+02  0.37133597334E+02  0.46142317761E+02  0.99999999967E+01 0.  0.
         12    1    1    2    0    0 -0.10447699474E+02  0.23260589269E+02 -0.37133597334E+02  0.45045682239E+02  0.00000000000E+00 0. -1.
         11    1    3    3    0    0  0.10521155286E+01 -0.31257034834E+01  0.15207725312E+01  0.36317652326E+01  0.51100000000E-03 0. -1.
        -11    1    3    3    0    0  0.37344293094E+01 -0.15340540554E+02  0.23752523646E+02  0.28521229402E+02  0.51100000000E-03 0.  1.
         12    1    3    3    0    0  0.56611546364E+01 -0.47943452316E+01  0.11860301156E+02  0.13989323126E+02  0.00000000000E+00 0. -1.
</event>
<event>
 7    1  0.1402367E-008  0.4614232E+02  0.7816164E-02  0.1320468E+00
        -11   -1    0    0    0    0  0.00000000000E+00  0.00000000000E+00  0.45593999997E+02  0.45594000000E+02  0.51100000000E-03 0.  1.
         11   -1    0    0    0    0 -0.00000000000E+00 -0.00000000000E+00 -0.45593999997E+02  0.45594000000E+02  0.51100000000E-03 0. -1.
    9900012    2    1    2    0    0 -0.68434498242E-02  0.23607385733E+02  0.38364110691E+02  0.46142315444E+02  0.99999788710E+01 0.  0.
         12    1    1    2    0    0  0.68434498242E-02 -0.23607385733E+02 -0.38364110691E+02  0.45045684556E+02  0.00000000000E+00 0. -1.
         11    1    3    3    0    0  0.15175986108E+01  0.68226878677E+01  0.13833332315E+02  0.15498814744E+02  0.51100000000E-03 0. -1.
        -11    1    3    3    0    0 -0.40176848262E+01  0.10911103755E+02  0.12821728656E+02  0.17308688642E+02  0.51100000000E-03 0.  1.
        -12    1    3    3    0    0  0.24932427656E+01  0.58735941109E+01  0.11709049721E+02  0.13334812058E+02  0.00000000000E+00 0.  1.
</event>
<event>
 7    1  0.1402367E-008  0.4614232E+02  0.7816164E-02  0.1320468E+00
        -11   -1    0    0    0    0  0.00000000000E+00  0.00000000000E+00  0.45593999997E+02  0.45594000000E+02  0.51100000000E-03 0. -1.
         11   -1    0    0    0    0 -0.00000000000E+00 -0.00000000000E+00 -0.45593999997E+02  0.45594000000E+02  0.51100000000E-03 0.  1.
    9900012    2    1    2    0    0  0.12933484312E+01  0.13561396570E+02 -0.42936340389E+02  0.46142317043E+02  0.99999934514E+01 0.  0.
         12    1    1    2    0    0 -0.12933484312E+01 -0.13561396570E+02  0.42936340389E+02  0.45045682957E+02  0.00000000000E+00 0. -1.
         11    1    3    3    0    0 -0.11939244774E+01  0.55418117792E+01 -0.14475215228E+02  0.15545706469E+02  0.51100000000E-03 0. -1.
        -11    1    3    3    0    0  0.22070258641E+01  0.16775972340E+00 -0.19637890695E+01  0.29589819635E+01  0.51100000000E-03 0.  1.
        -12    1    3    3    0    0  0.28024704445E+00  0.78518250670E+01 -0.26497336091E+02  0.27637628611E+02  0.00000000000E+00 0.  1.
</event>
<event>
 7    1  0.1402367E-008  0.4614232E+02  0.7816164E-02  0.1320468E+00
        -11   -1    0    0    0    0  0.00000000000E+00  0.00000000000E+00  0.45593999997E+02  0.45594000000E+02  0.51100000000E-03 0. -1.
         11   -1    0    0    0    0 -0.00000000000E+00 -0.00000000000E+00 -0.45593999997E+02  0.45594000000E+02  0.51100000000E-03 0.  1.
    9900012    2    1    2    0    0  0.25687128985E+02  0.69896897006E+01 -0.36337708199E+02  0.46142318800E+02  0.10000009476E+02 0.  0.
         12    1    1    2    0    0 -0.25687128985E+02 -0.69896897006E+01  0.36337708199E+02  0.45045681200E+02  0.00000000000E+00 0. -1.
         11    1    3    3    0    0  0.78545180823E+01 -0.51953543152E+00 -0.55792197980E+01  0.96483711157E+01  0.51100000000E-03 0. -1.
        -11    1    3    3    0    0  0.15737969202E+02  0.73603069429E+01 -0.25751252814E+02  0.31064204716E+02  0.51100000000E-03 0.  1.
        -12    1    3    3    0    0  0.20946417011E+01  0.14891818915E+00 -0.50072355866E+01  0.54297429684E+01  0.00000000000E+00 0.  1.
</event>
<event>
 7    1  0.1402367E-008  0.4614232E+02  0.7816164E-02  0.1320468E+00
        -11   -1    0    0    0    0  0.00000000000E+00  0.00000000000E+00  0.45593999997E+02  0.45594000000E+02  0.51100000000E-03 0.  1.
         11   -1    0    0    0    0 -0.00000000000E+00 -0.00000000000E+00 -0.45593999997E+02  0.45594000000E+02  0.51100000000E-03 0. -1.
    9900012    2    1    2    0    0  0.33955337971E+02 -0.10410332361E+02  0.27708725858E+02  0.46142317796E+02  0.10000000314E+02 0.  0.
         12    1    1    2    0    0 -0.33955337971E+02  0.10410332361E+02 -0.27708725858E+02  0.45045682204E+02  0.00000000000E+00 0. -1.
         11    1    3    3    0    0 -0.15371984884E-01 -0.45237342604E+00 -0.32529002712E+00  0.55739741421E+00  0.51100000000E-03 0. -1.
        -11    1    3    3    0    0  0.17521313824E+02 -0.73054270834E+01  0.17848626821E+02  0.26056461437E+02  0.51100000000E-03 0.  1.
         12    1    3    3    0    0  0.16449396132E+02 -0.26525318519E+01  0.10185389064E+02  0.19528458944E+02  0.00000000000E+00 0. -1.
</event>
<event>
 7    1  0.1402367E-008  0.4614232E+02  0.7816164E-02  0.1320468E+00
        -11   -1    0    0    0    0  0.00000000000E+00  0.00000000000E+00  0.45593999997E+02  0.45594000000E+02  0.51100000000E-03 0.  1.
         11   -1    0    0    0    0 -0.00000000000E+00 -0.00000000000E+00 -0.45593999997E+02  0.45594000000E+02  0.51100000000E-03 0. -1.
    9900012    2    1    2    0    0 -0.36521750243E+00  0.20265561995E+02  0.40227940411E+02  0.46142316783E+02  0.99999910807E+01 0.  0.
         12    1    1    2    0    0  0.36521750243E+00 -0.20265561995E+02 -0.40227940411E+02  0.45045683217E+02  0.00000000000E+00 0. -1.
         11    1    3    3    0    0 -0.11800731237E+01  0.20002910240E+02  0.34232874952E+02  0.39666090284E+02  0.51100000000E-03 0. -1.
        -11    1    3    3    0    0 -0.32791040818E+00  0.49919977535E+00  0.46802825413E+01  0.47182380800E+01  0.51100000000E-03 0.  1.
         12    1    3    3    0    0  0.11427660294E+01 -0.23654801983E+00  0.13147829171E+01  0.17579884194E+01  0.00000000000E+00 0. -1.
</event>
<event>
 7    1  0.1402367E-008  0.4614232E+02  0.7816164E-02  0.1320468E+00
        -11   -1    0    0    0    0  0.00000000000E+00  0.00000000000E+00  0.45593999997E+02  0.45594000000E+02  0.51100000000E-03 0. -1.
         11   -1    0    0    0    0 -0.00000000000E+00 -0.00000000000E+00 -0.45593999997E+02  0.45594000000E+02  0.51100000000E-03 0.  1.
    9900012    2    1    2    0    0  0.89107052246E+01  0.20180482021E+02 -0.39274177183E+02  0.46142317459E+02  0.99999972482E+01 0.  0.
         12    1    1    2    0    0 -0.89107052246E+01 -0.20180482021E+02  0.39274177183E+02  0.45045682541E+02  0.00000000000E+00 0. -1.
         11    1    3    3    0    0  0.57231238437E+01  0.40296255690E+01 -0.10125285935E+02  0.12309079750E+02  0.51100000000E-03 0. -1.
        -11    1    3    3    0    0  0.38717184554E+01  0.12642978046E+02 -0.19652872007E+02  0.23686926269E+02  0.51100000000E-03 0.  1.
         12    1    3    3    0    0 -0.68413707450E+00  0.35078784062E+01 -0.94960192399E+01  0.10146311441E+02  0.00000000000E+00 0. -1.
</event>
<event>
 7    1  0.1402367E-008  0.4614232E+02  0.7816164E-02  0.1320468E+00
        -11   -1    0    0    0    0  0.00000000000E+00  0.00000000000E+00  0.45593999997E+02  0.45594000000E+02  0.51100000000E-03 0.  1.
         11   -1    0    0    0    0 -0.00000000000E+00 -0.00000000000E+00 -0.45593999997E+02  0.45594000000E+02  0.51100000000E-03 0. -1.
    9900012    2    1    2    0    0 -0.25106125736E+02  0.35252121875E+02  0.12493352429E+02  0.46142317620E+02  0.99999987155E+01 0.  0.
         12    1    1    2    0    0  0.25106125736E+02 -0.35252121875E+02 -0.12493352429E+02  0.45045682380E+02  0.00000000000E+00 0. -1.
         11    1    3    3    0    0 -0.10446550869E+02  0.10770451066E+02  0.28241631631E+01  0.15267905523E+02  0.51100000000E-03 0. -1.
        -11    1    3    3    0    0 -0.62398945565E+01  0.15554390556E+02  0.34250893065E+01  0.17105747182E+02  0.51100000000E-03 0.  1.
        -12    1    3    3    0    0 -0.84196803111E+01  0.89272802526E+01  0.62440999594E+01  0.13768664915E+02  0.00000000000E+00 0.  1.
</event>
<event>
 7    1  0.1402367E-008  0.4614232E+02  0.7816164E-02  0.1320468E+00
        -11   -1    0    0    0    0  0.00000000000E+00  0.00000000000E+00  0.45593999997E+02  0.45594000000E+02  0.51100000000E-03 0.  1.
         11   -1    0    0    0    0 -0.00000000000E+00 -0.00000000000E+00 -0.45593999997E+02  0.45594000000E+02  0.51100000000E-03 0. -1.
    9900012    2    1    2    0    0 -0.37206337743E+02  0.18527315686E+02  0.17364921643E+02  0.46142317649E+02  0.99999989806E+01 0.  0.
         12    1    1    2    0    0  0.37206337743E+02 -0.18527315686E+02 -0.17364921643E+02  0.45045682351E+02  0.00000000000E+00 0. -1.
         11    1    3    3    0    0 -0.59950408309E+01  0.45899159304E+01  0.98429493024E+00  0.76142418915E+01  0.51100000000E-03 0. -1.
        -11    1    3    3    0    0 -0.17864624618E+02  0.10541193197E+02  0.12507279662E+02  0.24221759052E+02  0.51100000000E-03 0.  1.
        -12    1    3    3    0    0 -0.13346672294E+02  0.33962065582E+01  0.38733470507E+01  0.14306316706E+02  0.00000000000E+00 0.  1.
</event>
<event>
 7    1  0.1402367E-008  0.4614232E+02  0.7816164E-02  0.1320468E+00
        -11   -1    0    0    0    0  0.00000000000E+00  0.00000000000E+00  0.45593999997E+02  0.45594000000E+02  0.51100000000E-03 0. -1.
         11   -1    0    0    0    0 -0.00000000000E+00 -0.00000000000E+00 -0.45593999997E+02  0.45594000000E+02  0.51100000000E-03 0.  1.
    9900012    2    1    2    0    0 -0.92291068231E+01 -0.43585220947E+02  0.66532341676E+01  0.46142318491E+02  0.10000006653E+02 0.  0.
         12    1    1    2    0    0  0.92291068231E+01  0.43585220947E+02 -0.66532341676E+01  0.45045681509E+02  0.00000000000E+00 0. -1.
         11    1    3    3    0    0 -0.66744594883E+00 -0.24293729681E+01 -0.41651194846E-01  0.25197365330E+01  0.51100000000E-03 0. -1.
        -11    1    3    3    0    0 -0.81569638663E+00 -0.22748218876E+02  0.64154597981E+01  0.23649628904E+02  0.51100000000E-03 0.  1.
        -12    1    3    3    0    0 -0.77459644876E+01 -0.18407629103E+02  0.27942556430E+00  0.19972953054E+02  0.00000000000E+00 0.  1.
</event>
<event>
 7    1  0.1402367E-008  0.4614232E+02  0.7816164E-02  0.1320468E+00
        -11   -1    0    0    0    0  0.00000000000E+00  0.00000000000E+00  0.45593999997E+02  0.45594000000E+02  0.51100000000E-03 0. -1.
         11   -1    0    0    0    0 -0.00000000000E+00 -0.00000000000E+00 -0.45593999997E+02  0.45594000000E+02  0.51100000000E-03 0.  1.
    9900012    2    1    2    0    0  0.20842557129E+02  0.39736255370E+02  0.39662624751E+01  0.46142318558E+02  0.10000007267E+02 0.  0.
         12    1    1    2    0    0 -0.20842557129E+02 -0.39736255370E+02 -0.39662624751E+01  0.45045681442E+02  0.00000000000E+00 0. -1.
         11    1    3    3    0    0  0.14715919907E+01  0.41043754894E+01  0.26185417646E+01  0.50860832061E+01  0.51100000000E-03 0.  1.
        -11    1    3    3    0    0  0.12093978330E+02  0.26227228341E+02  0.30573276968E+01  0.29042711154E+02  0.51100000000E-03 0. -1.
         12    1    3    3    0    0  0.72769868081E+01  0.94046515405E+01 -0.17096069863E+01  0.12013524198E+02  0.00000000000E+00 0. -1.
</event>
<event>
 7    1  0.1402367E-008  0.4614232E+02  0.7816164E-02  0.1320468E+00
        -11   -1    0    0    0    0  0.00000000000E+00  0.00000000000E+00  0.45593999997E+02  0.45594000000E+02  0.51100000000E-03 0.  1.
         11   -1    0    0    0    0 -0.00000000000E+00 -0.00000000000E+00 -0.45593999997E+02  0.45594000000E+02  0.51100000000E-03 0. -1.
    9900012    2    1    2    0    0 -0.26995784983E+02 -0.60611913311E+01  0.35547194920E+02  0.46142317478E+02  0.99999974195E+01 0.  0.
         12    1    1    2    0    0  0.26995784983E+02  0.60611913311E+01 -0.35547194920E+02  0.45045682522E+02  0.00000000000E+00 0. -1.
         11    1    3    3    0    0 -0.26564385785E+01  0.76244629095E+00  0.24689667215E+01  0.37059124654E+01  0.51100000000E-03 0. -1.
        -11    1    3    3    0    0 -0.14706067250E+02 -0.78659101836E+01  0.23458124895E+02  0.28782365796E+02  0.51100000000E-03 0.  1.
        -12    1    3    3    0    0 -0.96332791547E+01  0.10422725616E+01  0.96201033033E+01  0.13654039217E+02  0.00000000000E+00 0.  1.
</event>
<event>
 7    1  0.1402367E-008  0.4614232E+02  0.7816164E-02  0.1320468E+00
        -11   -1    0    0    0    0  0.00000000000E+00  0.00000000000E+00  0.45593999997E+02  0.45594000000E+02  0.51100000000E-03 0.  1.
         11   -1    0    0    0    0 -0.00000000000E+00 -0.00000000000E+00 -0.45593999997E+02  0.45594000000E+02  0.51100000000E-03 0. -1.
    9900012    2    1    2    0    0 -0.11682199341E+02 -0.26608974777E+02  0.34418051395E+02  0.46142316722E+02  0.99999905236E+01 0.  0.
         12    1    1    2    0    0  0.11682199341E+02  0.26608974777E+02 -0.34418051395E+02  0.45045683278E+02  0.00000000000E+00 0. -1.
         11    1    3    3    0    0 -0.92009621882E+00 -0.51678654450E+01  0.10288056256E+02  0.11549784072E+02  0.51100000000E-03 0. -1.
        -11    1    3    3    0    0 -0.11024032489E+02 -0.20054060779E+02  0.24020879395E+02  0.33176758329E+02  0.51100000000E-03 0.  1.
         12    1    3    3    0    0  0.26192936697E+00 -0.13870485535E+01  0.10911574385E+00  0.14157743212E+01  0.00000000000E+00 0. -1.
</event>
<event>
 7    1  0.1402367E-008  0.4614232E+02  0.7816164E-02  0.1320468E+00
        -11   -1    0    0    0    0  0.00000000000E+00  0.00000000000E+00  0.45593999997E+02  0.45594000000E+02  0.51100000000E-03 0. -1.
         11   -1    0    0    0    0 -0.00000000000E+00 -0.00000000000E+00 -0.45593999997E+02  0.45594000000E+02  0.51100000000E-03 0.  1.
    9900012    2    1    2    0    0  0.25071950568E+02  0.18544306700E+02 -0.32505684870E+02  0.46142316909E+02  0.99999922283E+01 0.  0.
         12    1    1    2    0    0 -0.25071950568E+02 -0.18544306700E+02  0.32505684870E+02  0.45045683091E+02  0.00000000000E+00 0. -1.
         11    1    3    3    0    0 -0.11317977655E+00  0.13666321983E+01 -0.32304641053E+01  0.35094717300E+01  0.51100000000E-03 0. -1.
        -11    1    3    3    0    0  0.12213437054E+02  0.11175567337E+02 -0.17751168060E+02  0.24272727859E+02  0.51100000000E-03 0.  1.
         12    1    3    3    0    0  0.12971693290E+02  0.60021071643E+01 -0.11524052705E+02  0.18360117320E+02  0.00000000000E+00 0. -1.
</event>
<event>
 7    1  0.1402367E-008  0.4614232E+02  0.7816164E-02  0.1320468E+00
        -11   -1    0    0    0    0  0.00000000000E+00  0.00000000000E+00  0.45593999997E+02  0.45594000000E+02  0.51100000000E-03 0. -1.
         11   -1    0    0    0    0 -0.00000000000E+00 -0.00000000000E+00 -0.45593999997E+02  0.45594000000E+02  0.51100000000E-03 0.  1.
    9900012    2    1    2    0    0  0.15829728746E+01  0.35394829802E+02 -0.27817506420E+02  0.46142318262E+02  0.10000004566E+02 0.  0.
         12    1    1    2    0    0 -0.15829728746E+01 -0.35394829802E+02  0.27817506420E+02  0.45045681738E+02  0.00000000000E+00 0. -1.
         11    1    3    3    0    0 -0.43502938190E-01  0.24299921941E+02 -0.20579958314E+02  0.31843724394E+02  0.51100000000E-03 0. -1.
        -11    1    3    3    0    0 -0.13612290178E+01  0.69469148748E+01 -0.52520954405E+01  0.88145945734E+01  0.51100000000E-03 0.  1.
         12    1    3    3    0    0  0.29877048306E+01  0.41479929865E+01 -0.19854526652E+01  0.54839992940E+01  0.00000000000E+00 0. -1.
</event>
<event>
 7    1  0.1402367E-008  0.4614231E+02  0.7816164E-02  0.1320468E+00
        -11   -1    0    0    0    0  0.00000000000E+00  0.00000000000E+00  0.45593999997E+02  0.45594000000E+02  0.51100000000E-03 0.  1.
         11   -1    0    0    0    0 -0.00000000000E+00 -0.00000000000E+00 -0.45593999997E+02  0.45594000000E+02  0.51100000000E-03 0. -1.
    9900012    2    1    2    0    0 -0.94253706771E+01  0.22408101589E+02  0.37922993811E+02  0.46142311097E+02  0.99999392266E+01 0.  0.
         12    1    1    2    0    0  0.94253706771E+01 -0.22408101589E+02 -0.37922993811E+02  0.45045688903E+02  0.00000000000E+00 0. -1.
         11    1    3    3    0    0 -0.17967893895E+01  0.16405852083E+01  0.23029349313E+01  0.33501464886E+01  0.51100000000E-03 0. -1.
        -11    1    3    3    0    0  0.14363845367E-01  0.10766094240E+02  0.20171364399E+02  0.22864665611E+02  0.51100000000E-03 0.  1.
        -12    1    3    3    0    0 -0.76429451329E+01  0.10001422140E+02  0.15448694481E+02  0.19927498997E+02  0.00000000000E+00 0.  1.
</event>
<event>
 7    1  0.1402367E-008  0.4614232E+02  0.7816164E-02  0.1320468E+00
        -11   -1    0    0    0    0  0.00000000000E+00  0.00000000000E+00  0.45593999997E+02  0.45594000000E+02  0.51100000000E-03 0.  1.
         11   -1    0    0    0    0 -0.00000000000E+00 -0.00000000000E+00 -0.45593999997E+02  0.45594000000E+02  0.51100000000E-03 0. -1.
    9900012    2    1    2    0    0  0.24149116803E+02  0.75403855054E+01  0.37270312767E+02  0.46142317968E+02  0.10000001891E+02 0.  0.
         12    1    1    2    0    0 -0.24149116803E+02 -0.75403855054E+01 -0.37270312767E+02  0.45045682032E+02  0.00000000000E+00 0. -1.
         11    1    3    3    0    0  0.17424544568E+02  0.88327138198E+01  0.23269031147E+02  0.30382221736E+02  0.51100000000E-03 0. -1.
        -11    1    3    3    0    0  0.66901611355E+01 -0.16125972055E+01  0.13012734142E+02  0.14720393197E+02  0.51100000000E-03 0.  1.
        -12    1    3    3    0    0  0.34411099944E-01  0.32026889114E+00  0.98854747800E+00  0.10397030358E+01  0.00000000000E+00 0.  1.
</event>
<event>
 7    1  0.1402367E-008  0.4614232E+02  0.7816164E-02  0.1320468E+00
        -11   -1    0    0    0    0  0.00000000000E+00  0.00000000000E+00  0.45593999997E+02  0.45594000000E+02  0.51100000000E-03 0.  1.
         11   -1    0    0    0    0 -0.00000000000E+00 -0.00000000000E+00 -0.45593999997E+02  0.45594000000E+02  0.51100000000E-03 0. -1.
    9900012    2    1    2    0    0 -0.77620300621E+01  0.27780267734E+02  0.34599434560E+02  0.46142320318E+02  0.10000023320E+02 0.  0.
         12    1    1    2    0    0  0.77620300621E+01 -0.27780267734E+02 -0.34599434560E+02  0.45045679682E+02  0.00000000000E+00 0. -1.
         11    1    3    3    0    0  0.12367951870E+00  0.41142179453E+01  0.87541955537E+01  0.96735735888E+01  0.51100000000E-03 0. -1.
        -11    1    3    3    0    0 -0.83663908075E+01  0.23691153850E+02  0.25752449840E+02  0.35978548316E+02  0.51100000000E-03 0.  1.
         12    1    3    3    0    0  0.48068122669E+00 -0.25104060625E-01  0.92789166419E-01  0.49019841386E+00  0.00000000000E+00 0. -1.
</event>
<event>
 7    1  0.1402367E-008  0.4614232E+02  0.7816164E-02  0.1320468E+00
        -11   -1    0    0    0    0  0.00000000000E+00  0.00000000000E+00  0.45593999997E+02  0.45594000000E+02  0.51100000000E-03 0.  1.
         11   -1    0    0    0    0 -0.00000000000E+00 -0.00000000000E+00 -0.45593999997E+02  0.45594000000E+02  0.51100000000E-03 0. -1.
    9900012    2    1    2    0    0  0.76742754061E+01  0.32684861942E+02  0.30031958295E+02  0.46142320716E+02  0.10000026944E+02 0.  0.
         12    1    1    2    0    0 -0.76742754061E+01 -0.32684861942E+02 -0.30031958295E+02  0.45045679284E+02  0.00000000000E+00 0. -1.
         11    1    3    3    0    0  0.20562417773E+01  0.14959162857E+02  0.95367232155E+01  0.17859276961E+02  0.51100000000E-03 0. -1.
        -11    1    3    3    0    0  0.18092379622E+01  0.20735441490E+01  0.60481016321E+01  0.66447318197E+01  0.51100000000E-03 0.  1.
        -12    1    3    3    0    0  0.38087956666E+01  0.15652154935E+02  0.14447133447E+02  0.21638311935E+02  0.00000000000E+00 0.  1.
</event>
<event>
 7    1  0.1402367E-008  0.4614232E+02  0.7816164E-02  0.1320468E+00
        -11   -1    0    0    0    0  0.00000000000E+00  0.00000000000E+00  0.45593999997E+02  0.45594000000E+02  0.51100000000E-03 0.  1.
         11   -1    0    0    0    0 -0.00000000000E+00 -0.00000000000E+00 -0.45593999997E+02  0.45594000000E+02  0.51100000000E-03 0. -1.
    9900012    2    1    2    0    0  0.42876837419E+02 -0.12230746562E+02  0.64108440449E+01  0.46142320186E+02  0.10000022110E+02 0.  0.
         12    1    1    2    0    0 -0.42876837419E+02  0.12230746562E+02 -0.64108440449E+01  0.45045679814E+02  0.00000000000E+00 0. -1.
         11    1    3    3    0    0  0.33419088532E+02 -0.82384760097E+01  0.72432404887E+01  0.35173462985E+02  0.51100000000E-03 0. -1.
        -11    1    3    3    0    0  0.18222201238E+01 -0.87950814441E+00 -0.17462692204E+01  0.26727284200E+01  0.51100000000E-03 0.  1.
         12    1    3    3    0    0  0.76355287632E+01 -0.31127624077E+01  0.91387277666E+00  0.82961287810E+01  0.00000000000E+00 0. -1.
</event>
<event>
 7    1  0.1402367E-008  0.4614231E+02  0.7816164E-02  0.1320468E+00
        -11   -1    0    0    0    0  0.00000000000E+00  0.00000000000E+00  0.45593999997E+02  0.45594000000E+02  0.51100000000E-03 0.  1.
         11   -1    0    0    0    0 -0.00000000000E+00 -0.00000000000E+00 -0.45593999997E+02  0.45594000000E+02  0.51100000000E-03 0. -1.
    9900012    2    1    2    0    0 -0.32806730203E+02 -0.25972717739E+02  0.16680847545E+02  0.46142308884E+02  0.99999190470E+01 0.  0.
         12    1    1    2    0    0  0.32806730203E+02  0.25972717739E+02 -0.16680847545E+02  0.45045691116E+02  0.00000000000E+00 0. -1.
         11    1    3    3    0    0 -0.16571304603E+02 -0.11704809219E+02  0.93783949703E+01  0.22350950485E+02  0.51100000000E-03 0. -1.
        -11    1    3    3    0    0 -0.87412522778E+01 -0.34057446910E+01  0.21493104122E+01  0.96243505648E+01  0.51100000000E-03 0.  1.
        -12    1    3    3    0    0 -0.74941733225E+01 -0.10862163828E+02  0.51531421622E+01  0.14167007834E+02  0.00000000000E+00 0.  1.
</event>
<event>
 7    1  0.1402367E-008  0.4614233E+02  0.7816164E-02  0.1320468E+00
        -11   -1    0    0    0    0  0.00000000000E+00  0.00000000000E+00  0.45593999997E+02  0.45594000000E+02  0.51100000000E-03 0.  1.
         11   -1    0    0    0    0 -0.00000000000E+00 -0.00000000000E+00 -0.45593999997E+02  0.45594000000E+02  0.51100000000E-03 0. -1.
    9900012    2    1    2    0    0  0.31937631557E+02  0.28541991749E+02  0.13944702393E+02  0.46142330649E+02  0.10000117520E+02 0.  0.
         12    1    1    2    0    0 -0.31937631557E+02 -0.28541991749E+02 -0.13944702393E+02  0.45045669351E+02  0.00000000000E+00 0. -1.
         11    1    3    3    0    0  0.77608206062E+01  0.29716963098E+01  0.26108860283E+01  0.87108002821E+01  0.51100000000E-03 0. -1.
        -11    1    3    3    0    0  0.23093067452E+02  0.22067131103E+02  0.94554262488E+01  0.33311456367E+02  0.51100000000E-03 0.  1.
         12    1    3    3    0    0  0.10837434983E+01  0.35031643369E+01  0.18783901155E+01  0.41200740002E+01  0.00000000000E+00 0. -1.
</event>
<event>
 7    1  0.1402367E-008  0.4614232E+02  0.7816164E-02  0.1320468E+00
        -11   -1    0    0    0    0  0.00000000000E+00  0.00000000000E+00  0.45593999997E+02  0.45594000000E+02  0.51100000000E-03 0.  1.
         11   -1    0    0    0    0 -0.00000000000E+00 -0.00000000000E+00 -0.45593999997E+02  0.45594000000E+02  0.51100000000E-03 0. -1.
    9900012    2    1    2    0    0 -0.20009737400E+02 -0.38231177722E+01  0.40175958559E+02  0.46142318005E+02  0.10000002220E+02 0.  0.
         12    1    1    2    0    0  0.20009737400E+02  0.38231177722E+01 -0.40175958559E+02  0.45045681995E+02  0.00000000000E+00 0. -1.
         11    1    3    3    0    0 -0.10686511346E+02 -0.47679014260E+01  0.16708568380E+02  0.20398790805E+02  0.51100000000E-03 0. -1.
        -11    1    3    3    0    0 -0.71607280137E+01 -0.11595219220E+01  0.13448612512E+02  0.15280238727E+02  0.51100000000E-03 0.  1.
         12    1    3    3    0    0 -0.21624980403E+01  0.21043055758E+01  0.10018777666E+02  0.10463288473E+02  0.00000000000E+00 0. -1.
</event>
<event>
 7    1  0.1402367E-008  0.4614232E+02  0.7816164E-02  0.1320468E+00
        -11   -1    0    0    0    0  0.00000000000E+00  0.00000000000E+00  0.45593999997E+02  0.45594000000E+02  0.51100000000E-03 0.  1.
         11   -1    0    0    0    0 -0.00000000000E+00 -0.00000000000E+00 -0.45593999997E+02  0.45594000000E+02  0.51100000000E-03 0. -1.
    9900012    2    1    2    0    0  0.30717427675E+02 -0.32058678177E+02 -0.76022557613E+01  0.46142317609E+02  0.99999986130E+01 0.  0.
         12    1    1    2    0    0 -0.30717427675E+02  0.32058678177E+02  0.76022557613E+01  0.45045682391E+02  0.00000000000E+00 0. -1.
         11    1    3    3    0    0  0.11532465922E+02 -0.61406871600E+01 -0.22277111761E+01  0.13253999638E+02  0.51100000000E-03 0. -1.
        -11    1    3    3    0    0  0.18580317114E+02 -0.24691472421E+02 -0.44090578486E+01  0.31214368257E+02  0.51100000000E-03 0.  1.
         12    1    3    3    0    0  0.60464463898E+00 -0.12265185963E+01 -0.96548673659E+00  0.16739497140E+01  0.00000000000E+00 0. -1.
</event>
<event>
 7    1  0.1402367E-008  0.4614232E+02  0.7816164E-02  0.1320468E+00
        -11   -1    0    0    0    0  0.00000000000E+00  0.00000000000E+00  0.45593999997E+02  0.45594000000E+02  0.51100000000E-03 0. -1.
         11   -1    0    0    0    0 -0.00000000000E+00 -0.00000000000E+00 -0.45593999997E+02  0.45594000000E+02  0.51100000000E-03 0.  1.
    9900012    2    1    2    0    0 -0.34525566515E+02  0.23504043420E+02 -0.16871832571E+02  0.46142317248E+02  0.99999953218E+01 0.  0.
         12    1    1    2    0    0  0.34525566515E+02 -0.23504043420E+02  0.16871832571E+02  0.45045682752E+02  0.00000000000E+00 0. -1.
         11    1    3    3    0    0 -0.11558877771E+02  0.30644405528E+01 -0.63161099813E+01  0.13523745664E+02  0.51100000000E-03 0. -1.
        -11    1    3    3    0    0 -0.62997310556E+01  0.62571758426E+01 -0.18725058977E+01  0.90744222679E+01  0.51100000000E-03 0.  1.
         12    1    3    3    0    0 -0.16666957688E+02  0.14182427025E+02 -0.86832166924E+01  0.23544149316E+02  0.00000000000E+00 0. -1.
</event>
<event>
 7    1  0.1402367E-008  0.4614232E+02  0.7816164E-02  0.1320468E+00
        -11   -1    0    0    0    0  0.00000000000E+00  0.00000000000E+00  0.45593999997E+02  0.45594000000E+02  0.51100000000E-03 0.  1.
         11   -1    0    0    0    0 -0.00000000000E+00 -0.00000000000E+00 -0.45593999997E+02  0.45594000000E+02  0.51100000000E-03 0. -1.
    9900012    2    1    2    0    0 -0.13560275535E+02 -0.42423349779E+02  0.67447611836E+01  0.46142317827E+02  0.10000000599E+02 0.  0.
         12    1    1    2    0    0  0.13560275535E+02  0.42423349779E+02 -0.67447611836E+01  0.45045682173E+02  0.00000000000E+00 0. -1.
         11    1    3    3    0    0 -0.20040021965E+01 -0.12902541278E+01  0.98926377799E+00  0.25805859028E+01  0.51100000000E-03 0. -1.
        -11    1    3    3    0    0 -0.57862806658E+01 -0.27833887027E+02  0.60332552607E+01  0.29062114174E+02  0.51100000000E-03 0.  1.
        -12    1    3    3    0    0 -0.57699926722E+01 -0.13299208624E+02 -0.27775785508E+00  0.14499617750E+02  0.00000000000E+00 0.  1.
</event>
<event>
 7    1  0.1402367E-008  0.4614232E+02  0.7816164E-02  0.1320468E+00
        -11   -1    0    0    0    0  0.00000000000E+00  0.00000000000E+00  0.45593999997E+02  0.45594000000E+02  0.51100000000E-03 0.  1.
         11   -1    0    0    0    0 -0.00000000000E+00 -0.00000000000E+00 -0.45593999997E+02  0.45594000000E+02  0.51100000000E-03 0. -1.
    9900012    2    1    2    0    0 -0.82624135927E+01 -0.83683492542E+01  0.43483522869E+02  0.46142317535E+02  0.99999979360E+01 0.  0.
         12    1    1    2    0    0  0.82624135927E+01  0.83683492542E+01 -0.43483522869E+02  0.45045682465E+02  0.00000000000E+00 0. -1.
         11    1    3    3    0    0  0.82696567985E+00 -0.41870409722E+01  0.13880710524E+02  0.14522028414E+02  0.51100000000E-03 0. -1.
        -11    1    3    3    0    0 -0.74421397316E+01 -0.34021888477E+01  0.16783000671E+02  0.18671621369E+02  0.51100000000E-03 0.  1.
        -12    1    3    3    0    0 -0.16472395410E+01 -0.77911943422E+00  0.12819811674E+02  0.12948667753E+02  0.00000000000E+00 0.  1.
</event>
<event>
 7    1  0.1402367E-008  0.4614232E+02  0.7816164E-02  0.1320468E+00
        -11   -1    0    0    0    0  0.00000000000E+00  0.00000000000E+00  0.45593999997E+02  0.45594000000E+02  0.51100000000E-03 0. -1.
         11   -1    0    0    0    0 -0.00000000000E+00 -0.00000000000E+00 -0.45593999997E+02  0.45594000000E+02  0.51100000000E-03 0.  1.
    9900012    2    1    2    0    0 -0.31430229317E+02  0.25809333859E+02 -0.19368335877E+02  0.46142318034E+02  0.10000002486E+02 0.  0.
         12    1    1    2    0    0  0.31430229317E+02 -0.25809333859E+02  0.19368335877E+02  0.45045681966E+02  0.00000000000E+00 0. -1.
         11    1    3    3    0    0 -0.18246830904E+02  0.18200807415E+02 -0.11370507600E+02  0.28169214968E+02  0.51100000000E-03 0. -1.
        -11    1    3    3    0    0 -0.12297431751E+02  0.54486803917E+01 -0.79779977790E+01  0.15638522772E+02  0.51100000000E-03 0.  1.
         12    1    3    3    0    0 -0.88596666273E+00  0.21598460525E+01 -0.19830498033E-01  0.23345802935E+01  0.00000000000E+00 0. -1.
</event>
<event>
 7    1  0.1402367E-008  0.4614232E+02  0.7816164E-02  0.1320468E+00
        -11   -1    0    0    0    0  0.00000000000E+00  0.00000000000E+00  0.45593999997E+02  0.45594000000E+02  0.51100000000E-03 0. -1.
         11   -1    0    0    0    0 -0.00000000000E+00 -0.00000000000E+00 -0.45593999997E+02  0.45594000000E+02  0.51100000000E-03 0.  1.
    9900012    2    1    2    0    0  0.18671691367E+02 -0.39384178354E+02  0.11373997173E+02  0.46142319022E+02  0.10000011496E+02 0.  0.
         12    1    1    2    0    0 -0.18671691367E+02  0.39384178354E+02 -0.11373997173E+02  0.45045680978E+02  0.00000000000E+00 0. -1.
         11    1    3    3    0    0  0.91426576873E+00 -0.53685839289E+00 -0.36531534531E+00  0.11214073268E+01  0.51100000000E-03 0. -1.
        -11    1    3    3    0    0  0.63137696061E+01 -0.22354101730E+02  0.43672523659E+01  0.23635618127E+02  0.51100000000E-03 0.  1.
        -12    1    3    3    0    0  0.11443655992E+02 -0.16493218231E+02  0.73720601520E+01  0.21385293568E+02  0.00000000000E+00 0.  1.
</event>
<event>
 7    1  0.1402367E-008  0.4614232E+02  0.7816164E-02  0.1320468E+00
        -11   -1    0    0    0    0  0.00000000000E+00  0.00000000000E+00  0.45593999997E+02  0.45594000000E+02  0.51100000000E-03 0.  1.
         11   -1    0    0    0    0 -0.00000000000E+00 -0.00000000000E+00 -0.45593999997E+02  0.45594000000E+02  0.51100000000E-03 0. -1.
    9900012    2    1    2    0    0  0.35286227124E+02 -0.24666422289E+02  0.13250021851E+02  0.46142319938E+02  0.10000019852E+02 0.  0.
         12    1    1    2    0    0 -0.35286227124E+02  0.24666422289E+02 -0.13250021851E+02  0.45045680062E+02  0.00000000000E+00 0. -1.
         11    1    3    3    0    0  0.27576890647E+01 -0.41465686834E+01 -0.41047672473E+00  0.49967361574E+01  0.51100000000E-03 0. -1.
        -11    1    3    3    0    0  0.15038839314E+02 -0.11089086032E+02  0.89822425589E+01  0.20731984916E+02  0.51100000000E-03 0.  1.
         12    1    3    3    0    0  0.17489698746E+02 -0.94307675740E+01  0.46782560173E+01  0.20413598865E+02  0.00000000000E+00 0. -1.
</event>
<event>
 7    1  0.1402367E-008  0.4614232E+02  0.7816164E-02  0.1320468E+00
        -11   -1    0    0    0    0  0.00000000000E+00  0.00000000000E+00  0.45593999997E+02  0.45594000000E+02  0.51100000000E-03 0.  1.
         11   -1    0    0    0    0 -0.00000000000E+00 -0.00000000000E+00 -0.45593999997E+02  0.45594000000E+02  0.51100000000E-03 0. -1.
    9900012    2    1    2    0    0 -0.61042502918E+01  0.28007137076E+02  0.34748408847E+02  0.46142317452E+02  0.99999971787E+01 0.  0.
         12    1    1    2    0    0  0.61042502918E+01 -0.28007137076E+02 -0.34748408847E+02  0.45045682548E+02  0.00000000000E+00 0. -1.
         11    1    3    3    0    0 -0.15057722530E+01  0.55925873717E+01  0.22147676976E+01  0.62007725167E+01  0.51100000000E-03 0. -1.
        -11    1    3    3    0    0 -0.10527703472E+01  0.61960056733E+01  0.63195670133E+01  0.89126729551E+01  0.51100000000E-03 0.  1.
         12    1    3    3    0    0 -0.35457076915E+01  0.16218544031E+02  0.26214074136E+02  0.31028871980E+02  0.00000000000E+00 0. -1.
</event>
<event>
 7    1  0.1402367E-008  0.4614232E+02  0.7816164E-02  0.1320468E+00
        -11   -1    0    0    0    0  0.00000000000E+00  0.00000000000E+00  0.45593999997E+02  0.45594000000E+02  0.51100000000E-03 0.  1.
         11   -1    0    0    0    0 -0.00000000000E+00 -0.00000000000E+00 -0.45593999997E+02  0.45594000000E+02  0.51100000000E-03 0. -1.
    9900012    2    1    2    0    0  0.76899014759E+01 -0.10506495344E+02  0.43122991337E+02  0.46142318621E+02  0.10000007837E+02 0.  0.
         12    1    1    2    0    0 -0.76899014759E+01  0.10506495344E+02 -0.43122991337E+02  0.45045681379E+02  0.00000000000E+00 0. -1.
         11    1    3    3    0    0  0.24285618277E+01  0.10809202246E+01  0.38999149427E+01  0.47197073961E+01  0.51100000000E-03 0. -1.
        -11    1    3    3    0    0  0.35287921065E+01 -0.38133867575E+01  0.12469499820E+02  0.13508616447E+02  0.51100000000E-03 0.  1.
         12    1    3    3    0    0  0.17325475416E+01 -0.77740288108E+01  0.26753576574E+02  0.27913994778E+02  0.00000000000E+00 0. -1.
</event>
<event>
 7    1  0.1402367E-008  0.4614232E+02  0.7816164E-02  0.1320468E+00
        -11   -1    0    0    0    0  0.00000000000E+00  0.00000000000E+00  0.45593999997E+02  0.45594000000E+02  0.51100000000E-03 0.  1.
         11   -1    0    0    0    0 -0.00000000000E+00 -0.00000000000E+00 -0.45593999997E+02  0.45594000000E+02  0.51100000000E-03 0. -1.
    9900012    2    1    2    0    0 -0.53996848841E+01  0.36975757547E+02  0.25154527629E+02  0.46142317596E+02  0.99999984902E+01 0.  0.
         12    1    1    2    0    0  0.53996848841E+01 -0.36975757547E+02 -0.25154527629E+02  0.45045682404E+02  0.00000000000E+00 0. -1.
         11    1    3    3    0    0  0.72315311843E+00  0.33773747009E+01 -0.15322944718E+00  0.34573240849E+01  0.51100000000E-03 0. -1.
        -11    1    3    3    0    0 -0.63958581521E+01  0.27705814614E+02  0.21717249338E+02  0.35779296863E+02  0.51100000000E-03 0.  1.
         12    1    3    3    0    0  0.27302014961E+00  0.58925682319E+01  0.35905077391E+01  0.69056966480E+01  0.00000000000E+00 0. -1.
</event>
<event>
 7    1  0.1402367E-008  0.4614232E+02  0.7816164E-02  0.1320468E+00
        -11   -1    0    0    0    0  0.00000000000E+00  0.00000000000E+00  0.45593999997E+02  0.45594000000E+02  0.51100000000E-03 0.  1.
         11   -1    0    0    0    0 -0.00000000000E+00 -0.00000000000E+00 -0.45593999997E+02  0.45594000000E+02  0.51100000000E-03 0. -1.
    9900012    2    1    2    0    0  0.12318355538E+02 -0.56493191696E+01  0.42958781066E+02  0.46142316956E+02  0.99999926557E+01 0.  0.
         12    1    1    2    0    0 -0.12318355538E+02  0.56493191696E+01 -0.42958781066E+02  0.45045683044E+02  0.00000000000E+00 0. -1.
         11    1    3    3    0    0  0.42240885613E+01  0.19566292422E+01  0.71333652093E+01  0.85179939913E+01  0.51100000000E-03 0. -1.
        -11    1    3    3    0    0  0.25573761083E+00 -0.96517506863E+00  0.59172580224E+01  0.60009088815E+01  0.51100000000E-03 0.  1.
         12    1    3    3    0    0  0.78385293660E+01 -0.66407733432E+01  0.29908157834E+02  0.31623414083E+02  0.00000000000E+00 0. -1.
</event>
<event>
 7    1  0.1402367E-008  0.4614232E+02  0.7816164E-02  0.1320468E+00
        -11   -1    0    0    0    0  0.00000000000E+00  0.00000000000E+00  0.45593999997E+02  0.45594000000E+02  0.51100000000E-03 0. -1.
         11   -1    0    0    0    0 -0.00000000000E+00 -0.00000000000E+00 -0.45593999997E+02  0.45594000000E+02  0.51100000000E-03 0.  1.
    9900012    2    1    2    0    0  0.82829362933E+01  0.14706227398E+02 -0.41764019562E+02  0.46142317766E+02  0.10000000048E+02 0.  0.
         12    1    1    2    0    0 -0.82829362933E+01 -0.14706227398E+02  0.41764019562E+02  0.45045682234E+02  0.00000000000E+00 0. -1.
         11    1    3    3    0    0  0.43654825927E+01  0.62573563726E+01 -0.11065175131E+02  0.13440611890E+02  0.51100000000E-03 0. -1.
        -11    1    3    3    0    0  0.39510105708E+01  0.93293074280E+01 -0.25683819073E+02  0.27609871858E+02  0.51100000000E-03 0.  1.
         12    1    3    3    0    0 -0.33556870194E-01 -0.88043640226E+00 -0.50150253581E+01  0.50918340178E+01  0.00000000000E+00 0. -1.
</event>
<event>
 7    1  0.1402367E-008  0.4614231E+02  0.7816164E-02  0.1320468E+00
        -11   -1    0    0    0    0  0.00000000000E+00  0.00000000000E+00  0.45593999997E+02  0.45594000000E+02  0.51100000000E-03 0.  1.
         11   -1    0    0    0    0 -0.00000000000E+00 -0.00000000000E+00 -0.45593999997E+02  0.45594000000E+02  0.51100000000E-03 0. -1.
    9900012    2    1    2    0    0 -0.54482910806E+01 -0.12494728445E+02  0.42933806491E+02  0.46142313698E+02  0.99999629468E+01 0.  0.
         12    1    1    2    0    0  0.54482910806E+01  0.12494728445E+02 -0.42933806491E+02  0.45045686302E+02  0.00000000000E+00 0. -1.
         11    1    3    3    0    0 -0.32966603013E+01 -0.63045380403E+01  0.19845099054E+02  0.21081819792E+02  0.51100000000E-03 0. -1.
        -11    1    3    3    0    0 -0.21052578146E+00  0.16342795914E+01  0.31814123479E+01  0.35828167238E+01  0.51100000000E-03 0.  1.
        -12    1    3    3    0    0 -0.19411049979E+01 -0.78244699960E+01  0.19907295089E+02  0.21477677181E+02  0.00000000000E+00 0.  1.
</event>
<event>
 7    1  0.1402367E-008  0.4614232E+02  0.7816164E-02  0.1320468E+00
        -11   -1    0    0    0    0  0.00000000000E+00  0.00000000000E+00  0.45593999997E+02  0.45594000000E+02  0.51100000000E-03 0.  1.
         11   -1    0    0    0    0 -0.00000000000E+00 -0.00000000000E+00 -0.45593999997E+02  0.45594000000E+02  0.51100000000E-03 0. -1.
    9900012    2    1    2    0    0  0.25528136070E+02  0.29917714501E+02  0.21962655520E+02  0.46142316415E+02  0.99999877231E+01 0.  0.
         12    1    1    2    0    0 -0.25528136070E+02 -0.29917714501E+02 -0.21962655520E+02  0.45045683585E+02  0.00000000000E+00 0. -1.
         11    1    3    3    0    0  0.24687243473E+01  0.61639256888E+01  0.49964981263E+01  0.83098479883E+01  0.51100000000E-03 0.  1.
        -11    1    3    3    0    0  0.12948416218E+00  0.14816056115E+01 -0.27612138001E+00  0.15126680448E+01  0.51100000000E-03 0. -1.
        -12    1    3    3    0    0  0.22929927561E+02  0.22272183200E+02  0.17242278774E+02  0.36319800382E+02  0.00000000000E+00 0.  1.
</event>
<event>
 7    1  0.1402367E-008  0.4614231E+02  0.7816164E-02  0.1320468E+00
        -11   -1    0    0    0    0  0.00000000000E+00  0.00000000000E+00  0.45593999997E+02  0.45594000000E+02  0.51100000000E-03 0.  1.
         11   -1    0    0    0    0 -0.00000000000E+00 -0.00000000000E+00 -0.45593999997E+02  0.45594000000E+02  0.51100000000E-03 0. -1.
    9900012    2    1    2    0    0 -0.13589064722E+01  0.26566406691E+02  0.36352349092E+02  0.46142313461E+02  0.99999607894E+01 0.  0.
         12    1    1    2    0    0  0.13589064722E+01 -0.26566406691E+02 -0.36352349092E+02  0.45045686539E+02  0.00000000000E+00 0. -1.
         11    1    3    3    0    0 -0.30480402222E+01  0.19265967569E+01  0.58948937842E+01  0.69102892303E+01  0.51100000000E-03 0. -1.
        -11    1    3    3    0    0  0.15174625136E+01  0.18348919749E+02  0.23431958793E+02  0.29800037610E+02  0.51100000000E-03 0.  1.
         12    1    3    3    0    0  0.17167123640E+00  0.62908901847E+01  0.70254965150E+01  0.94319866206E+01  0.00000000000E+00 0. -1.
</event>
<event>
 7    1  0.1402367E-008  0.4614232E+02  0.7816164E-02  0.1320468E+00
        -11   -1    0    0    0    0  0.00000000000E+00  0.00000000000E+00  0.45593999997E+02  0.45594000000E+02  0.51100000000E-03 0.  1.
         11   -1    0    0    0    0 -0.00000000000E+00 -0.00000000000E+00 -0.45593999997E+02  0.45594000000E+02  0.51100000000E-03 0. -1.
    9900012    2    1    2    0    0 -0.28303211967E+02  0.26604221237E+02  0.22809144638E+02  0.46142317917E+02  0.10000001417E+02 0.  0.
         12    1    1    2    0    0  0.28303211967E+02 -0.26604221237E+02 -0.22809144638E+02  0.45045682083E+02  0.00000000000E+00 0. -1.
         11    1    3    3    0    0 -0.29855315652E+01  0.20898526877E+01  0.57942142517E+01  0.68449837136E+01  0.51100000000E-03 0. -1.
        -11    1    3    3    0    0 -0.16052246661E+02  0.15223009634E+02  0.87534733461E+01  0.23791551884E+02  0.51100000000E-03 0.  1.
         12    1    3    3    0    0 -0.92654337407E+01  0.92913589153E+01  0.82614570403E+01  0.15505782319E+02  0.00000000000E+00 0. -1.
</event>
<event>
 7    1  0.1402367E-008  0.4614233E+02  0.7816164E-02  0.1320468E+00
        -11   -1    0    0    0    0  0.00000000000E+00  0.00000000000E+00  0.45593999997E+02  0.45594000000E+02  0.51100000000E-03 0. -1.
         11   -1    0    0    0    0 -0.00000000000E+00 -0.00000000000E+00 -0.45593999997E+02  0.45594000000E+02  0.51100000000E-03 0.  1.
    9900012    2    1    2    0    0  0.21840350472E+01 -0.43914834381E+02 -0.97892783016E+01  0.46142326984E+02  0.10000084105E+02 0.  0.
         12    1    1    2    0    0 -0.21840350472E+01  0.43914834381E+02  0.97892783016E+01  0.45045673016E+02  0.00000000000E+00 0. -1.
         11    1    3    3    0    0  0.78680835490E+00 -0.71618020044E+01 -0.45194086437E+01  0.85050296935E+01  0.51100000000E-03 0. -1.
        -11    1    3    3    0    0 -0.63624121416E+00 -0.59560037233E+01  0.11836705061E+01  0.61057234922E+01  0.51100000000E-03 0.  1.
        -12    1    3    3    0    0  0.20334679064E+01 -0.30797028653E+02 -0.64535401640E+01  0.31531573799E+02  0.00000000000E+00 0.  1.
</event>
<event>
 7    1  0.1402367E-008  0.4614232E+02  0.7816164E-02  0.1320468E+00
        -11   -1    0    0    0    0  0.00000000000E+00  0.00000000000E+00  0.45593999997E+02  0.45594000000E+02  0.51100000000E-03 0. -1.
         11   -1    0    0    0    0 -0.00000000000E+00 -0.00000000000E+00 -0.45593999997E+02  0.45594000000E+02  0.51100000000E-03 0.  1.
    9900012    2    1    2    0    0 -0.24356222592E+01 -0.44023390086E+02 -0.92261727325E+01  0.46142318812E+02  0.10000009580E+02 0.  0.
         12    1    1    2    0    0  0.24356222592E+01  0.44023390086E+02  0.92261727325E+01  0.45045681188E+02  0.00000000000E+00 0. -1.
         11    1    3    3    0    0 -0.38070664492E+01 -0.30168037557E+02 -0.31910312427E+01  0.30574285366E+02  0.51100000000E-03 0. -1.
        -11    1    3    3    0    0  0.22963974578E+01 -0.85850703040E+01 -0.46997377355E+01  0.10053079551E+02  0.51100000000E-03 0.  1.
        -12    1    3    3    0    0 -0.92495326781E+00 -0.52702822249E+01 -0.13354037543E+01  0.55149538951E+01  0.00000000000E+00 0.  1.
</event>
<event>
 7    1  0.1402367E-008  0.4614232E+02  0.7816164E-02  0.1320468E+00
        -11   -1    0    0    0    0  0.00000000000E+00  0.00000000000E+00  0.45593999997E+02  0.45594000000E+02  0.51100000000E-03 0. -1.
         11   -1    0    0    0    0 -0.00000000000E+00 -0.00000000000E+00 -0.45593999997E+02  0.45594000000E+02  0.51100000000E-03 0.  1.
    9900012    2    1    2    0    0  0.35672042463E+02  0.27063023470E+02 -0.49205345876E+01  0.46142317482E+02  0.99999974569E+01 0.  0.
         12    1    1    2    0    0 -0.35672042463E+02 -0.27063023470E+02  0.49205345876E+01  0.45045682518E+02  0.00000000000E+00 0. -1.
         11    1    3    3    0    0  0.12910108183E+02  0.64188338133E+01  0.22159325391E+01  0.14587072294E+02  0.51100000000E-03 0. -1.
        -11    1    3    3    0    0  0.10786855478E+02  0.93434477838E+01 -0.31603894528E+01  0.14616577210E+02  0.51100000000E-03 0.  1.
         12    1    3    3    0    0  0.11975078802E+02  0.11300741873E+02 -0.39760776739E+01  0.16938667978E+02  0.00000000000E+00 0. -1.
</event>
<event>
 7    1  0.1402367E-008  0.4614232E+02  0.7816164E-02  0.1320468E+00
        -11   -1    0    0    0    0  0.00000000000E+00  0.00000000000E+00  0.45593999997E+02  0.45594000000E+02  0.51100000000E-03 0. -1.
         11   -1    0    0    0    0 -0.00000000000E+00 -0.00000000000E+00 -0.45593999997E+02  0.45594000000E+02  0.51100000000E-03 0.  1.
    9900012    2    1    2    0    0  0.44446141729E+02 -0.37803147820E+01 -0.62739949488E+01  0.46142319774E+02  0.10000018355E+02 0.  0.
         12    1    1    2    0    0 -0.44446141729E+02  0.37803147820E+01  0.62739949488E+01  0.45045680226E+02  0.00000000000E+00 0. -1.
         11    1    3    3    0    0  0.73864177110E+01 -0.30202491354E+01 -0.34111813674E+01  0.86785499955E+01  0.51100000000E-03 0. -1.
        -11    1    3    3    0    0  0.18272938393E+02  0.25067453450E+00  0.81874933345E+00  0.18292989530E+02  0.51100000000E-03 0.  1.
        -12    1    3    3    0    0  0.18786785625E+02 -0.10107401811E+01 -0.36815629148E+01  0.19170780248E+02  0.00000000000E+00 0.  1.
</event>
<event>
 7    1  0.1402367E-008  0.4614232E+02  0.7816164E-02  0.1320468E+00
        -11   -1    0    0    0    0  0.00000000000E+00  0.00000000000E+00  0.45593999997E+02  0.45594000000E+02  0.51100000000E-03 0. -1.
         11   -1    0    0    0    0 -0.00000000000E+00 -0.00000000000E+00 -0.45593999997E+02  0.45594000000E+02  0.51100000000E-03 0.  1.
    9900012    2    1    2    0    0  0.65401568359E+01  0.12368089798E+02 -0.42817872994E+02  0.46142317139E+02  0.99999943230E+01 0.  0.
         12    1    1    2    0    0 -0.65401568359E+01 -0.12368089798E+02  0.42817872994E+02  0.45045682861E+02  0.00000000000E+00 0. -1.
         11    1    3    3    0    0  0.22577065040E+01  0.54249697572E+01 -0.58766239693E+01  0.83103697308E+01  0.51100000000E-03 0. -1.
        -11    1    3    3    0    0  0.27046078254E+01  0.44683125059E+01 -0.23171561547E+02  0.23752936343E+02  0.51100000000E-03 0.  1.
         12    1    3    3    0    0  0.15778425065E+01  0.24748075350E+01 -0.13769687478E+02  0.14079011065E+02  0.00000000000E+00 0. -1.
</event>
<event>
 7    1  0.1402367E-008  0.4614232E+02  0.7816164E-02  0.1320468E+00
        -11   -1    0    0    0    0  0.00000000000E+00  0.00000000000E+00  0.45593999997E+02  0.45594000000E+02  0.51100000000E-03 0.  1.
         11   -1    0    0    0    0 -0.00000000000E+00 -0.00000000000E+00 -0.45593999997E+02  0.45594000000E+02  0.51100000000E-03 0. -1.
    9900012    2    1    2    0    0 -0.30329042440E+02  0.90987250432E+01  0.32038662572E+02  0.46142317497E+02  0.99999975944E+01 0.  0.
         12    1    1    2    0    0  0.30329042440E+02 -0.90987250432E+01 -0.32038662572E+02  0.45045682503E+02  0.00000000000E+00 0. -1.
         11    1    3    3    0    0 -0.24465172519E+01  0.55079886644E+00  0.51807113304E+00  0.25607077177E+01  0.51100000000E-03 0. -1.
        -11    1    3    3    0    0 -0.24822776018E+02  0.79426713136E+01  0.23958345328E+02  0.35401391893E+02  0.51100000000E-03 0.  1.
        -12    1    3    3    0    0 -0.30597491697E+01  0.60525486322E+00  0.75622461107E+01  0.81802178864E+01  0.00000000000E+00 0.  1.
</event>
<event>
 7    1  0.1402367E-008  0.4614232E+02  0.7816164E-02  0.1320468E+00
        -11   -1    0    0    0    0  0.00000000000E+00  0.00000000000E+00  0.45593999997E+02  0.45594000000E+02  0.51100000000E-03 0.  1.
         11   -1    0    0    0    0 -0.00000000000E+00 -0.00000000000E+00 -0.45593999997E+02  0.45594000000E+02  0.51100000000E-03 0. -1.
    9900012    2    1    2    0    0 -0.24024255420E+02 -0.77051855819E+00  0.38096652809E+02  0.46142317604E+02  0.99999985654E+01 0.  0.
         12    1    1    2    0    0  0.24024255420E+02  0.77051855819E+00 -0.38096652809E+02  0.45045682396E+02  0.00000000000E+00 0. -1.
         11    1    3    3    0    0 -0.90049992555E+01  0.35130249604E+01  0.16955924750E+02  0.19517549548E+02  0.51100000000E-03 0. -1.
        -11    1    3    3    0    0 -0.11655338830E+02 -0.20047610651E+01  0.17769007191E+02  0.21344873084E+02  0.51100000000E-03 0.  1.
         12    1    3    3    0    0 -0.33639173346E+01 -0.22787824535E+01  0.33717208676E+01  0.52798949718E+01  0.00000000000E+00 0. -1.
</event>
<event>
 7    1  0.1402367E-008  0.4614232E+02  0.7816164E-02  0.1320468E+00
        -11   -1    0    0    0    0  0.00000000000E+00  0.00000000000E+00  0.45593999997E+02  0.45594000000E+02  0.51100000000E-03 0. -1.
         11   -1    0    0    0    0 -0.00000000000E+00 -0.00000000000E+00 -0.45593999997E+02  0.45594000000E+02  0.51100000000E-03 0.  1.
    9900012    2    1    2    0    0 -0.33288685614E+02 -0.22501909124E+02 -0.20362735356E+02  0.46142317684E+02  0.99999992986E+01 0.  0.
         12    1    1    2    0    0  0.33288685614E+02  0.22501909124E+02  0.20362735356E+02  0.45045682316E+02  0.00000000000E+00 0. -1.
         11    1    3    3    0    0 -0.42349967325E+01 -0.23306100156E+01 -0.72128042347E+00  0.48874519005E+01  0.51100000000E-03 0. -1.
        -11    1    3    3    0    0 -0.21315152843E+02 -0.17261155825E+02 -0.18053412113E+02  0.32836091885E+02  0.51100000000E-03 0.  1.
        -12    1    3    3    0    0 -0.77385360391E+01 -0.29101432833E+01 -0.15880428191E+01  0.84187738984E+01  0.00000000000E+00 0.  1.
</event>
<event>
 7    1  0.1402367E-008  0.4614232E+02  0.7816164E-02  0.1320468E+00
        -11   -1    0    0    0    0  0.00000000000E+00  0.00000000000E+00  0.45593999997E+02  0.45594000000E+02  0.51100000000E-03 0. -1.
         11   -1    0    0    0    0 -0.00000000000E+00 -0.00000000000E+00 -0.45593999997E+02  0.45594000000E+02  0.51100000000E-03 0.  1.
    9900012    2    1    2    0    0  0.27500310170E+02 -0.35295733863E+02 -0.52016988816E+01  0.46142316970E+02  0.99999927883E+01 0.  0.
         12    1    1    2    0    0 -0.27500310170E+02  0.35295733863E+02  0.52016988816E+01  0.45045683030E+02  0.00000000000E+00 0. -1.
         11    1    3    3    0    0  0.34031698823E+01 -0.92545940890E+01  0.15827796783E+01  0.99867046002E+01  0.51100000000E-03 0. -1.
        -11    1    3    3    0    0  0.22034785898E+02 -0.23193243111E+02 -0.63037501622E+01  0.32606680020E+02  0.51100000000E-03 0.  1.
         12    1    3    3    0    0  0.20623543896E+01 -0.28478966633E+01 -0.48072839769E+00  0.35489323501E+01  0.00000000000E+00 0. -1.
</event>
<event>
 7    1  0.1402367E-008  0.4614232E+02  0.7816164E-02  0.1320468E+00
        -11   -1    0    0    0    0  0.00000000000E+00  0.00000000000E+00  0.45593999997E+02  0.45594000000E+02  0.51100000000E-03 0. -1.
         11   -1    0    0    0    0 -0.00000000000E+00 -0.00000000000E+00 -0.45593999997E+02  0.45594000000E+02  0.51100000000E-03 0.  1.
    9900012    2    1    2    0    0 -0.20734121163E+02 -0.19879150829E+02 -0.34699121563E+02  0.46142318128E+02  0.10000003341E+02 0.  0.
         12    1    1    2    0    0  0.20734121163E+02  0.19879150829E+02  0.34699121563E+02  0.45045681872E+02  0.00000000000E+00 0. -1.
         11    1    3    3    0    0 -0.10964890799E+02 -0.40932602946E+01 -0.11667848708E+02  0.16526412309E+02  0.51100000000E-03 0. -1.
        -11    1    3    3    0    0 -0.91533139646E+01 -0.14256812714E+02 -0.21424714829E+02  0.27314067275E+02  0.51100000000E-03 0.  1.
         12    1    3    3    0    0 -0.61591639952E+00 -0.15290778200E+01 -0.16065580265E+01  0.23018385441E+01  0.00000000000E+00 0. -1.
</event>
<event>
 7    1  0.1402367E-008  0.4614232E+02  0.7816164E-02  0.1320468E+00
        -11   -1    0    0    0    0  0.00000000000E+00  0.00000000000E+00  0.45593999997E+02  0.45594000000E+02  0.51100000000E-03 0. -1.
         11   -1    0    0    0    0 -0.00000000000E+00 -0.00000000000E+00 -0.45593999997E+02  0.45594000000E+02  0.51100000000E-03 0.  1.
    9900012    2    1    2    0    0 -0.35767441494E+02 -0.17873778469E+02 -0.20744426344E+02  0.46142322604E+02  0.10000044158E+02 0.  0.
         12    1    1    2    0    0  0.35767441494E+02  0.17873778469E+02  0.20744426344E+02  0.45045677396E+02  0.00000000000E+00 0. -1.
         11    1    3    3    0    0 -0.94735106948E+01 -0.33379396592E+01 -0.10659542114E+01  0.10100767530E+02  0.51100000000E-03 0. -1.
        -11    1    3    3    0    0 -0.11970520806E+02 -0.77428302480E+01 -0.10679575683E+02  0.17812864050E+02  0.51100000000E-03 0.  1.
        -12    1    3    3    0    0 -0.14323409993E+02 -0.67930085615E+01 -0.89988964494E+01  0.18228691024E+02  0.00000000000E+00 0.  1.
</event>
<event>
 7    1  0.1402367E-008  0.4614232E+02  0.7816164E-02  0.1320468E+00
        -11   -1    0    0    0    0  0.00000000000E+00  0.00000000000E+00  0.45593999997E+02  0.45594000000E+02  0.51100000000E-03 0.  1.
         11   -1    0    0    0    0 -0.00000000000E+00 -0.00000000000E+00 -0.45593999997E+02  0.45594000000E+02  0.51100000000E-03 0. -1.
    9900012    2    1    2    0    0 -0.32247742204E+02 -0.50220959869E+01  0.31047947901E+02  0.46142318806E+02  0.10000009530E+02 0.  0.
         12    1    1    2    0    0  0.32247742204E+02  0.50220959869E+01 -0.31047947901E+02  0.45045681194E+02  0.00000000000E+00 0. -1.
         11    1    3    3    0    0 -0.14123642188E+02 -0.37054628177E+01  0.10188531067E+02  0.17804883850E+02  0.51100000000E-03 0.  1.
        -11    1    3    3    0    0 -0.77797984749E+00  0.81583081898E-03  0.41293955534E+01  0.42020425041E+01  0.51100000000E-03 0. -1.
         12    1    3    3    0    0 -0.17346120169E+02 -0.13174490000E+01  0.16730021281E+02  0.24135392452E+02  0.00000000000E+00 0. -1.
</event>
<event>
 7    1  0.1402367E-008  0.4614232E+02  0.7816164E-02  0.1320468E+00
        -11   -1    0    0    0    0  0.00000000000E+00  0.00000000000E+00  0.45593999997E+02  0.45594000000E+02  0.51100000000E-03 0.  1.
         11   -1    0    0    0    0 -0.00000000000E+00 -0.00000000000E+00 -0.45593999997E+02  0.45594000000E+02  0.51100000000E-03 0. -1.
    9900012    2    1    2    0    0  0.23540515423E+01  0.40407128325E+02  0.19769571468E+02  0.46142317253E+02  0.99999953671E+01 0.  0.
         12    1    1    2    0    0 -0.23540515423E+01 -0.40407128325E+02 -0.19769571468E+02  0.45045682747E+02  0.00000000000E+00 0. -1.
         11    1    3    3    0    0 -0.75083787298E+00  0.98576016408E+01  0.28715656232E+01  0.10294753859E+02  0.51100000000E-03 0. -1.
        -11    1    3    3    0    0  0.17263787802E+01  0.30087735232E+02  0.15815561570E+02  0.34035043457E+02  0.51100000000E-03 0.  1.
        -12    1    3    3    0    0  0.13785106351E+01  0.46179145219E+00  0.10824442752E+01  0.18125199379E+01  0.00000000000E+00 0.  1.
</event>
<event>
 7    1  0.1402367E-008  0.4614232E+02  0.7816164E-02  0.1320468E+00
        -11   -1    0    0    0    0  0.00000000000E+00  0.00000000000E+00  0.45593999997E+02  0.45594000000E+02  0.51100000000E-03 0.  1.
         11   -1    0    0    0    0 -0.00000000000E+00 -0.00000000000E+00 -0.45593999997E+02  0.45594000000E+02  0.51100000000E-03 0. -1.
    9900012    2    1    2    0    0  0.76934345695E+01  0.19012151236E+01  0.44343092412E+02  0.46142318752E+02  0.10000009040E+02 0.  0.
         12    1    1    2    0    0 -0.76934345695E+01 -0.19012151236E+01 -0.44343092412E+02  0.45045681248E+02  0.00000000000E+00 0. -1.
         11    1    3    3    0    0  0.23442246440E+01 -0.55688927310E+00  0.20228198652E+01  0.31459998907E+01  0.51100000000E-03 0. -1.
        -11    1    3    3    0    0  0.25068865959E+01 -0.13389376948E+01  0.16912287218E+02  0.17149422549E+02  0.51100000000E-03 0.  1.
         12    1    3    3    0    0  0.28423233296E+01  0.37970420916E+01  0.25407985328E+02  0.25846896313E+02  0.00000000000E+00 0. -1.
</event>
<event>
 7    1  0.1402367E-008  0.4614232E+02  0.7816164E-02  0.1320468E+00
        -11   -1    0    0    0    0  0.00000000000E+00  0.00000000000E+00  0.45593999997E+02  0.45594000000E+02  0.51100000000E-03 0. -1.
         11   -1    0    0    0    0 -0.00000000000E+00 -0.00000000000E+00 -0.45593999997E+02  0.45594000000E+02  0.51100000000E-03 0.  1.
    9900012    2    1    2    0    0  0.12782972070E+02  0.43193817107E+02  0.57089973057E-01  0.46142317960E+02  0.10000001815E+02 0.  0.
         12    1    1    2    0    0 -0.12782972070E+02 -0.43193817107E+02 -0.57089973057E-01  0.45045682040E+02  0.00000000000E+00 0. -1.
         11    1    3    3    0    0  0.11277829050E+02  0.30448911665E+02  0.16424966782E+01  0.32511896980E+02  0.51100000000E-03 0.  1.
        -11    1    3    3    0    0 -0.12290529635E+01  0.13884424398E+01 -0.12455656838E+00  0.18584558632E+01  0.51100000000E-03 0. -1.
        -12    1    3    3    0    0  0.27341959834E+01  0.11356463002E+02 -0.14608501367E+01  0.11771965117E+02  0.00000000000E+00 0.  1.
</event>
<event>
 7    1  0.1402367E-008  0.4614232E+02  0.7816164E-02  0.1320468E+00
        -11   -1    0    0    0    0  0.00000000000E+00  0.00000000000E+00  0.45593999997E+02  0.45594000000E+02  0.51100000000E-03 0.  1.
         11   -1    0    0    0    0 -0.00000000000E+00 -0.00000000000E+00 -0.45593999997E+02  0.45594000000E+02  0.51100000000E-03 0. -1.
    9900012    2    1    2    0    0  0.36748373750E+02  0.15299970440E+02  0.21085100397E+02  0.46142317327E+02  0.99999960394E+01 0.  0.
         12    1    1    2    0    0 -0.36748373750E+02 -0.15299970440E+02 -0.21085100397E+02  0.45045682673E+02  0.00000000000E+00 0. -1.
         11    1    3    3    0    0  0.86306231322E+01  0.54924217047E+01  0.69325941580E+01  0.12357799717E+02  0.51100000000E-03 0. -1.
        -11    1    3    3    0    0  0.20659035476E+02  0.92640213047E+01  0.77225917060E+01  0.23921878280E+02  0.51100000000E-03 0.  1.
        -12    1    3    3    0    0  0.74587151421E+01  0.54352743036E+00  0.64299145333E+01  0.98626393295E+01  0.00000000000E+00 0.  1.
</event>
<event>
 7    1  0.1402367E-008  0.4614232E+02  0.7816164E-02  0.1320468E+00
        -11   -1    0    0    0    0  0.00000000000E+00  0.00000000000E+00  0.45593999997E+02  0.45594000000E+02  0.51100000000E-03 0.  1.
         11   -1    0    0    0    0 -0.00000000000E+00 -0.00000000000E+00 -0.45593999997E+02  0.45594000000E+02  0.51100000000E-03 0. -1.
    9900012    2    1    2    0    0  0.35998738052E+01  0.44801585402E+02  0.29954123392E+01  0.46142316067E+02  0.99999845477E+01 0.  0.
         12    1    1    2    0    0 -0.35998738052E+01 -0.44801585402E+02 -0.29954123392E+01  0.45045683933E+02  0.00000000000E+00 0. -1.
         11    1    3    3    0    0  0.65359393400E+01  0.25962749772E+02  0.29809221208E+01  0.26938240026E+02  0.51100000000E-03 0. -1.
        -11    1    3    3    0    0 -0.61042177977E+00  0.80502432252E+01 -0.93291776264E+00  0.81270761376E+01  0.51100000000E-03 0.  1.
         12    1    3    3    0    0 -0.23256437550E+01  0.10788592405E+02  0.94740798103E+00  0.11076999902E+02  0.00000000000E+00 0. -1.
</event>
<event>
 7    1  0.1402367E-008  0.4614232E+02  0.7816164E-02  0.1320468E+00
        -11   -1    0    0    0    0  0.00000000000E+00  0.00000000000E+00  0.45593999997E+02  0.45594000000E+02  0.51100000000E-03 0.  1.
         11   -1    0    0    0    0 -0.00000000000E+00 -0.00000000000E+00 -0.45593999997E+02  0.45594000000E+02  0.51100000000E-03 0. -1.
    9900012    2    1    2    0    0  0.32385111332E+01  0.23682622389E+01  0.44866656180E+02  0.46142318108E+02  0.10000003162E+02 0.  0.
         12    1    1    2    0    0 -0.32385111332E+01 -0.23682622389E+01 -0.44866656180E+02  0.45045681892E+02  0.00000000000E+00 0. -1.
         11    1    3    3    0    0  0.32988268345E+01  0.57628815098E+01  0.29567992740E+02  0.30304442854E+02  0.51100000000E-03 0. -1.
        -11    1    3    3    0    0  0.84792335027E+00 -0.29814086700E+01  0.11565557132E+02  0.11973716370E+02  0.51100000000E-03 0.  1.
         12    1    3    3    0    0 -0.90823905156E+00 -0.41321060093E+00  0.37331063079E+01  0.38641588841E+01  0.00000000000E+00 0. -1.
</event>
<event>
 7    1  0.1402367E-008  0.4614232E+02  0.7816164E-02  0.1320468E+00
        -11   -1    0    0    0    0  0.00000000000E+00  0.00000000000E+00  0.45593999997E+02  0.45594000000E+02  0.51100000000E-03 0. -1.
         11   -1    0    0    0    0 -0.00000000000E+00 -0.00000000000E+00 -0.45593999997E+02  0.45594000000E+02  0.51100000000E-03 0.  1.
    9900012    2    1    2    0    0 -0.12412601991E+02  0.29321510550E+01 -0.43202352746E+02  0.46142317845E+02  0.10000000764E+02 0.  0.
         12    1    1    2    0    0  0.12412601991E+02 -0.29321510550E+01  0.43202352746E+02  0.45045682155E+02  0.00000000000E+00 0. -1.
         11    1    3    3    0    0 -0.83531816427E+01  0.57543999079E+01 -0.23218212305E+02  0.25337208701E+02  0.51100000000E-03 0. -1.
        -11    1    3    3    0    0 -0.24642957191E+01 -0.18787174828E+01 -0.17088402319E+02  0.17367090339E+02  0.51100000000E-03 0.  1.
        -12    1    3    3    0    0 -0.15951246289E+01 -0.94353137013E+00 -0.28957381224E+01  0.34380188047E+01  0.00000000000E+00 0.  1.
</event>
<event>
 7    1  0.1402367E-008  0.4614232E+02  0.7816164E-02  0.1320468E+00
        -11   -1    0    0    0    0  0.00000000000E+00  0.00000000000E+00  0.45593999997E+02  0.45594000000E+02  0.51100000000E-03 0.  1.
         11   -1    0    0    0    0 -0.00000000000E+00 -0.00000000000E+00 -0.45593999997E+02  0.45594000000E+02  0.51100000000E-03 0. -1.
    9900012    2    1    2    0    0 -0.39556640288E+02  0.18730583476E+02  0.10656032772E+02  0.46142316714E+02  0.99999904536E+01 0.  0.
         12    1    1    2    0    0  0.39556640288E+02 -0.18730583476E+02 -0.10656032772E+02  0.45045683286E+02  0.00000000000E+00 0. -1.
         11    1    3    3    0    0 -0.17139650226E+01 -0.65862872242E+00 -0.75711548986E+00  0.19861248750E+01  0.51100000000E-03 0. -1.
        -11    1    3    3    0    0 -0.26954091930E+01  0.17955235822E+01  0.39781042403E-01  0.32389378574E+01  0.51100000000E-03 0.  1.
         12    1    3    3    0    0 -0.35147266073E+02  0.17593688616E+02  0.11373367219E+02  0.40917253982E+02  0.00000000000E+00 0. -1.
</event>
<event>
 7    1  0.1402367E-008  0.4614232E+02  0.7816164E-02  0.1320468E+00
        -11   -1    0    0    0    0  0.00000000000E+00  0.00000000000E+00  0.45593999997E+02  0.45594000000E+02  0.51100000000E-03 0.  1.
         11   -1    0    0    0    0 -0.00000000000E+00 -0.00000000000E+00 -0.45593999997E+02  0.45594000000E+02  0.51100000000E-03 0. -1.
    9900012    2    1    2    0    0  0.43960605033E+02 -0.98138732456E+01 -0.51621935751E+00  0.46142318904E+02  0.10000010425E+02 0.  0.
         12    1    1    2    0    0 -0.43960605033E+02  0.98138732456E+01  0.51621935751E+00  0.45045681096E+02  0.00000000000E+00 0. -1.
         11    1    3    3    0    0  0.72516374465E+01  0.18246379236E+00  0.16313601180E+01  0.74351109465E+01  0.51100000000E-03 0. -1.
        -11    1    3    3    0    0  0.23254429406E+02 -0.88269558658E+01 -0.35659670941E+01  0.25127669180E+02  0.51100000000E-03 0.  1.
        -12    1    3    3    0    0  0.13454538180E+02 -0.11693811722E+01  0.14183876186E+01  0.13579538778E+02  0.00000000000E+00 0.  1.
</event>
<event>
 7    1  0.1402367E-008  0.4614232E+02  0.7816164E-02  0.1320468E+00
        -11   -1    0    0    0    0  0.00000000000E+00  0.00000000000E+00  0.45593999997E+02  0.45594000000E+02  0.51100000000E-03 0.  1.
         11   -1    0    0    0    0 -0.00000000000E+00 -0.00000000000E+00 -0.45593999997E+02  0.45594000000E+02  0.51100000000E-03 0. -1.
    9900012    2    1    2    0    0 -0.15086412784E+02  0.93686819789E+01  0.41397360488E+02  0.46142317542E+02  0.99999980064E+01 0.  0.
         12    1    1    2    0    0  0.15086412784E+02 -0.93686819789E+01 -0.41397360488E+02  0.45045682458E+02  0.00000000000E+00 0. -1.
         11    1    3    3    0    0  0.69246467016E+00 -0.48170530081E+00  0.59303815620E+00  0.10311361850E+01  0.51100000000E-03 0. -1.
        -11    1    3    3    0    0 -0.75841147130E+01  0.19219133394E+01  0.17316265989E+02  0.19001726630E+02  0.51100000000E-03 0.  1.
        -12    1    3    3    0    0 -0.81947627411E+01  0.79284739403E+01  0.23488056343E+02  0.26109454728E+02  0.00000000000E+00 0.  1.
</event>
<event>
 7    1  0.1402367E-008  0.4614232E+02  0.7816164E-02  0.1320468E+00
        -11   -1    0    0    0    0  0.00000000000E+00  0.00000000000E+00  0.45593999997E+02  0.45594000000E+02  0.51100000000E-03 0. -1.
         11   -1    0    0    0    0 -0.00000000000E+00 -0.00000000000E+00 -0.45593999997E+02  0.45594000000E+02  0.51100000000E-03 0.  1.
    9900012    2    1    2    0    0 -0.84173376050E+01  0.37539782367E+02 -0.23431318264E+02  0.46142317542E+02  0.99999980007E+01 0.  0.
         12    1    1    2    0    0  0.84173376050E+01 -0.37539782367E+02  0.23431318264E+02  0.45045682458E+02  0.00000000000E+00 0. -1.
         11    1    3    3    0    0 -0.78564210320E+01  0.14561753122E+02 -0.82373296763E+01  0.18483008572E+02  0.51100000000E-03 0.  1.
        -11    1    3    3    0    0 -0.54758493883E+00  0.21408059775E+02 -0.13341267430E+02  0.25230820230E+02  0.51100000000E-03 0. -1.
        -12    1    3    3    0    0 -0.13331634101E-01  0.15699694702E+01 -0.18527211576E+01  0.24284887394E+01  0.00000000000E+00 0.  1.
</event>
<event>
 7    1  0.1759523E-008  0.4614232E+02  0.7816164E-02  0.1320468E+00
        -11   -1    0    0    0    0  0.00000000000E+00  0.00000000000E+00  0.45593999997E+02  0.45594000000E+02  0.51100000000E-03 0. -1.
         11   -1    0    0    0    0 -0.00000000000E+00 -0.00000000000E+00 -0.45593999997E+02  0.45594000000E+02  0.51100000000E-03 0.  1.
    9900012    2    1    2    0    0 -0.16383415877E+02  0.47683223644E+01 -0.41688851303E+02  0.46142317222E+02  0.99999950854E+01 0.  0.
         12    1    1    2    0    0  0.16383415877E+02 -0.47683223644E+01  0.41688851303E+02  0.45045682778E+02  0.00000000000E+00 0. -1.
         11    1    3    3    0    0 -0.47889561905E+00  0.10047811500E+01 -0.11059980171E+02  0.11115848497E+02  0.51100000000E-03 0. -1.
        -11    1    3    3    0    0 -0.13117092146E+02  0.18636419741E+01 -0.21064254650E+02  0.24884414640E+02  0.51100000000E-03 0.  1.
        -12    1    3    3    0    0 -0.27874281117E+01  0.18998992402E+01 -0.95646164826E+01  0.10142054085E+02  0.00000000000E+00 0.  1.
</event>
<event>
 7    1  0.1402367E-008  0.4614232E+02  0.7816164E-02  0.1320468E+00
        -11   -1    0    0    0    0  0.00000000000E+00  0.00000000000E+00  0.45593999997E+02  0.45594000000E+02  0.51100000000E-03 0.  1.
         11   -1    0    0    0    0 -0.00000000000E+00 -0.00000000000E+00 -0.45593999997E+02  0.45594000000E+02  0.51100000000E-03 0. -1.
    9900012    2    1    2    0    0 -0.49766923273E+01 -0.22079332451E+02  0.38946748276E+02  0.46142316641E+02  0.99999897866E+01 0.  0.
         12    1    1    2    0    0  0.49766923273E+01  0.22079332451E+02 -0.38946748276E+02  0.45045683359E+02  0.00000000000E+00 0. -1.
         11    1    3    3    0    0 -0.28549442525E+01 -0.59935484030E+01  0.16919330788E+02  0.18175177680E+02  0.51100000000E-03 0. -1.
        -11    1    3    3    0    0  0.55379456385E+00 -0.13113855949E+02  0.18135832872E+02  0.22387236107E+02  0.51100000000E-03 0.  1.
         12    1    3    3    0    0 -0.26755426387E+01 -0.29719280994E+01  0.38915846159E+01  0.55799028542E+01  0.00000000000E+00 0. -1.
</event>
<event>
 7    1  0.1402367E-008  0.4614232E+02  0.7816164E-02  0.1320468E+00
        -11   -1    0    0    0    0  0.00000000000E+00  0.00000000000E+00  0.45593999997E+02  0.45594000000E+02  0.51100000000E-03 0.  1.
         11   -1    0    0    0    0 -0.00000000000E+00 -0.00000000000E+00 -0.45593999997E+02  0.45594000000E+02  0.51100000000E-03 0. -1.
    9900012    2    1    2    0    0  0.10530456402E+02  0.41472507965E+02  0.14080272362E+02  0.46142317646E+02  0.99999989510E+01 0.  0.
         12    1    1    2    0    0 -0.10530456402E+02 -0.41472507965E+02 -0.14080272362E+02  0.45045682354E+02  0.00000000000E+00 0. -1.
         11    1    3    3    0    0  0.65362603763E+01  0.32032708517E+02  0.71862150705E+01  0.33473255025E+02  0.51100000000E-03 0. -1.
        -11    1    3    3    0    0  0.68477688561E+00  0.52016717464E+01  0.36055442025E+01  0.63660236881E+01  0.51100000000E-03 0.  1.
         12    1    3    3    0    0  0.33094191398E+01  0.42381277014E+01  0.32885130886E+01  0.63030389330E+01  0.00000000000E+00 0. -1.
</event>
<event>
 7    1  0.1402367E-008  0.4614232E+02  0.7816164E-02  0.1320468E+00
        -11   -1    0    0    0    0  0.00000000000E+00  0.00000000000E+00  0.45593999997E+02  0.45594000000E+02  0.51100000000E-03 0.  1.
         11   -1    0    0    0    0 -0.00000000000E+00 -0.00000000000E+00 -0.45593999997E+02  0.45594000000E+02  0.51100000000E-03 0. -1.
    9900012    2    1    2    0    0  0.21817606169E+01 -0.84804386442E+01  0.44186373079E+02  0.46142317800E+02  0.10000000352E+02 0.  0.
         12    1    1    2    0    0 -0.21817606169E+01  0.84804386442E+01 -0.44186373079E+02  0.45045682200E+02  0.00000000000E+00 0. -1.
         11    1    3    3    0    0  0.59384241416E+00  0.82153749410E+00  0.12942208809E+01  0.16439527416E+01  0.51100000000E-03 0. -1.
        -11    1    3    3    0    0  0.29683950946E+01 -0.46403182039E+01  0.33214001218E+02  0.33667696678E+02  0.51100000000E-03 0.  1.
        -12    1    3    3    0    0 -0.13804768918E+01 -0.46616579345E+01  0.96781509805E+01  0.10830668380E+02  0.00000000000E+00 0.  1.
</event>
<event>
 7    1  0.1402367E-008  0.4614232E+02  0.7816164E-02  0.1320468E+00
        -11   -1    0    0    0    0  0.00000000000E+00  0.00000000000E+00  0.45593999997E+02  0.45594000000E+02  0.51100000000E-03 0.  1.
         11   -1    0    0    0    0 -0.00000000000E+00 -0.00000000000E+00 -0.45593999997E+02  0.45594000000E+02  0.51100000000E-03 0. -1.
    9900012    2    1    2    0    0  0.40086335818E+02  0.93095698151E+01 -0.18317508420E+02  0.46142317363E+02  0.99999963725E+01 0.  0.
         12    1    1    2    0    0 -0.40086335818E+02 -0.93095698151E+01  0.18317508420E+02  0.45045682637E+02  0.00000000000E+00 0. -1.
         11    1    3    3    0    0  0.28226907697E+01  0.11658981191E+01 -0.45311562167E+01  0.54642729183E+01  0.51100000000E-03 0. -1.
        -11    1    3    3    0    0  0.36497086755E+02  0.83792165596E+01 -0.13688864739E+02  0.39870209805E+02  0.51100000000E-03 0.  1.
         12    1    3    3    0    0  0.76655829355E+00 -0.23554486352E+00 -0.97487464018E-01  0.80783464012E+00  0.00000000000E+00 0. -1.
</event>
<event>
 7    1  0.1402367E-008  0.4614232E+02  0.7816164E-02  0.1320468E+00
        -11   -1    0    0    0    0  0.00000000000E+00  0.00000000000E+00  0.45593999997E+02  0.45594000000E+02  0.51100000000E-03 0. -1.
         11   -1    0    0    0    0 -0.00000000000E+00 -0.00000000000E+00 -0.45593999997E+02  0.45594000000E+02  0.51100000000E-03 0.  1.
    9900012    2    1    2    0    0 -0.17459318775E+02 -0.33688241467E+02 -0.24277315668E+02  0.46142317839E+02  0.10000000714E+02 0.  0.
         12    1    1    2    0    0  0.17459318775E+02  0.33688241467E+02  0.24277315668E+02  0.45045682161E+02  0.00000000000E+00 0. -1.
         11    1    3    3    0    0 -0.13845983897E+01 -0.83889838752E+01 -0.85161484454E+01  0.12033991348E+02  0.51100000000E-03 0. -1.
        -11    1    3    3    0    0 -0.12886258298E+02 -0.17209843677E+02 -0.12130191436E+02  0.24685540643E+02  0.51100000000E-03 0.  1.
         12    1    3    3    0    0 -0.31884620876E+01 -0.80894139154E+01 -0.36309757867E+01  0.94227858482E+01  0.00000000000E+00 0. -1.
</event>
<event>
 7    1  0.1402367E-008  0.4614232E+02  0.7816164E-02  0.1320468E+00
        -11   -1    0    0    0    0  0.00000000000E+00  0.00000000000E+00  0.45593999997E+02  0.45594000000E+02  0.51100000000E-03 0.  1.
         11   -1    0    0    0    0 -0.00000000000E+00 -0.00000000000E+00 -0.45593999997E+02  0.45594000000E+02  0.51100000000E-03 0. -1.
    9900012    2    1    2    0    0  0.69793981834E+01 -0.28878025186E+02  0.33859431083E+02  0.46142318621E+02  0.10000007842E+02 0.  0.
         12    1    1    2    0    0 -0.69793981834E+01  0.28878025186E+02 -0.33859431083E+02  0.45045681379E+02  0.00000000000E+00 0. -1.
         11    1    3    3    0    0  0.30310053363E+01 -0.53668308439E+01  0.81996406787E+01  0.10257873765E+02  0.51100000000E-03 0. -1.
        -11    1    3    3    0    0  0.24001338383E+01 -0.22905872749E+02  0.21934467384E+02  0.31805039043E+02  0.51100000000E-03 0.  1.
        -12    1    3    3    0    0  0.15482590088E+01 -0.60532159364E+00  0.37253230198E+01  0.40794058136E+01  0.00000000000E+00 0.  1.
</event>
<event>
 7    1  0.1402367E-008  0.4614232E+02  0.7816164E-02  0.1320468E+00
        -11   -1    0    0    0    0  0.00000000000E+00  0.00000000000E+00  0.45593999997E+02  0.45594000000E+02  0.51100000000E-03 0.  1.
         11   -1    0    0    0    0 -0.00000000000E+00 -0.00000000000E+00 -0.45593999997E+02  0.45594000000E+02  0.51100000000E-03 0. -1.
    9900012    2    1    2    0    0 -0.31911610923E+02  0.14330300705E+02  0.28379659132E+02  0.46142317827E+02  0.10000000602E+02 0.  0.
         12    1    1    2    0    0  0.31911610923E+02 -0.14330300705E+02 -0.28379659132E+02  0.45045682173E+02  0.00000000000E+00 0. -1.
         11    1    3    3    0    0 -0.17667022903E+02  0.56109164234E+01  0.10594214500E+02  0.21350490919E+02  0.51100000000E-03 0. -1.
        -11    1    3    3    0    0 -0.70361855752E+01  0.18857540410E+01  0.65614060602E+01  0.98038780847E+01  0.51100000000E-03 0.  1.
         12    1    3    3    0    0 -0.72084024447E+01  0.68336302402E+01  0.11224038572E+02  0.14987948823E+02  0.00000000000E+00 0. -1.
</event>
<event>
 7    1  0.1402367E-008  0.4614232E+02  0.7816164E-02  0.1320468E+00
        -11   -1    0    0    0    0  0.00000000000E+00  0.00000000000E+00  0.45593999997E+02  0.45594000000E+02  0.51100000000E-03 0.  1.
         11   -1    0    0    0    0 -0.00000000000E+00 -0.00000000000E+00 -0.45593999997E+02  0.45594000000E+02  0.51100000000E-03 0. -1.
    9900012    2    1    2    0    0 -0.39360001540E+02 -0.99632878779E+01  0.19509911682E+02  0.46142317849E+02  0.10000000804E+02 0.  0.
         12    1    1    2    0    0  0.39360001540E+02  0.99632878779E+01 -0.19509911682E+02  0.45045682151E+02  0.00000000000E+00 0. -1.
         11    1    3    3    0    0 -0.17646121004E+02 -0.79301233124E+01  0.11017603734E+02  0.22263423693E+02  0.51100000000E-03 0. -1.
        -11    1    3    3    0    0 -0.17552754049E+02 -0.52995411292E+00  0.83685777571E+01  0.19452843494E+02  0.51100000000E-03 0.  1.
         12    1    3    3    0    0 -0.41611264867E+01 -0.15032104526E+01  0.12373019162E+00  0.44260506621E+01  0.00000000000E+00 0. -1.
</event>
<event>
 7    1  0.1402367E-008  0.4614232E+02  0.7816164E-02  0.1320468E+00
        -11   -1    0    0    0    0  0.00000000000E+00  0.00000000000E+00  0.45593999997E+02  0.45594000000E+02  0.51100000000E-03 0. -1.
         11   -1    0    0    0    0 -0.00000000000E+00 -0.00000000000E+00 -0.45593999997E+02  0.45594000000E+02  0.51100000000E-03 0.  1.
    9900012    2    1    2    0    0  0.18808082212E+02 -0.28313939534E+02 -0.29558253244E+02  0.46142318040E+02  0.10000002540E+02 0.  0.
         12    1    1    2    0    0 -0.18808082212E+02  0.28313939534E+02  0.29558253244E+02  0.45045681960E+02  0.00000000000E+00 0. -1.
         11    1    3    3    0    0 -0.87921959372E-01 -0.24825628876E+01 -0.62044720108E+00  0.25604303842E+01  0.51100000000E-03 0. -1.
        -11    1    3    3    0    0  0.13339373803E+01 -0.52566627147E+01 -0.62625191932E+01  0.82843852359E+01  0.51100000000E-03 0.  1.
         12    1    3    3    0    0  0.17562066791E+02 -0.20574713932E+02 -0.22675286850E+02  0.35297502420E+02  0.00000000000E+00 0. -1.
</event>
<event>
 7    1  0.1402367E-008  0.4614232E+02  0.7816164E-02  0.1320468E+00
        -11   -1    0    0    0    0  0.00000000000E+00  0.00000000000E+00  0.45593999997E+02  0.45594000000E+02  0.51100000000E-03 0.  1.
         11   -1    0    0    0    0 -0.00000000000E+00 -0.00000000000E+00 -0.45593999997E+02  0.45594000000E+02  0.51100000000E-03 0. -1.
    9900012    2    1    2    0    0 -0.38586177742E+01  0.40641860813E+02  0.19038478608E+02  0.46142318196E+02  0.10000003964E+02 0.  0.
         12    1    1    2    0    0  0.38586177742E+01 -0.40641860813E+02 -0.19038478608E+02  0.45045681804E+02  0.00000000000E+00 0. -1.
         11    1    3    3    0    0  0.11331258245E+01  0.31680214267E+01  0.52642032610E+00  0.34055032690E+01  0.51100000000E-03 0. -1.
        -11    1    3    3    0    0 -0.61236470190E+00  0.54425497882E+00  0.17764346295E+01  0.19562526075E+01  0.51100000000E-03 0.  1.
        -12    1    3    3    0    0 -0.43793788969E+01  0.36929584408E+02  0.16735623652E+02  0.40780562319E+02  0.00000000000E+00 0.  1.
</event>
<event>
 7    1  0.1402367E-008  0.4614232E+02  0.7816164E-02  0.1320468E+00
        -11   -1    0    0    0    0  0.00000000000E+00  0.00000000000E+00  0.45593999997E+02  0.45594000000E+02  0.51100000000E-03 0.  1.
         11   -1    0    0    0    0 -0.00000000000E+00 -0.00000000000E+00 -0.45593999997E+02  0.45594000000E+02  0.51100000000E-03 0. -1.
    9900012    2    1    2    0    0 -0.18192651372E+02  0.46857854503E+01  0.40941230508E+02  0.46142317579E+02  0.99999983406E+01 0.  0.
         12    1    1    2    0    0  0.18192651372E+02 -0.46857854503E+01 -0.40941230508E+02  0.45045682421E+02  0.00000000000E+00 0. -1.
         11    1    3    3    0    0 -0.75527524459E+01  0.42528663840E+01  0.15473272108E+02  0.17735644673E+02  0.51100000000E-03 0.  1.
        -11    1    3    3    0    0 -0.18584845533E+01  0.29149309722E+01  0.69288245938E+01  0.77433453959E+01  0.51100000000E-03 0. -1.
        -12    1    3    3    0    0 -0.87814143725E+01 -0.24820119059E+01  0.18539133806E+02  0.20663327510E+02  0.00000000000E+00 0.  1.
</event>
<event>
 7    1  0.1402367E-008  0.4614232E+02  0.7816164E-02  0.1320468E+00
        -11   -1    0    0    0    0  0.00000000000E+00  0.00000000000E+00  0.45593999997E+02  0.45594000000E+02  0.51100000000E-03 0.  1.
         11   -1    0    0    0    0 -0.00000000000E+00 -0.00000000000E+00 -0.45593999997E+02  0.45594000000E+02  0.51100000000E-03 0. -1.
    9900012    2    1    2    0    0  0.41673851804E+02 -0.10597122887E+02  0.13420298011E+02  0.46142319448E+02  0.10000015380E+02 0.  0.
         12    1    1    2    0    0 -0.41673851804E+02  0.10597122887E+02 -0.13420298011E+02  0.45045680552E+02  0.00000000000E+00 0. -1.
         11    1    3    3    0    0  0.22293468936E+02 -0.58521459278E+01  0.53356399247E+01  0.23658305578E+02  0.51100000000E-03 0. -1.
        -11    1    3    3    0    0  0.19852639227E+02 -0.47477654681E+01  0.75336677638E+01  0.21758325107E+02  0.51100000000E-03 0.  1.
         12    1    3    3    0    0 -0.47225635893E+00  0.27885088285E-02  0.55099032268E+00  0.72568876250E+00  0.00000000000E+00 0. -1.
</event>
<event>
 7    1  0.1402367E-008  0.4614232E+02  0.7816164E-02  0.1320468E+00
        -11   -1    0    0    0    0  0.00000000000E+00  0.00000000000E+00  0.45593999997E+02  0.45594000000E+02  0.51100000000E-03 0.  1.
         11   -1    0    0    0    0 -0.00000000000E+00 -0.00000000000E+00 -0.45593999997E+02  0.45594000000E+02  0.51100000000E-03 0. -1.
    9900012    2    1    2    0    0  0.40268304087E+02 -0.66618230190E+01  0.19057738896E+02  0.46142316391E+02  0.99999875033E+01 0.  0.
         12    1    1    2    0    0 -0.40268304087E+02  0.66618230190E+01 -0.19057738896E+02  0.45045683609E+02  0.00000000000E+00 0. -1.
         11    1    3    3    0    0  0.18867737291E+01  0.55023005200E+00  0.11805047033E+01  0.22926534475E+01  0.51100000000E-03 0. -1.
        -11    1    3    3    0    0  0.70248919524E+01 -0.34977483281E+01  0.68103161546E+01  0.10390560942E+02  0.51100000000E-03 0.  1.
        -12    1    3    3    0    0  0.31356638406E+02 -0.37143047429E+01  0.11066918038E+02  0.33459102001E+02  0.00000000000E+00 0.  1.
</event>
<event>
 7    1  0.1402367E-008  0.4614232E+02  0.7816164E-02  0.1320468E+00
        -11   -1    0    0    0    0  0.00000000000E+00  0.00000000000E+00  0.45593999997E+02  0.45594000000E+02  0.51100000000E-03 0.  1.
         11   -1    0    0    0    0 -0.00000000000E+00 -0.00000000000E+00 -0.45593999997E+02  0.45594000000E+02  0.51100000000E-03 0. -1.
    9900012    2    1    2    0    0  0.22016728694E+02  0.32982723743E+02  0.21366261022E+02  0.46142317433E+02  0.99999970054E+01 0.  0.
         12    1    1    2    0    0 -0.22016728694E+02 -0.32982723743E+02 -0.21366261022E+02  0.45045682567E+02  0.00000000000E+00 0. -1.
         11    1    3    3    0    0  0.10207758106E+02  0.86003538918E+01  0.77331673524E+01  0.15426156040E+02  0.51100000000E-03 0. -1.
        -11    1    3    3    0    0  0.10739904471E+02  0.17430038864E+02  0.96623221693E+01  0.22638733905E+02  0.51100000000E-03 0.  1.
        -12    1    3    3    0    0  0.10690661178E+01  0.69523309870E+01  0.39707715002E+01  0.80774274880E+01  0.00000000000E+00 0.  1.
</event>
<event>
 7    1  0.1402367E-008  0.4614232E+02  0.7816164E-02  0.1320468E+00
        -11   -1    0    0    0    0  0.00000000000E+00  0.00000000000E+00  0.45593999997E+02  0.45594000000E+02  0.51100000000E-03 0.  1.
         11   -1    0    0    0    0 -0.00000000000E+00 -0.00000000000E+00 -0.45593999997E+02  0.45594000000E+02  0.51100000000E-03 0. -1.
    9900012    2    1    2    0    0  0.14591767845E+01 -0.70247884931E+01  0.44470626624E+02  0.46142317825E+02  0.10000000585E+02 0.  0.
         12    1    1    2    0    0 -0.14591767845E+01  0.70247884931E+01 -0.44470626624E+02  0.45045682175E+02  0.00000000000E+00 0. -1.
         11    1    3    3    0    0 -0.19066354426E+01 -0.57358136149E+01  0.17956919005E+02  0.18946919458E+02  0.51100000000E-03 0.  1.
        -11    1    3    3    0    0  0.86044170705E+00  0.16776495025E+01  0.52090550193E+01  0.55397763709E+01  0.51100000000E-03 0. -1.
         12    1    3    3    0    0  0.25053705200E+01 -0.29666243807E+01  0.21304652600E+02  0.21655621997E+02  0.00000000000E+00 0. -1.
</event>
<event>
 7    1  0.1402367E-008  0.4614232E+02  0.7816164E-02  0.1320468E+00
        -11   -1    0    0    0    0  0.00000000000E+00  0.00000000000E+00  0.45593999997E+02  0.45594000000E+02  0.51100000000E-03 0. -1.
         11   -1    0    0    0    0 -0.00000000000E+00 -0.00000000000E+00 -0.45593999997E+02  0.45594000000E+02  0.51100000000E-03 0.  1.
    9900012    2    1    2    0    0  0.41623543083E+02 -0.16328696676E+01 -0.17144324524E+02  0.46142318015E+02  0.10000002313E+02 0.  0.
         12    1    1    2    0    0 -0.41623543083E+02  0.16328696676E+01  0.17144324524E+02  0.45045681985E+02  0.00000000000E+00 0. -1.
         11    1    3    3    0    0  0.74285243855E+01  0.45758522897E+00 -0.73230625640E+01  0.10441245346E+02  0.51100000000E-03 0. -1.
        -11    1    3    3    0    0  0.14877696809E+02 -0.17788673708E+01 -0.48965104936E+01  0.15763440194E+02  0.51100000000E-03 0.  1.
         12    1    3    3    0    0  0.19317321888E+02 -0.31158752574E+00 -0.49247514665E+01  0.19937632475E+02  0.00000000000E+00 0. -1.
</event>
<event>
 7    1  0.1402367E-008  0.4614232E+02  0.7816164E-02  0.1320468E+00
        -11   -1    0    0    0    0  0.00000000000E+00  0.00000000000E+00  0.45593999997E+02  0.45594000000E+02  0.51100000000E-03 0.  1.
         11   -1    0    0    0    0 -0.00000000000E+00 -0.00000000000E+00 -0.45593999997E+02  0.45594000000E+02  0.51100000000E-03 0. -1.
    9900012    2    1    2    0    0  0.38140466970E+02 -0.87899829607E+01  0.22296961684E+02  0.46142317394E+02  0.99999966501E+01 0.  0.
         12    1    1    2    0    0 -0.38140466970E+02  0.87899829607E+01 -0.22296961684E+02  0.45045682606E+02  0.00000000000E+00 0. -1.
         11    1    3    3    0    0  0.41450502312E+00  0.24453386123E+00 -0.97916865800E-01  0.49112034901E+00  0.51100000000E-03 0. -1.
        -11    1    3    3    0    0  0.40138254521E+01  0.20572890416E+00  0.55398787176E+01  0.68442220602E+01  0.51100000000E-03 0.  1.
        -12    1    3    3    0    0  0.33712136495E+02 -0.92402457261E+01  0.16854999832E+02  0.38806974985E+02  0.00000000000E+00 0.  1.
</event>
<event>
 7    1  0.1402367E-008  0.4614232E+02  0.7816164E-02  0.1320468E+00
        -11   -1    0    0    0    0  0.00000000000E+00  0.00000000000E+00  0.45593999997E+02  0.45594000000E+02  0.51100000000E-03 0. -1.
         11   -1    0    0    0    0 -0.00000000000E+00 -0.00000000000E+00 -0.45593999997E+02  0.45594000000E+02  0.51100000000E-03 0.  1.
    9900012    2    1    2    0    0  0.37602666978E+02  0.61518972179E+01 -0.24027215674E+02  0.46142317674E+02  0.99999992022E+01 0.  0.
         12    1    1    2    0    0 -0.37602666978E+02 -0.61518972179E+01  0.24027215674E+02  0.45045682326E+02  0.00000000000E+00 0. -1.
         11    1    3    3    0    0  0.21969839622E+02  0.24740139299E+01 -0.10021430140E+02  0.24273929642E+02  0.51100000000E-03 0. -1.
        -11    1    3    3    0    0  0.10753122026E+02  0.36703975874E+00 -0.10355031527E+02  0.14932884171E+02  0.51100000000E-03 0.  1.
         12    1    3    3    0    0  0.48797053291E+01  0.33108435293E+01 -0.36507540071E+01  0.69355038601E+01  0.00000000000E+00 0. -1.
</event>
<event>
 7    1  0.1402367E-008  0.4614232E+02  0.7816164E-02  0.1320468E+00
        -11   -1    0    0    0    0  0.00000000000E+00  0.00000000000E+00  0.45593999997E+02  0.45594000000E+02  0.51100000000E-03 0.  1.
         11   -1    0    0    0    0 -0.00000000000E+00 -0.00000000000E+00 -0.45593999997E+02  0.45594000000E+02  0.51100000000E-03 0. -1.
    9900012    2    1    2    0    0 -0.15358315560E+02  0.20134725536E+02  0.37253571075E+02  0.46142316665E+02  0.99999900090E+01 0.  0.
         12    1    1    2    0    0  0.15358315560E+02 -0.20134725536E+02 -0.37253571075E+02  0.45045683335E+02  0.00000000000E+00 0. -1.
         11    1    3    3    0    0 -0.71528880522E+01  0.39935146740E+01  0.13103844129E+02  0.15453889418E+02  0.51100000000E-03 0. -1.
        -11    1    3    3    0    0 -0.72533707412E+00  0.96073028448E+00  0.49528638394E+01  0.50970557210E+01  0.51100000000E-03 0.  1.
        -12    1    3    3    0    0 -0.74800904336E+01  0.15180480577E+02  0.19196863107E+02  0.25591371526E+02  0.00000000000E+00 0.  1.
</event>
<event>
 7    1  0.1402367E-008  0.4614232E+02  0.7816164E-02  0.1320468E+00
        -11   -1    0    0    0    0  0.00000000000E+00  0.00000000000E+00  0.45593999997E+02  0.45594000000E+02  0.51100000000E-03 0.  1.
         11   -1    0    0    0    0 -0.00000000000E+00 -0.00000000000E+00 -0.45593999997E+02  0.45594000000E+02  0.51100000000E-03 0. -1.
    9900012    2    1    2    0    0  0.15279931898E+02  0.42165793735E+02  0.42051373654E+01  0.46142315852E+02  0.99999825876E+01 0.  0.
         12    1    1    2    0    0 -0.15279931898E+02 -0.42165793735E+02 -0.42051373654E+01  0.45045684148E+02  0.00000000000E+00 0. -1.
         11    1    3    3    0    0  0.56025785079E+01  0.13587209442E+02 -0.62639463997E+00  0.14710320080E+02  0.51100000000E-03 0. -1.
        -11    1    3    3    0    0  0.99805862403E+01  0.21014523733E+02  0.52539625387E+01  0.23850082432E+02  0.51100000000E-03 0.  1.
        -12    1    3    3    0    0 -0.30323284987E+00  0.75640605604E+01 -0.42243053336E+00  0.75819133389E+01  0.00000000000E+00 0.  1.
</event>
<event>
 7    1  0.1402367E-008  0.4614232E+02  0.7816164E-02  0.1320468E+00
        -11   -1    0    0    0    0  0.00000000000E+00  0.00000000000E+00  0.45593999997E+02  0.45594000000E+02  0.51100000000E-03 0.  1.
         11   -1    0    0    0    0 -0.00000000000E+00 -0.00000000000E+00 -0.45593999997E+02  0.45594000000E+02  0.51100000000E-03 0. -1.
    9900012    2    1    2    0    0 -0.34394316585E+02  0.21202824597E+02  0.19914436343E+02  0.46142316976E+02  0.99999928420E+01 0.  0.
         12    1    1    2    0    0  0.34394316585E+02 -0.21202824597E+02 -0.19914436343E+02  0.45045683024E+02  0.00000000000E+00 0. -1.
         11    1    3    3    0    0 -0.20634928892E+00 -0.33414004775E+00  0.59467854324E+00  0.71265169014E+00  0.51100000000E-03 0. -1.
        -11    1    3    3    0    0 -0.23207096232E+02  0.11120881561E+02  0.97298463271E+01  0.27512056121E+02  0.51100000000E-03 0.  1.
        -12    1    3    3    0    0 -0.10980871064E+02  0.10416083083E+02  0.95899114730E+01  0.17917609165E+02  0.00000000000E+00 0.  1.
</event>
<event>
 7    1  0.1402367E-008  0.4614232E+02  0.7816164E-02  0.1320468E+00
        -11   -1    0    0    0    0  0.00000000000E+00  0.00000000000E+00  0.45593999997E+02  0.45594000000E+02  0.51100000000E-03 0.  1.
         11   -1    0    0    0    0 -0.00000000000E+00 -0.00000000000E+00 -0.45593999997E+02  0.45594000000E+02  0.51100000000E-03 0. -1.
    9900012    2    1    2    0    0 -0.50825910581E+01  0.16617401221E+02  0.41558906220E+02  0.46142318282E+02  0.10000004750E+02 0.  0.
         12    1    1    2    0    0  0.50825910581E+01 -0.16617401221E+02 -0.41558906220E+02  0.45045681718E+02  0.00000000000E+00 0. -1.
         11    1    3    3    0    0  0.75677435271E+00  0.48627294076E+00  0.84384044305E+01  0.84862146088E+01  0.51100000000E-03 0.  1.
        -11    1    3    3    0    0 -0.17251696133E+01  0.10966101417E+02  0.17868974209E+02  0.21036440527E+02  0.51100000000E-03 0. -1.
        -12    1    3    3    0    0 -0.41141957975E+01  0.51650268631E+01  0.15251527581E+02  0.16619663147E+02  0.00000000000E+00 0.  1.
</event>
<event>
 7    1  0.1402367E-008  0.4614232E+02  0.7816164E-02  0.1320468E+00
        -11   -1    0    0    0    0  0.00000000000E+00  0.00000000000E+00  0.45593999997E+02  0.45594000000E+02  0.51100000000E-03 0.  1.
         11   -1    0    0    0    0 -0.00000000000E+00 -0.00000000000E+00 -0.45593999997E+02  0.45594000000E+02  0.51100000000E-03 0. -1.
    9900012    2    1    2    0    0 -0.14371200479E+01 -0.44762192495E+02 -0.48367584106E+01  0.46142318487E+02  0.10000006622E+02 0.  0.
         12    1    1    2    0    0  0.14371200479E+01  0.44762192495E+02  0.48367584106E+01  0.45045681513E+02  0.00000000000E+00 0. -1.
         11    1    3    3    0    0 -0.39532831328E+01 -0.10981556034E+02 -0.68762353489E-01  0.11671664362E+02  0.51100000000E-03 0.  1.
        -11    1    3    3    0    0 -0.64079304005E+00 -0.19583600397E+02 -0.25810906578E+01  0.19763351170E+02  0.51100000000E-03 0. -1.
         12    1    3    3    0    0  0.31569561250E+01 -0.14197036065E+02 -0.21869053993E+01  0.14707302956E+02  0.00000000000E+00 0. -1.
</event>
<event>
 7    1  0.1402367E-008  0.4614232E+02  0.7816164E-02  0.1320468E+00
        -11   -1    0    0    0    0  0.00000000000E+00  0.00000000000E+00  0.45593999997E+02  0.45594000000E+02  0.51100000000E-03 0.  1.
         11   -1    0    0    0    0 -0.00000000000E+00 -0.00000000000E+00 -0.45593999997E+02  0.45594000000E+02  0.51100000000E-03 0. -1.
    9900012    2    1    2    0    0 -0.37141757481E+02  0.81961729277E+01  0.24133504136E+02  0.46142318505E+02  0.10000006785E+02 0.  0.
         12    1    1    2    0    0  0.37141757481E+02 -0.81961729277E+01 -0.24133504136E+02  0.45045681495E+02  0.00000000000E+00 0. -1.
         11    1    3    3    0    0 -0.47326562572E+01  0.27677297406E+01  0.30555021365E+01  0.62765003572E+01  0.51100000000E-03 0. -1.
        -11    1    3    3    0    0 -0.21947370120E+02  0.58641346152E+01  0.10656009428E+02  0.25092342800E+02  0.51100000000E-03 0.  1.
         12    1    3    3    0    0 -0.10461731103E+02 -0.43569142811E+00  0.10421992572E+02  0.14773475348E+02  0.00000000000E+00 0. -1.
</event>
<event>
 7    1  0.1402367E-008  0.4614232E+02  0.7816164E-02  0.1320468E+00
        -11   -1    0    0    0    0  0.00000000000E+00  0.00000000000E+00  0.45593999997E+02  0.45594000000E+02  0.51100000000E-03 0.  1.
         11   -1    0    0    0    0 -0.00000000000E+00 -0.00000000000E+00 -0.45593999997E+02  0.45594000000E+02  0.51100000000E-03 0. -1.
    9900012    2    1    2    0    0  0.28880197145E+02  0.22841370791E+02  0.25948399351E+02  0.46142318347E+02  0.10000005341E+02 0.  0.
         12    1    1    2    0    0 -0.28880197145E+02 -0.22841370791E+02 -0.25948399351E+02  0.45045681653E+02  0.00000000000E+00 0. -1.
         11    1    3    3    0    0  0.74818323575E+01  0.80700960455E+01  0.53805526696E+01  0.12249678073E+02  0.51100000000E-03 0. -1.
        -11    1    3    3    0    0  0.96566488347E+01  0.30958260611E+01  0.56677295653E+01  0.11617149582E+02  0.51100000000E-03 0.  1.
        -12    1    3    3    0    0  0.11741715952E+02  0.11675448684E+02  0.14900117116E+02  0.22275490692E+02  0.00000000000E+00 0.  1.
</event>
<event>
 7    1  0.1402367E-008  0.4614232E+02  0.7816164E-02  0.1320468E+00
        -11   -1    0    0    0    0  0.00000000000E+00  0.00000000000E+00  0.45593999997E+02  0.45594000000E+02  0.51100000000E-03 0.  1.
         11   -1    0    0    0    0 -0.00000000000E+00 -0.00000000000E+00 -0.45593999997E+02  0.45594000000E+02  0.51100000000E-03 0. -1.
    9900012    2    1    2    0    0 -0.66746615160E+01  0.19665037018E+02  0.39973099931E+02  0.46142317573E+02  0.99999982828E+01 0.  0.
         12    1    1    2    0    0  0.66746615160E+01 -0.19665037018E+02 -0.39973099931E+02  0.45045682427E+02  0.00000000000E+00 0. -1.
         11    1    3    3    0    0 -0.19956214834E+01  0.84183314432E+01  0.14668680707E+02  0.17030003034E+02  0.51100000000E-03 0. -1.
        -11    1    3    3    0    0 -0.34915041791E+01  0.39956609642E+01  0.42057596157E+01  0.67708435353E+01  0.51100000000E-03 0.  1.
        -12    1    3    3    0    0 -0.11875358535E+01  0.72510446101E+01  0.21098659608E+02  0.22341471004E+02  0.00000000000E+00 0.  1.
</event>
<event>
 7    1  0.1477963E-008  0.4614232E+02  0.7816164E-02  0.1320468E+00
        -11   -1    0    0    0    0  0.00000000000E+00  0.00000000000E+00  0.45593999997E+02  0.45594000000E+02  0.51100000000E-03 0. -1.
         11   -1    0    0    0    0 -0.00000000000E+00 -0.00000000000E+00 -0.45593999997E+02  0.45594000000E+02  0.51100000000E-03 0.  1.
    9900012    2    1    2    0    0 -0.30056046622E+02  0.18550332499E+02 -0.27957684017E+02  0.46142324625E+02  0.10000062594E+02 0.  0.
         12    1    1    2    0    0  0.30056046622E+02 -0.18550332499E+02  0.27957684017E+02  0.45045675375E+02  0.00000000000E+00 0. -1.
         11    1    3    3    0    0 -0.36581558609E+00  0.10367003845E+01 -0.22258364342E+01  0.24825222704E+01  0.51100000000E-03 0. -1.
        -11    1    3    3    0    0 -0.30144590049E+02  0.17226687626E+02 -0.25481621350E+02  0.43067018735E+02  0.51100000000E-03 0.  1.
        -12    1    3    3    0    0  0.45435901384E+00  0.28694448782E+00 -0.25022623306E+00  0.59278362010E+00  0.00000000000E+00 0.  1.
</event>
<event>
 7    1  0.1402367E-008  0.4614232E+02  0.7816164E-02  0.1320468E+00
        -11   -1    0    0    0    0  0.00000000000E+00  0.00000000000E+00  0.45593999997E+02  0.45594000000E+02  0.51100000000E-03 0.  1.
         11   -1    0    0    0    0 -0.00000000000E+00 -0.00000000000E+00 -0.45593999997E+02  0.45594000000E+02  0.51100000000E-03 0. -1.
    9900012    2    1    2    0    0  0.88437931732E+00  0.34059452264E+02  0.29466677938E+02  0.46142317366E+02  0.99999963971E+01 0.  0.
         12    1    1    2    0    0 -0.88437931732E+00 -0.34059452264E+02 -0.29466677938E+02  0.45045682634E+02  0.00000000000E+00 0. -1.
         11    1    3    3    0    0 -0.30333419182E+01  0.14900582809E+02  0.10437134812E+02  0.18443489762E+02  0.51100000000E-03 0. -1.
        -11    1    3    3    0    0  0.57457398785E+00  0.21752990751E+01  0.47633972033E+01  0.52680180819E+01  0.51100000000E-03 0.  1.
        -12    1    3    3    0    0  0.33431472476E+01  0.16983570379E+02  0.14266145922E+02  0.22430809522E+02  0.00000000000E+00 0.  1.
</event>
<event>
 7    1  0.1402367E-008  0.4614232E+02  0.7816164E-02  0.1320468E+00
        -11   -1    0    0    0    0  0.00000000000E+00  0.00000000000E+00  0.45593999997E+02  0.45594000000E+02  0.51100000000E-03 0.  1.
         11   -1    0    0    0    0 -0.00000000000E+00 -0.00000000000E+00 -0.45593999997E+02  0.45594000000E+02  0.51100000000E-03 0. -1.
    9900012    2    1    2    0    0  0.26761416094E+02  0.33073609619E+02  0.14801230687E+02  0.46142317916E+02  0.10000001409E+02 0.  0.
         12    1    1    2    0    0 -0.26761416094E+02 -0.33073609619E+02 -0.14801230687E+02  0.45045682084E+02  0.00000000000E+00 0. -1.
         11    1    3    3    0    0  0.17931046976E+02  0.28349287498E+02  0.10466237653E+02  0.35138962395E+02  0.51100000000E-03 0. -1.
        -11    1    3    3    0    0  0.57130489584E+01  0.34772611371E+01  0.22757150075E+01  0.70646410010E+01  0.51100000000E-03 0.  1.
         12    1    3    3    0    0  0.31173201598E+01  0.12470609832E+01  0.20592780269E+01  0.39387145196E+01  0.00000000000E+00 0. -1.
</event>
<event>
 7    1  0.1402367E-008  0.4614233E+02  0.7816164E-02  0.1320468E+00
        -11   -1    0    0    0    0  0.00000000000E+00  0.00000000000E+00  0.45593999997E+02  0.45594000000E+02  0.51100000000E-03 0.  1.
         11   -1    0    0    0    0 -0.00000000000E+00 -0.00000000000E+00 -0.45593999997E+02  0.45594000000E+02  0.51100000000E-03 0. -1.
    9900012    2    1    2    0    0  0.42233002054E+02  0.15507015002E+02  0.22402459368E+01  0.46142326749E+02  0.10000081961E+02 0.  0.
         12    1    1    2    0    0 -0.42233002054E+02 -0.15507015002E+02 -0.22402459368E+01  0.45045673251E+02  0.00000000000E+00 0. -1.
         11    1    3    3    0    0  0.18582466294E+02  0.43903648236E+01 -0.19788614682E+01  0.19196334281E+02  0.51100000000E-03 0. -1.
        -11    1    3    3    0    0  0.18985145628E+02  0.78305567894E+01  0.51289190376E+01  0.21167408554E+02  0.51100000000E-03 0.  1.
        -12    1    3    3    0    0  0.46653901316E+01  0.32860933892E+01 -0.90981163267E+00  0.57785839139E+01  0.00000000000E+00 0.  1.
</event>
<event>
 7    1  0.1402367E-008  0.4614232E+02  0.7816164E-02  0.1320468E+00
        -11   -1    0    0    0    0  0.00000000000E+00  0.00000000000E+00  0.45593999997E+02  0.45594000000E+02  0.51100000000E-03 0. -1.
         11   -1    0    0    0    0 -0.00000000000E+00 -0.00000000000E+00 -0.45593999997E+02  0.45594000000E+02  0.51100000000E-03 0.  1.
    9900012    2    1    2    0    0 -0.12935148510E+02 -0.12386278607E+02 -0.41332499460E+02  0.46142317895E+02  0.10000001222E+02 0.  0.
         12    1    1    2    0    0  0.12935148510E+02  0.12386278607E+02  0.41332499460E+02  0.45045682105E+02  0.00000000000E+00 0. -1.
         11    1    3    3    0    0 -0.24931729312E+01 -0.64351098794E+00 -0.14142585684E+02  0.14375073834E+02  0.51100000000E-03 0. -1.
        -11    1    3    3    0    0 -0.10163608475E+02 -0.12203859588E+02 -0.26119484756E+02  0.30568948465E+02  0.51100000000E-03 0.  1.
        -12    1    3    3    0    0 -0.27836710355E+00  0.46109196890E+00 -0.10704290201E+01  0.11982955959E+01  0.00000000000E+00 0.  1.
</event>
<event>
 7    1  0.1402367E-008  0.4614232E+02  0.7816164E-02  0.1320468E+00
        -11   -1    0    0    0    0  0.00000000000E+00  0.00000000000E+00  0.45593999997E+02  0.45594000000E+02  0.51100000000E-03 0.  1.
         11   -1    0    0    0    0 -0.00000000000E+00 -0.00000000000E+00 -0.45593999997E+02  0.45594000000E+02  0.51100000000E-03 0. -1.
    9900012    2    1    2    0    0  0.17612649007E+02 -0.41433181958E+02  0.14830788084E+01  0.46142317688E+02  0.99999993304E+01 0.  0.
         12    1    1    2    0    0 -0.17612649007E+02  0.41433181958E+02 -0.14830788084E+01  0.45045682312E+02  0.00000000000E+00 0. -1.
         11    1    3    3    0    0  0.29410118778E+01 -0.41521987154E+01 -0.17598432777E+01  0.53839904960E+01  0.51100000000E-03 0. -1.
        -11    1    3    3    0    0  0.61460172680E+01 -0.20974011643E+02 -0.98329659497E+00  0.21878061274E+02  0.51100000000E-03 0.  1.
        -12    1    3    3    0    0  0.85256198611E+01 -0.16306971600E+02  0.42262186811E+01  0.18880265917E+02  0.00000000000E+00 0.  1.
</event>
<event>
 7    1  0.1402367E-008  0.4614232E+02  0.7816164E-02  0.1320468E+00
        -11   -1    0    0    0    0  0.00000000000E+00  0.00000000000E+00  0.45593999997E+02  0.45594000000E+02  0.51100000000E-03 0. -1.
         11   -1    0    0    0    0 -0.00000000000E+00 -0.00000000000E+00 -0.45593999997E+02  0.45594000000E+02  0.51100000000E-03 0.  1.
    9900012    2    1    2    0    0 -0.22321717554E+02 -0.39058370139E+02 -0.23017667122E+01  0.46142317827E+02  0.10000000598E+02 0.  0.
         12    1    1    2    0    0  0.22321717554E+02  0.39058370139E+02  0.23017667122E+01  0.45045682173E+02  0.00000000000E+00 0. -1.
         11    1    3    3    0    0 -0.16682182670E+02 -0.25130444235E+02  0.12596552846E+01  0.30189752861E+02  0.51100000000E-03 0. -1.
        -11    1    3    3    0    0 -0.57186420749E+01 -0.93260754436E+01 -0.27343576547E+01  0.11276314221E+02  0.51100000000E-03 0.  1.
         12    1    3    3    0    0  0.79107191465E-01 -0.46018504599E+01 -0.82706434205E+00  0.46762507449E+01  0.00000000000E+00 0. -1.
</event>
<event>
 7    1  0.1402367E-008  0.4614232E+02  0.7816164E-02  0.1320468E+00
        -11   -1    0    0    0    0  0.00000000000E+00  0.00000000000E+00  0.45593999997E+02  0.45594000000E+02  0.51100000000E-03 0.  1.
         11   -1    0    0    0    0 -0.00000000000E+00 -0.00000000000E+00 -0.45593999997E+02  0.45594000000E+02  0.51100000000E-03 0. -1.
    9900012    2    1    2    0    0 -0.72625330753E+01 -0.35877767085E+02  0.26251762308E+02  0.46142316722E+02  0.99999905285E+01 0.  0.
         12    1    1    2    0    0  0.72625330753E+01  0.35877767085E+02 -0.26251762308E+02  0.45045683278E+02  0.00000000000E+00 0. -1.
         11    1    3    3    0    0  0.10768566104E+01 -0.75303221380E+01  0.54752181166E+01  0.93724802132E+01  0.51100000000E-03 0. -1.
        -11    1    3    3    0    0 -0.32706236981E+01 -0.16819461615E+02  0.15538250322E+02  0.23130682907E+02  0.51100000000E-03 0.  1.
         12    1    3    3    0    0 -0.50687659876E+01 -0.11527983332E+02  0.52382938695E+01  0.13639153603E+02  0.00000000000E+00 0. -1.
</event>
<event>
 7    1  0.1402367E-008  0.4614232E+02  0.7816164E-02  0.1320468E+00
        -11   -1    0    0    0    0  0.00000000000E+00  0.00000000000E+00  0.45593999997E+02  0.45594000000E+02  0.51100000000E-03 0.  1.
         11   -1    0    0    0    0 -0.00000000000E+00 -0.00000000000E+00 -0.45593999997E+02  0.45594000000E+02  0.51100000000E-03 0. -1.
    9900012    2    1    2    0    0 -0.46655940842E+01  0.44797527672E+02  0.72606517211E+00  0.46142318472E+02  0.10000006482E+02 0.  0.
         12    1    1    2    0    0  0.46655940842E+01 -0.44797527672E+02 -0.72606517211E+00  0.45045681528E+02  0.00000000000E+00 0. -1.
         11    1    3    3    0    0 -0.44328917867E+00  0.22338595168E+02 -0.25703653146E+00  0.22344471518E+02  0.51100000000E-03 0. -1.
        -11    1    3    3    0    0 -0.13152897413E+01  0.11430281842E+02  0.36764391764E+01  0.12078805212E+02  0.51100000000E-03 0.  1.
         12    1    3    3    0    0 -0.29070151642E+01  0.11028650663E+02 -0.26933374728E+01  0.11719041742E+02  0.00000000000E+00 0. -1.
</event>
<event>
 7    1  0.1402367E-008  0.4614232E+02  0.7816164E-02  0.1320468E+00
        -11   -1    0    0    0    0  0.00000000000E+00  0.00000000000E+00  0.45593999997E+02  0.45594000000E+02  0.51100000000E-03 0.  1.
         11   -1    0    0    0    0 -0.00000000000E+00 -0.00000000000E+00 -0.45593999997E+02  0.45594000000E+02  0.51100000000E-03 0. -1.
    9900012    2    1    2    0    0 -0.21190051467E+02 -0.10655108515E+02  0.38295742096E+02  0.46142317839E+02  0.10000000710E+02 0.  0.
         12    1    1    2    0    0  0.21190051467E+02  0.10655108515E+02 -0.38295742096E+02  0.45045682161E+02  0.00000000000E+00 0. -1.
         11    1    3    3    0    0 -0.20771115180E+02 -0.81360739214E+01  0.30974756788E+02  0.38171592618E+02  0.51100000000E-03 0. -1.
        -11    1    3    3    0    0 -0.82219582489E+00 -0.94203214385E+00  0.48737707768E+01  0.50316073357E+01  0.51100000000E-03 0.  1.
         12    1    3    3    0    0  0.40325953731E+00 -0.15770024494E+01  0.24472145319E+01  0.29391178855E+01  0.00000000000E+00 0. -1.
</event>
<event>
 7    1  0.1402367E-008  0.4614232E+02  0.7816164E-02  0.1320468E+00
        -11   -1    0    0    0    0  0.00000000000E+00  0.00000000000E+00  0.45593999997E+02  0.45594000000E+02  0.51100000000E-03 0.  1.
         11   -1    0    0    0    0 -0.00000000000E+00 -0.00000000000E+00 -0.45593999997E+02  0.45594000000E+02  0.51100000000E-03 0. -1.
    9900012    2    1    2    0    0  0.27303691084E+01 -0.25413712044E+02  0.37091800365E+02  0.46142319523E+02  0.10000016066E+02 0.  0.
         12    1    1    2    0    0 -0.27303691084E+01  0.25413712044E+02 -0.37091800365E+02  0.45045680477E+02  0.00000000000E+00 0. -1.
         11    1    3    3    0    0 -0.99565862359E+00 -0.44640818109E+01  0.53677799342E+01  0.70521219638E+01  0.51100000000E-03 0. -1.
        -11    1    3    3    0    0  0.42292949334E+01 -0.41067653662E+01  0.67326857023E+01  0.89488275452E+01  0.51100000000E-03 0.  1.
        -12    1    3    3    0    0 -0.50326720149E+00 -0.16842864867E+02  0.24991334729E+02  0.30141370014E+02  0.00000000000E+00 0.  1.
</event>
<event>
 7    1  0.1402367E-008  0.4614232E+02  0.7816164E-02  0.1320468E+00
        -11   -1    0    0    0    0  0.00000000000E+00  0.00000000000E+00  0.45593999997E+02  0.45594000000E+02  0.51100000000E-03 0. -1.
         11   -1    0    0    0    0 -0.00000000000E+00 -0.00000000000E+00 -0.45593999997E+02  0.45594000000E+02  0.51100000000E-03 0.  1.
    9900012    2    1    2    0    0 -0.47523596568E+01 -0.36555556603E+02 -0.25888608217E+02  0.46142315676E+02  0.99999809838E+01 0.  0.
         12    1    1    2    0    0  0.47523596568E+01  0.36555556603E+02  0.25888608217E+02  0.45045684324E+02  0.00000000000E+00 0. -1.
         11    1    3    3    0    0  0.12054339318E+01 -0.15659363077E+02 -0.97159080702E+01  0.18468015401E+02  0.51100000000E-03 0. -1.
        -11    1    3    3    0    0 -0.28974867210E+01 -0.26708374413E+01 -0.22647614760E+01  0.45451014005E+01  0.51100000000E-03 0.  1.
        -12    1    3    3    0    0 -0.30603068676E+01 -0.18225356084E+02 -0.13907938670E+02  0.23129198875E+02  0.00000000000E+00 0.  1.
</event>
<event>
 7    1  0.1402367E-008  0.4614232E+02  0.7816164E-02  0.1320468E+00
        -11   -1    0    0    0    0  0.00000000000E+00  0.00000000000E+00  0.45593999997E+02  0.45594000000E+02  0.51100000000E-03 0.  1.
         11   -1    0    0    0    0 -0.00000000000E+00 -0.00000000000E+00 -0.45593999997E+02  0.45594000000E+02  0.51100000000E-03 0. -1.
    9900012    2    1    2    0    0  0.22780273175E+02 -0.18256152147E+02  0.34305764394E+02  0.46142318655E+02  0.10000008153E+02 0.  0.
         12    1    1    2    0    0 -0.22780273175E+02  0.18256152147E+02 -0.34305764394E+02  0.45045681345E+02  0.00000000000E+00 0. -1.
         11    1    3    3    0    0  0.36201694991E+01 -0.69088352705E+01  0.11931362739E+02  0.14254650086E+02  0.51100000000E-03 0.  1.
        -11    1    3    3    0    0  0.17182423068E+02 -0.10666623558E+02  0.18151384552E+02  0.27175085686E+02  0.51100000000E-03 0. -1.
         12    1    3    3    0    0  0.19776806084E+01 -0.68069331828E+00  0.42230171028E+01  0.47125828835E+01  0.00000000000E+00 0. -1.
</event>
<event>
 7    1  0.1402367E-008  0.4614232E+02  0.7816164E-02  0.1320468E+00
        -11   -1    0    0    0    0  0.00000000000E+00  0.00000000000E+00  0.45593999997E+02  0.45594000000E+02  0.51100000000E-03 0. -1.
         11   -1    0    0    0    0 -0.00000000000E+00 -0.00000000000E+00 -0.45593999997E+02  0.45594000000E+02  0.51100000000E-03 0.  1.
    9900012    2    1    2    0    0  0.88681220224E+01  0.43382681247E+02  0.82712095501E+01  0.46142317323E+02  0.99999960056E+01 0.  0.
         12    1    1    2    0    0 -0.88681220224E+01 -0.43382681247E+02 -0.82712095501E+01  0.45045682677E+02  0.00000000000E+00 0. -1.
         11    1    3    3    0    0  0.34117893606E+01  0.14905494140E+02  0.58789988756E+01  0.16382206514E+02  0.51100000000E-03 0. -1.
        -11    1    3    3    0    0  0.51838020932E+01  0.25789396806E+02  0.24042890497E+00  0.26306322397E+02  0.51100000000E-03 0.  1.
         12    1    3    3    0    0  0.27253056866E+00  0.26877903011E+01  0.21517817695E+01  0.34537884123E+01  0.00000000000E+00 0. -1.
</event>
<event>
 7    1  0.1402367E-008  0.4614232E+02  0.7816164E-02  0.1320468E+00
        -11   -1    0    0    0    0  0.00000000000E+00  0.00000000000E+00  0.45593999997E+02  0.45594000000E+02  0.51100000000E-03 0.  1.
         11   -1    0    0    0    0 -0.00000000000E+00 -0.00000000000E+00 -0.45593999997E+02  0.45594000000E+02  0.51100000000E-03 0. -1.
    9900012    2    1    2    0    0  0.23143466564E+02  0.33682057251E+02  0.18947623878E+02  0.46142317900E+02  0.10000001264E+02 0.  0.
         12    1    1    2    0    0 -0.23143466564E+02 -0.33682057251E+02 -0.18947623878E+02  0.45045682100E+02  0.00000000000E+00 0. -1.
         11    1    3    3    0    0  0.53613269466E+01  0.85895343454E+01  0.29924439580E+00  0.10129830915E+02  0.51100000000E-03 0. -1.
        -11    1    3    3    0    0  0.17260730332E+02  0.24623760972E+02  0.17940038680E+02  0.35015816485E+02  0.51100000000E-03 0.  1.
        -12    1    3    3    0    0  0.52140928507E+00  0.46876193360E+00  0.70834080204E+00  0.99667049960E+00  0.00000000000E+00 0.  1.
</event>
<event>
 7    1  0.1402367E-008  0.4614232E+02  0.7816164E-02  0.1320468E+00
        -11   -1    0    0    0    0  0.00000000000E+00  0.00000000000E+00  0.45593999997E+02  0.45594000000E+02  0.51100000000E-03 0.  1.
         11   -1    0    0    0    0 -0.00000000000E+00 -0.00000000000E+00 -0.45593999997E+02  0.45594000000E+02  0.51100000000E-03 0. -1.
    9900012    2    1    2    0    0 -0.14719833743E+01 -0.25644249456E+02  0.37004313261E+02  0.46142318019E+02  0.10000002349E+02 0.  0.
         12    1    1    2    0    0  0.14719833743E+01  0.25644249456E+02 -0.37004313261E+02  0.45045681981E+02  0.00000000000E+00 0. -1.
         11    1    3    3    0    0  0.16566644389E+01 -0.15511625900E+02  0.27496331026E+02  0.31613340464E+02  0.51100000000E-03 0. -1.
        -11    1    3    3    0    0 -0.27279131212E+01 -0.10211399795E+02  0.90426477275E+01  0.13909840903E+02  0.51100000000E-03 0.  1.
        -12    1    3    3    0    0 -0.40073469201E+00  0.78776238935E-01  0.46533450768E+00  0.61913665150E+00  0.00000000000E+00 0.  1.
</event>
<event>
 7    1  0.1402367E-008  0.4614232E+02  0.7816164E-02  0.1320468E+00
        -11   -1    0    0    0    0  0.00000000000E+00  0.00000000000E+00  0.45593999997E+02  0.45594000000E+02  0.51100000000E-03 0. -1.
         11   -1    0    0    0    0 -0.00000000000E+00 -0.00000000000E+00 -0.45593999997E+02  0.45594000000E+02  0.51100000000E-03 0.  1.
    9900012    2    1    2    0    0  0.25078325792E+02  0.23502741182E+02 -0.29117215470E+02  0.46142317584E+02  0.99999983830E+01 0.  0.
         12    1    1    2    0    0 -0.25078325792E+02 -0.23502741182E+02  0.29117215470E+02  0.45045682416E+02  0.00000000000E+00 0. -1.
         11    1    3    3    0    0  0.12186611926E+02  0.93694184717E+01 -0.87412918396E+01  0.17683599634E+02  0.51100000000E-03 0. -1.
        -11    1    3    3    0    0  0.12346084288E+02  0.12082342066E+02 -0.15782215682E+02  0.23398442665E+02  0.51100000000E-03 0.  1.
         12    1    3    3    0    0  0.54562957766E+00  0.20509806449E+01 -0.45937079487E+01  0.50602752849E+01  0.00000000000E+00 0. -1.
</event>
<event>
 7    1  0.1402367E-008  0.4614232E+02  0.7816164E-02  0.1320468E+00
        -11   -1    0    0    0    0  0.00000000000E+00  0.00000000000E+00  0.45593999997E+02  0.45594000000E+02  0.51100000000E-03 0. -1.
         11   -1    0    0    0    0 -0.00000000000E+00 -0.00000000000E+00 -0.45593999997E+02  0.45594000000E+02  0.51100000000E-03 0.  1.
    9900012    2    1    2    0    0 -0.38543220135E+02 -0.23304828716E+02 -0.64700875899E+00  0.46142317852E+02  0.10000000826E+02 0.  0.
         12    1    1    2    0    0  0.38543220135E+02  0.23304828716E+02  0.64700875899E+00  0.45045682148E+02  0.00000000000E+00 0. -1.
         11    1    3    3    0    0 -0.12390540630E+02 -0.37900614263E+01 -0.16906700772E+01  0.13067074206E+02  0.51100000000E-03 0. -1.
        -11    1    3    3    0    0 -0.21613001916E+01 -0.24851764827E+01  0.15721812790E+01  0.36495307785E+01  0.51100000000E-03 0.  1.
        -12    1    3    3    0    0 -0.23991379313E+02 -0.17029590807E+02 -0.52851996075E+00  0.29425712867E+02  0.00000000000E+00 0.  1.
</event>
<event>
 7    1  0.1402367E-008  0.4614232E+02  0.7816164E-02  0.1320468E+00
        -11   -1    0    0    0    0  0.00000000000E+00  0.00000000000E+00  0.45593999997E+02  0.45594000000E+02  0.51100000000E-03 0. -1.
         11   -1    0    0    0    0 -0.00000000000E+00 -0.00000000000E+00 -0.45593999997E+02  0.45594000000E+02  0.51100000000E-03 0.  1.
    9900012    2    1    2    0    0  0.15156811544E+02  0.40297134460E+02 -0.13248606121E+02  0.46142317121E+02  0.99999941618E+01 0.  0.
         12    1    1    2    0    0 -0.15156811544E+02 -0.40297134460E+02  0.13248606121E+02  0.45045682879E+02  0.00000000000E+00 0. -1.
         11    1    3    3    0    0  0.39450085235E+01  0.92567749106E+01 -0.27813557998E+01  0.10439679801E+02  0.51100000000E-03 0.  1.
        -11    1    3    3    0    0  0.82060310662E+01  0.16785479162E+02 -0.18471387715E+01  0.18775068002E+02  0.51100000000E-03 0. -1.
        -12    1    3    3    0    0  0.30057719545E+01  0.14254880388E+02 -0.86201115496E+01  0.16927569319E+02  0.00000000000E+00 0.  1.
</event>
<event>
 7    1  0.1402367E-008  0.4614232E+02  0.7816164E-02  0.1320468E+00
        -11   -1    0    0    0    0  0.00000000000E+00  0.00000000000E+00  0.45593999997E+02  0.45594000000E+02  0.51100000000E-03 0.  1.
         11   -1    0    0    0    0 -0.00000000000E+00 -0.00000000000E+00 -0.45593999997E+02  0.45594000000E+02  0.51100000000E-03 0. -1.
    9900012    2    1    2    0    0 -0.20819861167E+02 -0.34178708800E+02  0.20675173668E+02  0.46142316961E+02  0.99999927017E+01 0.  0.
         12    1    1    2    0    0  0.20819861167E+02  0.34178708800E+02 -0.20675173668E+02  0.45045683039E+02  0.00000000000E+00 0. -1.
         11    1    3    3    0    0 -0.29746632958E+01 -0.80967596351E+01  0.46239565197E+01  0.97870890703E+01  0.51100000000E-03 0.  1.
        -11    1    3    3    0    0 -0.84937771887E+01 -0.18514076822E+02  0.12103128194E+02  0.23693902250E+02  0.51100000000E-03 0. -1.
         12    1    3    3    0    0 -0.93514206820E+01 -0.75678723434E+01  0.39480889549E+01  0.12661325640E+02  0.00000000000E+00 0. -1.
</event>
<event>
 7    1  0.1402367E-008  0.4614232E+02  0.7816164E-02  0.1320468E+00
        -11   -1    0    0    0    0  0.00000000000E+00  0.00000000000E+00  0.45593999997E+02  0.45594000000E+02  0.51100000000E-03 0.  1.
         11   -1    0    0    0    0 -0.00000000000E+00 -0.00000000000E+00 -0.45593999997E+02  0.45594000000E+02  0.51100000000E-03 0. -1.
    9900012    2    1    2    0    0  0.24226065688E+02  0.27257610740E+02 -0.26443029831E+02  0.46142318424E+02  0.10000006047E+02 0.  0.
         12    1    1    2    0    0 -0.24226065688E+02 -0.27257610740E+02  0.26443029831E+02  0.45045681576E+02  0.00000000000E+00 0. -1.
         11    1    3    3    0    0  0.89515878339E+01  0.14584384846E+02 -0.13258292021E+02  0.21647575237E+02  0.51100000000E-03 0. -1.
        -11    1    3    3    0    0  0.56908778628E+01  0.47931381127E+01 -0.17985999040E+01  0.76547518374E+01  0.51100000000E-03 0.  1.
        -12    1    3    3    0    0  0.95835999911E+01  0.78800877815E+01 -0.11386137906E+02  0.16839991350E+02  0.00000000000E+00 0.  1.
</event>
<event>
 7    1  0.1402367E-008  0.4614231E+02  0.7816164E-02  0.1320468E+00
        -11   -1    0    0    0    0  0.00000000000E+00  0.00000000000E+00  0.45593999997E+02  0.45594000000E+02  0.51100000000E-03 0. -1.
         11   -1    0    0    0    0 -0.00000000000E+00 -0.00000000000E+00 -0.45593999997E+02  0.45594000000E+02  0.51100000000E-03 0.  1.
    9900012    2    1    2    0    0  0.15385349300E+02  0.29136351842E+02 -0.30716083458E+02  0.46142314805E+02  0.99999730403E+01 0.  0.
         12    1    1    2    0    0 -0.15385349300E+02 -0.29136351842E+02  0.30716083458E+02  0.45045685195E+02  0.00000000000E+00 0. -1.
         11    1    3    3    0    0 -0.23954506997E+00  0.22416219793E+01 -0.40412313182E+01  0.46275049181E+01  0.51100000000E-03 0. -1.
        -11    1    3    3    0    0  0.13505066489E+02  0.24015188191E+02 -0.25986140682E+02  0.37873415380E+02  0.51100000000E-03 0.  1.
        -12    1    3    3    0    0  0.21198278810E+01  0.28795416711E+01 -0.68871145780E+00  0.36413945066E+01  0.00000000000E+00 0.  1.
</event>
<event>
 7    1  0.1402367E-008  0.4614232E+02  0.7816164E-02  0.1320468E+00
        -11   -1    0    0    0    0  0.00000000000E+00  0.00000000000E+00  0.45593999997E+02  0.45594000000E+02  0.51100000000E-03 0.  1.
         11   -1    0    0    0    0 -0.00000000000E+00 -0.00000000000E+00 -0.45593999997E+02  0.45594000000E+02  0.51100000000E-03 0. -1.
    9900012    2    1    2    0    0  0.21295528133E+02 -0.33416866188E+02  0.21422583162E+02  0.46142317259E+02  0.99999954226E+01 0.  0.
         12    1    1    2    0    0 -0.21295528133E+02  0.33416866188E+02 -0.21422583162E+02  0.45045682741E+02  0.00000000000E+00 0. -1.
         11    1    3    3    0    0  0.34981158684E+01 -0.34789371641E+01  0.94914948468E+00  0.50240126817E+01  0.51100000000E-03 0. -1.
        -11    1    3    3    0    0  0.37179855230E+01 -0.13539865951E+02  0.77380223683E+01  0.16032104564E+02  0.51100000000E-03 0.  1.
        -12    1    3    3    0    0  0.14079426742E+02 -0.16398063072E+02  0.12735411309E+02  0.25086200013E+02  0.00000000000E+00 0.  1.
</event>
<event>
 7    1  0.1402367E-008  0.4614232E+02  0.7816164E-02  0.1320468E+00
        -11   -1    0    0    0    0  0.00000000000E+00  0.00000000000E+00  0.45593999997E+02  0.45594000000E+02  0.51100000000E-03 0.  1.
         11   -1    0    0    0    0 -0.00000000000E+00 -0.00000000000E+00 -0.45593999997E+02  0.45594000000E+02  0.51100000000E-03 0. -1.
    9900012    2    1    2    0    0 -0.29273744112E+02 -0.32165883901E+02  0.11726783365E+02  0.46142316194E+02  0.99999857088E+01 0.  0.
         12    1    1    2    0    0  0.29273744112E+02  0.32165883901E+02 -0.11726783365E+02  0.45045683806E+02  0.00000000000E+00 0. -1.
         11    1    3    3    0    0 -0.82787016302E+00 -0.47544099787E+00 -0.10578411540E+01  0.14249355485E+01  0.51100000000E-03 0. -1.
        -11    1    3    3    0    0 -0.26182190050E+02 -0.27022745703E+02  0.11833874913E+02  0.39443332224E+02  0.51100000000E-03 0.  1.
        -12    1    3    3    0    0 -0.22636838988E+01 -0.46676971998E+01  0.95074960545E+00  0.52740484217E+01  0.00000000000E+00 0.  1.
</event>
<event>
 7    1  0.1402367E-008  0.4614232E+02  0.7816164E-02  0.1320468E+00
        -11   -1    0    0    0    0  0.00000000000E+00  0.00000000000E+00  0.45593999997E+02  0.45594000000E+02  0.51100000000E-03 0. -1.
         11   -1    0    0    0    0 -0.00000000000E+00 -0.00000000000E+00 -0.45593999997E+02  0.45594000000E+02  0.51100000000E-03 0.  1.
    9900012    2    1    2    0    0 -0.38797547917E+02  0.18665242395E+02  0.13246601914E+02  0.46142318072E+02  0.10000002839E+02 0.  0.
         12    1    1    2    0    0  0.38797547917E+02 -0.18665242395E+02 -0.13246601914E+02  0.45045681928E+02  0.00000000000E+00 0. -1.
         11    1    3    3    0    0 -0.84945384838E+01  0.32044481519E+01  0.17451214733E+01  0.92450592874E+01  0.51100000000E-03 0. -1.
        -11    1    3    3    0    0 -0.11871473186E+02  0.84584618885E+01  0.87184666271E+01  0.16984967286E+02  0.51100000000E-03 0.  1.
        -12    1    3    3    0    0 -0.18431536248E+02  0.70023323543E+01  0.27830138134E+01  0.19912291499E+02  0.00000000000E+00 0.  1.
</event>
<event>
 7    1  0.1402367E-008  0.4614232E+02  0.7816164E-02  0.1320468E+00
        -11   -1    0    0    0    0  0.00000000000E+00  0.00000000000E+00  0.45593999997E+02  0.45594000000E+02  0.51100000000E-03 0. -1.
         11   -1    0    0    0    0 -0.00000000000E+00 -0.00000000000E+00 -0.45593999997E+02  0.45594000000E+02  0.51100000000E-03 0.  1.
    9900012    2    1    2    0    0  0.15134438661E+02 -0.33288690539E+02 -0.26304472249E+02  0.46142318612E+02  0.10000007762E+02 0.  0.
         12    1    1    2    0    0 -0.15134438661E+02  0.33288690539E+02  0.26304472249E+02  0.45045681388E+02  0.00000000000E+00 0. -1.
         11    1    3    3    0    0  0.77464773564E+01 -0.95473740142E+01 -0.50200204314E+01  0.13280092899E+02  0.51100000000E-03 0.  1.
        -11    1    3    3    0    0  0.74096198928E+01 -0.23729422327E+02 -0.20901897503E+02  0.32478874217E+02  0.51100000000E-03 0. -1.
         12    1    3    3    0    0 -0.21658588402E-01 -0.11894198007E-01 -0.38255431459E+00  0.38335149668E+00  0.00000000000E+00 0. -1.
</event>
<event>
 7    1  0.1402367E-008  0.4614232E+02  0.7816164E-02  0.1320468E+00
        -11   -1    0    0    0    0  0.00000000000E+00  0.00000000000E+00  0.45593999997E+02  0.45594000000E+02  0.51100000000E-03 0. -1.
         11   -1    0    0    0    0 -0.00000000000E+00 -0.00000000000E+00 -0.45593999997E+02  0.45594000000E+02  0.51100000000E-03 0.  1.
    9900012    2    1    2    0    0 -0.19056154940E+02 -0.25192186491E+02 -0.32114328235E+02  0.46142318972E+02  0.10000011044E+02 0.  0.
         12    1    1    2    0    0  0.19056154940E+02  0.25192186491E+02  0.32114328235E+02  0.45045681028E+02  0.00000000000E+00 0. -1.
         11    1    3    3    0    0 -0.15439372910E+02 -0.15754939842E+02 -0.22850780684E+02  0.31760833481E+02  0.51100000000E-03 0. -1.
        -11    1    3    3    0    0 -0.37767333221E+01 -0.85162774169E+01 -0.96101573421E+01  0.13384536601E+02  0.51100000000E-03 0.  1.
        -12    1    3    3    0    0  0.15995129281E+00 -0.92096923188E+00  0.34660979092E+00  0.99694889001E+00  0.00000000000E+00 0.  1.
</event>
<event>
 7    1  0.1402367E-008  0.4614232E+02  0.7816164E-02  0.1320468E+00
        -11   -1    0    0    0    0  0.00000000000E+00  0.00000000000E+00  0.45593999997E+02  0.45594000000E+02  0.51100000000E-03 0.  1.
         11   -1    0    0    0    0 -0.00000000000E+00 -0.00000000000E+00 -0.45593999997E+02  0.45594000000E+02  0.51100000000E-03 0. -1.
    9900012    2    1    2    0    0 -0.44543883814E+02 -0.32564261290E+01  0.58610243260E+01  0.46142317604E+02  0.99999985655E+01 0.  0.
         12    1    1    2    0    0  0.44543883814E+02  0.32564261290E+01 -0.58610243260E+01  0.45045682396E+02  0.00000000000E+00 0. -1.
         11    1    3    3    0    0 -0.10096375678E+01 -0.90269874378E+00  0.11271488147E+01  0.17620152531E+01  0.51100000000E-03 0. -1.
        -11    1    3    3    0    0 -0.11478026510E+02 -0.12117999639E+01 -0.16956749143E+01  0.11665713240E+02  0.51100000000E-03 0.  1.
        -12    1    3    3    0    0 -0.32056219736E+02 -0.11419274214E+01  0.64295504256E+01  0.32714589111E+02  0.00000000000E+00 0.  1.
</event>
<event>
 7    1  0.1402367E-008  0.4614232E+02  0.7816164E-02  0.1320468E+00
        -11   -1    0    0    0    0  0.00000000000E+00  0.00000000000E+00  0.45593999997E+02  0.45594000000E+02  0.51100000000E-03 0.  1.
         11   -1    0    0    0    0 -0.00000000000E+00 -0.00000000000E+00 -0.45593999997E+02  0.45594000000E+02  0.51100000000E-03 0. -1.
    9900012    2    1    2    0    0  0.21991168812E+02  0.39311355859E+02 -0.34531138602E+00  0.46142318241E+02  0.10000004375E+02 0.  0.
         12    1    1    2    0    0 -0.21991168812E+02 -0.39311355859E+02  0.34531138602E+00  0.45045681759E+02  0.00000000000E+00 0. -1.
         11    1    3    3    0    0  0.14930866272E+02  0.22295091019E+02  0.36672809568E+01  0.27082296820E+02  0.51100000000E-03 0. -1.
        -11    1    3    3    0    0  0.68613535103E+00  0.35836871835E+01 -0.16529180153E+01  0.40057126427E+01  0.51100000000E-03 0.  1.
        -12    1    3    3    0    0  0.63741671889E+01  0.13432577657E+02 -0.23596743275E+01  0.15054308778E+02  0.00000000000E+00 0.  1.
</event>
<event>
 7    1  0.1402367E-008  0.4614232E+02  0.7816164E-02  0.1320468E+00
        -11   -1    0    0    0    0  0.00000000000E+00  0.00000000000E+00  0.45593999997E+02  0.45594000000E+02  0.51100000000E-03 0.  1.
         11   -1    0    0    0    0 -0.00000000000E+00 -0.00000000000E+00 -0.45593999997E+02  0.45594000000E+02  0.51100000000E-03 0. -1.
    9900012    2    1    2    0    0 -0.22403117819E+02 -0.18127296331E+02  0.34621019589E+02  0.46142316992E+02  0.99999929860E+01 0.  0.
         12    1    1    2    0    0  0.22403117819E+02  0.18127296331E+02 -0.34621019589E+02  0.45045683008E+02  0.00000000000E+00 0. -1.
         11    1    3    3    0    0 -0.63412036316E+01 -0.61987881968E+01  0.15489276719E+02  0.17848068023E+02  0.51100000000E-03 0. -1.
        -11    1    3    3    0    0 -0.12308900542E+02 -0.11840203908E+02  0.16051950243E+02  0.23438527428E+02  0.51100000000E-03 0.  1.
         12    1    3    3    0    0 -0.37530136454E+01 -0.88304226261E-01  0.30797926266E+01  0.48557215408E+01  0.00000000000E+00 0. -1.
</event>
<event>
 7    1  0.1402367E-008  0.4614232E+02  0.7816164E-02  0.1320468E+00
        -11   -1    0    0    0    0  0.00000000000E+00  0.00000000000E+00  0.45593999997E+02  0.45594000000E+02  0.51100000000E-03 0.  1.
         11   -1    0    0    0    0 -0.00000000000E+00 -0.00000000000E+00 -0.45593999997E+02  0.45594000000E+02  0.51100000000E-03 0. -1.
    9900012    2    1    2    0    0 -0.10406535457E+02  0.27299759524E+02  0.34286158913E+02  0.46142317151E+02  0.99999944392E+01 0.  0.
         12    1    1    2    0    0  0.10406535457E+02 -0.27299759524E+02 -0.34286158913E+02  0.45045682849E+02  0.00000000000E+00 0. -1.
         11    1    3    3    0    0  0.26147766652E+00  0.23906054014E+01  0.49973803748E+01  0.55459152200E+01  0.51100000000E-03 0. -1.
        -11    1    3    3    0    0 -0.83471296854E+00  0.86794507041E+01  0.12617097362E+02  0.15336908305E+02  0.51100000000E-03 0.  1.
        -12    1    3    3    0    0 -0.98333001551E+01  0.16229703419E+02  0.16671681176E+02  0.25259493626E+02  0.00000000000E+00 0.  1.
</event>
<event>
 7    1  0.1402367E-008  0.4614232E+02  0.7816164E-02  0.1320468E+00
        -11   -1    0    0    0    0  0.00000000000E+00  0.00000000000E+00  0.45593999997E+02  0.45594000000E+02  0.51100000000E-03 0.  1.
         11   -1    0    0    0    0 -0.00000000000E+00 -0.00000000000E+00 -0.45593999997E+02  0.45594000000E+02  0.51100000000E-03 0. -1.
    9900012    2    1    2    0    0  0.85928926562E+01 -0.31254147012E+02  0.31280247969E+02  0.46142318491E+02  0.10000006654E+02 0.  0.
         12    1    1    2    0    0 -0.85928926562E+01  0.31254147012E+02 -0.31280247969E+02  0.45045681509E+02  0.00000000000E+00 0. -1.
         11    1    3    3    0    0  0.74352245383E+01 -0.19773257812E+02  0.14262956546E+02  0.25489139219E+02  0.51100000000E-03 0. -1.
        -11    1    3    3    0    0  0.93209571230E+00 -0.39929698665E+01  0.74284292707E+01  0.84849379763E+01  0.51100000000E-03 0.  1.
         12    1    3    3    0    0  0.22557240559E+00 -0.74879193331E+01  0.95888621518E+01  0.12168241295E+02  0.00000000000E+00 0. -1.
</event>
<event>
 7    1  0.1402367E-008  0.4614232E+02  0.7816164E-02  0.1320468E+00
        -11   -1    0    0    0    0  0.00000000000E+00  0.00000000000E+00  0.45593999997E+02  0.45594000000E+02  0.51100000000E-03 0.  1.
         11   -1    0    0    0    0 -0.00000000000E+00 -0.00000000000E+00 -0.45593999997E+02  0.45594000000E+02  0.51100000000E-03 0. -1.
    9900012    2    1    2    0    0 -0.38641139036E+01 -0.38259830664E+01  0.44716260820E+02  0.46142317583E+02  0.99999983741E+01 0.  0.
         12    1    1    2    0    0  0.38641139036E+01  0.38259830664E+01 -0.44716260820E+02  0.45045682417E+02  0.00000000000E+00 0. -1.
         11    1    3    3    0    0  0.14002660878E+01  0.19897414933E+01  0.54940864858E+01  0.60087272280E+01  0.51100000000E-03 0. -1.
        -11    1    3    3    0    0 -0.14891797504E+01  0.90487147319E-01  0.72889766155E+01  0.74400957397E+01  0.51100000000E-03 0.  1.
         12    1    3    3    0    0 -0.37752002410E+01 -0.59062117070E+01  0.31933197719E+02  0.32693494615E+02  0.00000000000E+00 0. -1.
</event>
<event>
 7    1  0.1402367E-008  0.4614232E+02  0.7816164E-02  0.1320468E+00
        -11   -1    0    0    0    0  0.00000000000E+00  0.00000000000E+00  0.45593999997E+02  0.45594000000E+02  0.51100000000E-03 0.  1.
         11   -1    0    0    0    0 -0.00000000000E+00 -0.00000000000E+00 -0.45593999997E+02  0.45594000000E+02  0.51100000000E-03 0. -1.
    9900012    2    1    2    0    0  0.67108755970E+01  0.77577796752E+01  0.43862219386E+02  0.46142320004E+02  0.10000020456E+02 0.  0.
         12    1    1    2    0    0 -0.67108755970E+01 -0.77577796752E+01 -0.43862219386E+02  0.45045679996E+02  0.00000000000E+00 0. -1.
         11    1    3    3    0    0 -0.71474114619E+00  0.85812636972E-01  0.50816514331E+01  0.51323873844E+01  0.51100000000E-03 0.  1.
        -11    1    3    3    0    0  0.62312074841E+01  0.78300030283E+00  0.20384472213E+02  0.21329972898E+02  0.51100000000E-03 0. -1.
        -12    1    3    3    0    0  0.11944092592E+01  0.68889667354E+01  0.18396095740E+02  0.19679959722E+02  0.00000000000E+00 0.  1.
</event>
<event>
 7    1  0.1402367E-008  0.4614232E+02  0.7816164E-02  0.1320468E+00
        -11   -1    0    0    0    0  0.00000000000E+00  0.00000000000E+00  0.45593999997E+02  0.45594000000E+02  0.51100000000E-03 0.  1.
         11   -1    0    0    0    0 -0.00000000000E+00 -0.00000000000E+00 -0.45593999997E+02  0.45594000000E+02  0.51100000000E-03 0. -1.
    9900012    2    1    2    0    0  0.20923322459E+01  0.15659229965E+02  0.42184406294E+02  0.46142317946E+02  0.10000001686E+02 0.  0.
         12    1    1    2    0    0 -0.20923322459E+01 -0.15659229965E+02 -0.42184406294E+02  0.45045682054E+02  0.00000000000E+00 0. -1.
         11    1    3    3    0    0  0.21470913008E+01  0.32817706533E+01  0.32205241338E+01  0.50746227084E+01  0.51100000000E-03 0. -1.
        -11    1    3    3    0    0 -0.11929618627E+01  0.73500579879E+01  0.27646525692E+02  0.28631746254E+02  0.51100000000E-03 0.  1.
        -12    1    3    3    0    0  0.11382028077E+01  0.50274013234E+01  0.11317356468E+02  0.12435948984E+02  0.00000000000E+00 0.  1.
</event>
<event>
 7    1  0.1402367E-008  0.4614232E+02  0.7816164E-02  0.1320468E+00
        -11   -1    0    0    0    0  0.00000000000E+00  0.00000000000E+00  0.45593999997E+02  0.45594000000E+02  0.51100000000E-03 0.  1.
         11   -1    0    0    0    0 -0.00000000000E+00 -0.00000000000E+00 -0.45593999997E+02  0.45594000000E+02  0.51100000000E-03 0. -1.
    9900012    2    1    2    0    0 -0.50080714495E+01 -0.11600388526E+02  0.43237295948E+02  0.46142317027E+02  0.99999933050E+01 0.  0.
         12    1    1    2    0    0  0.50080714495E+01  0.11600388526E+02 -0.43237295948E+02  0.45045682973E+02  0.00000000000E+00 0. -1.
         11    1    3    3    0    0 -0.43737600937E+01 -0.23024243756E+01  0.11737743736E+02  0.12735994803E+02  0.51100000000E-03 0. -1.
        -11    1    3    3    0    0 -0.30298854766E+01 -0.55241308354E+01  0.22383708765E+02  0.23253529750E+02  0.51100000000E-03 0.  1.
         12    1    3    3    0    0  0.23955741208E+01 -0.37738333145E+01  0.91158434475E+01  0.10152792474E+02  0.00000000000E+00 0. -1.
</event>
<event>
 7    1  0.1402367E-008  0.4614232E+02  0.7816164E-02  0.1320468E+00
        -11   -1    0    0    0    0  0.00000000000E+00  0.00000000000E+00  0.45593999997E+02  0.45594000000E+02  0.51100000000E-03 0. -1.
         11   -1    0    0    0    0 -0.00000000000E+00 -0.00000000000E+00 -0.45593999997E+02  0.45594000000E+02  0.51100000000E-03 0.  1.
    9900012    2    1    2    0    0 -0.18371371758E+02 -0.34785173587E+02 -0.21945344046E+02  0.46142315112E+02  0.99999758467E+01 0.  0.
         12    1    1    2    0    0  0.18371371758E+02  0.34785173587E+02  0.21945344046E+02  0.45045684888E+02  0.00000000000E+00 0. -1.
         11    1    3    3    0    0 -0.13247052737E+02 -0.18000555313E+02 -0.14721411452E+02  0.26762368228E+02  0.51100000000E-03 0. -1.
        -11    1    3    3    0    0 -0.39426812234E+01 -0.11019643895E+02 -0.66654291628E+01  0.13468675992E+02  0.51100000000E-03 0.  1.
         12    1    3    3    0    0 -0.11816377976E+01 -0.57649743793E+01 -0.55850343078E+00  0.59112708921E+01  0.00000000000E+00 0. -1.
</event>
<event>
 7    1  0.1402367E-008  0.4614232E+02  0.7816164E-02  0.1320468E+00
        -11   -1    0    0    0    0  0.00000000000E+00  0.00000000000E+00  0.45593999997E+02  0.45594000000E+02  0.51100000000E-03 0.  1.
         11   -1    0    0    0    0 -0.00000000000E+00 -0.00000000000E+00 -0.45593999997E+02  0.45594000000E+02  0.51100000000E-03 0. -1.
    9900012    2    1    2    0    0  0.38733157200E+02  0.21652908659E+02  0.77464501070E+01  0.46142318638E+02  0.10000007999E+02 0.  0.
         12    1    1    2    0    0 -0.38733157200E+02 -0.21652908659E+02 -0.77464501070E+01  0.45045681362E+02  0.00000000000E+00 0. -1.
         11    1    3    3    0    0  0.89531857593E+01  0.22170953213E+01 -0.33479489462E+00  0.92296876863E+01  0.51100000000E-03 0. -1.
        -11    1    3    3    0    0  0.26073877786E+02  0.18545362832E+02  0.84205353049E+01  0.33085994023E+02  0.51100000000E-03 0.  1.
        -12    1    3    3    0    0  0.37060936544E+01  0.89045050556E+00 -0.33929030323E+00  0.38266369292E+01  0.00000000000E+00 0.  1.
</event>
<event>
 7    1  0.1402367E-008  0.4614232E+02  0.7816164E-02  0.1320468E+00
        -11   -1    0    0    0    0  0.00000000000E+00  0.00000000000E+00  0.45593999997E+02  0.45594000000E+02  0.51100000000E-03 0.  1.
         11   -1    0    0    0    0 -0.00000000000E+00 -0.00000000000E+00 -0.45593999997E+02  0.45594000000E+02  0.51100000000E-03 0. -1.
    9900012    2    1    2    0    0 -0.13586879673E+02 -0.23526544844E+01  0.42883272767E+02  0.46142319124E+02  0.10000012429E+02 0.  0.
         12    1    1    2    0    0  0.13586879673E+02  0.23526544844E+01 -0.42883272767E+02  0.45045680876E+02  0.00000000000E+00 0. -1.
         11    1    3    3    0    0 -0.17243993824E+01 -0.36394111962E+01  0.79355759949E+01  0.88990018382E+01  0.51100000000E-03 0. -1.
        -11    1    3    3    0    0 -0.11759731850E+01 -0.87457160677E+00  0.86787174873E+01  0.88015865565E+01  0.51100000000E-03 0.  1.
        -12    1    3    3    0    0 -0.10686507106E+02  0.21613283185E+01  0.26268979285E+02  0.28441730729E+02  0.00000000000E+00 0.  1.
</event>
<event>
 7    1  0.1402367E-008  0.4614232E+02  0.7816164E-02  0.1320468E+00
        -11   -1    0    0    0    0  0.00000000000E+00  0.00000000000E+00  0.45593999997E+02  0.45594000000E+02  0.51100000000E-03 0.  1.
         11   -1    0    0    0    0 -0.00000000000E+00 -0.00000000000E+00 -0.45593999997E+02  0.45594000000E+02  0.51100000000E-03 0. -1.
    9900012    2    1    2    0    0 -0.19581898562E+02  0.34946598812E+02  0.20600922393E+02  0.46142317374E+02  0.99999964661E+01 0.  0.
         12    1    1    2    0    0  0.19581898562E+02 -0.34946598812E+02 -0.20600922393E+02  0.45045682626E+02  0.00000000000E+00 0. -1.
         11    1    3    3    0    0 -0.41415429029E+00  0.16302018140E+01  0.12907954937E+01  0.21201969244E+01  0.51100000000E-03 0. -1.
        -11    1    3    3    0    0 -0.18118964693E+02  0.23671961646E+02  0.15502193774E+02  0.33600247942E+02  0.51100000000E-03 0.  1.
        -12    1    3    3    0    0 -0.10487795794E+01  0.96444353520E+01  0.38079331253E+01  0.10421872507E+02  0.00000000000E+00 0.  1.
</event>
<event>
 7    1  0.1402367E-008  0.4614231E+02  0.7816164E-02  0.1320468E+00
        -11   -1    0    0    0    0  0.00000000000E+00  0.00000000000E+00  0.45593999997E+02  0.45594000000E+02  0.51100000000E-03 0.  1.
         11   -1    0    0    0    0 -0.00000000000E+00 -0.00000000000E+00 -0.45593999997E+02  0.45594000000E+02  0.51100000000E-03 0. -1.
    9900012    2    1    2    0    0 -0.26394163941E+01  0.44224327857E+02 -0.81459248816E+01  0.46142314463E+02  0.99999699283E+01 0.  0.
         12    1    1    2    0    0  0.26394163941E+01 -0.44224327857E+02  0.81459248816E+01  0.45045685537E+02  0.00000000000E+00 0. -1.
         11    1    3    3    0    0 -0.16975965179E+00  0.38407006475E+01  0.19891264295E+01  0.43285591156E+01  0.51100000000E-03 0. -1.
        -11    1    3    3    0    0 -0.13355749786E+01  0.36402144537E+02 -0.91557265639E+01  0.37559648781E+02  0.51100000000E-03 0.  1.
         12    1    3    3    0    0 -0.11340817638E+01  0.39814826726E+01 -0.97932474724E+00  0.42541065666E+01  0.00000000000E+00 0. -1.
</event>
<event>
 7    1  0.1402367E-008  0.4614232E+02  0.7816164E-02  0.1320468E+00
        -11   -1    0    0    0    0  0.00000000000E+00  0.00000000000E+00  0.45593999997E+02  0.45594000000E+02  0.51100000000E-03 0.  1.
         11   -1    0    0    0    0 -0.00000000000E+00 -0.00000000000E+00 -0.45593999997E+02  0.45594000000E+02  0.51100000000E-03 0. -1.
    9900012    2    1    2    0    0  0.96079811393E+01  0.30874766898E+02  0.31361581248E+02  0.46142319730E+02  0.10000017955E+02 0.  0.
         12    1    1    2    0    0 -0.96079811393E+01 -0.30874766898E+02 -0.31361581248E+02  0.45045680270E+02  0.00000000000E+00 0. -1.
         11    1    3    3    0    0  0.10368635747E+02  0.22596231749E+02  0.24891093174E+02  0.35180460716E+02  0.51100000000E-03 0. -1.
        -11    1    3    3    0    0  0.48095005487E+00  0.44487192314E+01  0.49123444193E+01  0.66448132938E+01  0.51100000000E-03 0.  1.
         12    1    3    3    0    0 -0.12416046628E+01  0.38298159181E+01  0.15581436543E+01  0.43170457205E+01  0.00000000000E+00 0. -1.
</event>
<event>
 7    1  0.1402367E-008  0.4614232E+02  0.7816164E-02  0.1320468E+00
        -11   -1    0    0    0    0  0.00000000000E+00  0.00000000000E+00  0.45593999997E+02  0.45594000000E+02  0.51100000000E-03 0.  1.
         11   -1    0    0    0    0 -0.00000000000E+00 -0.00000000000E+00 -0.45593999997E+02  0.45594000000E+02  0.51100000000E-03 0. -1.
    9900012    2    1    2    0    0  0.31943321176E+02 -0.24459687498E+02  0.20259847019E+02  0.46142317838E+02  0.10000000698E+02 0.  0.
         12    1    1    2    0    0 -0.31943321176E+02  0.24459687498E+02 -0.20259847019E+02  0.45045682162E+02  0.00000000000E+00 0. -1.
         11    1    3    3    0    0  0.21194456382E+02 -0.15954930771E+02  0.11065885457E+02  0.28744018829E+02  0.51100000000E-03 0. -1.
        -11    1    3    3    0    0  0.59868304370E+01 -0.79264283360E+01  0.67933987277E+01  0.12034146059E+02  0.51100000000E-03 0.  1.
         12    1    3    3    0    0  0.47620343568E+01 -0.57832839163E+00  0.24005628340E+01  0.53641529494E+01  0.00000000000E+00 0. -1.
</event>
<event>
 7    1  0.1402367E-008  0.4614232E+02  0.7816164E-02  0.1320468E+00
        -11   -1    0    0    0    0  0.00000000000E+00  0.00000000000E+00  0.45593999997E+02  0.45594000000E+02  0.51100000000E-03 0.  1.
         11   -1    0    0    0    0 -0.00000000000E+00 -0.00000000000E+00 -0.45593999997E+02  0.45594000000E+02  0.51100000000E-03 0. -1.
    9900012    2    1    2    0    0 -0.22973319425E+02 -0.25006619069E+02  0.29597452602E+02  0.46142316487E+02  0.99999883775E+01 0.  0.
         12    1    1    2    0    0  0.22973319425E+02  0.25006619069E+02 -0.29597452602E+02  0.45045683513E+02  0.00000000000E+00 0. -1.
         11    1    3    3    0    0 -0.84244086529E+01 -0.33953940536E+01  0.81435705413E+01  0.12199061577E+02  0.51100000000E-03 0. -1.
        -11    1    3    3    0    0 -0.14695027771E+02 -0.20770738561E+02  0.20613380231E+02  0.32745669429E+02  0.51100000000E-03 0.  1.
        -12    1    3    3    0    0  0.14611699896E+00 -0.84048645426E+00  0.84050183011E+00  0.11975854807E+01  0.00000000000E+00 0.  1.
</event>
<event>
 7    1  0.1402367E-008  0.4614232E+02  0.7816164E-02  0.1320468E+00
        -11   -1    0    0    0    0  0.00000000000E+00  0.00000000000E+00  0.45593999997E+02  0.45594000000E+02  0.51100000000E-03 0.  1.
         11   -1    0    0    0    0 -0.00000000000E+00 -0.00000000000E+00 -0.45593999997E+02  0.45594000000E+02  0.51100000000E-03 0. -1.
    9900012    2    1    2    0    0 -0.16434632133E+02 -0.41809247953E+02  0.33171098410E+01  0.46142316906E+02  0.99999921986E+01 0.  0.
         12    1    1    2    0    0  0.16434632133E+02  0.41809247953E+02 -0.33171098410E+01  0.45045683094E+02  0.00000000000E+00 0. -1.
         11    1    3    3    0    0 -0.53259539879E+01 -0.14318719771E+02  0.31636606124E+01  0.15601290667E+02  0.51100000000E-03 0. -1.
        -11    1    3    3    0    0 -0.10540610835E+02 -0.27909551372E+02  0.11117918517E+00  0.29833871617E+02  0.51100000000E-03 0.  1.
         12    1    3    3    0    0 -0.56806731007E+00  0.41902318977E+00  0.42270043456E-01  0.70715462164E+00  0.00000000000E+00 0. -1.
</event>
<event>
 7    1  0.1402367E-008  0.4614232E+02  0.7816164E-02  0.1320468E+00
        -11   -1    0    0    0    0  0.00000000000E+00  0.00000000000E+00  0.45593999997E+02  0.45594000000E+02  0.51100000000E-03 0.  1.
         11   -1    0    0    0    0 -0.00000000000E+00 -0.00000000000E+00 -0.45593999997E+02  0.45594000000E+02  0.51100000000E-03 0. -1.
    9900012    2    1    2    0    0 -0.71588697685E+01  0.17100865119E+01  0.44440293678E+02  0.46142317471E+02  0.99999973585E+01 0.  0.
         12    1    1    2    0    0  0.71588697685E+01 -0.17100865119E+01 -0.44440293678E+02  0.45045682529E+02  0.00000000000E+00 0. -1.
         11    1    3    3    0    0 -0.14850109004E+01 -0.38879131580E+01  0.13442893341E+02  0.14072402344E+02  0.51100000000E-03 0. -1.
        -11    1    3    3    0    0 -0.41255387737E+01  0.30020427860E+01  0.21776935721E+02  0.22366655108E+02  0.51100000000E-03 0.  1.
         12    1    3    3    0    0 -0.15483200944E+01  0.25959568840E+01  0.92204646171E+01  0.97032600199E+01  0.00000000000E+00 0. -1.
</event>
<event>
 7    1  0.1402367E-008  0.4614232E+02  0.7816164E-02  0.1320468E+00
        -11   -1    0    0    0    0  0.00000000000E+00  0.00000000000E+00  0.45593999997E+02  0.45594000000E+02  0.51100000000E-03 0.  1.
         11   -1    0    0    0    0 -0.00000000000E+00 -0.00000000000E+00 -0.45593999997E+02  0.45594000000E+02  0.51100000000E-03 0. -1.
    9900012    2    1    2    0    0  0.73432528649E+01  0.37511629081E+02  0.23834174936E+02  0.46142316812E+02  0.99999913491E+01 0.  0.
         12    1    1    2    0    0 -0.73432528649E+01 -0.37511629081E+02 -0.23834174936E+02  0.45045683188E+02  0.00000000000E+00 0. -1.
         11    1    3    3    0    0  0.33528148707E+01  0.83626508010E+01  0.54324876680E+01  0.10520799328E+02  0.51100000000E-03 0. -1.
        -11    1    3    3    0    0  0.25461070149E+01  0.20457779595E+02  0.16956910493E+02  0.26693449020E+02  0.51100000000E-03 0.  1.
        -12    1    3    3    0    0  0.14443309793E+01  0.86911986857E+01  0.14447767749E+01  0.89280684642E+01  0.00000000000E+00 0.  1.
</event>
<event>
 7    1  0.1402367E-008  0.4614232E+02  0.7816164E-02  0.1320468E+00
        -11   -1    0    0    0    0  0.00000000000E+00  0.00000000000E+00  0.45593999997E+02  0.45594000000E+02  0.51100000000E-03 0. -1.
         11   -1    0    0    0    0 -0.00000000000E+00 -0.00000000000E+00 -0.45593999997E+02  0.45594000000E+02  0.51100000000E-03 0.  1.
    9900012    2    1    2    0    0  0.52416991600E+01  0.10304451900E+02 -0.43536839000E+02  0.46142317752E+02  0.99999999198E+01 0.  0.
         12    1    1    2    0    0 -0.52416991600E+01 -0.10304451900E+02  0.43536839000E+02  0.45045682248E+02  0.00000000000E+00 0. -1.
         11    1    3    3    0    0 -0.10527182512E+01 -0.36904698765E+00 -0.98427569110E+01  0.99057697967E+01  0.51100000000E-03 0. -1.
        -11    1    3    3    0    0 -0.74424460702E+00  0.33379294946E+00 -0.24271922763E+01  0.25605820384E+01  0.51100000000E-03 0.  1.
         12    1    3    3    0    0  0.70386620181E+01  0.10339705938E+02 -0.31266889813E+02  0.33675965917E+02  0.00000000000E+00 0. -1.
</event>
<event>
 7    1  0.1402367E-008  0.4614232E+02  0.7816164E-02  0.1320468E+00
        -11   -1    0    0    0    0  0.00000000000E+00  0.00000000000E+00  0.45593999997E+02  0.45594000000E+02  0.51100000000E-03 0.  1.
         11   -1    0    0    0    0 -0.00000000000E+00 -0.00000000000E+00 -0.45593999997E+02  0.45594000000E+02  0.51100000000E-03 0. -1.
    9900012    2    1    2    0    0 -0.22290396084E+02  0.25203206583E+01  0.39062765955E+02  0.46142318100E+02  0.10000003088E+02 0.  0.
         12    1    1    2    0    0  0.22290396084E+02 -0.25203206583E+01 -0.39062765955E+02  0.45045681900E+02  0.00000000000E+00 0. -1.
         11    1    3    3    0    0 -0.35460395973E+01  0.12601100483E+01  0.18828608833E+01  0.42080208562E+01  0.51100000000E-03 0. -1.
        -11    1    3    3    0    0 -0.12782528567E+02  0.30318482936E+01  0.23987598333E+02  0.27349406112E+02  0.51100000000E-03 0.  1.
         12    1    3    3    0    0 -0.59618279192E+01 -0.17716376837E+01  0.13192306739E+02  0.14584891131E+02  0.00000000000E+00 0. -1.
</event>
<event>
 7    1  0.1402367E-008  0.4614232E+02  0.7816164E-02  0.1320468E+00
        -11   -1    0    0    0    0  0.00000000000E+00  0.00000000000E+00  0.45593999997E+02  0.45594000000E+02  0.51100000000E-03 0. -1.
         11   -1    0    0    0    0 -0.00000000000E+00 -0.00000000000E+00 -0.45593999997E+02  0.45594000000E+02  0.51100000000E-03 0.  1.
    9900012    2    1    2    0    0 -0.25008587019E+02 -0.20348829538E+01 -0.37410470595E+02  0.46142317815E+02  0.10000000491E+02 0.  0.
         12    1    1    2    0    0  0.25008587019E+02  0.20348829538E+01  0.37410470595E+02  0.45045682185E+02  0.00000000000E+00 0. -1.
         11    1    3    3    0    0 -0.10687528433E+02  0.30240014962E+01 -0.14264029626E+02  0.18078450998E+02  0.51100000000E-03 0.  1.
        -11    1    3    3    0    0 -0.18293118752E+01 -0.24346289772E+01 -0.54688566465E+01  0.62595681540E+01  0.51100000000E-03 0. -1.
         12    1    3    3    0    0 -0.12491746711E+02 -0.26242554729E+01 -0.17677584323E+02  0.21804298663E+02  0.00000000000E+00 0. -1.
</event>
<event>
 7    1  0.1402367E-008  0.4614232E+02  0.7816164E-02  0.1320468E+00
        -11   -1    0    0    0    0  0.00000000000E+00  0.00000000000E+00  0.45593999997E+02  0.45594000000E+02  0.51100000000E-03 0.  1.
         11   -1    0    0    0    0 -0.00000000000E+00 -0.00000000000E+00 -0.45593999997E+02  0.45594000000E+02  0.51100000000E-03 0. -1.
    9900012    2    1    2    0    0 -0.17210297628E+02 -0.34406990276E+02 -0.23432411511E+02  0.46142320590E+02  0.10000025796E+02 0.  0.
         12    1    1    2    0    0  0.17210297628E+02  0.34406990276E+02  0.23432411511E+02  0.45045679410E+02  0.00000000000E+00 0. -1.
         11    1    3    3    0    0 -0.18247905611E+00 -0.71627322307E+01 -0.22051169852E+01  0.74967041287E+01  0.51100000000E-03 0. -1.
        -11    1    3    3    0    0 -0.13911699626E+02 -0.23956919345E+02 -0.17389056236E+02  0.32708540903E+02  0.51100000000E-03 0.  1.
         12    1    3    3    0    0 -0.31161189455E+01 -0.32873387009E+01 -0.38382382890E+01  0.59370755579E+01  0.00000000000E+00 0. -1.
</event>
<event>
 7    1  0.1402367E-008  0.4614232E+02  0.7816164E-02  0.1320468E+00
        -11   -1    0    0    0    0  0.00000000000E+00  0.00000000000E+00  0.45593999997E+02  0.45594000000E+02  0.51100000000E-03 0.  1.
         11   -1    0    0    0    0 -0.00000000000E+00 -0.00000000000E+00 -0.45593999997E+02  0.45594000000E+02  0.51100000000E-03 0. -1.
    9900012    2    1    2    0    0 -0.25348590433E+02 -0.20486984884E+02  0.31094145388E+02  0.46142318032E+02  0.10000002467E+02 0.  0.
         12    1    1    2    0    0  0.25348590433E+02  0.20486984884E+02 -0.31094145388E+02  0.45045681968E+02  0.00000000000E+00 0. -1.
         11    1    3    3    0    0 -0.92393333860E+01 -0.53074130813E+01  0.10074701835E+02  0.14664021698E+02  0.51100000000E-03 0.  1.
        -11    1    3    3    0    0 -0.47525496198E+01 -0.95154213461E+01  0.11075377827E+02  0.15355584181E+02  0.51100000000E-03 0. -1.
         12    1    3    3    0    0 -0.11356707427E+02 -0.56641504568E+01  0.99440657264E+01  0.16122712153E+02  0.00000000000E+00 0. -1.
</event>
<event>
 7    1  0.1402367E-008  0.4614232E+02  0.7816164E-02  0.1320468E+00
        -11   -1    0    0    0    0  0.00000000000E+00  0.00000000000E+00  0.45593999997E+02  0.45594000000E+02  0.51100000000E-03 0.  1.
         11   -1    0    0    0    0 -0.00000000000E+00 -0.00000000000E+00 -0.45593999997E+02  0.45594000000E+02  0.51100000000E-03 0. -1.
    9900012    2    1    2    0    0  0.27366360026E+02  0.12568137700E+02  0.33499819818E+02  0.46142315699E+02  0.99999811943E+01 0.  0.
         12    1    1    2    0    0 -0.27366360026E+02 -0.12568137700E+02 -0.33499819818E+02  0.45045684301E+02  0.00000000000E+00 0. -1.
         11    1    3    3    0    0  0.70752339131E+01  0.74856470336E+00  0.58344393860E+01  0.92010851127E+01  0.51100000000E-03 0. -1.
        -11    1    3    3    0    0  0.68624052731E+01  0.25539073563E+01  0.13395263944E+02  0.15265914493E+02  0.51100000000E-03 0.  1.
        -12    1    3    3    0    0  0.13428720840E+02  0.92656656405E+01  0.14270116488E+02  0.21675316093E+02  0.00000000000E+00 0.  1.
</event>
<event>
 7    1  0.1402367E-008  0.4614232E+02  0.7816164E-02  0.1320468E+00
        -11   -1    0    0    0    0  0.00000000000E+00  0.00000000000E+00  0.45593999997E+02  0.45594000000E+02  0.51100000000E-03 0.  1.
         11   -1    0    0    0    0 -0.00000000000E+00 -0.00000000000E+00 -0.45593999997E+02  0.45594000000E+02  0.51100000000E-03 0. -1.
    9900012    2    1    2    0    0  0.40062552175E+02 -0.10160722457E+02  0.17912707797E+02  0.46142317984E+02  0.10000002032E+02 0.  0.
         12    1    1    2    0    0 -0.40062552175E+02  0.10160722457E+02 -0.17912707797E+02  0.45045682016E+02  0.00000000000E+00 0. -1.
         11    1    3    3    0    0  0.23497982043E+01 -0.33670691147E+01  0.21481147709E+01  0.46339080002E+01  0.51100000000E-03 0. -1.
        -11    1    3    3    0    0  0.28598505644E+02 -0.50989245789E+01  0.10798906020E+02  0.30991771947E+02  0.51100000000E-03 0.  1.
         12    1    3    3    0    0  0.91142483271E+01 -0.16947287633E+01  0.49656870062E+01  0.10516638037E+02  0.00000000000E+00 0. -1.
</event>
<event>
 7    1  0.1402367E-008  0.4614232E+02  0.7816164E-02  0.1320468E+00
        -11   -1    0    0    0    0  0.00000000000E+00  0.00000000000E+00  0.45593999997E+02  0.45594000000E+02  0.51100000000E-03 0. -1.
         11   -1    0    0    0    0 -0.00000000000E+00 -0.00000000000E+00 -0.45593999997E+02  0.45594000000E+02  0.51100000000E-03 0.  1.
    9900012    2    1    2    0    0  0.42868169008E+02  0.11091365507E+02 -0.82713443122E+01  0.46142318302E+02  0.10000004934E+02 0.  0.
         12    1    1    2    0    0 -0.42868169008E+02 -0.11091365507E+02  0.82713443122E+01  0.45045681698E+02  0.00000000000E+00 0. -1.
         11    1    3    3    0    0  0.17241286449E+02  0.32167467201E+01  0.13236893624E+01  0.17588677371E+02  0.51100000000E-03 0. -1.
        -11    1    3    3    0    0  0.16384182650E+02  0.51058925083E+01 -0.50548258584E+01  0.17890300280E+02  0.51100000000E-03 0.  1.
         12    1    3    3    0    0  0.92426999097E+01  0.27687262784E+01 -0.45402078162E+01  0.10663340651E+02  0.00000000000E+00 0. -1.
</event>
<event>
 7    1  0.1402367E-008  0.4614232E+02  0.7816164E-02  0.1320468E+00
        -11   -1    0    0    0    0  0.00000000000E+00  0.00000000000E+00  0.45593999997E+02  0.45594000000E+02  0.51100000000E-03 0. -1.
         11   -1    0    0    0    0 -0.00000000000E+00 -0.00000000000E+00 -0.45593999997E+02  0.45594000000E+02  0.51100000000E-03 0.  1.
    9900012    2    1    2    0    0  0.26435131196E+01  0.40527309172E+02  0.19484931129E+02  0.46142317727E+02  0.99999996889E+01 0.  0.
         12    1    1    2    0    0 -0.26435131196E+01 -0.40527309172E+02 -0.19484931129E+02  0.45045682273E+02  0.00000000000E+00 0. -1.
         11    1    3    3    0    0 -0.16814782785E+01  0.57835171340E+01  0.88356727450E+00  0.60874568606E+01  0.51100000000E-03 0. -1.
        -11    1    3    3    0    0  0.42352225128E+01  0.22217108397E+02  0.14532387455E+02  0.26883587942E+02  0.51100000000E-03 0.  1.
         12    1    3    3    0    0  0.89768885273E-01  0.12526683641E+02  0.40689763993E+01  0.13171272924E+02  0.00000000000E+00 0. -1.
</event>
<event>
 7    1  0.1402367E-008  0.4614232E+02  0.7816164E-02  0.1320468E+00
        -11   -1    0    0    0    0  0.00000000000E+00  0.00000000000E+00  0.45593999997E+02  0.45594000000E+02  0.51100000000E-03 0.  1.
         11   -1    0    0    0    0 -0.00000000000E+00 -0.00000000000E+00 -0.45593999997E+02  0.45594000000E+02  0.51100000000E-03 0. -1.
    9900012    2    1    2    0    0 -0.22269210895E+02 -0.28648643832E+02  0.26691775781E+02  0.46142318279E+02  0.10000004727E+02 0.  0.
         12    1    1    2    0    0  0.22269210895E+02  0.28648643832E+02 -0.26691775781E+02  0.45045681721E+02  0.00000000000E+00 0. -1.
         11    1    3    3    0    0 -0.64627018001E+01 -0.68974429068E+01  0.30299282161E+01  0.99258097134E+01  0.51100000000E-03 0. -1.
        -11    1    3    3    0    0 -0.10264970023E+02 -0.16730721005E+02  0.14573292124E+02  0.24447238669E+02  0.51100000000E-03 0.  1.
         12    1    3    3    0    0 -0.55415390721E+01 -0.50204799201E+01  0.90885554410E+01  0.11769269897E+02  0.00000000000E+00 0. -1.
</event>
<event>
 7    1  0.1402367E-008  0.4614232E+02  0.7816164E-02  0.1320468E+00
        -11   -1    0    0    0    0  0.00000000000E+00  0.00000000000E+00  0.45593999997E+02  0.45594000000E+02  0.51100000000E-03 0. -1.
         11   -1    0    0    0    0 -0.00000000000E+00 -0.00000000000E+00 -0.45593999997E+02  0.45594000000E+02  0.51100000000E-03 0.  1.
    9900012    2    1    2    0    0  0.11154639237E+02 -0.11780853287E+02 -0.42022601537E+02  0.46142317403E+02  0.99999967370E+01 0.  0.
         12    1    1    2    0    0 -0.11154639237E+02  0.11780853287E+02  0.42022601537E+02  0.45045682597E+02  0.00000000000E+00 0. -1.
         11    1    3    3    0    0  0.33188283856E+01 -0.23078304302E+01 -0.17219463801E+02  0.17687584261E+02  0.51100000000E-03 0. -1.
        -11    1    3    3    0    0  0.22397536670E+00 -0.19541164199E+01 -0.99895873148E+01  0.10181384529E+02  0.51100000000E-03 0.  1.
         12    1    3    3    0    0  0.76118354844E+01 -0.75189064371E+01 -0.14813550422E+02  0.18273348613E+02  0.00000000000E+00 0. -1.
</event>
<event>
 7    1  0.1402367E-008  0.4614233E+02  0.7816164E-02  0.1320468E+00
        -11   -1    0    0    0    0  0.00000000000E+00  0.00000000000E+00  0.45593999997E+02  0.45594000000E+02  0.51100000000E-03 0.  1.
         11   -1    0    0    0    0 -0.00000000000E+00 -0.00000000000E+00 -0.45593999997E+02  0.45594000000E+02  0.51100000000E-03 0. -1.
    9900012    2    1    2    0    0 -0.26439785730E+02  0.16492421230E+02  0.32527682627E+02  0.46142330235E+02  0.10000113744E+02 0.  0.
         12    1    1    2    0    0  0.26439785730E+02 -0.16492421230E+02 -0.32527682627E+02  0.45045669765E+02  0.00000000000E+00 0. -1.
         11    1    3    3    0    0 -0.14845094996E+02  0.68744667074E+01  0.12645564246E+02  0.20677171792E+02  0.51100000000E-03 0. -1.
        -11    1    3    3    0    0 -0.87517255934E+01  0.94235381955E+01  0.14547461503E+02  0.19417116403E+02  0.51100000000E-03 0.  1.
        -12    1    3    3    0    0 -0.28429651415E+01  0.19441632718E+00  0.53346568789E+01  0.60480420401E+01  0.00000000000E+00 0.  1.
</event>
<event>
 7    1  0.1402367E-008  0.4614232E+02  0.7816164E-02  0.1320468E+00
        -11   -1    0    0    0    0  0.00000000000E+00  0.00000000000E+00  0.45593999997E+02  0.45594000000E+02  0.51100000000E-03 0.  1.
         11   -1    0    0    0    0 -0.00000000000E+00 -0.00000000000E+00 -0.45593999997E+02  0.45594000000E+02  0.51100000000E-03 0. -1.
    9900012    2    1    2    0    0 -0.24007310066E+02  0.37041089279E+02  0.89844405029E+01  0.46142318711E+02  0.10000008664E+02 0.  0.
         12    1    1    2    0    0  0.24007310066E+02 -0.37041089279E+02 -0.89844405029E+01  0.45045681289E+02  0.00000000000E+00 0. -1.
         11    1    3    3    0    0 -0.89270200234E+01  0.83771964376E+01  0.21246342867E+01  0.12425102727E+02  0.51100000000E-03 0. -1.
        -11    1    3    3    0    0 -0.50014384534E+01  0.15921916375E+02  0.46248523952E+01  0.17317940628E+02  0.51100000000E-03 0.  1.
        -12    1    3    3    0    0 -0.10078851589E+02  0.12741976467E+02  0.22349538210E+01  0.16399275357E+02  0.00000000000E+00 0.  1.
</event>
<event>
 7    1  0.1402367E-008  0.4614232E+02  0.7816164E-02  0.1320468E+00
        -11   -1    0    0    0    0  0.00000000000E+00  0.00000000000E+00  0.45593999997E+02  0.45594000000E+02  0.51100000000E-03 0.  1.
         11   -1    0    0    0    0 -0.00000000000E+00 -0.00000000000E+00 -0.45593999997E+02  0.45594000000E+02  0.51100000000E-03 0. -1.
    9900012    2    1    2    0    0  0.22169790124E+02 -0.56791172858E+01  0.38798987248E+02  0.46142318978E+02  0.10000011097E+02 0.  0.
         12    1    1    2    0    0 -0.22169790124E+02  0.56791172858E+01 -0.38798987248E+02  0.45045681022E+02  0.00000000000E+00 0. -1.
         11    1    3    3    0    0  0.66392577242E+01  0.14943697164E+01  0.60917318508E+01  0.91335689181E+01  0.51100000000E-03 0. -1.
        -11    1    3    3    0    0  0.59205508597E+00 -0.18162162783E+00  0.40720991220E+00  0.74117191949E+00  0.51100000000E-03 0.  1.
         12    1    3    3    0    0  0.14938477314E+02 -0.69918653744E+01  0.32300045485E+02  0.36267578140E+02  0.00000000000E+00 0. -1.
</event>
<event>
 7    1  0.1402367E-008  0.4614232E+02  0.7816164E-02  0.1320468E+00
        -11   -1    0    0    0    0  0.00000000000E+00  0.00000000000E+00  0.45593999997E+02  0.45594000000E+02  0.51100000000E-03 0.  1.
         11   -1    0    0    0    0 -0.00000000000E+00 -0.00000000000E+00 -0.45593999997E+02  0.45594000000E+02  0.51100000000E-03 0. -1.
    9900012    2    1    2    0    0  0.35373205827E+02 -0.21059265876E+02  0.18285434574E+02  0.46142317774E+02  0.10000000114E+02 0.  0.
         12    1    1    2    0    0 -0.35373205827E+02  0.21059265876E+02 -0.18285434574E+02  0.45045682226E+02  0.00000000000E+00 0. -1.
         11    1    3    3    0    0  0.12667671813E+02 -0.49504892063E+01  0.85193849596E+01  0.16048587879E+02  0.51100000000E-03 0. -1.
        -11    1    3    3    0    0  0.13621228863E+02 -0.68291293678E+01  0.33153285648E+01  0.15593790027E+02  0.51100000000E-03 0.  1.
         12    1    3    3    0    0  0.90843051507E+01 -0.92796473019E+01  0.64507210493E+01  0.14499939868E+02  0.00000000000E+00 0. -1.
</event>
<event>
 7    1  0.1402367E-008  0.4614232E+02  0.7816164E-02  0.1320468E+00
        -11   -1    0    0    0    0  0.00000000000E+00  0.00000000000E+00  0.45593999997E+02  0.45594000000E+02  0.51100000000E-03 0. -1.
         11   -1    0    0    0    0 -0.00000000000E+00 -0.00000000000E+00 -0.45593999997E+02  0.45594000000E+02  0.51100000000E-03 0.  1.
    9900012    2    1    2    0    0  0.16780963189E+02  0.39416580684E+02 -0.13922856832E+02  0.46142317624E+02  0.99999987518E+01 0.  0.
         12    1    1    2    0    0 -0.16780963189E+02 -0.39416580684E+02  0.13922856832E+02  0.45045682376E+02  0.00000000000E+00 0. -1.
         11    1    3    3    0    0  0.62549482746E+01  0.78038393969E+01 -0.12981914996E+01  0.10085117187E+02  0.51100000000E-03 0. -1.
        -11    1    3    3    0    0  0.95260858708E+01  0.20398870661E+02 -0.86390187650E+01  0.24114163509E+02  0.51100000000E-03 0.  1.
         12    1    3    3    0    0  0.99992904385E+00  0.11213870625E+02 -0.39856465673E+01  0.11943036928E+02  0.00000000000E+00 0. -1.
</event>
<event>
 7    1  0.1402367E-008  0.4614232E+02  0.7816164E-02  0.1320468E+00
        -11   -1    0    0    0    0  0.00000000000E+00  0.00000000000E+00  0.45593999997E+02  0.45594000000E+02  0.51100000000E-03 0. -1.
         11   -1    0    0    0    0 -0.00000000000E+00 -0.00000000000E+00 -0.45593999997E+02  0.45594000000E+02  0.51100000000E-03 0.  1.
    9900012    2    1    2    0    0 -0.24188833963E+02 -0.12296808870E+02 -0.35955559838E+02  0.46142317852E+02  0.10000000831E+02 0.  0.
         12    1    1    2    0    0  0.24188833963E+02  0.12296808870E+02  0.35955559838E+02  0.45045682148E+02  0.00000000000E+00 0. -1.
         11    1    3    3    0    0 -0.52617702580E+01 -0.39227627740E+01 -0.61050000839E+01  0.89635551158E+01  0.51100000000E-03 0. -1.
        -11    1    3    3    0    0 -0.42971390050E+01 -0.14972596565E+01 -0.19871056673E+01  0.49654586194E+01  0.51100000000E-03 0.  1.
        -12    1    3    3    0    0 -0.14629924700E+02 -0.68767864390E+01 -0.27863454087E+02  0.32213304117E+02  0.00000000000E+00 0.  1.
</event>
<event>
 7    1  0.1677044E-008  0.4614232E+02  0.7816164E-02  0.1320468E+00
        -11   -1    0    0    0    0  0.00000000000E+00  0.00000000000E+00  0.45593999997E+02  0.45594000000E+02  0.51100000000E-03 0. -1.
         11   -1    0    0    0    0 -0.00000000000E+00 -0.00000000000E+00 -0.45593999997E+02  0.45594000000E+02  0.51100000000E-03 0.  1.
    9900012    2    1    2    0    0  0.11353204320E+02  0.37156550914E+00 -0.43589908651E+02  0.46142318238E+02  0.10000004345E+02 0.  0.
         12    1    1    2    0    0 -0.11353204320E+02 -0.37156550914E+00  0.43589908651E+02  0.45045681762E+02  0.00000000000E+00 0. -1.
         11    1    3    3    0    0 -0.50994355463E+00 -0.76044305435E+00 -0.79016971897E+01  0.79545669151E+01  0.51100000000E-03 0. -1.
        -11    1    3    3    0    0  0.57521900982E+01  0.29289567704E+01 -0.24262469000E+02  0.25106450982E+02  0.51100000000E-03 0.  1.
        -12    1    3    3    0    0  0.61109577765E+01 -0.17969482069E+01 -0.11425742461E+02  0.13081300340E+02  0.00000000000E+00 0.  1.
</event>
<event>
 7    1  0.1402367E-008  0.4614232E+02  0.7816164E-02  0.1320468E+00
        -11   -1    0    0    0    0  0.00000000000E+00  0.00000000000E+00  0.45593999997E+02  0.45594000000E+02  0.51100000000E-03 0.  1.
         11   -1    0    0    0    0 -0.00000000000E+00 -0.00000000000E+00 -0.45593999997E+02  0.45594000000E+02  0.51100000000E-03 0. -1.
    9900012    2    1    2    0    0  0.23817661542E+02 -0.37485816785E+02  0.75263573124E+01  0.46142317457E+02  0.99999972276E+01 0.  0.
         12    1    1    2    0    0 -0.23817661542E+02  0.37485816785E+02 -0.75263573124E+01  0.45045682543E+02  0.00000000000E+00 0. -1.
         11    1    3    3    0    0  0.14394124144E+01 -0.20756984281E+01 -0.70159059784E+00  0.26215761845E+01  0.51100000000E-03 0. -1.
        -11    1    3    3    0    0  0.15882070616E+02 -0.21711248981E+02  0.89292140301E+01  0.28343418334E+02  0.51100000000E-03 0.  1.
        -12    1    3    3    0    0  0.64961785118E+01 -0.13698869375E+02 -0.70126611980E+00  0.15177322939E+02  0.00000000000E+00 0.  1.
</event>
<event>
 7    1  0.1402367E-008  0.4614232E+02  0.7816164E-02  0.1320468E+00
        -11   -1    0    0    0    0  0.00000000000E+00  0.00000000000E+00  0.45593999997E+02  0.45594000000E+02  0.51100000000E-03 0. -1.
         11   -1    0    0    0    0 -0.00000000000E+00 -0.00000000000E+00 -0.45593999997E+02  0.45594000000E+02  0.51100000000E-03 0.  1.
    9900012    2    1    2    0    0 -0.34411940317E+02  0.69245020039E+01 -0.28230884095E+02  0.46142321171E+02  0.10000031096E+02 0.  0.
         12    1    1    2    0    0  0.34411940317E+02 -0.69245020039E+01  0.28230884095E+02  0.45045678829E+02  0.00000000000E+00 0. -1.
         11    1    3    3    0    0 -0.20450733585E+02  0.79810394827E+01 -0.17824123094E+02  0.28277709592E+02  0.51100000000E-03 0. -1.
        -11    1    3    3    0    0 -0.55989184405E+01 -0.14545050311E+01 -0.62550902251E+01  0.85199546110E+01  0.51100000000E-03 0.  1.
         12    1    3    3    0    0 -0.83622882907E+01  0.39796755226E+00 -0.41516707757E+01  0.93446569685E+01  0.00000000000E+00 0. -1.
</event>
<event>
 7    1  0.1402367E-008  0.4614232E+02  0.7816164E-02  0.1320468E+00
        -11   -1    0    0    0    0  0.00000000000E+00  0.00000000000E+00  0.45593999997E+02  0.45594000000E+02  0.51100000000E-03 0. -1.
         11   -1    0    0    0    0 -0.00000000000E+00 -0.00000000000E+00 -0.45593999997E+02  0.45594000000E+02  0.51100000000E-03 0.  1.
    9900012    2    1    2    0    0 -0.71193529093E+00 -0.38897437663E+01 -0.44871780211E+02  0.46142316325E+02  0.99999869071E+01 0.  0.
         12    1    1    2    0    0  0.71193529093E+00  0.38897437663E+01  0.44871780211E+02  0.45045683675E+02  0.00000000000E+00 0. -1.
         11    1    3    3    0    0 -0.10008113755E+01 -0.13947098345E+01 -0.53369453034E+01  0.56062308518E+01  0.51100000000E-03 0. -1.
        -11    1    3    3    0    0 -0.24960469346E+01 -0.18023044555E+01 -0.35218446747E+02  0.35352758636E+02  0.51100000000E-03 0.  1.
        -12    1    3    3    0    0  0.27849230192E+01 -0.69272947626E+00 -0.43163881605E+01  0.51833268373E+01  0.00000000000E+00 0.  1.
</event>
<event>
 7    1  0.1402367E-008  0.4614232E+02  0.7816164E-02  0.1320468E+00
        -11   -1    0    0    0    0  0.00000000000E+00  0.00000000000E+00  0.45593999997E+02  0.45594000000E+02  0.51100000000E-03 0. -1.
         11   -1    0    0    0    0 -0.00000000000E+00 -0.00000000000E+00 -0.45593999997E+02  0.45594000000E+02  0.51100000000E-03 0.  1.
    9900012    2    1    2    0    0  0.37780450600E+02  0.10649677549E+02 -0.22098312343E+02  0.46142317767E+02  0.10000000050E+02 0.  0.
         12    1    1    2    0    0 -0.37780450600E+02 -0.10649677549E+02  0.22098312343E+02  0.45045682233E+02  0.00000000000E+00 0. -1.
         11    1    3    3    0    0  0.83654139898E+01  0.58014753692E-01 -0.12439187314E+01  0.84575913240E+01  0.51100000000E-03 0. -1.
        -11    1    3    3    0    0  0.15163591858E+02  0.64856572665E+01 -0.97685445964E+01  0.19168274101E+02  0.51100000000E-03 0.  1.
         12    1    3    3    0    0  0.14251444752E+02  0.41060055290E+01 -0.11085849015E+02  0.18516452341E+02  0.00000000000E+00 0. -1.
</event>
<event>
 7    1  0.1402367E-008  0.4614232E+02  0.7816164E-02  0.1320468E+00
        -11   -1    0    0    0    0  0.00000000000E+00  0.00000000000E+00  0.45593999997E+02  0.45594000000E+02  0.51100000000E-03 0.  1.
         11   -1    0    0    0    0 -0.00000000000E+00 -0.00000000000E+00 -0.45593999997E+02  0.45594000000E+02  0.51100000000E-03 0. -1.
    9900012    2    1    2    0    0  0.24452086429E+02  0.16226405254E+02  0.34174739150E+02  0.46142317031E+02  0.99999933416E+01 0.  0.
         12    1    1    2    0    0 -0.24452086429E+02 -0.16226405254E+02 -0.34174739150E+02  0.45045682969E+02  0.00000000000E+00 0. -1.
         11    1    3    3    0    0 -0.34147048157E+00  0.79128238537E+00  0.22265249418E+01  0.23874973258E+01  0.51100000000E-03 0. -1.
        -11    1    3    3    0    0  0.24958875479E+02  0.14332437009E+02  0.30736008215E+02  0.42107795205E+02  0.51100000000E-03 0.  1.
        -12    1    3    3    0    0 -0.16531856844E+00  0.11026858595E+01  0.12122059931E+01  0.16470245000E+01  0.00000000000E+00 0.  1.
</event>
<event>
 7    1  0.1402367E-008  0.4614232E+02  0.7816164E-02  0.1320468E+00
        -11   -1    0    0    0    0  0.00000000000E+00  0.00000000000E+00  0.45593999997E+02  0.45594000000E+02  0.51100000000E-03 0.  1.
         11   -1    0    0    0    0 -0.00000000000E+00 -0.00000000000E+00 -0.45593999997E+02  0.45594000000E+02  0.51100000000E-03 0. -1.
    9900012    2    1    2    0    0 -0.81578635980E+01 -0.11365935780E+02  0.42817966121E+02  0.46142318105E+02  0.10000003136E+02 0.  0.
         12    1    1    2    0    0  0.81578635980E+01  0.11365935780E+02 -0.42817966121E+02  0.45045681895E+02  0.00000000000E+00 0. -1.
         11    1    3    3    0    0 -0.42018477166E+00 -0.39351065083E+00  0.42475294435E+01  0.42863635531E+01  0.51100000000E-03 0. -1.
        -11    1    3    3    0    0 -0.91619160147E+01 -0.88409552629E+01  0.36164543406E+02  0.38340284232E+02  0.51100000000E-03 0.  1.
        -12    1    3    3    0    0  0.14242371884E+01 -0.21314698662E+01  0.24058932719E+01  0.35156703195E+01  0.00000000000E+00 0.  1.
</event>
<event>
 7    1  0.1402367E-008  0.4614232E+02  0.7816164E-02  0.1320468E+00
        -11   -1    0    0    0    0  0.00000000000E+00  0.00000000000E+00  0.45593999997E+02  0.45594000000E+02  0.51100000000E-03 0.  1.
         11   -1    0    0    0    0 -0.00000000000E+00 -0.00000000000E+00 -0.45593999997E+02  0.45594000000E+02  0.51100000000E-03 0. -1.
    9900012    2    1    2    0    0 -0.21577047583E+02 -0.16595065948E+02  0.35890783089E+02  0.46142317555E+02  0.99999981199E+01 0.  0.
         12    1    1    2    0    0  0.21577047583E+02  0.16595065948E+02 -0.35890783089E+02  0.45045682445E+02  0.00000000000E+00 0. -1.
         11    1    3    3    0    0  0.21902630468E+00 -0.31387323141E+01  0.48600217622E+01  0.57895962598E+01  0.51100000000E-03 0.  1.
        -11    1    3    3    0    0 -0.19601563368E+02 -0.11534753031E+02  0.28698984959E+02  0.36618349934E+02  0.51100000000E-03 0. -1.
         12    1    3    3    0    0 -0.21945105198E+01 -0.19215806025E+01  0.23317763675E+01  0.37343713609E+01  0.00000000000E+00 0. -1.
</event>
<event>
 7    1  0.1402367E-008  0.4614232E+02  0.7816164E-02  0.1320468E+00
        -11   -1    0    0    0    0  0.00000000000E+00  0.00000000000E+00  0.45593999997E+02  0.45594000000E+02  0.51100000000E-03 0. -1.
         11   -1    0    0    0    0 -0.00000000000E+00 -0.00000000000E+00 -0.45593999997E+02  0.45594000000E+02  0.51100000000E-03 0.  1.
    9900012    2    1    2    0    0  0.12457254346E+02  0.18681087394E+02 -0.39050572567E+02  0.46142318411E+02  0.10000005924E+02 0.  0.
         12    1    1    2    0    0 -0.12457254346E+02 -0.18681087394E+02  0.39050572567E+02  0.45045681589E+02  0.00000000000E+00 0. -1.
         11    1    3    3    0    0  0.10426359371E+00  0.61158388029E+00 -0.43184913019E+00  0.75590983058E+00  0.51100000000E-03 0. -1.
        -11    1    3    3    0    0 -0.14693371508E+01  0.14856714737E+01 -0.51624444370E+01  0.55692911772E+01  0.51100000000E-03 0.  1.
        -12    1    3    3    0    0  0.13822327903E+02  0.16583832040E+02 -0.33456278999E+02  0.39817117403E+02  0.00000000000E+00 0.  1.
</event>
<event>
 7    1  0.1402367E-008  0.4614232E+02  0.7816164E-02  0.1320468E+00
        -11   -1    0    0    0    0  0.00000000000E+00  0.00000000000E+00  0.45593999997E+02  0.45594000000E+02  0.51100000000E-03 0.  1.
         11   -1    0    0    0    0 -0.00000000000E+00 -0.00000000000E+00 -0.45593999997E+02  0.45594000000E+02  0.51100000000E-03 0. -1.
    9900012    2    1    2    0    0  0.38197236040E+02 -0.12027425501E+02  0.20625849154E+02  0.46142318091E+02  0.10000003012E+02 0.  0.
         12    1    1    2    0    0 -0.38197236040E+02  0.12027425501E+02 -0.20625849154E+02  0.45045681909E+02  0.00000000000E+00 0. -1.
         11    1    3    3    0    0  0.68333223865E+01 -0.78248797364E+00  0.21029777521E+01  0.71922943456E+01  0.51100000000E-03 0. -1.
        -11    1    3    3    0    0  0.10786216418E+02 -0.60494508333E+01  0.10626418699E+02  0.16305186127E+02  0.51100000000E-03 0.  1.
        -12    1    3    3    0    0  0.20577697236E+02 -0.51954866944E+01  0.78964527029E+01  0.22644837619E+02  0.00000000000E+00 0.  1.
</event>
<event>
 7    1  0.1402367E-008  0.4614232E+02  0.7816164E-02  0.1320468E+00
        -11   -1    0    0    0    0  0.00000000000E+00  0.00000000000E+00  0.45593999997E+02  0.45594000000E+02  0.51100000000E-03 0. -1.
         11   -1    0    0    0    0 -0.00000000000E+00 -0.00000000000E+00 -0.45593999997E+02  0.45594000000E+02  0.51100000000E-03 0.  1.
    9900012    2    1    2    0    0 -0.22532881113E+02  0.35331215951E+02 -0.16525369555E+02  0.46142318844E+02  0.10000009875E+02 0.  0.
         12    1    1    2    0    0  0.22532881113E+02 -0.35331215951E+02  0.16525369555E+02  0.45045681156E+02  0.00000000000E+00 0. -1.
         11    1    3    3    0    0 -0.13027707516E+02  0.13087744254E+02 -0.50578265738E+01  0.19146587755E+02  0.51100000000E-03 0. -1.
        -11    1    3    3    0    0 -0.64833915575E+01  0.17973658631E+02 -0.79675960982E+01  0.20701916783E+02  0.51100000000E-03 0.  1.
         12    1    3    3    0    0 -0.30217820404E+01  0.42698130671E+01 -0.34999468828E+01  0.62938143054E+01  0.00000000000E+00 0. -1.
</event>
<event>
 7    1  0.1402367E-008  0.4614232E+02  0.7816164E-02  0.1320468E+00
        -11   -1    0    0    0    0  0.00000000000E+00  0.00000000000E+00  0.45593999997E+02  0.45594000000E+02  0.51100000000E-03 0. -1.
         11   -1    0    0    0    0 -0.00000000000E+00 -0.00000000000E+00 -0.45593999997E+02  0.45594000000E+02  0.51100000000E-03 0.  1.
    9900012    2    1    2    0    0  0.95276382434E+01 -0.40680090685E+02 -0.16836502377E+02  0.46142317843E+02  0.10000000750E+02 0.  0.
         12    1    1    2    0    0 -0.95276382434E+01  0.40680090685E+02  0.16836502377E+02  0.45045682157E+02  0.00000000000E+00 0. -1.
         11    1    3    3    0    0  0.10711135079E+01 -0.64922135240E+00 -0.20180709228E+01  0.23751595782E+01  0.51100000000E-03 0. -1.
        -11    1    3    3    0    0  0.82762245548E+01 -0.38489991880E+02 -0.13196088056E+02  0.41522428976E+02  0.51100000000E-03 0.  1.
        -12    1    3    3    0    0  0.18030018064E+00 -0.15408774528E+01 -0.16223433985E+01  0.22447292893E+01  0.00000000000E+00 0.  1.
</event>
<event>
 7    1  0.1402367E-008  0.4614232E+02  0.7816164E-02  0.1320468E+00
        -11   -1    0    0    0    0  0.00000000000E+00  0.00000000000E+00  0.45593999997E+02  0.45594000000E+02  0.51100000000E-03 0.  1.
         11   -1    0    0    0    0 -0.00000000000E+00 -0.00000000000E+00 -0.45593999997E+02  0.45594000000E+02  0.51100000000E-03 0. -1.
    9900012    2    1    2    0    0  0.24983047184E+01 -0.32366302197E+02  0.31229704632E+02  0.46142317679E+02  0.99999992505E+01 0.  0.
         12    1    1    2    0    0 -0.24983047184E+01  0.32366302197E+02 -0.31229704632E+02  0.45045682321E+02  0.00000000000E+00 0. -1.
         11    1    3    3    0    0 -0.79937824821E-01 -0.32834719929E-01  0.22277306721E+01  0.22294062849E+01  0.51100000000E-03 0. -1.
        -11    1    3    3    0    0  0.38672182546E+01 -0.30318861509E+02  0.26518347358E+02  0.40464941457E+02  0.51100000000E-03 0.  1.
        -12    1    3    3    0    0 -0.12889757114E+01 -0.20146059678E+01  0.24836266021E+01  0.34479699374E+01  0.00000000000E+00 0.  1.
</event>
<event>
 7    1  0.1402367E-008  0.4614232E+02  0.7816164E-02  0.1320468E+00
        -11   -1    0    0    0    0  0.00000000000E+00  0.00000000000E+00  0.45593999997E+02  0.45594000000E+02  0.51100000000E-03 0. -1.
         11   -1    0    0    0    0 -0.00000000000E+00 -0.00000000000E+00 -0.45593999997E+02  0.45594000000E+02  0.51100000000E-03 0.  1.
    9900012    2    1    2    0    0 -0.37331844814E+01 -0.12065305653E+02 -0.43238930304E+02  0.46142319178E+02  0.10000012922E+02 0.  0.
         12    1    1    2    0    0  0.37331844814E+01  0.12065305653E+02  0.43238930304E+02  0.45045680822E+02  0.00000000000E+00 0. -1.
         11    1    3    3    0    0  0.76307147825E+00 -0.99279792319E+01 -0.22054608233E+02  0.24198198162E+02  0.51100000000E-03 0. -1.
        -11    1    3    3    0    0 -0.21677883219E+01 -0.25482653862E+00 -0.45990263109E+01  0.50907058492E+01  0.51100000000E-03 0.  1.
         12    1    3    3    0    0 -0.23284676378E+01 -0.18824998828E+01 -0.16585295760E+02  0.16853415167E+02  0.00000000000E+00 0. -1.
</event>
<event>
 7    1  0.1434707E-008  0.4614232E+02  0.7816164E-02  0.1320468E+00
        -11   -1    0    0    0    0  0.00000000000E+00  0.00000000000E+00  0.45593999997E+02  0.45594000000E+02  0.51100000000E-03 0.  1.
         11   -1    0    0    0    0 -0.00000000000E+00 -0.00000000000E+00 -0.45593999997E+02  0.45594000000E+02  0.51100000000E-03 0. -1.
    9900012    2    1    2    0    0  0.85100880263E+01  0.40504531662E+02 -0.17778493738E+02  0.46142317377E+02  0.99999964963E+01 0.  0.
         12    1    1    2    0    0 -0.85100880263E+01 -0.40504531662E+02  0.17778493738E+02  0.45045682623E+02  0.00000000000E+00 0. -1.
         11    1    3    3    0    0 -0.13470059772E+01  0.11603738375E+01 -0.10459900150E+01  0.20627622059E+01  0.51100000000E-03 0. -1.
        -11    1    3    3    0    0  0.95296367905E+01  0.36748536402E+02 -0.16669696513E+02  0.41462605890E+02  0.51100000000E-03 0.  1.
        -12    1    3    3    0    0  0.32745721303E+00  0.25956214224E+01 -0.62807209798E-01  0.26169492812E+01  0.00000000000E+00 0.  1.
</event>
<event>
 7    1  0.1402367E-008  0.4614232E+02  0.7816164E-02  0.1320468E+00
        -11   -1    0    0    0    0  0.00000000000E+00  0.00000000000E+00  0.45593999997E+02  0.45594000000E+02  0.51100000000E-03 0.  1.
         11   -1    0    0    0    0 -0.00000000000E+00 -0.00000000000E+00 -0.45593999997E+02  0.45594000000E+02  0.51100000000E-03 0. -1.
    9900012    2    1    2    0    0  0.44107121955E+02  0.41523357090E+01  0.81506692307E+01  0.46142317544E+02  0.99999980235E+01 0.  0.
         12    1    1    2    0    0 -0.44107121955E+02 -0.41523357090E+01 -0.81506692307E+01  0.45045682456E+02  0.00000000000E+00 0. -1.
         11    1    3    3    0    0  0.63039894563E+01 -0.82157300285E+00 -0.28889731920E+00  0.63638610282E+01  0.51100000000E-03 0. -1.
        -11    1    3    3    0    0  0.17825025252E+02  0.46413774639E+01  0.96289455106E+00  0.18444540552E+02  0.51100000000E-03 0.  1.
        -12    1    3    3    0    0  0.19978107247E+02  0.33253124798E+00  0.74766719989E+01  0.21333915965E+02  0.00000000000E+00 0.  1.
</event>
<event>
 7    1  0.1402367E-008  0.4614232E+02  0.7816164E-02  0.1320468E+00
        -11   -1    0    0    0    0  0.00000000000E+00  0.00000000000E+00  0.45593999997E+02  0.45594000000E+02  0.51100000000E-03 0. -1.
         11   -1    0    0    0    0 -0.00000000000E+00 -0.00000000000E+00 -0.45593999997E+02  0.45594000000E+02  0.51100000000E-03 0.  1.
    9900012    2    1    2    0    0  0.41590775403E+02 -0.98904043910E+01 -0.14195098100E+02  0.46142317547E+02  0.99999980446E+01 0.  0.
         12    1    1    2    0    0 -0.41590775403E+02  0.98904043910E+01  0.14195098100E+02  0.45045682453E+02  0.00000000000E+00 0. -1.
         11    1    3    3    0    0  0.24825187488E+02 -0.22439428604E+01 -0.96371119558E+01  0.26724504494E+02  0.51100000000E-03 0.  1.
        -11    1    3    3    0    0  0.10014385384E+02 -0.65138594844E+01 -0.20151527819E+01  0.12115243333E+02  0.51100000000E-03 0. -1.
         12    1    3    3    0    0  0.67512025307E+01 -0.11326020462E+01 -0.25428333618E+01  0.73025697197E+01  0.00000000000E+00 0. -1.
</event>
<event>
 7    1  0.1402367E-008  0.4614232E+02  0.7816164E-02  0.1320468E+00
        -11   -1    0    0    0    0  0.00000000000E+00  0.00000000000E+00  0.45593999997E+02  0.45594000000E+02  0.51100000000E-03 0.  1.
         11   -1    0    0    0    0 -0.00000000000E+00 -0.00000000000E+00 -0.45593999997E+02  0.45594000000E+02  0.51100000000E-03 0. -1.
    9900012    2    1    2    0    0 -0.12593587723E+02 -0.43227451650E+02 -0.13791853112E+01  0.46142321183E+02  0.10000031207E+02 0.  0.
         12    1    1    2    0    0  0.12593587723E+02  0.43227451650E+02  0.13791853112E+01  0.45045678817E+02  0.00000000000E+00 0. -1.
         11    1    3    3    0    0 -0.77342801702E+01 -0.35192950808E+02  0.12565746298E+01  0.36054706439E+02  0.51100000000E-03 0.  1.
        -11    1    3    3    0    0 -0.22954173269E+01 -0.17980178508E+01 -0.13916302863E+01  0.32308580921E+01  0.51100000000E-03 0. -1.
         12    1    3    3    0    0 -0.25638902258E+01 -0.62364829914E+01 -0.12441296548E+01  0.68567566524E+01  0.00000000000E+00 0. -1.
</event>
<event>
 7    1  0.1402367E-008  0.4614232E+02  0.7816164E-02  0.1320468E+00
        -11   -1    0    0    0    0  0.00000000000E+00  0.00000000000E+00  0.45593999997E+02  0.45594000000E+02  0.51100000000E-03 0.  1.
         11   -1    0    0    0    0 -0.00000000000E+00 -0.00000000000E+00 -0.45593999997E+02  0.45594000000E+02  0.51100000000E-03 0. -1.
    9900012    2    1    2    0    0  0.10373739389E+02 -0.39585844481E+02  0.18827108118E+02  0.46142317051E+02  0.99999935284E+01 0.  0.
         12    1    1    2    0    0 -0.10373739389E+02  0.39585844481E+02 -0.18827108118E+02  0.45045682949E+02  0.00000000000E+00 0. -1.
         11    1    3    3    0    0  0.41553652281E+01 -0.11204932237E+02  0.97737731756E+01  0.15438400466E+02  0.51100000000E-03 0.  1.
        -11    1    3    3    0    0  0.51627872520E+01 -0.27199600813E+02  0.90260895576E+01  0.29119459980E+02  0.51100000000E-03 0. -1.
        -12    1    3    3    0    0  0.10555869091E+01 -0.11813114318E+01  0.27245385014E-01  0.15844566048E+01  0.00000000000E+00 0.  1.
</event>
<event>
 7    1  0.1402367E-008  0.4614233E+02  0.7816164E-02  0.1320468E+00
        -11   -1    0    0    0    0  0.00000000000E+00  0.00000000000E+00  0.45593999997E+02  0.45594000000E+02  0.51100000000E-03 0. -1.
         11   -1    0    0    0    0 -0.00000000000E+00 -0.00000000000E+00 -0.45593999997E+02  0.45594000000E+02  0.51100000000E-03 0.  1.
    9900012    2    1    2    0    0  0.17778848309E+02  0.40781789117E+02 -0.70619075604E+01  0.46142330851E+02  0.10000119359E+02 0.  0.
         12    1    1    2    0    0 -0.17778848309E+02 -0.40781789117E+02  0.70619075604E+01  0.45045669149E+02  0.00000000000E+00 0. -1.
         11    1    3    3    0    0  0.13199900175E+02  0.20689149126E+02 -0.66996114467E+01  0.25439399560E+02  0.51100000000E-03 0. -1.
        -11    1    3    3    0    0  0.35806342981E+01  0.17713204104E+02  0.15041626114E+00  0.18072110195E+02  0.51100000000E-03 0.  1.
        -12    1    3    3    0    0  0.99831383531E+00  0.23794358871E+01 -0.51271237486E+00  0.26308210950E+01  0.00000000000E+00 0.  1.
</event>
<event>
 7    1  0.1402367E-008  0.4614232E+02  0.7816164E-02  0.1320468E+00
        -11   -1    0    0    0    0  0.00000000000E+00  0.00000000000E+00  0.45593999997E+02  0.45594000000E+02  0.51100000000E-03 0.  1.
         11   -1    0    0    0    0 -0.00000000000E+00 -0.00000000000E+00 -0.45593999997E+02  0.45594000000E+02  0.51100000000E-03 0. -1.
    9900012    2    1    2    0    0 -0.12658877262E+00  0.29050922212E+02  0.34425884670E+02  0.46142316063E+02  0.99999845134E+01 0.  0.
         12    1    1    2    0    0  0.12658877262E+00 -0.29050922212E+02 -0.34425884670E+02  0.45045683937E+02  0.00000000000E+00 0. -1.
         11    1    3    3    0    0  0.19634306351E+01  0.14443623058E+02  0.20678247792E+02  0.25299471119E+02  0.51100000000E-03 0. -1.
        -11    1    3    3    0    0 -0.24437866614E+01  0.37132657755E+01  0.60123842768E+01  0.74772455436E+01  0.51100000000E-03 0.  1.
         12    1    3    3    0    0  0.35376725370E+00  0.10894033378E+02  0.77352526004E+01  0.13365599400E+02  0.00000000000E+00 0. -1.
</event>
<event>
 7    1  0.1402367E-008  0.4614232E+02  0.7816164E-02  0.1320468E+00
        -11   -1    0    0    0    0  0.00000000000E+00  0.00000000000E+00  0.45593999997E+02  0.45594000000E+02  0.51100000000E-03 0.  1.
         11   -1    0    0    0    0 -0.00000000000E+00 -0.00000000000E+00 -0.45593999997E+02  0.45594000000E+02  0.51100000000E-03 0. -1.
    9900012    2    1    2    0    0  0.74751531703E+00 -0.43781523076E+02  0.10570379255E+02  0.46142318080E+02  0.10000002911E+02 0.  0.
         12    1    1    2    0    0 -0.74751531703E+00  0.43781523076E+02 -0.10570379255E+02  0.45045681920E+02  0.00000000000E+00 0. -1.
         11    1    3    3    0    0 -0.18641982658E+01 -0.11424060287E+02  0.10796386429E+01  0.11625403583E+02  0.51100000000E-03 0. -1.
        -11    1    3    3    0    0 -0.15042927647E+01 -0.20877080779E+02  0.49968316578E+01  0.21519380229E+02  0.51100000000E-03 0.  1.
        -12    1    3    3    0    0  0.41160063475E+01 -0.11480382011E+02  0.44939089542E+01  0.12997534268E+02  0.00000000000E+00 0.  1.
</event>
<event>
 7    1  0.1402367E-008  0.4614232E+02  0.7816164E-02  0.1320468E+00
        -11   -1    0    0    0    0  0.00000000000E+00  0.00000000000E+00  0.45593999997E+02  0.45594000000E+02  0.51100000000E-03 0. -1.
         11   -1    0    0    0    0 -0.00000000000E+00 -0.00000000000E+00 -0.45593999997E+02  0.45594000000E+02  0.51100000000E-03 0.  1.
    9900012    2    1    2    0    0  0.81884938840E+01 -0.21800406733E+02 -0.38559102410E+02  0.46142317138E+02  0.99999943196E+01 0.  0.
         12    1    1    2    0    0 -0.81884938840E+01  0.21800406733E+02  0.38559102410E+02  0.45045682862E+02  0.00000000000E+00 0. -1.
         11    1    3    3    0    0  0.35652871435E+01 -0.22751173917E+01 -0.58346088837E+01  0.72062537180E+01  0.51100000000E-03 0. -1.
        -11    1    3    3    0    0 -0.56180718563E+00 -0.10223383754E+01 -0.54427695466E+01  0.55663761700E+01  0.51100000000E-03 0.  1.
         12    1    3    3    0    0  0.51850139262E+01 -0.18502950966E+02 -0.27281723980E+02  0.33369687250E+02  0.00000000000E+00 0. -1.
</event>
<event>
 7    1  0.1402367E-008  0.4614232E+02  0.7816164E-02  0.1320468E+00
        -11   -1    0    0    0    0  0.00000000000E+00  0.00000000000E+00  0.45593999997E+02  0.45594000000E+02  0.51100000000E-03 0.  1.
         11   -1    0    0    0    0 -0.00000000000E+00 -0.00000000000E+00 -0.45593999997E+02  0.45594000000E+02  0.51100000000E-03 0. -1.
    9900012    2    1    2    0    0  0.29372563155E+02  0.32018828993E+02  0.11881104058E+02  0.46142317521E+02  0.99999978139E+01 0.  0.
         12    1    1    2    0    0 -0.29372563155E+02 -0.32018828993E+02 -0.11881104058E+02  0.45045682479E+02  0.00000000000E+00 0. -1.
         11    1    3    3    0    0 -0.12395901590E+00 -0.46681737767E+00 -0.12321499208E+00  0.49846413824E+00  0.51100000000E-03 0. -1.
        -11    1    3    3    0    0  0.28521109687E+02  0.30334343917E+02  0.10921497213E+02  0.43045385586E+02  0.51100000000E-03 0.  1.
         12    1    3    3    0    0  0.97541248328E+00  0.21513024537E+01  0.10828218376E+01  0.25984677969E+01  0.00000000000E+00 0. -1.
</event>
<event>
 7    1  0.1402367E-008  0.4614231E+02  0.7816164E-02  0.1320468E+00
        -11   -1    0    0    0    0  0.00000000000E+00  0.00000000000E+00  0.45593999997E+02  0.45594000000E+02  0.51100000000E-03 0.  1.
         11   -1    0    0    0    0 -0.00000000000E+00 -0.00000000000E+00 -0.45593999997E+02  0.45594000000E+02  0.51100000000E-03 0. -1.
    9900012    2    1    2    0    0  0.22863039571E+02 -0.13123098079E+02  0.36526422095E+02  0.46142314383E+02  0.99999691999E+01 0.  0.
         12    1    1    2    0    0 -0.22863039571E+02  0.13123098079E+02 -0.36526422095E+02  0.45045685617E+02  0.00000000000E+00 0. -1.
         11    1    3    3    0    0  0.33931305131E+01 -0.52751249134E+01  0.91844365007E+01  0.11121787250E+02  0.51100000000E-03 0. -1.
        -11    1    3    3    0    0  0.94910198456E+01 -0.66188331620E+01  0.17278741526E+02  0.20795271557E+02  0.51100000000E-03 0.  1.
         12    1    3    3    0    0  0.99788892123E+01 -0.12291400041E+01  0.10063244068E+02  0.14225255577E+02  0.00000000000E+00 0. -1.
</event>
<event>
 7    1  0.1402367E-008  0.4614232E+02  0.7816164E-02  0.1320468E+00
        -11   -1    0    0    0    0  0.00000000000E+00  0.00000000000E+00  0.45593999997E+02  0.45594000000E+02  0.51100000000E-03 0.  1.
         11   -1    0    0    0    0 -0.00000000000E+00 -0.00000000000E+00 -0.45593999997E+02  0.45594000000E+02  0.51100000000E-03 0. -1.
    9900012    2    1    2    0    0 -0.73081171618E+01 -0.11135595292E+02  0.43031422262E+02  0.46142319177E+02  0.10000012910E+02 0.  0.
         12    1    1    2    0    0  0.73081171618E+01  0.11135595292E+02 -0.43031422262E+02  0.45045680823E+02  0.00000000000E+00 0. -1.
         11    1    3    3    0    0 -0.13437617899E+01 -0.37335936949E+01  0.11747224146E+02  0.12399302119E+02  0.51100000000E-03 0. -1.
        -11    1    3    3    0    0 -0.37255713972E+01 -0.70387548032E+00  0.20530052363E+02  0.20877221396E+02  0.51100000000E-03 0.  1.
         12    1    3    3    0    0 -0.22387839746E+01 -0.66981261163E+01  0.10754145752E+02  0.12865795662E+02  0.00000000000E+00 0. -1.
</event>
<event>
 7    1  0.1402367E-008  0.4614232E+02  0.7816164E-02  0.1320468E+00
        -11   -1    0    0    0    0  0.00000000000E+00  0.00000000000E+00  0.45593999997E+02  0.45594000000E+02  0.51100000000E-03 0. -1.
         11   -1    0    0    0    0 -0.00000000000E+00 -0.00000000000E+00 -0.45593999997E+02  0.45594000000E+02  0.51100000000E-03 0.  1.
    9900012    2    1    2    0    0 -0.21347685712E+02 -0.25716809922E+01 -0.39582524418E+02  0.46142317991E+02  0.10000002095E+02 0.  0.
         12    1    1    2    0    0  0.21347685712E+02  0.25716809922E+01  0.39582524418E+02  0.45045682009E+02  0.00000000000E+00 0. -1.
         11    1    3    3    0    0 -0.22247132167E+01 -0.18464102857E+01 -0.42538951993E+01  0.51433650918E+01  0.51100000000E-03 0. -1.
        -11    1    3    3    0    0 -0.67223261642E+01 -0.68223580795E-01 -0.20939738587E+02  0.21992429967E+02  0.51100000000E-03 0.  1.
        -12    1    3    3    0    0 -0.12400646331E+02 -0.65704712575E+00 -0.14388890631E+02  0.19006522932E+02  0.00000000000E+00 0.  1.
</event>
<event>
 7    1  0.1402367E-008  0.4614232E+02  0.7816164E-02  0.1320468E+00
        -11   -1    0    0    0    0  0.00000000000E+00  0.00000000000E+00  0.45593999997E+02  0.45594000000E+02  0.51100000000E-03 0.  1.
         11   -1    0    0    0    0 -0.00000000000E+00 -0.00000000000E+00 -0.45593999997E+02  0.45594000000E+02  0.51100000000E-03 0. -1.
    9900012    2    1    2    0    0 -0.24039922188E+02  0.87642735208E+01  0.37072673867E+02  0.46142317667E+02  0.99999991461E+01 0.  0.
         12    1    1    2    0    0  0.24039922188E+02 -0.87642735208E+01 -0.37072673867E+02  0.45045682333E+02  0.00000000000E+00 0. -1.
         11    1    3    3    0    0 -0.34459075982E+01  0.44530266757E+01  0.53222967345E+01  0.77479396320E+01  0.51100000000E-03 0. -1.
        -11    1    3    3    0    0 -0.14609241038E+02  0.42128446110E+01  0.25846953353E+02  0.29987380367E+02  0.51100000000E-03 0.  1.
         12    1    3    3    0    0 -0.59847735519E+01  0.98402234124E-01  0.59034237800E+01  0.84069976683E+01  0.00000000000E+00 0. -1.
</event>
<event>
 7    1  0.1402367E-008  0.4614232E+02  0.7816164E-02  0.1320468E+00
        -11   -1    0    0    0    0  0.00000000000E+00  0.00000000000E+00  0.45593999997E+02  0.45594000000E+02  0.51100000000E-03 0.  1.
         11   -1    0    0    0    0 -0.00000000000E+00 -0.00000000000E+00 -0.45593999997E+02  0.45594000000E+02  0.51100000000E-03 0. -1.
    9900012    2    1    2    0    0 -0.40846986474E+02 -0.17925904174E+01  0.18905640546E+02  0.46142323971E+02  0.10000056629E+02 0.  0.
         12    1    1    2    0    0  0.40846986474E+02  0.17925904174E+01 -0.18905640546E+02  0.45045676029E+02  0.00000000000E+00 0. -1.
         11    1    3    3    0    0 -0.25524526115E+02 -0.10307572775E+00  0.14371143914E+02  0.29292351146E+02  0.51100000000E-03 0. -1.
        -11    1    3    3    0    0 -0.12865445949E+02 -0.31340611589E+01  0.45443537455E+01  0.13999756785E+02  0.51100000000E-03 0.  1.
         12    1    3    3    0    0 -0.24570144099E+01  0.14445464692E+01 -0.98571131491E-02  0.28502160401E+01  0.00000000000E+00 0. -1.
</event>
<event>
 7    1  0.1402367E-008  0.4614232E+02  0.7816164E-02  0.1320468E+00
        -11   -1    0    0    0    0  0.00000000000E+00  0.00000000000E+00  0.45593999997E+02  0.45594000000E+02  0.51100000000E-03 0. -1.
         11   -1    0    0    0    0 -0.00000000000E+00 -0.00000000000E+00 -0.45593999997E+02  0.45594000000E+02  0.51100000000E-03 0.  1.
    9900012    2    1    2    0    0 -0.68090387755E+01  0.38218573194E+01 -0.44363767637E+02  0.46142317839E+02  0.10000000712E+02 0.  0.
         12    1    1    2    0    0  0.68090387755E+01 -0.38218573194E+01  0.44363767637E+02  0.45045682161E+02  0.00000000000E+00 0. -1.
         11    1    3    3    0    0 -0.12502178617E-02 -0.48694326099E+00 -0.14271054112E+01  0.15078943657E+01  0.51100000000E-03 0. -1.
        -11    1    3    3    0    0 -0.84967692868E+01  0.21507384284E+01 -0.37902451429E+02  0.38902655291E+02  0.51100000000E-03 0.  1.
        -12    1    3    3    0    0  0.16889807292E+01  0.21580621520E+01 -0.50342107967E+01  0.57317681828E+01  0.00000000000E+00 0.  1.
</event>
<event>
 7    1  0.1402367E-008  0.4614232E+02  0.7816164E-02  0.1320468E+00
        -11   -1    0    0    0    0  0.00000000000E+00  0.00000000000E+00  0.45593999997E+02  0.45594000000E+02  0.51100000000E-03 0. -1.
         11   -1    0    0    0    0 -0.00000000000E+00 -0.00000000000E+00 -0.45593999997E+02  0.45594000000E+02  0.51100000000E-03 0.  1.
    9900012    2    1    2    0    0 -0.37927847566E+02  0.63308960321E+01 -0.23462982871E+02  0.46142318400E+02  0.10000005830E+02 0.  0.
         12    1    1    2    0    0  0.37927847566E+02 -0.63308960321E+01  0.23462982871E+02  0.45045681600E+02  0.00000000000E+00 0. -1.
         11    1    3    3    0    0 -0.77059929695E+01  0.34463994663E+01 -0.70383146915E+01  0.10990808473E+02  0.51100000000E-03 0. -1.
        -11    1    3    3    0    0 -0.23435190869E+02  0.48695091058E+01 -0.13659469749E+02  0.27559053033E+02  0.51100000000E-03 0.  1.
         12    1    3    3    0    0 -0.67866637277E+01 -0.19850125400E+01 -0.27651984307E+01  0.75924568947E+01  0.00000000000E+00 0. -1.
</event>
<event>
 7    1  0.1402367E-008  0.4614233E+02  0.7816164E-02  0.1320468E+00
        -11   -1    0    0    0    0  0.00000000000E+00  0.00000000000E+00  0.45593999997E+02  0.45594000000E+02  0.51100000000E-03 0. -1.
         11   -1    0    0    0    0 -0.00000000000E+00 -0.00000000000E+00 -0.45593999997E+02  0.45594000000E+02  0.51100000000E-03 0.  1.
    9900012    2    1    2    0    0  0.30535720790E+02  0.27439279207E+02 -0.18540987711E+02  0.46142328589E+02  0.10000098735E+02 0.  0.
         12    1    1    2    0    0 -0.30535720790E+02 -0.27439279207E+02  0.18540987711E+02  0.45045671411E+02  0.00000000000E+00 0. -1.
         11    1    3    3    0    0  0.27117561830E+02  0.25384972978E+02 -0.16029226960E+02  0.40456088910E+02  0.51100000000E-03 0. -1.
        -11    1    3    3    0    0  0.35233927654E+01  0.24132601559E+01 -0.13703281531E+01  0.44850775542E+01  0.51100000000E-03 0.  1.
         12    1    3    3    0    0 -0.10523380484E+00 -0.35895392691E+00 -0.11414325972E+01  0.12011621245E+01  0.00000000000E+00 0. -1.
</event>
<event>
 7    1  0.1402367E-008  0.4614232E+02  0.7816164E-02  0.1320468E+00
        -11   -1    0    0    0    0  0.00000000000E+00  0.00000000000E+00  0.45593999997E+02  0.45594000000E+02  0.51100000000E-03 0.  1.
         11   -1    0    0    0    0 -0.00000000000E+00 -0.00000000000E+00 -0.45593999997E+02  0.45594000000E+02  0.51100000000E-03 0. -1.
    9900012    2    1    2    0    0 -0.21515481714E+02 -0.32689356855E+02  0.22307026654E+02  0.46142318263E+02  0.10000004579E+02 0.  0.
         12    1    1    2    0    0  0.21515481714E+02  0.32689356855E+02 -0.22307026654E+02  0.45045681737E+02  0.00000000000E+00 0. -1.
         11    1    3    3    0    0 -0.74593911185E+01 -0.20140208149E+02  0.12636877317E+02  0.24919092454E+02  0.51100000000E-03 0. -1.
        -11    1    3    3    0    0 -0.20611265898E+01 -0.12353858707E+01  0.11867096227E+01  0.26800561670E+01  0.51100000000E-03 0.  1.
         12    1    3    3    0    0 -0.11994964006E+02 -0.11313762835E+02  0.84834397142E+01  0.18543169642E+02  0.00000000000E+00 0. -1.
</event>
<event>
 7    1  0.1402367E-008  0.4614232E+02  0.7816164E-02  0.1320468E+00
        -11   -1    0    0    0    0  0.00000000000E+00  0.00000000000E+00  0.45593999997E+02  0.45594000000E+02  0.51100000000E-03 0.  1.
         11   -1    0    0    0    0 -0.00000000000E+00 -0.00000000000E+00 -0.45593999997E+02  0.45594000000E+02  0.51100000000E-03 0. -1.
    9900012    2    1    2    0    0 -0.25559707757E+02  0.19821677928E+02  0.31351489723E+02  0.46142317806E+02  0.10000000408E+02 0.  0.
         12    1    1    2    0    0  0.25559707757E+02 -0.19821677928E+02 -0.31351489723E+02  0.45045682194E+02  0.00000000000E+00 0. -1.
         11    1    3    3    0    0 -0.93386580429E+01  0.10478823408E+02  0.10477721507E+02  0.17515676473E+02  0.51100000000E-03 0. -1.
        -11    1    3    3    0    0 -0.15492757841E+02  0.93855078372E+01  0.21149917854E+02  0.27846585578E+02  0.51100000000E-03 0.  1.
         12    1    3    3    0    0 -0.72829187317E+00 -0.42653317066E-01 -0.27614963826E+00  0.78005575486E+00  0.00000000000E+00 0. -1.
</event>
<event>
 7    1  0.1402367E-008  0.4614232E+02  0.7816164E-02  0.1320468E+00
        -11   -1    0    0    0    0  0.00000000000E+00  0.00000000000E+00  0.45593999997E+02  0.45594000000E+02  0.51100000000E-03 0.  1.
         11   -1    0    0    0    0 -0.00000000000E+00 -0.00000000000E+00 -0.45593999997E+02  0.45594000000E+02  0.51100000000E-03 0. -1.
    9900012    2    1    2    0    0 -0.38152828336E+02  0.14440645126E+02  0.19103477726E+02  0.46142318709E+02  0.10000008646E+02 0.  0.
         12    1    1    2    0    0  0.38152828336E+02 -0.14440645126E+02 -0.19103477726E+02  0.45045681291E+02  0.00000000000E+00 0. -1.
         11    1    3    3    0    0 -0.72418800280E+01  0.24530602273E+01  0.21027099138E+01  0.79299256025E+01  0.51100000000E-03 0. -1.
        -11    1    3    3    0    0 -0.20685970034E+02  0.12020062487E+02  0.10756954872E+02  0.26231723863E+02  0.51100000000E-03 0.  1.
        -12    1    3    3    0    0 -0.10224978274E+02 -0.32477587573E-01  0.62438129403E+01  0.11980669244E+02  0.00000000000E+00 0.  1.
</event>
<event>
 7    1  0.1402367E-008  0.4614232E+02  0.7816164E-02  0.1320468E+00
        -11   -1    0    0    0    0  0.00000000000E+00  0.00000000000E+00  0.45593999997E+02  0.45594000000E+02  0.51100000000E-03 0. -1.
         11   -1    0    0    0    0 -0.00000000000E+00 -0.00000000000E+00 -0.45593999997E+02  0.45594000000E+02  0.51100000000E-03 0.  1.
    9900012    2    1    2    0    0  0.43121618191E+02  0.49205389165E+01  0.12059341797E+02  0.46142318928E+02  0.10000010643E+02 0.  0.
         12    1    1    2    0    0 -0.43121618191E+02 -0.49205389165E+01 -0.12059341797E+02  0.45045681072E+02  0.00000000000E+00 0. -1.
         11    1    3    3    0    0  0.15382513251E+02  0.52633316083E+00  0.69242671746E+01  0.16877328482E+02  0.51100000000E-03 0. -1.
        -11    1    3    3    0    0  0.20145045498E+02  0.26424759393E+01  0.76968498645E+00  0.20332190055E+02  0.51100000000E-03 0.  1.
        -12    1    3    3    0    0  0.75940594422E+01  0.17517298164E+01  0.43653896357E+01  0.89328003914E+01  0.00000000000E+00 0.  1.
</event>
<event>
 7    1  0.1402367E-008  0.4614232E+02  0.7816164E-02  0.1320468E+00
        -11   -1    0    0    0    0  0.00000000000E+00  0.00000000000E+00  0.45593999997E+02  0.45594000000E+02  0.51100000000E-03 0.  1.
         11   -1    0    0    0    0 -0.00000000000E+00 -0.00000000000E+00 -0.45593999997E+02  0.45594000000E+02  0.51100000000E-03 0. -1.
    9900012    2    1    2    0    0  0.20751611315E+02  0.39000104555E+02  0.88020420583E+01  0.46142317944E+02  0.10000001671E+02 0.  0.
         12    1    1    2    0    0 -0.20751611315E+02 -0.39000104555E+02 -0.88020420583E+01  0.45045682056E+02  0.00000000000E+00 0. -1.
         11    1    3    3    0    0  0.15959649554E+02  0.27081454320E+02  0.51613070108E+01  0.31855214209E+02  0.51100000000E-03 0. -1.
        -11    1    3    3    0    0  0.38466310644E+01  0.86724482559E+01  0.23802136040E+00  0.94902362313E+01  0.51100000000E-03 0.  1.
         12    1    3    3    0    0  0.94533069657E+00  0.32462019789E+01  0.34027136872E+01  0.47968675039E+01  0.00000000000E+00 0. -1.
</event>
<event>
 7    1  0.1402367E-008  0.4614232E+02  0.7816164E-02  0.1320468E+00
        -11   -1    0    0    0    0  0.00000000000E+00  0.00000000000E+00  0.45593999997E+02  0.45594000000E+02  0.51100000000E-03 0. -1.
         11   -1    0    0    0    0 -0.00000000000E+00 -0.00000000000E+00 -0.45593999997E+02  0.45594000000E+02  0.51100000000E-03 0.  1.
    9900012    2    1    2    0    0  0.43214111674E+02 -0.26458895432E+01 -0.12435969874E+02  0.46142317344E+02  0.99999961969E+01 0.  0.
         12    1    1    2    0    0 -0.43214111674E+02  0.26458895432E+01  0.12435969874E+02  0.45045682656E+02  0.00000000000E+00 0. -1.
         11    1    3    3    0    0  0.14131331106E+02  0.23964683316E+01 -0.28955576987E+01  0.14622647980E+02  0.51100000000E-03 0. -1.
        -11    1    3    3    0    0  0.13101247663E+02 -0.28524315779E+01 -0.14875913904E+01  0.13490440491E+02  0.51100000000E-03 0.  1.
         12    1    3    3    0    0  0.15981532905E+02 -0.21899262969E+01 -0.80528207849E+01  0.18029228873E+02  0.00000000000E+00 0. -1.
</event>
<event>
 7    1  0.1402367E-008  0.4614232E+02  0.7816164E-02  0.1320468E+00
        -11   -1    0    0    0    0  0.00000000000E+00  0.00000000000E+00  0.45593999997E+02  0.45594000000E+02  0.51100000000E-03 0.  1.
         11   -1    0    0    0    0 -0.00000000000E+00 -0.00000000000E+00 -0.45593999997E+02  0.45594000000E+02  0.51100000000E-03 0. -1.
    9900012    2    1    2    0    0 -0.52240374405E+00  0.10194349131E+02  0.43873863777E+02  0.46142316715E+02  0.99999904616E+01 0.  0.
         12    1    1    2    0    0  0.52240374405E+00 -0.10194349131E+02 -0.43873863777E+02  0.45045683285E+02  0.00000000000E+00 0. -1.
         11    1    3    3    0    0 -0.17060574607E+01 -0.70955655653E-01  0.14391768143E+02  0.14492710488E+02  0.51100000000E-03 0. -1.
        -11    1    3    3    0    0 -0.61541476862E+00  0.93327865921E+01  0.22176165048E+02  0.24067861089E+02  0.51100000000E-03 0.  1.
        -12    1    3    3    0    0  0.17990684852E+01  0.93251819417E+00  0.73059305870E+01  0.75817451381E+01  0.00000000000E+00 0.  1.
</event>
<event>
 7    1  0.1402367E-008  0.4614232E+02  0.7816164E-02  0.1320468E+00
        -11   -1    0    0    0    0  0.00000000000E+00  0.00000000000E+00  0.45593999997E+02  0.45594000000E+02  0.51100000000E-03 0. -1.
         11   -1    0    0    0    0 -0.00000000000E+00 -0.00000000000E+00 -0.45593999997E+02  0.45594000000E+02  0.51100000000E-03 0.  1.
    9900012    2    1    2    0    0  0.11740445381E+02  0.37162666756E+02  0.22587860745E+02  0.46142319727E+02  0.10000017928E+02 0.  0.
         12    1    1    2    0    0 -0.11740445381E+02 -0.37162666756E+02 -0.22587860745E+02  0.45045680273E+02  0.00000000000E+00 0. -1.
         11    1    3    3    0    0  0.79213588927E+01  0.25343926382E+02  0.19852901390E+02  0.33154188650E+02  0.51100000000E-03 0. -1.
        -11    1    3    3    0    0  0.40381487492E+01  0.10038586519E+02  0.18120337823E+01  0.10971022345E+02  0.51100000000E-03 0.  1.
         12    1    3    3    0    0 -0.21906226053E+00  0.17801538555E+01  0.92292557359E+00  0.20171087322E+01  0.00000000000E+00 0. -1.
</event>
<event>
 7    1  0.1402367E-008  0.4614232E+02  0.7816164E-02  0.1320468E+00
        -11   -1    0    0    0    0  0.00000000000E+00  0.00000000000E+00  0.45593999997E+02  0.45594000000E+02  0.51100000000E-03 0. -1.
         11   -1    0    0    0    0 -0.00000000000E+00 -0.00000000000E+00 -0.45593999997E+02  0.45594000000E+02  0.51100000000E-03 0.  1.
    9900012    2    1    2    0    0 -0.33002842034E+02  0.15149066584E+02 -0.26653927143E+02  0.46142316157E+02  0.99999853766E+01 0.  0.
         12    1    1    2    0    0  0.33002842034E+02 -0.15149066584E+02  0.26653927143E+02  0.45045683843E+02  0.00000000000E+00 0. -1.
         11    1    3    3    0    0 -0.11673906552E+01  0.45972838607E+00 -0.24015580589E+01  0.27095447038E+01  0.51100000000E-03 0. -1.
        -11    1    3    3    0    0 -0.28898377645E+02  0.10192574829E+02 -0.20155196074E+02  0.36677469123E+02  0.51100000000E-03 0.  1.
        -12    1    3    3    0    0 -0.29370737333E+01  0.44967633686E+01 -0.40971730103E+01  0.67553023310E+01  0.00000000000E+00 0.  1.
</event>
<event>
 7    1  0.1402367E-008  0.4614232E+02  0.7816164E-02  0.1320468E+00
        -11   -1    0    0    0    0  0.00000000000E+00  0.00000000000E+00  0.45593999997E+02  0.45594000000E+02  0.51100000000E-03 0.  1.
         11   -1    0    0    0    0 -0.00000000000E+00 -0.00000000000E+00 -0.45593999997E+02  0.45594000000E+02  0.51100000000E-03 0. -1.
    9900012    2    1    2    0    0 -0.26752568148E+02 -0.25958660355E+00  0.36240118332E+02  0.46142318027E+02  0.10000002421E+02 0.  0.
         12    1    1    2    0    0  0.26752568148E+02  0.25958660355E+00 -0.36240118332E+02  0.45045681973E+02  0.00000000000E+00 0. -1.
         11    1    3    3    0    0 -0.55052491061E+00  0.32807907552E+00  0.33977124036E+01  0.34576239523E+01  0.51100000000E-03 0. -1.
        -11    1    3    3    0    0 -0.75259114448E+01  0.30818732161E+01  0.11544482297E+02  0.14121344035E+02  0.51100000000E-03 0.  1.
        -12    1    3    3    0    0 -0.18676131793E+02 -0.36695388951E+01  0.21297923632E+02  0.28563350039E+02  0.00000000000E+00 0.  1.
</event>
<event>
 7    1  0.1402367E-008  0.4614232E+02  0.7816164E-02  0.1320468E+00
        -11   -1    0    0    0    0  0.00000000000E+00  0.00000000000E+00  0.45593999997E+02  0.45594000000E+02  0.51100000000E-03 0. -1.
         11   -1    0    0    0    0 -0.00000000000E+00 -0.00000000000E+00 -0.45593999997E+02  0.45594000000E+02  0.51100000000E-03 0.  1.
    9900012    2    1    2    0    0  0.17643769869E+02 -0.27996603714E+02 -0.30561430336E+02  0.46142318088E+02  0.10000002979E+02 0.  0.
         12    1    1    2    0    0 -0.17643769869E+02  0.27996603714E+02  0.30561430336E+02  0.45045681912E+02  0.00000000000E+00 0. -1.
         11    1    3    3    0    0  0.91359383483E+01 -0.83248586939E+01 -0.80712124136E+01  0.14761880363E+02  0.51100000000E-03 0. -1.
        -11    1    3    3    0    0  0.57999918718E+01 -0.10551840653E+02 -0.15220784357E+02  0.19407563566E+02  0.51100000000E-03 0.  1.
         12    1    3    3    0    0  0.27078396487E+01 -0.91199043673E+01 -0.72694335661E+01  0.11972874158E+02  0.00000000000E+00 0. -1.
</event>
<event>
 7    1  0.1402367E-008  0.4614232E+02  0.7816164E-02  0.1320468E+00
        -11   -1    0    0    0    0  0.00000000000E+00  0.00000000000E+00  0.45593999997E+02  0.45594000000E+02  0.51100000000E-03 0.  1.
         11   -1    0    0    0    0 -0.00000000000E+00 -0.00000000000E+00 -0.45593999997E+02  0.45594000000E+02  0.51100000000E-03 0. -1.
    9900012    2    1    2    0    0 -0.43365424295E+02  0.68230818682E+01  0.10099455449E+02  0.46142317956E+02  0.10000001778E+02 0.  0.
         12    1    1    2    0    0  0.43365424295E+02 -0.68230818682E+01 -0.10099455449E+02  0.45045682044E+02  0.00000000000E+00 0. -1.
         11    1    3    3    0    0 -0.10737300564E+02  0.39742288129E+01  0.19613280551E+01  0.11615977189E+02  0.51100000000E-03 0. -1.
        -11    1    3    3    0    0 -0.80372672868E+01  0.83887226809E+00 -0.11515658475E+01  0.81625655455E+01  0.51100000000E-03 0.  1.
         12    1    3    3    0    0 -0.24590856444E+02  0.20099807872E+01  0.92896932412E+01  0.26363775221E+02  0.00000000000E+00 0. -1.
</event>
<event>
 7    1  0.1402367E-008  0.4614232E+02  0.7816164E-02  0.1320468E+00
        -11   -1    0    0    0    0  0.00000000000E+00  0.00000000000E+00  0.45593999997E+02  0.45594000000E+02  0.51100000000E-03 0.  1.
         11   -1    0    0    0    0 -0.00000000000E+00 -0.00000000000E+00 -0.45593999997E+02  0.45594000000E+02  0.51100000000E-03 0. -1.
    9900012    2    1    2    0    0  0.29307418971E+02 -0.25220358433E+02  0.23111078760E+02  0.46142320433E+02  0.10000024367E+02 0.  0.
         12    1    1    2    0    0 -0.29307418971E+02  0.25220358433E+02 -0.23111078760E+02  0.45045679567E+02  0.00000000000E+00 0. -1.
         11    1    3    3    0    0  0.27420726148E+01  0.41328368919E+00  0.12930089551E+01  0.30596794034E+01  0.51100000000E-03 0. -1.
        -11    1    3    3    0    0  0.19804101331E+02 -0.16451117641E+02  0.15232093459E+02  0.29914183468E+02  0.51100000000E-03 0.  1.
        -12    1    3    3    0    0  0.67612450248E+01 -0.91825244810E+01  0.65859763456E+01  0.13168457562E+02  0.00000000000E+00 0.  1.
</event>
<event>
 7    1  0.1402367E-008  0.4614232E+02  0.7816164E-02  0.1320468E+00
        -11   -1    0    0    0    0  0.00000000000E+00  0.00000000000E+00  0.45593999997E+02  0.45594000000E+02  0.51100000000E-03 0.  1.
         11   -1    0    0    0    0 -0.00000000000E+00 -0.00000000000E+00 -0.45593999997E+02  0.45594000000E+02  0.51100000000E-03 0. -1.
    9900012    2    1    2    0    0  0.11593291103E+02 -0.26674308422E+02  0.34397534617E+02  0.46142317453E+02  0.99999971909E+01 0.  0.
         12    1    1    2    0    0 -0.11593291103E+02  0.26674308422E+02 -0.34397534617E+02  0.45045682547E+02  0.00000000000E+00 0. -1.
         11    1    3    3    0    0  0.39679400635E+01 -0.86732918868E+01  0.17889125573E+02  0.20272921707E+02  0.51100000000E-03 0. -1.
        -11    1    3    3    0    0  0.44442804718E+01 -0.14243243940E+02  0.11422744485E+02  0.18790974394E+02  0.51100000000E-03 0.  1.
         12    1    3    3    0    0  0.31810705679E+01 -0.37577725955E+01  0.50856645593E+01  0.70784213528E+01  0.00000000000E+00 0. -1.
</event>
<event>
 7    1  0.1402367E-008  0.4614232E+02  0.7816164E-02  0.1320468E+00
        -11   -1    0    0    0    0  0.00000000000E+00  0.00000000000E+00  0.45593999997E+02  0.45594000000E+02  0.51100000000E-03 0. -1.
         11   -1    0    0    0    0 -0.00000000000E+00 -0.00000000000E+00 -0.45593999997E+02  0.45594000000E+02  0.51100000000E-03 0.  1.
    9900012    2    1    2    0    0 -0.11598816423E+02 -0.75257470745E+01 -0.42871251558E+02  0.46142316282E+02  0.99999865144E+01 0.  0.
         12    1    1    2    0    0  0.11598816423E+02  0.75257470745E+01  0.42871251558E+02  0.45045683718E+02  0.00000000000E+00 0. -1.
         11    1    3    3    0    0 -0.24110349950E+01 -0.14241627127E+01 -0.16523467053E+02  0.16759065991E+02  0.51100000000E-03 0. -1.
        -11    1    3    3    0    0 -0.81531175382E+01 -0.60793034037E+01 -0.26455280171E+02  0.28342778704E+02  0.51100000000E-03 0.  1.
        -12    1    3    3    0    0 -0.10346638894E+01 -0.22280958064E-01  0.10749566615E+00  0.10404715870E+01  0.00000000000E+00 0.  1.
</event>
<event>
 7    1  0.1402367E-008  0.4614232E+02  0.7816164E-02  0.1320468E+00
        -11   -1    0    0    0    0  0.00000000000E+00  0.00000000000E+00  0.45593999997E+02  0.45594000000E+02  0.51100000000E-03 0.  1.
         11   -1    0    0    0    0 -0.00000000000E+00 -0.00000000000E+00 -0.45593999997E+02  0.45594000000E+02  0.51100000000E-03 0. -1.
    9900012    2    1    2    0    0 -0.37464141385E+02 -0.12851876492E+02  0.21456487210E+02  0.46142318048E+02  0.10000002617E+02 0.  0.
         12    1    1    2    0    0  0.37464141385E+02  0.12851876492E+02 -0.21456487210E+02  0.45045681952E+02  0.00000000000E+00 0. -1.
         11    1    3    3    0    0 -0.17672813816E+02 -0.74738898131E+01  0.15753972542E+02  0.24826901301E+02  0.51100000000E-03 0. -1.
        -11    1    3    3    0    0 -0.14379075827E+02 -0.40435200023E+01  0.46384135327E+01  0.15640420583E+02  0.51100000000E-03 0.  1.
         12    1    3    3    0    0 -0.54122517426E+01 -0.13344666762E+01  0.10641011355E+01  0.56749961640E+01  0.00000000000E+00 0. -1.
</event>
<event>
 7    1  0.1402367E-008  0.4614232E+02  0.7816164E-02  0.1320468E+00
        -11   -1    0    0    0    0  0.00000000000E+00  0.00000000000E+00  0.45593999997E+02  0.45594000000E+02  0.51100000000E-03 0.  1.
         11   -1    0    0    0    0 -0.00000000000E+00 -0.00000000000E+00 -0.45593999997E+02  0.45594000000E+02  0.51100000000E-03 0. -1.
    9900012    2    1    2    0    0  0.65118907162E+01 -0.41294591258E+02  0.16776933346E+02  0.46142317850E+02  0.10000000813E+02 0.  0.
         12    1    1    2    0    0 -0.65118907162E+01  0.41294591258E+02 -0.16776933346E+02  0.45045682150E+02  0.00000000000E+00 0. -1.
         11    1    3    3    0    0  0.25277701887E+00 -0.66315364544E+00  0.17347151096E+01  0.18742747268E+01  0.51100000000E-03 0. -1.
        -11    1    3    3    0    0  0.36480645241E+01 -0.18855918141E+02  0.10436837485E+02  0.21858215862E+02  0.51100000000E-03 0.  1.
         12    1    3    3    0    0  0.26110491733E+01 -0.21775519471E+02  0.46053807508E+01  0.22409827262E+02  0.00000000000E+00 0. -1.
</event>
<event>
 7    1  0.1402367E-008  0.4614232E+02  0.7816164E-02  0.1320468E+00
        -11   -1    0    0    0    0  0.00000000000E+00  0.00000000000E+00  0.45593999997E+02  0.45594000000E+02  0.51100000000E-03 0. -1.
         11   -1    0    0    0    0 -0.00000000000E+00 -0.00000000000E+00 -0.45593999997E+02  0.45594000000E+02  0.51100000000E-03 0.  1.
    9900012    2    1    2    0    0 -0.41291146278E+02  0.12991465032E+02 -0.12465014016E+02  0.46142317643E+02  0.99999989199E+01 0.  0.
         12    1    1    2    0    0  0.41291146278E+02 -0.12991465032E+02  0.12465014016E+02  0.45045682357E+02  0.00000000000E+00 0. -1.
         11    1    3    3    0    0 -0.11540172279E+02  0.12596595136E+01 -0.20819267446E+00  0.11610584084E+02  0.51100000000E-03 0. -1.
        -11    1    3    3    0    0 -0.19548235104E+02  0.96882633957E+01 -0.73017144524E+01  0.23006759387E+02  0.51100000000E-03 0.  1.
        -12    1    3    3    0    0 -0.10202738895E+02  0.20435421231E+01 -0.49551068895E+01  0.11524974171E+02  0.00000000000E+00 0.  1.
</event>
<event>
 7    1  0.1402367E-008  0.4614232E+02  0.7816164E-02  0.1320468E+00
        -11   -1    0    0    0    0  0.00000000000E+00  0.00000000000E+00  0.45593999997E+02  0.45594000000E+02  0.51100000000E-03 0.  1.
         11   -1    0    0    0    0 -0.00000000000E+00 -0.00000000000E+00 -0.45593999997E+02  0.45594000000E+02  0.51100000000E-03 0. -1.
    9900012    2    1    2    0    0 -0.39621763298E+02 -0.70356669145E+01  0.20241759089E+02  0.46142317113E+02  0.99999940875E+01 0.  0.
         12    1    1    2    0    0  0.39621763298E+02  0.70356669145E+01 -0.20241759089E+02  0.45045682887E+02  0.00000000000E+00 0. -1.
         11    1    3    3    0    0 -0.33800085195E+02 -0.52342345578E+01  0.19863965530E+02  0.39552750820E+02  0.51100000000E-03 0.  1.
        -11    1    3    3    0    0 -0.15342740915E+01 -0.16991300908E+01  0.17956282158E+00  0.22963630204E+01  0.51100000000E-03 0. -1.
        -12    1    3    3    0    0 -0.42874040118E+01 -0.10230226590E+00  0.19823073716E+00  0.42932032725E+01  0.00000000000E+00 0.  1.
</event>
<event>
 7    1  0.1402367E-008  0.4614232E+02  0.7816164E-02  0.1320468E+00
        -11   -1    0    0    0    0  0.00000000000E+00  0.00000000000E+00  0.45593999997E+02  0.45594000000E+02  0.51100000000E-03 0.  1.
         11   -1    0    0    0    0 -0.00000000000E+00 -0.00000000000E+00 -0.45593999997E+02  0.45594000000E+02  0.51100000000E-03 0. -1.
    9900012    2    1    2    0    0 -0.15954941147E+02  0.26707429606E+02  0.32577087072E+02  0.46142317130E+02  0.99999942426E+01 0.  0.
         12    1    1    2    0    0  0.15954941147E+02 -0.26707429606E+02 -0.32577087072E+02  0.45045682870E+02  0.00000000000E+00 0. -1.
         11    1    3    3    0    0 -0.93049718864E+01  0.14238573413E+02  0.14194458540E+02  0.22154054441E+02  0.51100000000E-03 0. -1.
        -11    1    3    3    0    0 -0.74106549817E+01  0.99332231187E+01  0.12836436525E+02  0.17842668850E+02  0.51100000000E-03 0.  1.
         12    1    3    3    0    0  0.76068572110E+00  0.25356330736E+01  0.55461920072E+01  0.61455938388E+01  0.00000000000E+00 0. -1.
</event>
<event>
 7    1  0.1402367E-008  0.4614232E+02  0.7816164E-02  0.1320468E+00
        -11   -1    0    0    0    0  0.00000000000E+00  0.00000000000E+00  0.45593999997E+02  0.45594000000E+02  0.51100000000E-03 0.  1.
         11   -1    0    0    0    0 -0.00000000000E+00 -0.00000000000E+00 -0.45593999997E+02  0.45594000000E+02  0.51100000000E-03 0. -1.
    9900012    2    1    2    0    0  0.16222974382E+02 -0.38564767231E+02 -0.16693931795E+02  0.46142317319E+02  0.99999959695E+01 0.  0.
         12    1    1    2    0    0 -0.16222974382E+02  0.38564767231E+02  0.16693931795E+02  0.45045682681E+02  0.00000000000E+00 0. -1.
         11    1    3    3    0    0  0.42657467779E+01 -0.55826634608E+01 -0.20404854454E+01  0.73161675762E+01  0.51100000000E-03 0. -1.
        -11    1    3    3    0    0  0.39464612670E+01 -0.81074159495E+01 -0.75095833605E+01  0.11734504353E+02  0.51100000000E-03 0.  1.
        -12    1    3    3    0    0  0.80107663371E+01 -0.24874687821E+02 -0.71438629895E+01  0.27091645389E+02  0.00000000000E+00 0.  1.
</event>
<event>
 7    1  0.1402367E-008  0.4614232E+02  0.7816164E-02  0.1320468E+00
        -11   -1    0    0    0    0  0.00000000000E+00  0.00000000000E+00  0.45593999997E+02  0.45594000000E+02  0.51100000000E-03 0.  1.
         11   -1    0    0    0    0 -0.00000000000E+00 -0.00000000000E+00 -0.45593999997E+02  0.45594000000E+02  0.51100000000E-03 0. -1.
    9900012    2    1    2    0    0 -0.17982284875E+02 -0.34165947704E+02 -0.23204288179E+02  0.46142317168E+02  0.99999945949E+01 0.  0.
         12    1    1    2    0    0  0.17982284875E+02  0.34165947704E+02  0.23204288179E+02  0.45045682832E+02  0.00000000000E+00 0. -1.
         11    1    3    3    0    0  0.56290716319E+00 -0.30365171148E+00 -0.70239353701E+00  0.94996093510E+00  0.51100000000E-03 0. -1.
        -11    1    3    3    0    0 -0.10803416751E+02 -0.25283859836E+02 -0.14057783889E+02  0.30880554882E+02  0.51100000000E-03 0.  1.
        -12    1    3    3    0    0 -0.77417752875E+01 -0.85784361565E+01 -0.84441107533E+01  0.14311801351E+02  0.00000000000E+00 0.  1.
</event>
<event>
 7    1  0.1402367E-008  0.4614232E+02  0.7816164E-02  0.1320468E+00
        -11   -1    0    0    0    0  0.00000000000E+00  0.00000000000E+00  0.45593999997E+02  0.45594000000E+02  0.51100000000E-03 0. -1.
         11   -1    0    0    0    0 -0.00000000000E+00 -0.00000000000E+00 -0.45593999997E+02  0.45594000000E+02  0.51100000000E-03 0.  1.
    9900012    2    1    2    0    0 -0.29454195078E+02 -0.19154659153E+02 -0.28189767813E+02  0.46142316696E+02  0.99999902904E+01 0.  0.
         12    1    1    2    0    0  0.29454195078E+02  0.19154659153E+02  0.28189767813E+02  0.45045683304E+02  0.00000000000E+00 0. -1.
         11    1    3    3    0    0 -0.19740691833E+02 -0.13242080543E+02 -0.12999649620E+02  0.27093144920E+02  0.51100000000E-03 0. -1.
        -11    1    3    3    0    0 -0.89944558176E+01 -0.59285239156E+01 -0.14342623063E+02  0.17937627153E+02  0.51100000000E-03 0.  1.
         12    1    3    3    0    0 -0.71904742688E+00  0.15945305760E-01 -0.84749512957E+00  0.11115446233E+01  0.00000000000E+00 0. -1.
</event>
<event>
 7    1  0.1402367E-008  0.4614232E+02  0.7816164E-02  0.1320468E+00
        -11   -1    0    0    0    0  0.00000000000E+00  0.00000000000E+00  0.45593999997E+02  0.45594000000E+02  0.51100000000E-03 0. -1.
         11   -1    0    0    0    0 -0.00000000000E+00 -0.00000000000E+00 -0.45593999997E+02  0.45594000000E+02  0.51100000000E-03 0.  1.
    9900012    2    1    2    0    0 -0.35088694278E+02 -0.27001869970E+02 -0.82943393388E+01  0.46142317487E+02  0.99999975019E+01 0.  0.
         12    1    1    2    0    0  0.35088694278E+02  0.27001869970E+02  0.82943393388E+01  0.45045682513E+02  0.00000000000E+00 0. -1.
         11    1    3    3    0    0 -0.22780913892E+02 -0.17045862200E+02 -0.44257582588E+01  0.28794422938E+02  0.51100000000E-03 0. -1.
        -11    1    3    3    0    0 -0.93402799002E+01 -0.58587171596E+01 -0.50894405866E+01  0.12143632122E+02  0.51100000000E-03 0.  1.
        -12    1    3    3    0    0 -0.29675004853E+01 -0.40972906104E+01  0.12208595066E+01  0.52042624272E+01  0.00000000000E+00 0.  1.
</event>
<event>
 7    1  0.1402367E-008  0.4614232E+02  0.7816164E-02  0.1320468E+00
        -11   -1    0    0    0    0  0.00000000000E+00  0.00000000000E+00  0.45593999997E+02  0.45594000000E+02  0.51100000000E-03 0. -1.
         11   -1    0    0    0    0 -0.00000000000E+00 -0.00000000000E+00 -0.45593999997E+02  0.45594000000E+02  0.51100000000E-03 0.  1.
    9900012    2    1    2    0    0  0.14692304890E+02 -0.28014490846E+02 -0.32069268461E+02  0.46142317633E+02  0.99999988280E+01 0.  0.
         12    1    1    2    0    0 -0.14692304890E+02  0.28014490846E+02  0.32069268461E+02  0.45045682367E+02  0.00000000000E+00 0. -1.
         11    1    3    3    0    0  0.23737990967E+01 -0.10778626670E+02 -0.15108874179E+02  0.18710740077E+02  0.51100000000E-03 0. -1.
        -11    1    3    3    0    0  0.83686640644E+01 -0.94679021033E+01 -0.81331505671E+01  0.15027436470E+02  0.51100000000E-03 0.  1.
        -12    1    3    3    0    0  0.39498417286E+01 -0.77679620730E+01 -0.88272437151E+01  0.12404141085E+02  0.00000000000E+00 0.  1.
</event>
<event>
 7    1  0.1402367E-008  0.4614232E+02  0.7816164E-02  0.1320468E+00
        -11   -1    0    0    0    0  0.00000000000E+00  0.00000000000E+00  0.45593999997E+02  0.45594000000E+02  0.51100000000E-03 0.  1.
         11   -1    0    0    0    0 -0.00000000000E+00 -0.00000000000E+00 -0.45593999997E+02  0.45594000000E+02  0.51100000000E-03 0. -1.
    9900012    2    1    2    0    0 -0.22609617274E+02  0.38928159556E+02 -0.15865651723E+01  0.46142316647E+02  0.99999898415E+01 0.  0.
         12    1    1    2    0    0  0.22609617274E+02 -0.38928159556E+02  0.15865651723E+01  0.45045683353E+02  0.00000000000E+00 0. -1.
         11    1    3    3    0    0 -0.88615292838E+01  0.13623219988E+02 -0.29471702644E+01  0.16516798628E+02  0.51100000000E-03 0. -1.
        -11    1    3    3    0    0 -0.12523704819E+02  0.23207367604E+02 -0.78812102874E+00  0.26382688046E+02  0.51100000000E-03 0.  1.
         12    1    3    3    0    0 -0.12243831713E+01  0.20975719634E+01  0.21487261208E+01  0.32428299730E+01  0.00000000000E+00 0. -1.
</event>
<event>
 7    1  0.1402367E-008  0.4614232E+02  0.7816164E-02  0.1320468E+00
        -11   -1    0    0    0    0  0.00000000000E+00  0.00000000000E+00  0.45593999997E+02  0.45594000000E+02  0.51100000000E-03 0.  1.
         11   -1    0    0    0    0 -0.00000000000E+00 -0.00000000000E+00 -0.45593999997E+02  0.45594000000E+02  0.51100000000E-03 0. -1.
    9900012    2    1    2    0    0 -0.12026015849E+02  0.39267783667E+02  0.18507557412E+02  0.46142316825E+02  0.99999914668E+01 0.  0.
         12    1    1    2    0    0  0.12026015849E+02 -0.39267783667E+02 -0.18507557412E+02  0.45045683175E+02  0.00000000000E+00 0. -1.
         11    1    3    3    0    0 -0.78616121008E+00  0.49671485287E+00  0.78285205623E-01  0.93322233569E+00  0.51100000000E-03 0. -1.
        -11    1    3    3    0    0 -0.11241208645E+02  0.38078142591E+02  0.19259644266E+02  0.44127583352E+02  0.51100000000E-03 0.  1.
        -12    1    3    3    0    0  0.13540062994E-02  0.69292622358E+00 -0.83037205940E+00  0.10815111380E+01  0.00000000000E+00 0.  1.
</event>
<event>
 7    1  0.1402367E-008  0.4614232E+02  0.7816164E-02  0.1320468E+00
        -11   -1    0    0    0    0  0.00000000000E+00  0.00000000000E+00  0.45593999997E+02  0.45594000000E+02  0.51100000000E-03 0. -1.
         11   -1    0    0    0    0 -0.00000000000E+00 -0.00000000000E+00 -0.45593999997E+02  0.45594000000E+02  0.51100000000E-03 0.  1.
    9900012    2    1    2    0    0 -0.61678473949E+01 -0.44478556945E+02  0.35677876667E+01  0.46142317874E+02  0.10000001029E+02 0.  0.
         12    1    1    2    0    0  0.61678473949E+01  0.44478556945E+02 -0.35677876667E+01  0.45045682126E+02  0.00000000000E+00 0. -1.
         11    1    3    3    0    0 -0.21343040369E+01 -0.49660433257E+01 -0.16451744604E+01  0.56500831234E+01  0.51100000000E-03 0. -1.
        -11    1    3    3    0    0 -0.27032829737E+01 -0.25369234730E+02  0.61897971790E+01  0.26252988383E+02  0.51100000000E-03 0.  1.
        -12    1    3    3    0    0 -0.13302603842E+01 -0.14143278889E+02 -0.97683505194E+00  0.14239246368E+02  0.00000000000E+00 0.  1.
</event>
<event>
 7    1  0.1402367E-008  0.4614232E+02  0.7816164E-02  0.1320468E+00
        -11   -1    0    0    0    0  0.00000000000E+00  0.00000000000E+00  0.45593999997E+02  0.45594000000E+02  0.51100000000E-03 0.  1.
         11   -1    0    0    0    0 -0.00000000000E+00 -0.00000000000E+00 -0.45593999997E+02  0.45594000000E+02  0.51100000000E-03 0. -1.
    9900012    2    1    2    0    0  0.23760047317E+01  0.43935847842E+01  0.44767896360E+02  0.46142317297E+02  0.99999957640E+01 0.  0.
         12    1    1    2    0    0 -0.23760047317E+01 -0.43935847842E+01 -0.44767896360E+02  0.45045682703E+02  0.00000000000E+00 0. -1.
         11    1    3    3    0    0 -0.29066495536E+00 -0.12741646105E+01  0.80686846823E+00  0.15359096839E+01  0.51100000000E-03 0. -1.
        -11    1    3    3    0    0  0.55142191742E+00  0.44134495157E+01  0.18511264032E+02  0.19038106499E+02  0.51100000000E-03 0.  1.
         12    1    3    3    0    0  0.21152477697E+01  0.12542998790E+01  0.25449763860E+02  0.25568301114E+02  0.00000000000E+00 0. -1.
</event>
<event>
 7    1  0.1402367E-008  0.4614232E+02  0.7816164E-02  0.1320468E+00
        -11   -1    0    0    0    0  0.00000000000E+00  0.00000000000E+00  0.45593999997E+02  0.45594000000E+02  0.51100000000E-03 0.  1.
         11   -1    0    0    0    0 -0.00000000000E+00 -0.00000000000E+00 -0.45593999997E+02  0.45594000000E+02  0.51100000000E-03 0. -1.
    9900012    2    1    2    0    0 -0.14163189485E+02 -0.19871104853E+02  0.37863659429E+02  0.46142318189E+02  0.10000003903E+02 0.  0.
         12    1    1    2    0    0  0.14163189485E+02  0.19871104853E+02 -0.37863659429E+02  0.45045681811E+02  0.00000000000E+00 0. -1.
         11    1    3    3    0    0 -0.14721512331E+00  0.54680903710E-01 -0.88997435257E-01  0.18050789004E+00  0.51100000000E-03 0. -1.
        -11    1    3    3    0    0 -0.17846986109E+01 -0.98497844118E+01  0.13102143251E+02  0.16488467488E+02  0.51100000000E-03 0.  1.
        -12    1    3    3    0    0 -0.12231275751E+02 -0.10076001345E+02  0.24850513613E+02  0.29473342811E+02  0.00000000000E+00 0.  1.
</event>
<event>
 7    1  0.1402367E-008  0.4614232E+02  0.7816164E-02  0.1320468E+00
        -11   -1    0    0    0    0  0.00000000000E+00  0.00000000000E+00  0.45593999997E+02  0.45594000000E+02  0.51100000000E-03 0.  1.
         11   -1    0    0    0    0 -0.00000000000E+00 -0.00000000000E+00 -0.45593999997E+02  0.45594000000E+02  0.51100000000E-03 0. -1.
    9900012    2    1    2    0    0 -0.37823900651E+02 -0.30031247908E+01  0.24278533122E+02  0.46142318858E+02  0.10000010002E+02 0.  0.
         12    1    1    2    0    0  0.37823900651E+02  0.30031247908E+01 -0.24278533122E+02  0.45045681142E+02  0.00000000000E+00 0. -1.
         11    1    3    3    0    0 -0.22059365720E+02 -0.21313940415E+01  0.14688401088E+02  0.26587733700E+02  0.51100000000E-03 0. -1.
        -11    1    3    3    0    0 -0.14855514043E+02 -0.21225245585E+01  0.70478339854E+01  0.16579003955E+02  0.51100000000E-03 0.  1.
         12    1    3    3    0    0 -0.90902088842E+00  0.12507938091E+01  0.25422980488E+01  0.29755812033E+01  0.00000000000E+00 0. -1.
</event>
<event>
 7    1  0.1402367E-008  0.4614232E+02  0.7816164E-02  0.1320468E+00
        -11   -1    0    0    0    0  0.00000000000E+00  0.00000000000E+00  0.45593999997E+02  0.45594000000E+02  0.51100000000E-03 0.  1.
         11   -1    0    0    0    0 -0.00000000000E+00 -0.00000000000E+00 -0.45593999997E+02  0.45594000000E+02  0.51100000000E-03 0. -1.
    9900012    2    1    2    0    0 -0.51529360309E+01  0.18405516201E+02  0.40789676621E+02  0.46142317685E+02  0.99999993066E+01 0.  0.
         12    1    1    2    0    0  0.51529360309E+01 -0.18405516201E+02 -0.40789676621E+02  0.45045682315E+02  0.00000000000E+00 0. -1.
         11    1    3    3    0    0 -0.58752117958E+01  0.65694384907E+01  0.15308016661E+02  0.17663833392E+02  0.51100000000E-03 0. -1.
        -11    1    3    3    0    0  0.18007392350E+01  0.91233867251E+01  0.15470109899E+02  0.18050017941E+02  0.51100000000E-03 0.  1.
        -12    1    3    3    0    0 -0.10784634702E+01  0.27126909852E+01  0.10011550061E+02  0.10428466352E+02  0.00000000000E+00 0.  1.
</event>
<event>
 7    1  0.1402367E-008  0.4614232E+02  0.7816164E-02  0.1320468E+00
        -11   -1    0    0    0    0  0.00000000000E+00  0.00000000000E+00  0.45593999997E+02  0.45594000000E+02  0.51100000000E-03 0. -1.
         11   -1    0    0    0    0 -0.00000000000E+00 -0.00000000000E+00 -0.45593999997E+02  0.45594000000E+02  0.51100000000E-03 0.  1.
    9900012    2    1    2    0    0  0.19340495570E+02  0.39582719793E+02 -0.93950524630E+01  0.46142317788E+02  0.10000000249E+02 0.  0.
         12    1    1    2    0    0 -0.19340495570E+02 -0.39582719793E+02  0.93950524630E+01  0.45045682212E+02  0.00000000000E+00 0. -1.
         11    1    3    3    0    0  0.50744685849E+01  0.13113668105E+02 -0.59144269381E+01  0.15254473733E+02  0.51100000000E-03 0. -1.
        -11    1    3    3    0    0  0.32867567882E+01  0.40218914563E+01 -0.27763767306E+01  0.58895372554E+01  0.51100000000E-03 0.  1.
        -12    1    3    3    0    0  0.10979270197E+02  0.22447160232E+02 -0.70424879435E+00  0.24998306801E+02  0.00000000000E+00 0.  1.
</event>
<event>
 7    1  0.1402367E-008  0.4614232E+02  0.7816164E-02  0.1320468E+00
        -11   -1    0    0    0    0  0.00000000000E+00  0.00000000000E+00  0.45593999997E+02  0.45594000000E+02  0.51100000000E-03 0. -1.
         11   -1    0    0    0    0 -0.00000000000E+00 -0.00000000000E+00 -0.45593999997E+02  0.45594000000E+02  0.51100000000E-03 0.  1.
    9900012    2    1    2    0    0 -0.39771422035E+02 -0.16711254386E+02 -0.12964615801E+02  0.46142319888E+02  0.10000019397E+02 0.  0.
         12    1    1    2    0    0  0.39771422035E+02  0.16711254386E+02  0.12964615801E+02  0.45045680112E+02  0.00000000000E+00 0. -1.
         11    1    3    3    0    0 -0.66898521217E+01 -0.57078466827E+01 -0.58322375692E+00  0.88132732498E+01  0.51100000000E-03 0. -1.
        -11    1    3    3    0    0 -0.24578208652E+02 -0.77082462265E+01 -0.11360599498E+02  0.28152595292E+02  0.51100000000E-03 0.  1.
        -12    1    3    3    0    0 -0.85033612612E+01 -0.32951614770E+01 -0.10207925461E+01  0.91764513468E+01  0.00000000000E+00 0.  1.
</event>
<event>
 7    1  0.1402367E-008  0.4614232E+02  0.7816164E-02  0.1320468E+00
        -11   -1    0    0    0    0  0.00000000000E+00  0.00000000000E+00  0.45593999997E+02  0.45594000000E+02  0.51100000000E-03 0. -1.
         11   -1    0    0    0    0 -0.00000000000E+00 -0.00000000000E+00 -0.45593999997E+02  0.45594000000E+02  0.51100000000E-03 0.  1.
    9900012    2    1    2    0    0  0.23793098833E+02  0.56110695892E+01 -0.37835405223E+02  0.46142317162E+02  0.99999945348E+01 0.  0.
         12    1    1    2    0    0 -0.23793098833E+02 -0.56110695892E+01  0.37835405223E+02  0.45045682838E+02  0.00000000000E+00 0. -1.
         11    1    3    3    0    0  0.64511900001E+01 -0.25763006662E+01 -0.95301144602E+01  0.11793144594E+02  0.51100000000E-03 0. -1.
        -11    1    3    3    0    0  0.11801997415E+01 -0.23802977386E+00 -0.13326772475E+01  0.17959839950E+01  0.51100000000E-03 0.  1.
         12    1    3    3    0    0  0.16161709091E+02  0.84254000292E+01 -0.26972613515E+02  0.32553188572E+02  0.00000000000E+00 0. -1.
</event>
<event>
 7    1  0.1402367E-008  0.4614232E+02  0.7816164E-02  0.1320468E+00
        -11   -1    0    0    0    0  0.00000000000E+00  0.00000000000E+00  0.45593999997E+02  0.45594000000E+02  0.51100000000E-03 0.  1.
         11   -1    0    0    0    0 -0.00000000000E+00 -0.00000000000E+00 -0.45593999997E+02  0.45594000000E+02  0.51100000000E-03 0. -1.
    9900012    2    1    2    0    0 -0.12879936056E+02 -0.42613943414E+02  0.68755028700E+01  0.46142318011E+02  0.10000002279E+02 0.  0.
         12    1    1    2    0    0  0.12879936056E+02  0.42613943414E+02 -0.68755028700E+01  0.45045681989E+02  0.00000000000E+00 0. -1.
         11    1    3    3    0    0 -0.48019562445E+01 -0.81936527258E+01  0.15833949133E+01  0.96281809538E+01  0.51100000000E-03 0. -1.
        -11    1    3    3    0    0 -0.68219243773E+01 -0.34170974554E+02  0.50207686990E+01  0.35205145544E+02  0.51100000000E-03 0.  1.
        -12    1    3    3    0    0 -0.12560554343E+01 -0.24931613454E+00  0.27133925766E+00  0.13089915132E+01  0.00000000000E+00 0.  1.
</event>
<event>
 7    1  0.1402367E-008  0.4614232E+02  0.7816164E-02  0.1320468E+00
        -11   -1    0    0    0    0  0.00000000000E+00  0.00000000000E+00  0.45593999997E+02  0.45594000000E+02  0.51100000000E-03 0. -1.
         11   -1    0    0    0    0 -0.00000000000E+00 -0.00000000000E+00 -0.45593999997E+02  0.45594000000E+02  0.51100000000E-03 0.  1.
    9900012    2    1    2    0    0 -0.14358550281E+02 -0.42622244049E+02  0.25078728763E+01  0.46142322290E+02  0.10000041302E+02 0.  0.
         12    1    1    2    0    0  0.14358550281E+02  0.42622244049E+02 -0.25078728763E+01  0.45045677710E+02  0.00000000000E+00 0. -1.
         11    1    3    3    0    0 -0.75774759077E+01 -0.17459742834E+02  0.14083200306E+01  0.19085180809E+02  0.51100000000E-03 0. -1.
        -11    1    3    3    0    0 -0.62786664541E+01 -0.12165671744E+02 -0.15681251494E+01  0.13779848989E+02  0.51100000000E-03 0.  1.
         12    1    3    3    0    0 -0.50240791884E+00 -0.12996829472E+02  0.26676779951E+01  0.13277292492E+02  0.00000000000E+00 0. -1.
</event>
<event>
 7    1  0.1402367E-008  0.4614232E+02  0.7816164E-02  0.1320468E+00
        -11   -1    0    0    0    0  0.00000000000E+00  0.00000000000E+00  0.45593999997E+02  0.45594000000E+02  0.51100000000E-03 0.  1.
         11   -1    0    0    0    0 -0.00000000000E+00 -0.00000000000E+00 -0.45593999997E+02  0.45594000000E+02  0.51100000000E-03 0. -1.
    9900012    2    1    2    0    0 -0.27343849128E+02  0.29131367808E+02  0.20803621026E+02  0.46142319594E+02  0.10000016713E+02 0.  0.
         12    1    1    2    0    0  0.27343849128E+02 -0.29131367808E+02 -0.20803621026E+02  0.45045680406E+02  0.00000000000E+00 0. -1.
         11    1    3    3    0    0 -0.15291514477E+02  0.20815256413E+02  0.16597027068E+02  0.30701247895E+02  0.51100000000E-03 0. -1.
        -11    1    3    3    0    0 -0.22808708317E+01  0.48121176498E+00  0.58646025105E+00  0.24037205330E+01  0.51100000000E-03 0.  1.
         12    1    3    3    0    0 -0.97714638189E+01  0.78348996300E+01  0.36201337069E+01  0.13037351166E+02  0.00000000000E+00 0. -1.
</event>
<event>
 7    1  0.1402367E-008  0.4614232E+02  0.7816164E-02  0.1320468E+00
        -11   -1    0    0    0    0  0.00000000000E+00  0.00000000000E+00  0.45593999997E+02  0.45594000000E+02  0.51100000000E-03 0. -1.
         11   -1    0    0    0    0 -0.00000000000E+00 -0.00000000000E+00 -0.45593999997E+02  0.45594000000E+02  0.51100000000E-03 0.  1.
    9900012    2    1    2    0    0 -0.16860771092E+02  0.40007969860E+02 -0.12007913282E+02  0.46142320567E+02  0.10000025590E+02 0.  0.
         12    1    1    2    0    0  0.16860771092E+02 -0.40007969860E+02  0.12007913282E+02  0.45045679433E+02  0.00000000000E+00 0. -1.
         11    1    3    3    0    0 -0.92232354747E+01  0.26709706618E+02 -0.98302895586E+01  0.29918407266E+02  0.51100000000E-03 0. -1.
        -11    1    3    3    0    0 -0.37888307765E+01  0.43209888960E+01  0.12338373582E+01  0.58778004882E+01  0.51100000000E-03 0.  1.
        -12    1    3    3    0    0 -0.38487048412E+01  0.89772743457E+01 -0.34114610816E+01  0.10346112813E+02  0.00000000000E+00 0.  1.
</event>
<event>
 7    1  0.1402367E-008  0.4614232E+02  0.7816164E-02  0.1320468E+00
        -11   -1    0    0    0    0  0.00000000000E+00  0.00000000000E+00  0.45593999997E+02  0.45594000000E+02  0.51100000000E-03 0. -1.
         11   -1    0    0    0    0 -0.00000000000E+00 -0.00000000000E+00 -0.45593999997E+02  0.45594000000E+02  0.51100000000E-03 0.  1.
    9900012    2    1    2    0    0 -0.42569019484E+02  0.99528274888E-01 -0.14730322086E+02  0.46142315251E+02  0.99999771097E+01 0.  0.
         12    1    1    2    0    0  0.42569019484E+02 -0.99528274888E-01  0.14730322086E+02  0.45045684749E+02  0.00000000000E+00 0. -1.
         11    1    3    3    0    0 -0.93393655436E+01 -0.37897412660E+01 -0.41372522112E+01  0.10895078877E+02  0.51100000000E-03 0. -1.
        -11    1    3    3    0    0 -0.87683698933E+01  0.12735065566E+01 -0.43297830163E+01  0.98617012105E+01  0.51100000000E-03 0.  1.
         12    1    3    3    0    0 -0.24461284048E+02  0.26157629843E+01 -0.62632868590E+01  0.25385535163E+02  0.00000000000E+00 0. -1.
</event>
<event>
 7    1  0.1402367E-008  0.4614232E+02  0.7816164E-02  0.1320468E+00
        -11   -1    0    0    0    0  0.00000000000E+00  0.00000000000E+00  0.45593999997E+02  0.45594000000E+02  0.51100000000E-03 0.  1.
         11   -1    0    0    0    0 -0.00000000000E+00 -0.00000000000E+00 -0.45593999997E+02  0.45594000000E+02  0.51100000000E-03 0. -1.
    9900012    2    1    2    0    0 -0.20585462696E+02 -0.10092447849E+02  0.38774925567E+02  0.46142316181E+02  0.99999855920E+01 0.  0.
         12    1    1    2    0    0  0.20585462696E+02  0.10092447849E+02 -0.38774925567E+02  0.45045683819E+02  0.00000000000E+00 0. -1.
         11    1    3    3    0    0 -0.13293161614E+02 -0.89955929258E+01  0.18952175765E+02  0.24835736435E+02  0.51100000000E-03 0. -1.
        -11    1    3    3    0    0 -0.48761220309E+01 -0.19132699983E+01  0.14089003268E+02  0.15031206921E+02  0.51100000000E-03 0.  1.
         12    1    3    3    0    0 -0.24161790509E+01  0.81641507498E+00  0.57337465339E+01  0.62753728252E+01  0.00000000000E+00 0. -1.
</event>
<event>
 7    1  0.1402367E-008  0.4614231E+02  0.7816164E-02  0.1320468E+00
        -11   -1    0    0    0    0  0.00000000000E+00  0.00000000000E+00  0.45593999997E+02  0.45594000000E+02  0.51100000000E-03 0. -1.
         11   -1    0    0    0    0 -0.00000000000E+00 -0.00000000000E+00 -0.45593999997E+02  0.45594000000E+02  0.51100000000E-03 0.  1.
    9900012    2    1    2    0    0  0.30745262005E+02  0.21207830879E+02 -0.25180758036E+02  0.46142314284E+02  0.99999682938E+01 0.  0.
         12    1    1    2    0    0 -0.30745262005E+02 -0.21207830879E+02  0.25180758036E+02  0.45045685716E+02  0.00000000000E+00 0. -1.
         11    1    3    3    0    0  0.13249641511E+02  0.10888167813E+02 -0.11770802246E+02  0.20800408272E+02  0.51100000000E-03 0. -1.
        -11    1    3    3    0    0  0.69255779072E+01  0.68516985822E+01 -0.32327585708E+01  0.10264508320E+02  0.51100000000E-03 0.  1.
         12    1    3    3    0    0  0.10570042587E+02  0.34679644842E+01 -0.10177197218E+02  0.15077397692E+02  0.00000000000E+00 0. -1.
</event>
<event>
 7    1  0.1402367E-008  0.4614232E+02  0.7816164E-02  0.1320468E+00
        -11   -1    0    0    0    0  0.00000000000E+00  0.00000000000E+00  0.45593999997E+02  0.45594000000E+02  0.51100000000E-03 0.  1.
         11   -1    0    0    0    0 -0.00000000000E+00 -0.00000000000E+00 -0.45593999997E+02  0.45594000000E+02  0.51100000000E-03 0. -1.
    9900012    2    1    2    0    0 -0.23664173988E+01 -0.22147696521E+02  0.39153453906E+02  0.46142319350E+02  0.10000014488E+02 0.  0.
         12    1    1    2    0    0  0.23664173988E+01  0.22147696521E+02 -0.39153453906E+02  0.45045680650E+02  0.00000000000E+00 0. -1.
         11    1    3    3    0    0  0.15910487133E+01 -0.14814575324E+00  0.18119761245E+01  0.24159140939E+01  0.51100000000E-03 0. -1.
        -11    1    3    3    0    0 -0.45573262872E+01 -0.13887924418E+02  0.23818321659E+02  0.27945592039E+02  0.51100000000E-03 0.  1.
        -12    1    3    3    0    0  0.59986017510E+00 -0.81116263500E+01  0.13523156122E+02  0.15780813217E+02  0.00000000000E+00 0.  1.
</event>
<event>
 7    1  0.1402367E-008  0.4614232E+02  0.7816164E-02  0.1320468E+00
        -11   -1    0    0    0    0  0.00000000000E+00  0.00000000000E+00  0.45593999997E+02  0.45594000000E+02  0.51100000000E-03 0.  1.
         11   -1    0    0    0    0 -0.00000000000E+00 -0.00000000000E+00 -0.45593999997E+02  0.45594000000E+02  0.51100000000E-03 0. -1.
    9900012    2    1    2    0    0 -0.24487874672E+02 -0.46453157996E+01  0.37521702909E+02  0.46142321472E+02  0.10000033841E+02 0.  0.
         12    1    1    2    0    0  0.24487874672E+02  0.46453157996E+01 -0.37521702909E+02  0.45045678528E+02  0.00000000000E+00 0. -1.
         11    1    3    3    0    0 -0.10023065630E+02 -0.27297689882E+01  0.15940020645E+02  0.19026238245E+02  0.51100000000E-03 0. -1.
        -11    1    3    3    0    0 -0.63932182934E+01 -0.26174477115E+01  0.45971631647E+01  0.82980830373E+01  0.51100000000E-03 0.  1.
        -12    1    3    3    0    0 -0.80715907484E+01  0.70190090014E+00  0.16984519100E+02  0.18818000190E+02  0.00000000000E+00 0.  1.
</event>
<event>
 7    1  0.1402367E-008  0.4614232E+02  0.7816164E-02  0.1320468E+00
        -11   -1    0    0    0    0  0.00000000000E+00  0.00000000000E+00  0.45593999997E+02  0.45594000000E+02  0.51100000000E-03 0. -1.
         11   -1    0    0    0    0 -0.00000000000E+00 -0.00000000000E+00 -0.45593999997E+02  0.45594000000E+02  0.51100000000E-03 0.  1.
    9900012    2    1    2    0    0 -0.20749434246E+01  0.44862024391E+02 -0.34938526379E+01  0.46142316201E+02  0.99999857710E+01 0.  0.
         12    1    1    2    0    0  0.20749434246E+01 -0.44862024391E+02  0.34938526379E+01  0.45045683799E+02  0.00000000000E+00 0. -1.
         11    1    3    3    0    0 -0.17322762669E+00  0.28574468742E+01 -0.24924435559E+01  0.37956930316E+01  0.51100000000E-03 0. -1.
        -11    1    3    3    0    0 -0.30340174028E+01  0.23859700166E+02  0.89025329691E+00  0.24068300830E+02  0.51100000000E-03 0.  1.
        -12    1    3    3    0    0  0.11323016049E+01  0.18144877351E+02 -0.18916623789E+01  0.18278322340E+02  0.00000000000E+00 0.  1.
</event>
<event>
 7    1  0.1402367E-008  0.4614232E+02  0.7816164E-02  0.1320468E+00
        -11   -1    0    0    0    0  0.00000000000E+00  0.00000000000E+00  0.45593999997E+02  0.45594000000E+02  0.51100000000E-03 0.  1.
         11   -1    0    0    0    0 -0.00000000000E+00 -0.00000000000E+00 -0.45593999997E+02  0.45594000000E+02  0.51100000000E-03 0. -1.
    9900012    2    1    2    0    0  0.30569878486E+02 -0.30054519540E+02  0.13831915385E+02  0.46142317647E+02  0.99999989597E+01 0.  0.
         12    1    1    2    0    0 -0.30569878486E+02  0.30054519540E+02 -0.13831915385E+02  0.45045682353E+02  0.00000000000E+00 0. -1.
         11    1    3    3    0    0  0.19674937593E+02 -0.13647992008E+02  0.62191765685E+01  0.24739624342E+02  0.51100000000E-03 0.  1.
        -11    1    3    3    0    0  0.85375651204E+01 -0.12083173235E+02  0.72201060765E+01  0.16462776972E+02  0.51100000000E-03 0. -1.
         12    1    3    3    0    0  0.23573757733E+01 -0.43233542964E+01  0.39263273987E+00  0.49399163330E+01  0.00000000000E+00 0. -1.
</event>
<event>
 7    1  0.1402367E-008  0.4614232E+02  0.7816164E-02  0.1320468E+00
        -11   -1    0    0    0    0  0.00000000000E+00  0.00000000000E+00  0.45593999997E+02  0.45594000000E+02  0.51100000000E-03 0. -1.
         11   -1    0    0    0    0 -0.00000000000E+00 -0.00000000000E+00 -0.45593999997E+02  0.45594000000E+02  0.51100000000E-03 0.  1.
    9900012    2    1    2    0    0 -0.39473392438E+02  0.11615139733E+02 -0.18331754543E+02  0.46142318673E+02  0.10000008316E+02 0.  0.
         12    1    1    2    0    0  0.39473392438E+02 -0.11615139733E+02  0.18331754543E+02  0.45045681327E+02  0.00000000000E+00 0. -1.
         11    1    3    3    0    0 -0.88668898763E+01  0.26468041811E+01 -0.14650700059E+01  0.93687639972E+01  0.51100000000E-03 0. -1.
        -11    1    3    3    0    0 -0.22524324239E+02  0.89126734999E+01 -0.14955258041E+02  0.28468239753E+02  0.51100000000E-03 0.  1.
        -12    1    3    3    0    0 -0.80821783232E+01  0.55662051695E-01 -0.19114264961E+01  0.83053149225E+01  0.00000000000E+00 0.  1.
</event>
<event>
 7    1  0.1402367E-008  0.4614232E+02  0.7816164E-02  0.1320468E+00
        -11   -1    0    0    0    0  0.00000000000E+00  0.00000000000E+00  0.45593999997E+02  0.45594000000E+02  0.51100000000E-03 0. -1.
         11   -1    0    0    0    0 -0.00000000000E+00 -0.00000000000E+00 -0.45593999997E+02  0.45594000000E+02  0.51100000000E-03 0.  1.
    9900012    2    1    2    0    0  0.12190738139E+02 -0.42445054923E+02 -0.88835074408E+01  0.46142317762E+02  0.10000000011E+02 0.  0.
         12    1    1    2    0    0 -0.12190738139E+02  0.42445054923E+02  0.88835074408E+01  0.45045682238E+02  0.00000000000E+00 0. -1.
         11    1    3    3    0    0  0.11206581246E+01 -0.11600726623E+01 -0.70219067442E+00  0.17591802689E+01  0.51100000000E-03 0. -1.
        -11    1    3    3    0    0  0.27936900266E+01 -0.10596541104E+02  0.17177660281E+01  0.11092434707E+02  0.51100000000E-03 0.  1.
        -12    1    3    3    0    0  0.82763899875E+01 -0.30688441157E+02 -0.98990827944E+01  0.33290702786E+02  0.00000000000E+00 0.  1.
</event>
<event>
 7    1  0.1402367E-008  0.4614232E+02  0.7816164E-02  0.1320468E+00
        -11   -1    0    0    0    0  0.00000000000E+00  0.00000000000E+00  0.45593999997E+02  0.45594000000E+02  0.51100000000E-03 0.  1.
         11   -1    0    0    0    0 -0.00000000000E+00 -0.00000000000E+00 -0.45593999997E+02  0.45594000000E+02  0.51100000000E-03 0. -1.
    9900012    2    1    2    0    0 -0.55855996140E+01  0.23888139250E+02  0.37779244880E+02  0.46142318036E+02  0.10000002505E+02 0.  0.
         12    1    1    2    0    0  0.55855996140E+01 -0.23888139250E+02 -0.37779244880E+02  0.45045681964E+02  0.00000000000E+00 0. -1.
         11    1    3    3    0    0 -0.34630815061E+01  0.46968038096E+01  0.52272958266E+01  0.78343807326E+01  0.51100000000E-03 0. -1.
        -11    1    3    3    0    0  0.18516602775E+01  0.84602342021E+01  0.12235704724E+02  0.14990552989E+02  0.51100000000E-03 0.  1.
        -12    1    3    3    0    0 -0.39741783854E+01  0.10731101239E+02  0.20316244329E+02  0.23317384315E+02  0.00000000000E+00 0.  1.
</event>
<event>
 7    1  0.1402367E-008  0.4614232E+02  0.7816164E-02  0.1320468E+00
        -11   -1    0    0    0    0  0.00000000000E+00  0.00000000000E+00  0.45593999997E+02  0.45594000000E+02  0.51100000000E-03 0. -1.
         11   -1    0    0    0    0 -0.00000000000E+00 -0.00000000000E+00 -0.45593999997E+02  0.45594000000E+02  0.51100000000E-03 0.  1.
    9900012    2    1    2    0    0 -0.41588830436E+02  0.87059955743E+01 -0.14956213702E+02  0.46142317585E+02  0.99999983904E+01 0.  0.
         12    1    1    2    0    0  0.41588830436E+02 -0.87059955743E+01  0.14956213702E+02  0.45045682415E+02  0.00000000000E+00 0. -1.
         11    1    3    3    0    0 -0.10580421853E+02  0.19380075333E+01 -0.13232233945E+01  0.10837532939E+02  0.51100000000E-03 0. -1.
        -11    1    3    3    0    0 -0.17108498920E+02  0.28944166673E+01 -0.35759375712E+01  0.17716255612E+02  0.51100000000E-03 0.  1.
        -12    1    3    3    0    0 -0.13899909663E+02  0.38735713737E+01 -0.10057052737E+02  0.17588529034E+02  0.00000000000E+00 0.  1.
</event>
<event>
 7    1  0.1402367E-008  0.4614232E+02  0.7816164E-02  0.1320468E+00
        -11   -1    0    0    0    0  0.00000000000E+00  0.00000000000E+00  0.45593999997E+02  0.45594000000E+02  0.51100000000E-03 0.  1.
         11   -1    0    0    0    0 -0.00000000000E+00 -0.00000000000E+00 -0.45593999997E+02  0.45594000000E+02  0.51100000000E-03 0. -1.
    9900012    2    1    2    0    0 -0.17323930771E+02  0.41336798807E+02 -0.45015571239E+01  0.46142317304E+02  0.99999958352E+01 0.  0.
         12    1    1    2    0    0  0.17323930771E+02 -0.41336798807E+02  0.45015571239E+01  0.45045682696E+02  0.00000000000E+00 0. -1.
         11    1    3    3    0    0 -0.35748437720E+01  0.75177184470E+01  0.18818579975E+01  0.85344588830E+01  0.51100000000E-03 0. -1.
        -11    1    3    3    0    0 -0.45966110813E+01  0.19751271754E+02 -0.34954423840E+01  0.20578136141E+02  0.51100000000E-03 0.  1.
        -12    1    3    3    0    0 -0.91524759177E+01  0.14067808607E+02 -0.28879727374E+01  0.17029722280E+02  0.00000000000E+00 0.  1.
</event>
<event>
 7    1  0.1402367E-008  0.4614231E+02  0.7816164E-02  0.1320468E+00
        -11   -1    0    0    0    0  0.00000000000E+00  0.00000000000E+00  0.45593999997E+02  0.45594000000E+02  0.51100000000E-03 0.  1.
         11   -1    0    0    0    0 -0.00000000000E+00 -0.00000000000E+00 -0.45593999997E+02  0.45594000000E+02  0.51100000000E-03 0. -1.
    9900012    2    1    2    0    0  0.22354664426E+02  0.16577951346E+02  0.35419696935E+02  0.46142307383E+02  0.99999053608E+01 0.  0.
         12    1    1    2    0    0 -0.22354664426E+02 -0.16577951346E+02 -0.35419696935E+02  0.45045692617E+02  0.00000000000E+00 0. -1.
         11    1    3    3    0    0  0.65364723133E+01  0.40631015008E+01  0.62821293658E+01  0.99347578601E+01  0.51100000000E-03 0. -1.
        -11    1    3    3    0    0  0.80834451566E+00 -0.40518486501E+00  0.45345878774E+01  0.46238601957E+01  0.51100000000E-03 0.  1.
        -12    1    3    3    0    0  0.15009847597E+02  0.12920034710E+02  0.24602979691E+02  0.31583689327E+02  0.00000000000E+00 0.  1.
</event>
<event>
 7    1  0.1402367E-008  0.4614232E+02  0.7816164E-02  0.1320468E+00
        -11   -1    0    0    0    0  0.00000000000E+00  0.00000000000E+00  0.45593999997E+02  0.45594000000E+02  0.51100000000E-03 0.  1.
         11   -1    0    0    0    0 -0.00000000000E+00 -0.00000000000E+00 -0.45593999997E+02  0.45594000000E+02  0.51100000000E-03 0. -1.
    9900012    2    1    2    0    0 -0.40898893361E+02 -0.18591777758E+02  0.32771743901E+01  0.46142317073E+02  0.99999937267E+01 0.  0.
         12    1    1    2    0    0  0.40898893361E+02  0.18591777758E+02 -0.32771743901E+01  0.45045682927E+02  0.00000000000E+00 0. -1.
         11    1    3    3    0    0 -0.11401800277E+02 -0.23742119752E+01  0.33910857138E+01  0.12130020389E+02  0.51100000000E-03 0. -1.
        -11    1    3    3    0    0 -0.21734364907E+02 -0.13494948948E+02  0.15082631211E+01  0.25627546174E+02  0.51100000000E-03 0.  1.
         12    1    3    3    0    0 -0.77627281773E+01 -0.27226168349E+01 -0.16221744448E+01  0.83847505099E+01  0.00000000000E+00 0. -1.
</event>
<event>
 7    1  0.1402367E-008  0.4614232E+02  0.7816164E-02  0.1320468E+00
        -11   -1    0    0    0    0  0.00000000000E+00  0.00000000000E+00  0.45593999997E+02  0.45594000000E+02  0.51100000000E-03 0. -1.
         11   -1    0    0    0    0 -0.00000000000E+00 -0.00000000000E+00 -0.45593999997E+02  0.45594000000E+02  0.51100000000E-03 0.  1.
    9900012    2    1    2    0    0 -0.17919088073E+02 -0.28595960489E+02 -0.29837741882E+02  0.46142317474E+02  0.99999973799E+01 0.  0.
         12    1    1    2    0    0  0.17919088073E+02  0.28595960489E+02  0.29837741882E+02  0.45045682526E+02  0.00000000000E+00 0. -1.
         11    1    3    3    0    0 -0.36668559474E+01 -0.13665116921E+02 -0.12957080827E+02  0.19185077452E+02  0.51100000000E-03 0. -1.
        -11    1    3    3    0    0 -0.11162682875E+02 -0.13608515283E+02 -0.14865946411E+02  0.23038957011E+02  0.51100000000E-03 0.  1.
        -12    1    3    3    0    0 -0.30895492504E+01 -0.13223282852E+01 -0.20147146433E+01  0.39182830115E+01  0.00000000000E+00 0.  1.
</event>
<event>
 7    1  0.1402367E-008  0.4614231E+02  0.7816164E-02  0.1320468E+00
        -11   -1    0    0    0    0  0.00000000000E+00  0.00000000000E+00  0.45593999997E+02  0.45594000000E+02  0.51100000000E-03 0.  1.
         11   -1    0    0    0    0 -0.00000000000E+00 -0.00000000000E+00 -0.45593999997E+02  0.45594000000E+02  0.51100000000E-03 0. -1.
    9900012    2    1    2    0    0  0.35704886015E+02  0.19438875195E+02  0.19401159829E+02  0.46142314780E+02  0.99999728156E+01 0.  0.
         12    1    1    2    0    0 -0.35704886015E+02 -0.19438875195E+02 -0.19401159829E+02  0.45045685220E+02  0.00000000000E+00 0. -1.
         11    1    3    3    0    0  0.11529455686E+02  0.99713424442E+01  0.78652012635E+01  0.17152766825E+02  0.51100000000E-03 0. -1.
        -11    1    3    3    0    0  0.16344689537E+02  0.79257867279E+01  0.10390311681E+02  0.20926670743E+02  0.51100000000E-03 0.  1.
         12    1    3    3    0    0  0.78307407922E+01  0.15417460234E+01  0.11456468849E+01  0.80628772123E+01  0.00000000000E+00 0. -1.
</event>
<event>
 7    1  0.1402367E-008  0.4614232E+02  0.7816164E-02  0.1320468E+00
        -11   -1    0    0    0    0  0.00000000000E+00  0.00000000000E+00  0.45593999997E+02  0.45594000000E+02  0.51100000000E-03 0.  1.
         11   -1    0    0    0    0 -0.00000000000E+00 -0.00000000000E+00 -0.45593999997E+02  0.45594000000E+02  0.51100000000E-03 0. -1.
    9900012    2    1    2    0    0 -0.32049712663E+02 -0.68429430678E+01  0.30904749808E+02  0.46142317495E+02  0.99999975740E+01 0.  0.
         12    1    1    2    0    0  0.32049712663E+02  0.68429430678E+01 -0.30904749808E+02  0.45045682505E+02  0.00000000000E+00 0. -1.
         11    1    3    3    0    0 -0.84029817484E+01 -0.11500023329E+01  0.56029201564E+01  0.10164906402E+02  0.51100000000E-03 0. -1.
        -11    1    3    3    0    0 -0.70399792976E+01 -0.79884202458E+00  0.28768771843E+01  0.76469523136E+01  0.51100000000E-03 0.  1.
        -12    1    3    3    0    0 -0.16606751617E+02 -0.48940987104E+01  0.22424952468E+02  0.28330458779E+02  0.00000000000E+00 0.  1.
</event>
<event>
 7    1  0.1402367E-008  0.4614232E+02  0.7816164E-02  0.1320468E+00
        -11   -1    0    0    0    0  0.00000000000E+00  0.00000000000E+00  0.45593999997E+02  0.45594000000E+02  0.51100000000E-03 0. -1.
         11   -1    0    0    0    0 -0.00000000000E+00 -0.00000000000E+00 -0.45593999997E+02  0.45594000000E+02  0.51100000000E-03 0.  1.
    9900012    2    1    2    0    0 -0.18496040580E+02  0.20629114154E+02  0.35516888560E+02  0.46142320508E+02  0.10000025052E+02 0.  0.
         12    1    1    2    0    0  0.18496040580E+02 -0.20629114154E+02 -0.35516888560E+02  0.45045679492E+02  0.00000000000E+00 0. -1.
         11    1    3    3    0    0 -0.60811360817E+01  0.83921881121E+01  0.97476045789E+01  0.14227608114E+02  0.51100000000E-03 0. -1.
        -11    1    3    3    0    0 -0.10068078159E+02  0.11209173735E+02  0.16708010850E+02  0.22498208828E+02  0.51100000000E-03 0.  1.
         12    1    3    3    0    0 -0.23468263391E+01  0.10277523062E+01  0.90612731307E+01  0.94165035665E+01  0.00000000000E+00 0. -1.
</event>
<event>
 7    1  0.1402367E-008  0.4614232E+02  0.7816164E-02  0.1320468E+00
        -11   -1    0    0    0    0  0.00000000000E+00  0.00000000000E+00  0.45593999997E+02  0.45594000000E+02  0.51100000000E-03 0.  1.
         11   -1    0    0    0    0 -0.00000000000E+00 -0.00000000000E+00 -0.45593999997E+02  0.45594000000E+02  0.51100000000E-03 0. -1.
    9900012    2    1    2    0    0 -0.16610031715E+02 -0.41736439319E+02  0.33600773841E+01  0.46142316071E+02  0.99999845885E+01 0.  0.
         12    1    1    2    0    0  0.16610031715E+02  0.41736439319E+02 -0.33600773841E+01  0.45045683929E+02  0.00000000000E+00 0. -1.
         11    1    3    3    0    0 -0.76087333594E+01 -0.91481135074E+01 -0.97809780425E+00  0.11938906133E+02  0.51100000000E-03 0. -1.
        -11    1    3    3    0    0 -0.85289999077E+01 -0.32178502103E+02  0.41325940244E+01  0.33545166130E+02  0.51100000000E-03 0.  1.
        -12    1    3    3    0    0 -0.47229844838E+00 -0.40982370792E+00  0.20558116392E+00  0.65824380808E+00  0.00000000000E+00 0.  1.
</event>
<event>
 7    1  0.1402367E-008  0.4614232E+02  0.7816164E-02  0.1320468E+00
        -11   -1    0    0    0    0  0.00000000000E+00  0.00000000000E+00  0.45593999997E+02  0.45594000000E+02  0.51100000000E-03 0. -1.
         11   -1    0    0    0    0 -0.00000000000E+00 -0.00000000000E+00 -0.45593999997E+02  0.45594000000E+02  0.51100000000E-03 0.  1.
    9900012    2    1    2    0    0  0.38948271472E+02  0.22543375894E+02 -0.19854006843E+01  0.46142318040E+02  0.10000002546E+02 0.  0.
         12    1    1    2    0    0 -0.38948271472E+02 -0.22543375894E+02  0.19854006843E+01  0.45045681960E+02  0.00000000000E+00 0. -1.
         11    1    3    3    0    0 -0.83485737905E-01 -0.20550456404E+00 -0.91325440051E+00  0.93980628613E+00  0.51100000000E-03 0. -1.
        -11    1    3    3    0    0  0.32527729615E+02  0.18517008685E+02 -0.76503557764E+00  0.37436854625E+02  0.51100000000E-03 0.  1.
         12    1    3    3    0    0  0.65040275953E+01  0.42318717724E+01 -0.30711070614E+00  0.77656571289E+01  0.00000000000E+00 0. -1.
</event>
<event>
 7    1  0.1402367E-008  0.4614232E+02  0.7816164E-02  0.1320468E+00
        -11   -1    0    0    0    0  0.00000000000E+00  0.00000000000E+00  0.45593999997E+02  0.45594000000E+02  0.51100000000E-03 0.  1.
         11   -1    0    0    0    0 -0.00000000000E+00 -0.00000000000E+00 -0.45593999997E+02  0.45594000000E+02  0.51100000000E-03 0. -1.
    9900012    2    1    2    0    0  0.93508248251E+01 -0.19090437421E+02  0.39714364337E+02  0.46142318070E+02  0.10000002816E+02 0.  0.
         12    1    1    2    0    0 -0.93508248251E+01  0.19090437421E+02 -0.39714364337E+02  0.45045681930E+02  0.00000000000E+00 0. -1.
         11    1    3    3    0    0  0.30212626267E+01 -0.20986643927E+01  0.24891078741E+01  0.44416301470E+01  0.51100000000E-03 0. -1.
        -11    1    3    3    0    0  0.59234531640E+01 -0.13624236961E+02  0.25681859102E+02  0.29669260478E+02  0.51100000000E-03 0.  1.
        -12    1    3    3    0    0  0.40610903436E+00 -0.33675360682E+01  0.11543397361E+02  0.12031427445E+02  0.00000000000E+00 0.  1.
</event>
<event>
 7    1  0.1402367E-008  0.4614232E+02  0.7816164E-02  0.1320468E+00
        -11   -1    0    0    0    0  0.00000000000E+00  0.00000000000E+00  0.45593999997E+02  0.45594000000E+02  0.51100000000E-03 0.  1.
         11   -1    0    0    0    0 -0.00000000000E+00 -0.00000000000E+00 -0.45593999997E+02  0.45594000000E+02  0.51100000000E-03 0. -1.
    9900012    2    1    2    0    0  0.39817698998E+02 -0.20750127746E+02 -0.36189126031E+01  0.46142317816E+02  0.10000000498E+02 0.  0.
         12    1    1    2    0    0 -0.39817698998E+02  0.20750127746E+02  0.36189126031E+01  0.45045682184E+02  0.00000000000E+00 0. -1.
         11    1    3    3    0    0  0.94432222695E+01 -0.18830622460E+01 -0.16783877909E+01  0.97743212599E+01  0.51100000000E-03 0. -1.
        -11    1    3    3    0    0  0.29292299919E+02 -0.16777426735E+02 -0.27762751386E+01  0.33870763001E+02  0.51100000000E-03 0.  1.
         12    1    3    3    0    0  0.10821768101E+01 -0.20896387656E+01  0.83575032642E+00  0.24972335548E+01  0.00000000000E+00 0. -1.
</event>
<event>
 7    1  0.1402367E-008  0.4614232E+02  0.7816164E-02  0.1320468E+00
        -11   -1    0    0    0    0  0.00000000000E+00  0.00000000000E+00  0.45593999997E+02  0.45594000000E+02  0.51100000000E-03 0. -1.
         11   -1    0    0    0    0 -0.00000000000E+00 -0.00000000000E+00 -0.45593999997E+02  0.45594000000E+02  0.51100000000E-03 0.  1.
    9900012    2    1    2    0    0  0.14870179456E+02 -0.29326509303E+02 -0.30788744167E+02  0.46142321491E+02  0.10000034011E+02 0.  0.
         12    1    1    2    0    0 -0.14870179456E+02  0.29326509303E+02  0.30788744167E+02  0.45045678509E+02  0.00000000000E+00 0. -1.
         11    1    3    3    0    0  0.21710998197E+01  0.75864450133E-01 -0.28163014410E+01  0.35568221644E+01  0.51100000000E-03 0. -1.
        -11    1    3    3    0    0  0.23566149687E+01 -0.37957341793E+01 -0.33176646316E+01  0.55649017008E+01  0.51100000000E-03 0.  1.
         12    1    3    3    0    0  0.10342464668E+02 -0.25606639574E+02 -0.24654778095E+02  0.37020597626E+02  0.00000000000E+00 0. -1.
</event>
<event>
 7    1  0.1402367E-008  0.4614232E+02  0.7816164E-02  0.1320468E+00
        -11   -1    0    0    0    0  0.00000000000E+00  0.00000000000E+00  0.45593999997E+02  0.45594000000E+02  0.51100000000E-03 0.  1.
         11   -1    0    0    0    0 -0.00000000000E+00 -0.00000000000E+00 -0.45593999997E+02  0.45594000000E+02  0.51100000000E-03 0. -1.
    9900012    2    1    2    0    0  0.18351284172E+02 -0.32024652109E+02  0.25821802944E+02  0.46142317846E+02  0.10000000776E+02 0.  0.
         12    1    1    2    0    0 -0.18351284172E+02  0.32024652109E+02 -0.25821802944E+02  0.45045682154E+02  0.00000000000E+00 0. -1.
         11    1    3    3    0    0  0.56519414596E+00 -0.45522208584E+01  0.12271105742E+01  0.47484692048E+01  0.51100000000E-03 0. -1.
        -11    1    3    3    0    0  0.13055296657E+02 -0.16033395160E+02  0.17741799946E+02  0.27244852665E+02  0.51100000000E-03 0.  1.
        -12    1    3    3    0    0  0.47307933684E+01 -0.11439036090E+02  0.68528924238E+01  0.14148995976E+02  0.00000000000E+00 0.  1.
</event>
<event>
 7    1  0.1402367E-008  0.4614232E+02  0.7816164E-02  0.1320468E+00
        -11   -1    0    0    0    0  0.00000000000E+00  0.00000000000E+00  0.45593999997E+02  0.45594000000E+02  0.51100000000E-03 0.  1.
         11   -1    0    0    0    0 -0.00000000000E+00 -0.00000000000E+00 -0.45593999997E+02  0.45594000000E+02  0.51100000000E-03 0. -1.
    9900012    2    1    2    0    0  0.19814373215E+02 -0.39213613872E+02 -0.99396377929E+01  0.46142319871E+02  0.10000019240E+02 0.  0.
         12    1    1    2    0    0 -0.19814373215E+02  0.39213613872E+02  0.99396377929E+01  0.45045680129E+02  0.00000000000E+00 0. -1.
         11    1    3    3    0    0  0.30679041287E+01 -0.64933390639E+01  0.15116517784E+01  0.73389767203E+01  0.51100000000E-03 0.  1.
        -11    1    3    3    0    0  0.11426112980E+02 -0.20773492092E+02 -0.50394421884E+01  0.24238193195E+02  0.51100000000E-03 0. -1.
         12    1    3    3    0    0  0.53203561065E+01 -0.11946782717E+02 -0.64118473829E+01  0.14565149956E+02  0.00000000000E+00 0. -1.
</event>
<event>
 7    1  0.1402367E-008  0.4614232E+02  0.7816164E-02  0.1320468E+00
        -11   -1    0    0    0    0  0.00000000000E+00  0.00000000000E+00  0.45593999997E+02  0.45594000000E+02  0.51100000000E-03 0.  1.
         11   -1    0    0    0    0 -0.00000000000E+00 -0.00000000000E+00 -0.45593999997E+02  0.45594000000E+02  0.51100000000E-03 0. -1.
    9900012    2    1    2    0    0 -0.87811026219E+01 -0.17889028573E+02  0.40397876115E+02  0.46142317619E+02  0.99999987054E+01 0.  0.
         12    1    1    2    0    0  0.87811026219E+01  0.17889028573E+02 -0.40397876115E+02  0.45045682381E+02  0.00000000000E+00 0. -1.
         11    1    3    3    0    0 -0.59070387007E+00 -0.45289797933E+01  0.77679148125E+01  0.90111647319E+01  0.51100000000E-03 0. -1.
        -11    1    3    3    0    0 -0.90533477331E+01 -0.12900201920E+02  0.32531998938E+02  0.36148433852E+02  0.51100000000E-03 0.  1.
        -12    1    3    3    0    0  0.86294898128E+00 -0.45984685903E+00  0.97962364824E-01  0.98271903562E+00  0.00000000000E+00 0.  1.
</event>
<event>
 7    1  0.1402367E-008  0.4614232E+02  0.7816164E-02  0.1320468E+00
        -11   -1    0    0    0    0  0.00000000000E+00  0.00000000000E+00  0.45593999997E+02  0.45594000000E+02  0.51100000000E-03 0.  1.
         11   -1    0    0    0    0 -0.00000000000E+00 -0.00000000000E+00 -0.45593999997E+02  0.45594000000E+02  0.51100000000E-03 0. -1.
    9900012    2    1    2    0    0 -0.28308811872E+02 -0.77299232333E+01  0.34175620489E+02  0.46142316760E+02  0.99999908678E+01 0.  0.
         12    1    1    2    0    0  0.28308811872E+02  0.77299232333E+01 -0.34175620489E+02  0.45045683240E+02  0.00000000000E+00 0. -1.
         11    1    3    3    0    0 -0.14361214982E+02 -0.53736543715E+01  0.10828635142E+02  0.18771787245E+02  0.51100000000E-03 0. -1.
        -11    1    3    3    0    0 -0.81037697332E+01 -0.22373204666E+01  0.14678472208E+02  0.16915502753E+02  0.51100000000E-03 0.  1.
         12    1    3    3    0    0 -0.58438271565E+01 -0.11894839524E+00  0.86685131386E+01  0.10455026762E+02  0.00000000000E+00 0. -1.
</event>
<event>
 7    1  0.1402367E-008  0.4614232E+02  0.7816164E-02  0.1320468E+00
        -11   -1    0    0    0    0  0.00000000000E+00  0.00000000000E+00  0.45593999997E+02  0.45594000000E+02  0.51100000000E-03 0. -1.
         11   -1    0    0    0    0 -0.00000000000E+00 -0.00000000000E+00 -0.45593999997E+02  0.45594000000E+02  0.51100000000E-03 0.  1.
    9900012    2    1    2    0    0  0.41690401318E+02 -0.12698434917E+02 -0.11391826141E+02  0.46142317474E+02  0.99999973851E+01 0.  0.
         12    1    1    2    0    0 -0.41690401318E+02  0.12698434917E+02  0.11391826141E+02  0.45045682526E+02  0.00000000000E+00 0. -1.
         11    1    3    3    0    0  0.99802397179E+01 -0.50213010829E+01 -0.15071403169E+00  0.11173243234E+02  0.51100000000E-03 0. -1.
        -11    1    3    3    0    0  0.17470408706E+02 -0.26606326909E+01 -0.85578340965E+01  0.19634934972E+02  0.51100000000E-03 0.  1.
         12    1    3    3    0    0  0.14239752895E+02 -0.50165011430E+01 -0.26832780124E+01  0.15334139269E+02  0.00000000000E+00 0. -1.
</event>
<event>
 7    1  0.1402367E-008  0.4614232E+02  0.7816164E-02  0.1320468E+00
        -11   -1    0    0    0    0  0.00000000000E+00  0.00000000000E+00  0.45593999997E+02  0.45594000000E+02  0.51100000000E-03 0. -1.
         11   -1    0    0    0    0 -0.00000000000E+00 -0.00000000000E+00 -0.45593999997E+02  0.45594000000E+02  0.51100000000E-03 0.  1.
    9900012    2    1    2    0    0 -0.37079662983E+02  0.26030885754E+01 -0.25444762252E+02  0.46142318707E+02  0.10000008629E+02 0.  0.
         12    1    1    2    0    0  0.37079662983E+02 -0.26030885754E+01  0.25444762252E+02  0.45045681293E+02  0.00000000000E+00 0. -1.
         11    1    3    3    0    0 -0.10999621932E+02 -0.32272039104E+01 -0.75380041571E+01  0.13719622249E+02  0.51100000000E-03 0. -1.
        -11    1    3    3    0    0 -0.19481508024E+02  0.60459073283E+01 -0.14164894668E+02  0.24833976555E+02  0.51100000000E-03 0.  1.
         12    1    3    3    0    0 -0.65985330267E+01 -0.21561484255E+00 -0.37418634261E+01  0.75887199029E+01  0.00000000000E+00 0. -1.
</event>
<event>
 7    1  0.1402367E-008  0.4614232E+02  0.7816164E-02  0.1320468E+00
        -11   -1    0    0    0    0  0.00000000000E+00  0.00000000000E+00  0.45593999997E+02  0.45594000000E+02  0.51100000000E-03 0.  1.
         11   -1    0    0    0    0 -0.00000000000E+00 -0.00000000000E+00 -0.45593999997E+02  0.45594000000E+02  0.51100000000E-03 0. -1.
    9900012    2    1    2    0    0 -0.40373348099E+02 -0.19072169888E+02  0.59463076245E+01  0.46142317906E+02  0.10000001320E+02 0.  0.
         12    1    1    2    0    0  0.40373348099E+02  0.19072169888E+02 -0.59463076245E+01  0.45045682094E+02  0.00000000000E+00 0. -1.
         11    1    3    3    0    0 -0.13033472285E+02 -0.34244033170E+01 -0.11740620639E+01  0.13526875466E+02  0.51100000000E-03 0. -1.
        -11    1    3    3    0    0 -0.23438067649E+02 -0.12730420509E+02  0.75623938268E+01  0.27723571597E+02  0.51100000000E-03 0.  1.
        -12    1    3    3    0    0 -0.39018081649E+01 -0.29173460617E+01 -0.44202413838E+00  0.48918708424E+01  0.00000000000E+00 0.  1.
</event>
<event>
 7    1  0.1402367E-008  0.4614232E+02  0.7816164E-02  0.1320468E+00
        -11   -1    0    0    0    0  0.00000000000E+00  0.00000000000E+00  0.45593999997E+02  0.45594000000E+02  0.51100000000E-03 0.  1.
         11   -1    0    0    0    0 -0.00000000000E+00 -0.00000000000E+00 -0.45593999997E+02  0.45594000000E+02  0.51100000000E-03 0. -1.
    9900012    2    1    2    0    0 -0.14668967951E+02 -0.23941357225E+02  0.35224228765E+02  0.46142317648E+02  0.99999989675E+01 0.  0.
         12    1    1    2    0    0  0.14668967951E+02  0.23941357225E+02 -0.35224228765E+02  0.45045682352E+02  0.00000000000E+00 0. -1.
         11    1    3    3    0    0  0.53692853779E+00  0.11270682090E-01 -0.20074933170E-01  0.53742213113E+00  0.51100000000E-03 0. -1.
        -11    1    3    3    0    0 -0.14264023410E+02 -0.22507109848E+02  0.34787564096E+02  0.43820166289E+02  0.51100000000E-03 0.  1.
        -12    1    3    3    0    0 -0.94187307887E+00 -0.14455180585E+01  0.45673960170E+00  0.17847292281E+01  0.00000000000E+00 0.  1.
</event>
<event>
 7    1  0.1402367E-008  0.4614232E+02  0.7816164E-02  0.1320468E+00
        -11   -1    0    0    0    0  0.00000000000E+00  0.00000000000E+00  0.45593999997E+02  0.45594000000E+02  0.51100000000E-03 0. -1.
         11   -1    0    0    0    0 -0.00000000000E+00 -0.00000000000E+00 -0.45593999997E+02  0.45594000000E+02  0.51100000000E-03 0.  1.
    9900012    2    1    2    0    0 -0.16925087068E+02 -0.40342555071E+02 -0.10730009109E+02  0.46142318549E+02  0.10000007181E+02 0.  0.
         12    1    1    2    0    0  0.16925087068E+02  0.40342555071E+02  0.10730009109E+02  0.45045681451E+02  0.00000000000E+00 0. -1.
         11    1    3    3    0    0 -0.97750994730E+01 -0.30668045470E+02 -0.66009802608E+01  0.32858096770E+02  0.51100000000E-03 0. -1.
        -11    1    3    3    0    0 -0.13231111437E+00 -0.14618431940E+01  0.47311885295E+00  0.15421846404E+01  0.51100000000E-03 0.  1.
         12    1    3    3    0    0 -0.70176764802E+01 -0.82126664072E+01 -0.46021477012E+01  0.11742037138E+02  0.00000000000E+00 0. -1.
</event>
<event>
 7    1  0.1402367E-008  0.4614231E+02  0.7816164E-02  0.1320468E+00
        -11   -1    0    0    0    0  0.00000000000E+00  0.00000000000E+00  0.45593999997E+02  0.45594000000E+02  0.51100000000E-03 0.  1.
         11   -1    0    0    0    0 -0.00000000000E+00 -0.00000000000E+00 -0.45593999997E+02  0.45594000000E+02  0.51100000000E-03 0. -1.
    9900012    2    1    2    0    0  0.31869639083E+02 -0.36790474468E+01  0.31621267826E+02  0.46142313588E+02  0.99999619459E+01 0.  0.
         12    1    1    2    0    0 -0.31869639083E+02  0.36790474468E+01 -0.31621267826E+02  0.45045686412E+02  0.00000000000E+00 0. -1.
         11    1    3    3    0    0  0.37122973214E+01  0.93487123881E+00  0.43000598566E+01  0.57572259524E+01  0.51100000000E-03 0. -1.
        -11    1    3    3    0    0  0.13269199510E+02 -0.52088922072E+01  0.93835386219E+01  0.17066194977E+02  0.51100000000E-03 0.  1.
        -12    1    3    3    0    0  0.14888142252E+02  0.59497352158E+00  0.17937669347E+02  0.23318892658E+02  0.00000000000E+00 0.  1.
</event>
<event>
 7    1  0.1402367E-008  0.4614232E+02  0.7816164E-02  0.1320468E+00
        -11   -1    0    0    0    0  0.00000000000E+00  0.00000000000E+00  0.45593999997E+02  0.45594000000E+02  0.51100000000E-03 0.  1.
         11   -1    0    0    0    0 -0.00000000000E+00 -0.00000000000E+00 -0.45593999997E+02  0.45594000000E+02  0.51100000000E-03 0. -1.
    9900012    2    1    2    0    0  0.38070897523E+02  0.98401358746E+01  0.21974803105E+02  0.46142317813E+02  0.10000000471E+02 0.  0.
         12    1    1    2    0    0 -0.38070897523E+02 -0.98401358746E+01 -0.21974803105E+02  0.45045682187E+02  0.00000000000E+00 0. -1.
         11    1    3    3    0    0  0.21443685292E+02  0.50056709018E+01  0.85426206522E+01  0.23619160610E+02  0.51100000000E-03 0. -1.
        -11    1    3    3    0    0  0.10075401520E+02  0.10053486118E+01  0.98697362576E+01  0.14139877499E+02  0.51100000000E-03 0.  1.
         12    1    3    3    0    0  0.65518107110E+01  0.38291163609E+01  0.35624461947E+01  0.83832797036E+01  0.00000000000E+00 0. -1.
</event>
<event>
 7    1  0.1402367E-008  0.4614232E+02  0.7816164E-02  0.1320468E+00
        -11   -1    0    0    0    0  0.00000000000E+00  0.00000000000E+00  0.45593999997E+02  0.45594000000E+02  0.51100000000E-03 0. -1.
         11   -1    0    0    0    0 -0.00000000000E+00 -0.00000000000E+00 -0.45593999997E+02  0.45594000000E+02  0.51100000000E-03 0.  1.
    9900012    2    1    2    0    0 -0.25916068110E+02  0.36721909408E+02  0.29953692859E+01  0.46142318142E+02  0.10000003476E+02 0.  0.
         12    1    1    2    0    0  0.25916068110E+02 -0.36721909408E+02 -0.29953692859E+01  0.45045681858E+02  0.00000000000E+00 0. -1.
         11    1    3    3    0    0 -0.17031518886E+02  0.20774084323E+02  0.48686582841E+01  0.27300898315E+02  0.51100000000E-03 0. -1.
        -11    1    3    3    0    0 -0.81534930098E+01  0.12631028886E+02 -0.28619957001E+01  0.15304030796E+02  0.51100000000E-03 0.  1.
         12    1    3    3    0    0 -0.73105621425E+00  0.33167961992E+01  0.98870670188E+00  0.35373890312E+01  0.00000000000E+00 0. -1.
</event>
<event>
 7    1  0.1402367E-008  0.4614233E+02  0.7816164E-02  0.1320468E+00
        -11   -1    0    0    0    0  0.00000000000E+00  0.00000000000E+00  0.45593999997E+02  0.45594000000E+02  0.51100000000E-03 0. -1.
         11   -1    0    0    0    0 -0.00000000000E+00 -0.00000000000E+00 -0.45593999997E+02  0.45594000000E+02  0.51100000000E-03 0.  1.
    9900012    2    1    2    0    0  0.32001672334E+02  0.31158984466E+02 -0.58414931813E+01  0.46142329978E+02  0.10000111404E+02 0.  0.
         12    1    1    2    0    0 -0.32001672334E+02 -0.31158984466E+02  0.58414931813E+01  0.45045670022E+02  0.00000000000E+00 0. -1.
         11    1    3    3    0    0  0.14134504567E+02  0.18519268464E+02 -0.13465278389E+01  0.23335823561E+02  0.51100000000E-03 0. -1.
        -11    1    3    3    0    0  0.16709818438E+02  0.12697017717E+02 -0.34941460498E+01  0.21275369516E+02  0.51100000000E-03 0.  1.
         12    1    3    3    0    0  0.11573493289E+01 -0.57301714545E-01 -0.10008192926E+01  0.15311369018E+01  0.00000000000E+00 0. -1.
</event>
<event>
 7    1  0.1402367E-008  0.4614232E+02  0.7816164E-02  0.1320468E+00
        -11   -1    0    0    0    0  0.00000000000E+00  0.00000000000E+00  0.45593999997E+02  0.45594000000E+02  0.51100000000E-03 0.  1.
         11   -1    0    0    0    0 -0.00000000000E+00 -0.00000000000E+00 -0.45593999997E+02  0.45594000000E+02  0.51100000000E-03 0. -1.
    9900012    2    1    2    0    0 -0.19207881122E+02  0.21423468999E+02  0.34658414946E+02  0.46142318212E+02  0.10000004111E+02 0.  0.
         12    1    1    2    0    0  0.19207881122E+02 -0.21423468999E+02 -0.34658414946E+02  0.45045681788E+02  0.00000000000E+00 0. -1.
         11    1    3    3    0    0 -0.47733587764E+01  0.26450226447E+01  0.23516628546E+01  0.59423410574E+01  0.51100000000E-03 0. -1.
        -11    1    3    3    0    0 -0.10209778938E+02  0.10601797490E+02  0.19713615629E+02  0.24602120588E+02  0.51100000000E-03 0.  1.
        -12    1    3    3    0    0 -0.42247434082E+01  0.81766488638E+01  0.12593136462E+02  0.15597856566E+02  0.00000000000E+00 0.  1.
</event>
<event>
 7    1  0.1402367E-008  0.4614232E+02  0.7816164E-02  0.1320468E+00
        -11   -1    0    0    0    0  0.00000000000E+00  0.00000000000E+00  0.45593999997E+02  0.45594000000E+02  0.51100000000E-03 0.  1.
         11   -1    0    0    0    0 -0.00000000000E+00 -0.00000000000E+00 -0.45593999997E+02  0.45594000000E+02  0.51100000000E-03 0. -1.
    9900012    2    1    2    0    0  0.55889376760E+01  0.42052681372E+02  0.15147575605E+02  0.46142320056E+02  0.10000020927E+02 0.  0.
         12    1    1    2    0    0 -0.55889376760E+01 -0.42052681372E+02 -0.15147575605E+02  0.45045679944E+02  0.00000000000E+00 0. -1.
         11    1    3    3    0    0  0.58813432942E+01  0.31385308883E+02  0.10889316425E+02  0.33737294277E+02  0.51100000000E-03 0.  1.
        -11    1    3    3    0    0 -0.10483305559E+01  0.79223223337E+01  0.50455987509E+01  0.94509393782E+01  0.51100000000E-03 0. -1.
         12    1    3    3    0    0  0.75592493769E+00  0.27450501548E+01 -0.78733957168E+00  0.29540864010E+01  0.00000000000E+00 0. -1.
</event>
<event>
 7    1  0.1402367E-008  0.4614232E+02  0.7816164E-02  0.1320468E+00
        -11   -1    0    0    0    0  0.00000000000E+00  0.00000000000E+00  0.45593999997E+02  0.45594000000E+02  0.51100000000E-03 0. -1.
         11   -1    0    0    0    0 -0.00000000000E+00 -0.00000000000E+00 -0.45593999997E+02  0.45594000000E+02  0.51100000000E-03 0.  1.
    9900012    2    1    2    0    0  0.83921392540E+01 -0.18712901789E+02 -0.40106269249E+02  0.46142317325E+02  0.99999960194E+01 0.  0.
         12    1    1    2    0    0 -0.83921392540E+01  0.18712901789E+02  0.40106269249E+02  0.45045682675E+02  0.00000000000E+00 0. -1.
         11    1    3    3    0    0 -0.32244717774E+00 -0.33299040120E+00 -0.90783397147E+00  0.10193221133E+01  0.51100000000E-03 0. -1.
        -11    1    3    3    0    0 -0.12287619181E+01 -0.17115630094E+01 -0.88622855946E+01  0.91093034865E+01  0.51100000000E-03 0.  1.
        -12    1    3    3    0    0  0.99433483498E+01 -0.16668348379E+02 -0.30336149683E+02  0.36013691725E+02  0.00000000000E+00 0.  1.
</event>
<event>
 7    1  0.1402367E-008  0.4614232E+02  0.7816164E-02  0.1320468E+00
        -11   -1    0    0    0    0  0.00000000000E+00  0.00000000000E+00  0.45593999997E+02  0.45594000000E+02  0.51100000000E-03 0.  1.
         11   -1    0    0    0    0 -0.00000000000E+00 -0.00000000000E+00 -0.45593999997E+02  0.45594000000E+02  0.51100000000E-03 0. -1.
    9900012    2    1    2    0    0  0.42801251627E+02 -0.69174073114E+01  0.12219486204E+02  0.46142317545E+02  0.99999980301E+01 0.  0.
         12    1    1    2    0    0 -0.42801251627E+02  0.69174073114E+01 -0.12219486204E+02  0.45045682455E+02  0.00000000000E+00 0. -1.
         11    1    3    3    0    0  0.13179142516E+02 -0.56932986053E+01  0.56576002929E+01  0.15430874499E+02  0.51100000000E-03 0.  1.
        -11    1    3    3    0    0  0.77178455998E+01  0.16803137863E+01  0.14240514060E+01  0.80259901440E+01  0.51100000000E-03 0. -1.
        -12    1    3    3    0    0  0.21904263511E+02 -0.29044224924E+01  0.51378345056E+01  0.22685452902E+02  0.00000000000E+00 0.  1.
</event>
<event>
 7    1  0.1402367E-008  0.4614232E+02  0.7816164E-02  0.1320468E+00
        -11   -1    0    0    0    0  0.00000000000E+00  0.00000000000E+00  0.45593999997E+02  0.45594000000E+02  0.51100000000E-03 0.  1.
         11   -1    0    0    0    0 -0.00000000000E+00 -0.00000000000E+00 -0.45593999997E+02  0.45594000000E+02  0.51100000000E-03 0. -1.
    9900012    2    1    2    0    0  0.12540910474E+02 -0.53366645968E+01  0.42934357828E+02  0.46142317558E+02  0.99999981498E+01 0.  0.
         12    1    1    2    0    0 -0.12540910474E+02  0.53366645968E+01 -0.42934357828E+02  0.45045682442E+02  0.00000000000E+00 0. -1.
         11    1    3    3    0    0 -0.54658564862E+00 -0.12002883599E+01  0.20117709616E+01  0.24055499748E+01  0.51100000000E-03 0. -1.
        -11    1    3    3    0    0  0.54336189602E+01  0.12598450019E+00  0.24791265709E+02  0.25380050095E+02  0.51100000000E-03 0.  1.
        -12    1    3    3    0    0  0.76538771624E+01 -0.42623607371E+01  0.16131321157E+02  0.18356717489E+02  0.00000000000E+00 0.  1.
</event>
<event>
 7    1  0.1402367E-008  0.4614232E+02  0.7816164E-02  0.1320468E+00
        -11   -1    0    0    0    0  0.00000000000E+00  0.00000000000E+00  0.45593999997E+02  0.45594000000E+02  0.51100000000E-03 0.  1.
         11   -1    0    0    0    0 -0.00000000000E+00 -0.00000000000E+00 -0.45593999997E+02  0.45594000000E+02  0.51100000000E-03 0. -1.
    9900012    2    1    2    0    0  0.42975985047E+02  0.12817985059E+02  0.42281742075E+01  0.46142317756E+02  0.99999999532E+01 0.  0.
         12    1    1    2    0    0 -0.42975985047E+02 -0.12817985059E+02 -0.42281742075E+01  0.45045682244E+02  0.00000000000E+00 0. -1.
         11    1    3    3    0    0  0.20944457445E+02  0.95386925404E+01  0.18867313789E+01  0.23091485630E+02  0.51100000000E-03 0. -1.
        -11    1    3    3    0    0  0.17593590499E+02  0.14197840229E+01  0.37343909316E+01  0.18041504627E+02  0.51100000000E-03 0.  1.
        -12    1    3    3    0    0  0.44379371028E+01  0.18595084958E+01 -0.13929481030E+01  0.50093274990E+01  0.00000000000E+00 0.  1.
</event>
<event>
 7    1  0.1402367E-008  0.4614232E+02  0.7816164E-02  0.1320468E+00
        -11   -1    0    0    0    0  0.00000000000E+00  0.00000000000E+00  0.45593999997E+02  0.45594000000E+02  0.51100000000E-03 0. -1.
         11   -1    0    0    0    0 -0.00000000000E+00 -0.00000000000E+00 -0.45593999997E+02  0.45594000000E+02  0.51100000000E-03 0.  1.
    9900012    2    1    2    0    0  0.11066648006E+02  0.42393023215E+02 -0.10463004922E+02  0.46142316662E+02  0.99999899798E+01 0.  0.
         12    1    1    2    0    0 -0.11066648006E+02 -0.42393023215E+02  0.10463004922E+02  0.45045683338E+02  0.00000000000E+00 0. -1.
         11    1    3    3    0    0  0.28308761912E+01  0.50482471851E+01  0.75919846015E+00  0.58373831649E+01  0.51100000000E-03 0. -1.
        -11    1    3    3    0    0  0.68735411451E+01  0.18053243793E+02 -0.45432884771E+01  0.19844562222E+02  0.51100000000E-03 0.  1.
         12    1    3    3    0    0  0.13622306702E+01  0.19291532236E+02 -0.66789149049E+01  0.20460371276E+02  0.00000000000E+00 0. -1.
</event>
<event>
 7    1  0.1402367E-008  0.4614232E+02  0.7816164E-02  0.1320468E+00
        -11   -1    0    0    0    0  0.00000000000E+00  0.00000000000E+00  0.45593999997E+02  0.45594000000E+02  0.51100000000E-03 0.  1.
         11   -1    0    0    0    0 -0.00000000000E+00 -0.00000000000E+00 -0.45593999997E+02  0.45594000000E+02  0.51100000000E-03 0. -1.
    9900012    2    1    2    0    0  0.67871078926E+01  0.30730466857E+01  0.44425274197E+02  0.46142318331E+02  0.10000005199E+02 0.  0.
         12    1    1    2    0    0 -0.67871078926E+01 -0.30730466857E+01 -0.44425274197E+02  0.45045681669E+02  0.00000000000E+00 0. -1.
         11    1    3    3    0    0 -0.62416608975E+00  0.49312004889E+00  0.26051146248E+01  0.27238526318E+01  0.51100000000E-03 0. -1.
        -11    1    3    3    0    0  0.28715312250E+01 -0.97853101534E+00  0.33548879754E+01  0.45231060249E+01  0.51100000000E-03 0.  1.
        -12    1    3    3    0    0  0.45397427573E+01  0.35584576522E+01  0.38465271597E+02  0.38895359675E+02  0.00000000000E+00 0.  1.
</event>
<event>
 7    1  0.1402367E-008  0.4614232E+02  0.7816164E-02  0.1320468E+00
        -11   -1    0    0    0    0  0.00000000000E+00  0.00000000000E+00  0.45593999997E+02  0.45594000000E+02  0.51100000000E-03 0.  1.
         11   -1    0    0    0    0 -0.00000000000E+00 -0.00000000000E+00 -0.45593999997E+02  0.45594000000E+02  0.51100000000E-03 0. -1.
    9900012    2    1    2    0    0 -0.43471958630E+02  0.58402612794E+00 -0.11788191486E+02  0.46142315055E+02  0.99999753232E+01 0.  0.
         12    1    1    2    0    0  0.43471958630E+02 -0.58402612794E+00  0.11788191486E+02  0.45045684945E+02  0.00000000000E+00 0. -1.
         11    1    3    3    0    0 -0.10398488161E+02 -0.32510624176E+01 -0.41723717322E+01  0.11666475433E+02  0.51100000000E-03 0. -1.
        -11    1    3    3    0    0 -0.26730558020E+02  0.15631630367E+01 -0.49490632488E+01  0.27229752809E+02  0.51100000000E-03 0.  1.
        -12    1    3    3    0    0 -0.63429124487E+01  0.22719255089E+01 -0.26667565048E+01  0.72460868132E+01  0.00000000000E+00 0.  1.
</event>
<event>
 7    1  0.1402367E-008  0.4614232E+02  0.7816164E-02  0.1320468E+00
        -11   -1    0    0    0    0  0.00000000000E+00  0.00000000000E+00  0.45593999997E+02  0.45594000000E+02  0.51100000000E-03 0. -1.
         11   -1    0    0    0    0 -0.00000000000E+00 -0.00000000000E+00 -0.45593999997E+02  0.45594000000E+02  0.51100000000E-03 0.  1.
    9900012    2    1    2    0    0  0.36209461277E+02 -0.37837550663E+01 -0.26526809733E+02  0.46142317377E+02  0.99999964943E+01 0.  0.
         12    1    1    2    0    0 -0.36209461277E+02  0.37837550663E+01  0.26526809733E+02  0.45045682623E+02  0.00000000000E+00 0. -1.
         11    1    3    3    0    0  0.19818057560E+02  0.21175859223E+01 -0.12522909576E+02  0.23538539464E+02  0.51100000000E-03 0. -1.
        -11    1    3    3    0    0  0.46445949766E+01 -0.31512616580E+01 -0.53730301089E+01  0.77699527249E+01  0.51100000000E-03 0.  1.
         12    1    3    3    0    0  0.11746808741E+02 -0.27500793305E+01 -0.86308700484E+01  0.14833825188E+02  0.00000000000E+00 0. -1.
</event>
<event>
 7    1  0.1402367E-008  0.4614232E+02  0.7816164E-02  0.1320468E+00
        -11   -1    0    0    0    0  0.00000000000E+00  0.00000000000E+00  0.45593999997E+02  0.45594000000E+02  0.51100000000E-03 0. -1.
         11   -1    0    0    0    0 -0.00000000000E+00 -0.00000000000E+00 -0.45593999997E+02  0.45594000000E+02  0.51100000000E-03 0.  1.
    9900012    2    1    2    0    0  0.35840656364E+02  0.26684087916E+02 -0.57026543185E+01  0.46142318045E+02  0.10000002587E+02 0.  0.
         12    1    1    2    0    0 -0.35840656364E+02 -0.26684087916E+02  0.57026543185E+01  0.45045681955E+02  0.00000000000E+00 0. -1.
         11    1    3    3    0    0  0.15594285234E+02  0.78857142469E+01 -0.33811990294E+01  0.17798840644E+02  0.51100000000E-03 0. -1.
        -11    1    3    3    0    0  0.20237283502E+02  0.18772044658E+02 -0.29082750614E+01  0.27755996978E+02  0.51100000000E-03 0.  1.
         12    1    3    3    0    0  0.90876288696E-02  0.26329011809E-01  0.58681977234E+00  0.58748042272E+00  0.00000000000E+00 0. -1.
</event>
<event>
 7    1  0.1402367E-008  0.4614232E+02  0.7816164E-02  0.1320468E+00
        -11   -1    0    0    0    0  0.00000000000E+00  0.00000000000E+00  0.45593999997E+02  0.45594000000E+02  0.51100000000E-03 0.  1.
         11   -1    0    0    0    0 -0.00000000000E+00 -0.00000000000E+00 -0.45593999997E+02  0.45594000000E+02  0.51100000000E-03 0. -1.
    9900012    2    1    2    0    0 -0.18252444905E+01 -0.19853171661E+02  0.40393483120E+02  0.46142318509E+02  0.10000006816E+02 0.  0.
         12    1    1    2    0    0  0.18252444905E+01  0.19853171661E+02 -0.40393483120E+02  0.45045681491E+02  0.00000000000E+00 0. -1.
         11    1    3    3    0    0  0.11219009042E+01 -0.43268616495E+00  0.87472031100E+01  0.88294643928E+01  0.51100000000E-03 0. -1.
        -11    1    3    3    0    0 -0.90882881718E+00 -0.12357413583E+02  0.18933868717E+02  0.22627925780E+02  0.51100000000E-03 0.  1.
         12    1    3    3    0    0 -0.20383165775E+01 -0.70630719136E+01  0.12712411293E+02  0.14684928336E+02  0.00000000000E+00 0. -1.
</event>
<event>
 7    1  0.1402367E-008  0.4614232E+02  0.7816164E-02  0.1320468E+00
        -11   -1    0    0    0    0  0.00000000000E+00  0.00000000000E+00  0.45593999997E+02  0.45594000000E+02  0.51100000000E-03 0.  1.
         11   -1    0    0    0    0 -0.00000000000E+00 -0.00000000000E+00 -0.45593999997E+02  0.45594000000E+02  0.51100000000E-03 0. -1.
    9900012    2    1    2    0    0 -0.35895892880E+01  0.12736333020E+02  0.43058260743E+02  0.46142321536E+02  0.10000034426E+02 0.  0.
         12    1    1    2    0    0  0.35895892880E+01 -0.12736333020E+02 -0.43058260743E+02  0.45045678464E+02  0.00000000000E+00 0. -1.
         11    1    3    3    0    0  0.25538446827E+00 -0.37442433844E+00  0.11965358833E+02  0.11973939497E+02  0.51100000000E-03 0. -1.
        -11    1    3    3    0    0 -0.29761939923E+01  0.91026872727E+01  0.25452536022E+02  0.27194636171E+02  0.51100000000E-03 0.  1.
         12    1    3    3    0    0 -0.86877976390E+00  0.40080700855E+01  0.56403658881E+01  0.69737458686E+01  0.00000000000E+00 0. -1.
</event>
<event>
 7    1  0.1402367E-008  0.4614232E+02  0.7816164E-02  0.1320468E+00
        -11   -1    0    0    0    0  0.00000000000E+00  0.00000000000E+00  0.45593999997E+02  0.45594000000E+02  0.51100000000E-03 0.  1.
         11   -1    0    0    0    0 -0.00000000000E+00 -0.00000000000E+00 -0.45593999997E+02  0.45594000000E+02  0.51100000000E-03 0. -1.
    9900012    2    1    2    0    0 -0.88217920352E+01 -0.21933946119E+02  0.38343076089E+02  0.46142317731E+02  0.99999997255E+01 0.  0.
         12    1    1    2    0    0  0.88217920352E+01  0.21933946119E+02 -0.38343076089E+02  0.45045682269E+02  0.00000000000E+00 0. -1.
         11    1    3    3    0    0 -0.26132763943E+01 -0.64939757995E+01  0.57235679913E+01  0.90421328242E+01  0.51100000000E-03 0.  1.
        -11    1    3    3    0    0 -0.55036495626E+01 -0.13068231231E+02  0.31142073852E+02  0.34218380881E+02  0.51100000000E-03 0. -1.
         12    1    3    3    0    0 -0.70486607829E+00 -0.23717390889E+01  0.14774342458E+01  0.28818040261E+01  0.00000000000E+00 0. -1.
</event>
<event>
 7    1  0.1402367E-008  0.4614232E+02  0.7816164E-02  0.1320468E+00
        -11   -1    0    0    0    0  0.00000000000E+00  0.00000000000E+00  0.45593999997E+02  0.45594000000E+02  0.51100000000E-03 0. -1.
         11   -1    0    0    0    0 -0.00000000000E+00 -0.00000000000E+00 -0.45593999997E+02  0.45594000000E+02  0.51100000000E-03 0.  1.
    9900012    2    1    2    0    0  0.12788413295E+02 -0.43182739378E+02 -0.90607524865E+00  0.46142317997E+02  0.10000002150E+02 0.  0.
         12    1    1    2    0    0 -0.12788413295E+02  0.43182739378E+02  0.90607524865E+00  0.45045682003E+02  0.00000000000E+00 0. -1.
         11    1    3    3    0    0  0.45615838650E+01 -0.13540607487E+02  0.76288012758E+00  0.14308671665E+02  0.51100000000E-03 0. -1.
        -11    1    3    3    0    0  0.59820623702E+01 -0.12996664525E+02 -0.40502613782E+01  0.14869531817E+02  0.51100000000E-03 0.  1.
        -12    1    3    3    0    0  0.22447670598E+01 -0.16645467366E+02  0.23813060019E+01  0.16964114515E+02  0.00000000000E+00 0.  1.
</event>
<event>
 7    1  0.1402367E-008  0.4614232E+02  0.7816164E-02  0.1320468E+00
        -11   -1    0    0    0    0  0.00000000000E+00  0.00000000000E+00  0.45593999997E+02  0.45594000000E+02  0.51100000000E-03 0. -1.
         11   -1    0    0    0    0 -0.00000000000E+00 -0.00000000000E+00 -0.45593999997E+02  0.45594000000E+02  0.51100000000E-03 0.  1.
    9900012    2    1    2    0    0  0.24200607212E+02 -0.58334114909E+01 -0.37542182329E+02  0.46142317265E+02  0.99999954738E+01 0.  0.
         12    1    1    2    0    0 -0.24200607212E+02  0.58334114909E+01  0.37542182329E+02  0.45045682735E+02  0.00000000000E+00 0. -1.
         11    1    3    3    0    0  0.76547030425E+01 -0.39380746496E+01 -0.17720343470E+02  0.19700596020E+02  0.51100000000E-03 0. -1.
        -11    1    3    3    0    0  0.56128380185E+01  0.74308331387E+00 -0.10084913499E+02  0.11565535179E+02  0.51100000000E-03 0.  1.
         12    1    3    3    0    0  0.10933066151E+02 -0.26384201552E+01 -0.97369253605E+01  0.14876186065E+02  0.00000000000E+00 0. -1.
</event>
<event>
 7    1  0.1402367E-008  0.4614232E+02  0.7816164E-02  0.1320468E+00
        -11   -1    0    0    0    0  0.00000000000E+00  0.00000000000E+00  0.45593999997E+02  0.45594000000E+02  0.51100000000E-03 0.  1.
         11   -1    0    0    0    0 -0.00000000000E+00 -0.00000000000E+00 -0.45593999997E+02  0.45594000000E+02  0.51100000000E-03 0. -1.
    9900012    2    1    2    0    0  0.45463012256E+01 -0.20291262168E+01  0.44769716318E+02  0.46142315332E+02  0.99999778489E+01 0.  0.
         12    1    1    2    0    0 -0.45463012256E+01  0.20291262168E+01 -0.44769716318E+02  0.45045684668E+02  0.00000000000E+00 0. -1.
         11    1    3    3    0    0  0.96548740063E+00  0.14819966714E+01  0.44862177490E+01  0.48223054660E+01  0.51100000000E-03 0. -1.
        -11    1    3    3    0    0  0.54532468600E+01 -0.13379499185E+01  0.18076174327E+02  0.18928182424E+02  0.51100000000E-03 0.  1.
        -12    1    3    3    0    0 -0.18724330350E+01 -0.21731729697E+01  0.22207324242E+02  0.22391827442E+02  0.00000000000E+00 0.  1.
</event>
<event>
 7    1  0.1402367E-008  0.4614232E+02  0.7816164E-02  0.1320468E+00
        -11   -1    0    0    0    0  0.00000000000E+00  0.00000000000E+00  0.45593999997E+02  0.45594000000E+02  0.51100000000E-03 0.  1.
         11   -1    0    0    0    0 -0.00000000000E+00 -0.00000000000E+00 -0.45593999997E+02  0.45594000000E+02  0.51100000000E-03 0. -1.
    9900012    2    1    2    0    0  0.11998707780E+02  0.62917848738E+01  0.42959957447E+02  0.46142317753E+02  0.99999999237E+01 0.  0.
         12    1    1    2    0    0 -0.11998707780E+02 -0.62917848738E+01 -0.42959957447E+02  0.45045682247E+02  0.00000000000E+00 0. -1.
         11    1    3    3    0    0  0.60263180202E+01  0.22779822207E+01  0.11687516111E+02  0.13345551506E+02  0.51100000000E-03 0. -1.
        -11    1    3    3    0    0  0.46486239768E+01 -0.17327988517E+00  0.94026714404E+01  0.10490470022E+02  0.51100000000E-03 0.  1.
         12    1    3    3    0    0  0.13237657828E+01  0.41870825384E+01  0.21869769895E+02  0.22306296226E+02  0.00000000000E+00 0. -1.
</event>
<event>
 7    1  0.1402367E-008  0.4614232E+02  0.7816164E-02  0.1320468E+00
        -11   -1    0    0    0    0  0.00000000000E+00  0.00000000000E+00  0.45593999997E+02  0.45594000000E+02  0.51100000000E-03 0.  1.
         11   -1    0    0    0    0 -0.00000000000E+00 -0.00000000000E+00 -0.45593999997E+02  0.45594000000E+02  0.51100000000E-03 0. -1.
    9900012    2    1    2    0    0 -0.45099980802E+01  0.15794984264E+02  0.41943913060E+02  0.46142318150E+02  0.10000003543E+02 0.  0.
         12    1    1    2    0    0  0.45099980802E+01 -0.15794984264E+02 -0.41943913060E+02  0.45045681850E+02  0.00000000000E+00 0. -1.
         11    1    3    3    0    0 -0.22938055201E+01  0.23938513869E+01  0.45784739211E+01  0.56528304357E+01  0.51100000000E-03 0. -1.
        -11    1    3    3    0    0 -0.13092348013E+01  0.23104478285E+01  0.17665435742E+02  0.17863926924E+02  0.51100000000E-03 0.  1.
        -12    1    3    3    0    0 -0.90695775881E+00  0.11090685049E+02  0.19700003397E+02  0.22625560790E+02  0.00000000000E+00 0.  1.
</event>
<event>
 7    1  0.1402367E-008  0.4614232E+02  0.7816164E-02  0.1320468E+00
        -11   -1    0    0    0    0  0.00000000000E+00  0.00000000000E+00  0.45593999997E+02  0.45594000000E+02  0.51100000000E-03 0.  1.
         11   -1    0    0    0    0 -0.00000000000E+00 -0.00000000000E+00 -0.45593999997E+02  0.45594000000E+02  0.51100000000E-03 0. -1.
    9900012    2    1    2    0    0  0.14264661647E+02  0.24689127496E+02  0.34872336492E+02  0.46142318289E+02  0.10000004812E+02 0.  0.
         12    1    1    2    0    0 -0.14264661647E+02 -0.24689127496E+02 -0.34872336492E+02  0.45045681711E+02  0.00000000000E+00 0. -1.
         11    1    3    3    0    0  0.30105397766E+01  0.78473067415E+01  0.50536860275E+01  0.98073092930E+01  0.51100000000E-03 0. -1.
        -11    1    3    3    0    0  0.45174991963E+00  0.34175771886E+01  0.38282611895E+01  0.51516498159E+01  0.51100000000E-03 0.  1.
         12    1    3    3    0    0  0.10802371951E+02  0.13424243566E+02  0.25990389275E+02  0.31183359180E+02  0.00000000000E+00 0. -1.
</event>
<event>
 7    1  0.1402367E-008  0.4614232E+02  0.7816164E-02  0.1320468E+00
        -11   -1    0    0    0    0  0.00000000000E+00  0.00000000000E+00  0.45593999997E+02  0.45594000000E+02  0.51100000000E-03 0.  1.
         11   -1    0    0    0    0 -0.00000000000E+00 -0.00000000000E+00 -0.45593999997E+02  0.45594000000E+02  0.51100000000E-03 0. -1.
    9900012    2    1    2    0    0 -0.16536657277E+01  0.44152378953E+02  0.87719032889E+01  0.46142318022E+02  0.10000002378E+02 0.  0.
         12    1    1    2    0    0  0.16536657277E+01 -0.44152378953E+02 -0.87719032889E+01  0.45045681978E+02  0.00000000000E+00 0. -1.
         11    1    3    3    0    0 -0.24970486898E+01  0.39276910487E+01  0.18961820107E+01  0.50256855863E+01  0.51100000000E-03 0.  1.
        -11    1    3    3    0    0  0.36846405977E+00  0.30616861967E+02  0.73375679888E+01  0.31485995407E+02  0.51100000000E-03 0. -1.
         12    1    3    3    0    0  0.47491890236E+00  0.96078259370E+01 -0.46184671055E+00  0.96306370289E+01  0.00000000000E+00 0. -1.
</event>
<event>
 7    1  0.1402367E-008  0.4614232E+02  0.7816164E-02  0.1320468E+00
        -11   -1    0    0    0    0  0.00000000000E+00  0.00000000000E+00  0.45593999997E+02  0.45594000000E+02  0.51100000000E-03 0.  1.
         11   -1    0    0    0    0 -0.00000000000E+00 -0.00000000000E+00 -0.45593999997E+02  0.45594000000E+02  0.51100000000E-03 0. -1.
    9900012    2    1    2    0    0 -0.12630416555E+01 -0.25775984602E+01  0.44954134219E+02  0.46142317949E+02  0.10000001713E+02 0.  0.
         12    1    1    2    0    0  0.12630416555E+01  0.25775984602E+01 -0.44954134219E+02  0.45045682051E+02  0.00000000000E+00 0. -1.
         11    1    3    3    0    0  0.10131503569E+01 -0.46849974427E+01  0.33356460430E+02  0.33699096833E+02  0.51100000000E-03 0. -1.
        -11    1    3    3    0    0 -0.76158950040E+00  0.16467624903E+01  0.10107648073E+02  0.10269196419E+02  0.51100000000E-03 0.  1.
         12    1    3    3    0    0 -0.15146025120E+01  0.46063649226E+00  0.14900257163E+01  0.21740246969E+01  0.00000000000E+00 0. -1.
</event>
<event>
 7    1  0.1402367E-008  0.4614232E+02  0.7816164E-02  0.1320468E+00
        -11   -1    0    0    0    0  0.00000000000E+00  0.00000000000E+00  0.45593999997E+02  0.45594000000E+02  0.51100000000E-03 0.  1.
         11   -1    0    0    0    0 -0.00000000000E+00 -0.00000000000E+00 -0.45593999997E+02  0.45594000000E+02  0.51100000000E-03 0. -1.
    9900012    2    1    2    0    0  0.14309858181E+02  0.11003665897E+02  0.41270575243E+02  0.46142322236E+02  0.10000040804E+02 0.  0.
         12    1    1    2    0    0 -0.14309858181E+02 -0.11003665897E+02 -0.41270575243E+02  0.45045677764E+02  0.00000000000E+00 0. -1.
         11    1    3    3    0    0  0.66547857509E+01  0.41581611447E+01  0.81171848681E+01  0.11290047296E+02  0.51100000000E-03 0. -1.
        -11    1    3    3    0    0  0.21189057694E+01  0.32387072227E+00  0.80911713090E+01  0.83702871705E+01  0.51100000000E-03 0.  1.
         12    1    3    3    0    0  0.55361666604E+01  0.65216340296E+01  0.25062219066E+02  0.26481987770E+02  0.00000000000E+00 0. -1.
</event>
<event>
 7    1  0.1402367E-008  0.4614232E+02  0.7816164E-02  0.1320468E+00
        -11   -1    0    0    0    0  0.00000000000E+00  0.00000000000E+00  0.45593999997E+02  0.45594000000E+02  0.51100000000E-03 0.  1.
         11   -1    0    0    0    0 -0.00000000000E+00 -0.00000000000E+00 -0.45593999997E+02  0.45594000000E+02  0.51100000000E-03 0. -1.
    9900012    2    1    2    0    0 -0.12178795004E+02  0.17011729577E+02  0.39892248488E+02  0.46142317850E+02  0.10000000810E+02 0.  0.
         12    1    1    2    0    0  0.12178795004E+02 -0.17011729577E+02 -0.39892248488E+02  0.45045682150E+02  0.00000000000E+00 0. -1.
         11    1    3    3    0    0 -0.88968135527E+01  0.10437154569E+02  0.15852474563E+02  0.20961594331E+02  0.51100000000E-03 0. -1.
        -11    1    3    3    0    0 -0.26874003221E+01  0.60441598398E+01  0.20075333219E+02  0.21137005294E+02  0.51100000000E-03 0.  1.
         12    1    3    3    0    0 -0.59458112885E+00  0.53041516772E+00  0.39644407061E+01  0.40437182248E+01  0.00000000000E+00 0. -1.
</event>
<event>
 7    1  0.1402367E-008  0.4614232E+02  0.7816164E-02  0.1320468E+00
        -11   -1    0    0    0    0  0.00000000000E+00  0.00000000000E+00  0.45593999997E+02  0.45594000000E+02  0.51100000000E-03 0.  1.
         11   -1    0    0    0    0 -0.00000000000E+00 -0.00000000000E+00 -0.45593999997E+02  0.45594000000E+02  0.51100000000E-03 0. -1.
    9900012    2    1    2    0    0  0.11609584520E+02  0.22058003147E+02  0.37520334497E+02  0.46142318117E+02  0.10000003244E+02 0.  0.
         12    1    1    2    0    0 -0.11609584520E+02 -0.22058003147E+02 -0.37520334497E+02  0.45045681883E+02  0.00000000000E+00 0. -1.
         11    1    3    3    0    0  0.37008260768E-01  0.62531030192E+00 -0.57335267809E+00  0.84918557433E+00  0.51100000000E-03 0. -1.
        -11    1    3    3    0    0  0.76524370123E+01  0.16265802814E+02  0.29108675858E+02  0.34211856773E+02  0.51100000000E-03 0.  1.
        -12    1    3    3    0    0  0.39201392467E+01  0.51668900317E+01  0.89850113173E+01  0.11081275770E+02  0.00000000000E+00 0.  1.
</event>
<event>
 7    1  0.1402367E-008  0.4614232E+02  0.7816164E-02  0.1320468E+00
        -11   -1    0    0    0    0  0.00000000000E+00  0.00000000000E+00  0.45593999997E+02  0.45594000000E+02  0.51100000000E-03 0. -1.
         11   -1    0    0    0    0 -0.00000000000E+00 -0.00000000000E+00 -0.45593999997E+02  0.45594000000E+02  0.51100000000E-03 0.  1.
    9900012    2    1    2    0    0  0.31083324479E+00 -0.27424538892E+02 -0.35733898541E+02  0.46142318124E+02  0.10000003306E+02 0.  0.
         12    1    1    2    0    0 -0.31083324479E+00  0.27424538892E+02  0.35733898541E+02  0.45045681876E+02  0.00000000000E+00 0. -1.
         11    1    3    3    0    0  0.83004525990E+00 -0.50813249936E+01 -0.20825355034E+01  0.55538989196E+01  0.51100000000E-03 0. -1.
        -11    1    3    3    0    0 -0.12027876046E+01 -0.44129695274E+01 -0.90317848720E+01  0.10123938774E+02  0.51100000000E-03 0.  1.
         12    1    3    3    0    0  0.68357558948E+00 -0.17930244371E+02 -0.24619578166E+02  0.30464480430E+02  0.00000000000E+00 0. -1.
</event>
<event>
 7    1  0.1402367E-008  0.4614232E+02  0.7816164E-02  0.1320468E+00
        -11   -1    0    0    0    0  0.00000000000E+00  0.00000000000E+00  0.45593999997E+02  0.45594000000E+02  0.51100000000E-03 0. -1.
         11   -1    0    0    0    0 -0.00000000000E+00 -0.00000000000E+00 -0.45593999997E+02  0.45594000000E+02  0.51100000000E-03 0.  1.
    9900012    2    1    2    0    0 -0.82065342048E+01 -0.44182065974E+02 -0.31162950558E+01  0.46142318162E+02  0.10000003651E+02 0.  0.
         12    1    1    2    0    0  0.82065342048E+01  0.44182065974E+02  0.31162950558E+01  0.45045681838E+02  0.00000000000E+00 0. -1.
         11    1    3    3    0    0 -0.75380651492E+01 -0.33898584541E+02 -0.23130765257E+01  0.34803545557E+02  0.51100000000E-03 0. -1.
        -11    1    3    3    0    0 -0.25323893302E+01 -0.53768174957E+01  0.38991005884E+00  0.59561054572E+01  0.51100000000E-03 0.  1.
         12    1    3    3    0    0  0.18639202746E+01 -0.49066639377E+01 -0.11931285889E+01  0.53826671472E+01  0.00000000000E+00 0. -1.
</event>
<event>
 7    1  0.1402367E-008  0.4614232E+02  0.7816164E-02  0.1320468E+00
        -11   -1    0    0    0    0  0.00000000000E+00  0.00000000000E+00  0.45593999997E+02  0.45594000000E+02  0.51100000000E-03 0.  1.
         11   -1    0    0    0    0 -0.00000000000E+00 -0.00000000000E+00 -0.45593999997E+02  0.45594000000E+02  0.51100000000E-03 0. -1.
    9900012    2    1    2    0    0  0.16041529777E+02 -0.74997083320E+01  0.41419043839E+02  0.46142317686E+02  0.99999993132E+01 0.  0.
         12    1    1    2    0    0 -0.16041529777E+02  0.74997083320E+01 -0.41419043839E+02  0.45045682314E+02  0.00000000000E+00 0. -1.
         11    1    3    3    0    0  0.12473523829E+02 -0.52141695653E+01  0.28752031061E+02  0.31771931816E+02  0.51100000000E-03 0. -1.
        -11    1    3    3    0    0  0.71637713465E+00 -0.25182486928E+01  0.19138030442E+01  0.32430564335E+01  0.51100000000E-03 0.  1.
         12    1    3    3    0    0  0.28516288133E+01  0.23270992611E+00  0.10753209734E+02  0.11127329436E+02  0.00000000000E+00 0. -1.
</event>
<event>
 7    1  0.1402367E-008  0.4614232E+02  0.7816164E-02  0.1320468E+00
        -11   -1    0    0    0    0  0.00000000000E+00  0.00000000000E+00  0.45593999997E+02  0.45594000000E+02  0.51100000000E-03 0.  1.
         11   -1    0    0    0    0 -0.00000000000E+00 -0.00000000000E+00 -0.45593999997E+02  0.45594000000E+02  0.51100000000E-03 0. -1.
    9900012    2    1    2    0    0 -0.37990620092E+02  0.14522247018E+02  0.19363124906E+02  0.46142317859E+02  0.10000000892E+02 0.  0.
         12    1    1    2    0    0  0.37990620092E+02 -0.14522247018E+02 -0.19363124906E+02  0.45045682141E+02  0.00000000000E+00 0. -1.
         11    1    3    3    0    0 -0.28117116805E+02  0.78672993773E+01  0.14491417103E+02  0.32595518508E+02  0.51100000000E-03 0.  1.
        -11    1    3    3    0    0 -0.46724943921E+01  0.48468681418E+01  0.97830534007E+00  0.68030446293E+01  0.51100000000E-03 0. -1.
         12    1    3    3    0    0 -0.52010088948E+01  0.18080794993E+01  0.38934024635E+01  0.67437547214E+01  0.00000000000E+00 0. -1.
</event>
<event>
 7    1  0.1402367E-008  0.4614232E+02  0.7816164E-02  0.1320468E+00
        -11   -1    0    0    0    0  0.00000000000E+00  0.00000000000E+00  0.45593999997E+02  0.45594000000E+02  0.51100000000E-03 0. -1.
         11   -1    0    0    0    0 -0.00000000000E+00 -0.00000000000E+00 -0.45593999997E+02  0.45594000000E+02  0.51100000000E-03 0.  1.
    9900012    2    1    2    0    0 -0.24192973691E+02 -0.13406665376E+02 -0.35553827550E+02  0.46142319786E+02  0.10000018462E+02 0.  0.
         12    1    1    2    0    0  0.24192973691E+02  0.13406665376E+02  0.35553827550E+02  0.45045680214E+02  0.00000000000E+00 0. -1.
         11    1    3    3    0    0 -0.82872497048E+00 -0.35210333806E+01 -0.58687396452E+01  0.68939514379E+01  0.51100000000E-03 0. -1.
        -11    1    3    3    0    0 -0.10485224996E+02 -0.59077958775E+01 -0.16204330910E+02  0.20184705493E+02  0.51100000000E-03 0.  1.
         12    1    3    3    0    0 -0.12879023725E+02 -0.39778361179E+01 -0.13480756995E+02  0.19063662855E+02  0.00000000000E+00 0. -1.
</event>
<event>
 7    1  0.1402367E-008  0.4614232E+02  0.7816164E-02  0.1320468E+00
        -11   -1    0    0    0    0  0.00000000000E+00  0.00000000000E+00  0.45593999997E+02  0.45594000000E+02  0.51100000000E-03 0.  1.
         11   -1    0    0    0    0 -0.00000000000E+00 -0.00000000000E+00 -0.45593999997E+02  0.45594000000E+02  0.51100000000E-03 0. -1.
    9900012    2    1    2    0    0 -0.30945495672E+02 -0.20084606384E+02  0.25847599929E+02  0.46142317210E+02  0.99999949730E+01 0.  0.
         12    1    1    2    0    0  0.30945495672E+02  0.20084606384E+02 -0.25847599929E+02  0.45045682790E+02  0.00000000000E+00 0. -1.
         11    1    3    3    0    0 -0.11513374752E+02 -0.42829588901E+01  0.60706872593E+01  0.13702363996E+02  0.51100000000E-03 0. -1.
        -11    1    3    3    0    0 -0.42525830779E+01 -0.23422027950E+01  0.68073266485E+01  0.83612243797E+01  0.51100000000E-03 0.  1.
         12    1    3    3    0    0 -0.15179537842E+02 -0.13459444698E+02  0.12969586021E+02  0.24078728834E+02  0.00000000000E+00 0. -1.
</event>
<event>
 7    1  0.1402367E-008  0.4614232E+02  0.7816164E-02  0.1320468E+00
        -11   -1    0    0    0    0  0.00000000000E+00  0.00000000000E+00  0.45593999997E+02  0.45594000000E+02  0.51100000000E-03 0.  1.
         11   -1    0    0    0    0 -0.00000000000E+00 -0.00000000000E+00 -0.45593999997E+02  0.45594000000E+02  0.51100000000E-03 0. -1.
    9900012    2    1    2    0    0 -0.13393584844E+02  0.20534032545E+02  0.37789929886E+02  0.46142318650E+02  0.10000008103E+02 0.  0.
         12    1    1    2    0    0  0.13393584844E+02 -0.20534032545E+02 -0.37789929886E+02  0.45045681350E+02  0.00000000000E+00 0. -1.
         11    1    3    3    0    0 -0.78816696805E+01  0.17107708022E+02  0.22823959851E+02  0.29592693934E+02  0.51100000000E-03 0. -1.
        -11    1    3    3    0    0 -0.25886021224E+01  0.21561900230E+01  0.10742788056E+02  0.11258663857E+02  0.51100000000E-03 0.  1.
         12    1    3    3    0    0 -0.29233130413E+01  0.12701345000E+01  0.42231819785E+01  0.52909608588E+01  0.00000000000E+00 0. -1.
</event>
<event>
 7    1  0.1402367E-008  0.4614232E+02  0.7816164E-02  0.1320468E+00
        -11   -1    0    0    0    0  0.00000000000E+00  0.00000000000E+00  0.45593999997E+02  0.45594000000E+02  0.51100000000E-03 0.  1.
         11   -1    0    0    0    0 -0.00000000000E+00 -0.00000000000E+00 -0.45593999997E+02  0.45594000000E+02  0.51100000000E-03 0. -1.
    9900012    2    1    2    0    0  0.26557844000E+02 -0.34533268778E+02  0.11456344931E+02  0.46142316859E+02  0.99999917757E+01 0.  0.
         12    1    1    2    0    0 -0.26557844000E+02  0.34533268778E+02 -0.11456344931E+02  0.45045683141E+02  0.00000000000E+00 0. -1.
         11    1    3    3    0    0  0.20796462910E+01 -0.77928306623E+01  0.15197272039E+01  0.82074788737E+01  0.51100000000E-03 0. -1.
        -11    1    3    3    0    0  0.11587529565E+02 -0.13018184613E+02  0.74122664437E+01  0.18938998552E+02  0.51100000000E-03 0.  1.
         12    1    3    3    0    0  0.12890668144E+02 -0.13722253502E+02  0.25243512831E+01  0.18995839434E+02  0.00000000000E+00 0. -1.
</event>
<event>
 7    1  0.1402367E-008  0.4614232E+02  0.7816164E-02  0.1320468E+00
        -11   -1    0    0    0    0  0.00000000000E+00  0.00000000000E+00  0.45593999997E+02  0.45594000000E+02  0.51100000000E-03 0. -1.
         11   -1    0    0    0    0 -0.00000000000E+00 -0.00000000000E+00 -0.45593999997E+02  0.45594000000E+02  0.51100000000E-03 0.  1.
    9900012    2    1    2    0    0 -0.36484952092E+02  0.25753676138E+02 -0.58915124317E+01  0.46142317827E+02  0.10000000597E+02 0.  0.
         12    1    1    2    0    0  0.36484952092E+02 -0.25753676138E+02  0.58915124317E+01  0.45045682173E+02  0.00000000000E+00 0. -1.
         11    1    3    3    0    0 -0.23225992704E+02  0.15792222553E+02 -0.56062062618E+01  0.28640366254E+02  0.51100000000E-03 0. -1.
        -11    1    3    3    0    0 -0.10023718470E+02  0.10140290281E+02 -0.15622408236E+00  0.14259201421E+02  0.51100000000E-03 0.  1.
         12    1    3    3    0    0 -0.32352409175E+01 -0.17883669631E+00 -0.12908208761E+00  0.32427501513E+01  0.00000000000E+00 0. -1.
</event>
<event>
 7    1  0.1402367E-008  0.4614232E+02  0.7816164E-02  0.1320468E+00
        -11   -1    0    0    0    0  0.00000000000E+00  0.00000000000E+00  0.45593999997E+02  0.45594000000E+02  0.51100000000E-03 0. -1.
         11   -1    0    0    0    0 -0.00000000000E+00 -0.00000000000E+00 -0.45593999997E+02  0.45594000000E+02  0.51100000000E-03 0.  1.
    9900012    2    1    2    0    0  0.22653126074E+02  0.33937104553E+02 -0.19084613655E+02  0.46142315804E+02  0.99999821496E+01 0.  0.
         12    1    1    2    0    0 -0.22653126074E+02 -0.33937104553E+02  0.19084613655E+02  0.45045684196E+02  0.00000000000E+00 0. -1.
         11    1    3    3    0    0  0.88869837065E+01  0.21911184177E+02 -0.10119566208E+02  0.25719333038E+02  0.51100000000E-03 0. -1.
        -11    1    3    3    0    0  0.55680475282E+01  0.50183498233E+01 -0.28094071055E+01  0.80049832461E+01  0.51100000000E-03 0.  1.
         12    1    3    3    0    0  0.81980948398E+01  0.70075705530E+01 -0.61556403406E+01  0.12417999519E+02  0.00000000000E+00 0. -1.
</event>
<event>
 7    1  0.1402367E-008  0.4614232E+02  0.7816164E-02  0.1320468E+00
        -11   -1    0    0    0    0  0.00000000000E+00  0.00000000000E+00  0.45593999997E+02  0.45594000000E+02  0.51100000000E-03 0. -1.
         11   -1    0    0    0    0 -0.00000000000E+00 -0.00000000000E+00 -0.45593999997E+02  0.45594000000E+02  0.51100000000E-03 0.  1.
    9900012    2    1    2    0    0  0.20027027542E+02 -0.20053805222E+02 -0.35012518303E+02  0.46142319031E+02  0.10000011580E+02 0.  0.
         12    1    1    2    0    0 -0.20027027542E+02  0.20053805222E+02  0.35012518303E+02  0.45045680969E+02  0.00000000000E+00 0. -1.
         11    1    3    3    0    0 -0.76721309437E+00 -0.37066766614E+00 -0.77683929690E+00  0.11530351275E+01  0.51100000000E-03 0. -1.
        -11    1    3    3    0    0  0.67766621470E+01 -0.98227370396E+01 -0.12102432419E+02  0.16996416785E+02  0.51100000000E-03 0.  1.
         12    1    3    3    0    0  0.14017578489E+02 -0.98604005160E+01 -0.22133246587E+02  0.27992867119E+02  0.00000000000E+00 0. -1.
</event>
<event>
 7    1  0.1402367E-008  0.4614231E+02  0.7816164E-02  0.1320468E+00
        -11   -1    0    0    0    0  0.00000000000E+00  0.00000000000E+00  0.45593999997E+02  0.45594000000E+02  0.51100000000E-03 0. -1.
         11   -1    0    0    0    0 -0.00000000000E+00 -0.00000000000E+00 -0.45593999997E+02  0.45594000000E+02  0.51100000000E-03 0.  1.
    9900012    2    1    2    0    0 -0.80254797546E+01  0.64160810650E+01 -0.43858173263E+02  0.46142314485E+02  0.99999701256E+01 0.  0.
         12    1    1    2    0    0  0.80254797546E+01 -0.64160810650E+01  0.43858173263E+02  0.45045685515E+02  0.00000000000E+00 0. -1.
         11    1    3    3    0    0  0.86286336315E+00  0.60663712759E+00 -0.45993913398E+01  0.47187861517E+01  0.51100000000E-03 0. -1.
        -11    1    3    3    0    0 -0.92392380047E+01  0.25999782377E+01 -0.24440378792E+02  0.26257485057E+02  0.51100000000E-03 0.  1.
        -12    1    3    3    0    0  0.35089488693E+00  0.32094656997E+01 -0.14818403132E+02  0.15166043277E+02  0.00000000000E+00 0.  1.
</event>
<event>
 7    1  0.1402367E-008  0.4614232E+02  0.7816164E-02  0.1320468E+00
        -11   -1    0    0    0    0  0.00000000000E+00  0.00000000000E+00  0.45593999997E+02  0.45594000000E+02  0.51100000000E-03 0. -1.
         11   -1    0    0    0    0 -0.00000000000E+00 -0.00000000000E+00 -0.45593999997E+02  0.45594000000E+02  0.51100000000E-03 0.  1.
    9900012    2    1    2    0    0  0.21631865676E+02  0.34253051772E+02 -0.19695286186E+02  0.46142318006E+02  0.10000002238E+02 0.  0.
         12    1    1    2    0    0 -0.21631865676E+02 -0.34253051772E+02  0.19695286186E+02  0.45045681994E+02  0.00000000000E+00 0. -1.
         11    1    3    3    0    0  0.28512973695E+01  0.11166533859E+02 -0.55230266374E+01  0.12779874750E+02  0.51100000000E-03 0. -1.
        -11    1    3    3    0    0  0.56763831414E+01  0.93371032101E+01 -0.74013725673E+01  0.13197845963E+02  0.51100000000E-03 0.  1.
         12    1    3    3    0    0  0.13104185165E+02  0.13749414702E+02 -0.67708869813E+01  0.20164597294E+02  0.00000000000E+00 0. -1.
</event>
<event>
 7    1  0.1402367E-008  0.4614232E+02  0.7816164E-02  0.1320468E+00
        -11   -1    0    0    0    0  0.00000000000E+00  0.00000000000E+00  0.45593999997E+02  0.45594000000E+02  0.51100000000E-03 0.  1.
         11   -1    0    0    0    0 -0.00000000000E+00 -0.00000000000E+00 -0.45593999997E+02  0.45594000000E+02  0.51100000000E-03 0. -1.
    9900012    2    1    2    0    0  0.29106881120E+02 -0.10156329764E+02  0.32844353540E+02  0.46142321825E+02  0.10000037059E+02 0.  0.
         12    1    1    2    0    0 -0.29106881120E+02  0.10156329764E+02 -0.32844353540E+02  0.45045678175E+02  0.00000000000E+00 0. -1.
         11    1    3    3    0    0  0.63344152174E+01 -0.30301039371E+01  0.35313415505E+01  0.78598167551E+01  0.51100000000E-03 0. -1.
        -11    1    3    3    0    0  0.11306377948E+02 -0.37100539170E+01  0.19336332022E+02  0.22704458124E+02  0.51100000000E-03 0.  1.
         12    1    3    3    0    0  0.11466087954E+02 -0.34161719096E+01  0.99766799667E+01  0.15578046946E+02  0.00000000000E+00 0. -1.
</event>
<event>
 7    1  0.1402367E-008  0.4614232E+02  0.7816164E-02  0.1320468E+00
        -11   -1    0    0    0    0  0.00000000000E+00  0.00000000000E+00  0.45593999997E+02  0.45594000000E+02  0.51100000000E-03 0. -1.
         11   -1    0    0    0    0 -0.00000000000E+00 -0.00000000000E+00 -0.45593999997E+02  0.45594000000E+02  0.51100000000E-03 0.  1.
    9900012    2    1    2    0    0  0.34005689940E+02 -0.28470102551E+02 -0.78854307626E+01  0.46142315346E+02  0.99999779813E+01 0.  0.
         12    1    1    2    0    0 -0.34005689940E+02  0.28470102551E+02  0.78854307626E+01  0.45045684654E+02  0.00000000000E+00 0. -1.
         11    1    3    3    0    0  0.66247557126E+01 -0.11236368262E+02 -0.23128206030E+01  0.13247358203E+02  0.51100000000E-03 0. -1.
        -11    1    3    3    0    0  0.13327605122E+02 -0.73226842298E+01 -0.31318444196E+01  0.15525952865E+02  0.51100000000E-03 0.  1.
        -12    1    3    3    0    0  0.14053329105E+02 -0.99110500601E+01 -0.24407657401E+01  0.17369004279E+02  0.00000000000E+00 0.  1.
</event>
<event>
 7    1  0.1402367E-008  0.4614232E+02  0.7816164E-02  0.1320468E+00
        -11   -1    0    0    0    0  0.00000000000E+00  0.00000000000E+00  0.45593999997E+02  0.45594000000E+02  0.51100000000E-03 0. -1.
         11   -1    0    0    0    0 -0.00000000000E+00 -0.00000000000E+00 -0.45593999997E+02  0.45594000000E+02  0.51100000000E-03 0.  1.
    9900012    2    1    2    0    0 -0.12870712734E+02  0.41644842227E+02  0.11365095478E+02  0.46142317347E+02  0.99999962250E+01 0.  0.
         12    1    1    2    0    0  0.12870712734E+02 -0.41644842227E+02 -0.11365095478E+02  0.45045682653E+02  0.00000000000E+00 0. -1.
         11    1    3    3    0    0 -0.20728996591E+01  0.12236262400E+02  0.49829558563E+01  0.13373588892E+02  0.51100000000E-03 0. -1.
        -11    1    3    3    0    0 -0.10742938946E+02  0.28444772849E+02  0.74743405439E+01  0.31311046077E+02  0.51100000000E-03 0.  1.
         12    1    3    3    0    0 -0.54874129054E-01  0.96380697793E+00 -0.10922009217E+01  0.14576823777E+01  0.00000000000E+00 0. -1.
</event>
<event>
 7    1  0.1402367E-008  0.4614232E+02  0.7816164E-02  0.1320468E+00
        -11   -1    0    0    0    0  0.00000000000E+00  0.00000000000E+00  0.45593999997E+02  0.45594000000E+02  0.51100000000E-03 0.  1.
         11   -1    0    0    0    0 -0.00000000000E+00 -0.00000000000E+00 -0.45593999997E+02  0.45594000000E+02  0.51100000000E-03 0. -1.
    9900012    2    1    2    0    0 -0.97468204959E+01  0.21312245499E+02  0.38469484672E+02  0.46142316867E+02  0.99999918490E+01 0.  0.
         12    1    1    2    0    0  0.97468204959E+01 -0.21312245499E+02 -0.38469484672E+02  0.45045683133E+02  0.00000000000E+00 0. -1.
         11    1    3    3    0    0 -0.93458762318E+00  0.10188943994E+02  0.18835906857E+02  0.21435471096E+02  0.51100000000E-03 0. -1.
        -11    1    3    3    0    0 -0.52860460703E+01  0.68918121257E+01  0.15686217617E+02  0.17930331308E+02  0.51100000000E-03 0.  1.
         12    1    3    3    0    0 -0.35261868024E+01  0.42314893794E+01  0.39473601981E+01  0.67765144630E+01  0.00000000000E+00 0. -1.
</event>
<event>
 7    1  0.1402367E-008  0.4614233E+02  0.7816164E-02  0.1320468E+00
        -11   -1    0    0    0    0  0.00000000000E+00  0.00000000000E+00  0.45593999997E+02  0.45594000000E+02  0.51100000000E-03 0.  1.
         11   -1    0    0    0    0 -0.00000000000E+00 -0.00000000000E+00 -0.45593999997E+02  0.45594000000E+02  0.51100000000E-03 0. -1.
    9900012    2    1    2    0    0  0.13108399946E+02 -0.43021811680E+02  0.25310037216E+01  0.46142329740E+02  0.10000109231E+02 0.  0.
         12    1    1    2    0    0 -0.13108399946E+02  0.43021811680E+02 -0.25310037216E+01  0.45045670260E+02  0.00000000000E+00 0. -1.
         11    1    3    3    0    0 -0.61108720567E+00 -0.13738196833E+01 -0.76760131269E-01  0.15055565330E+01  0.51100000000E-03 0. -1.
        -11    1    3    3    0    0  0.72648210715E+01 -0.14355941736E+02 -0.20088810983E+01  0.16214385337E+02  0.51100000000E-03 0.  1.
        -12    1    3    3    0    0  0.64546660802E+01 -0.27292050260E+02  0.46166449511E+01  0.28422387870E+02  0.00000000000E+00 0.  1.
</event>
<event>
 7    1  0.1402367E-008  0.4614231E+02  0.7816164E-02  0.1320468E+00
        -11   -1    0    0    0    0  0.00000000000E+00  0.00000000000E+00  0.45593999997E+02  0.45594000000E+02  0.51100000000E-03 0.  1.
         11   -1    0    0    0    0 -0.00000000000E+00 -0.00000000000E+00 -0.45593999997E+02  0.45594000000E+02  0.51100000000E-03 0. -1.
    9900012    2    1    2    0    0 -0.33219643489E+02 -0.33897056660E+01  0.30233738199E+02  0.46142314929E+02  0.99999741791E+01 0.  0.
         12    1    1    2    0    0  0.33219643489E+02  0.33897056660E+01 -0.30233738199E+02  0.45045685071E+02  0.00000000000E+00 0. -1.
         11    1    3    3    0    0 -0.45269873870E+01  0.23117107786E+01  0.32833298351E+01  0.60512706593E+01  0.51100000000E-03 0. -1.
        -11    1    3    3    0    0 -0.14781413842E+02 -0.48725944451E+00  0.14422725711E+02  0.20657749977E+02  0.51100000000E-03 0.  1.
        -12    1    3    3    0    0 -0.13911242259E+02 -0.52141570000E+01  0.12527682653E+02  0.19433294293E+02  0.00000000000E+00 0.  1.
</event>
<event>
 7    1  0.1402367E-008  0.4614232E+02  0.7816164E-02  0.1320468E+00
        -11   -1    0    0    0    0  0.00000000000E+00  0.00000000000E+00  0.45593999997E+02  0.45594000000E+02  0.51100000000E-03 0.  1.
         11   -1    0    0    0    0 -0.00000000000E+00 -0.00000000000E+00 -0.45593999997E+02  0.45594000000E+02  0.51100000000E-03 0. -1.
    9900012    2    1    2    0    0  0.17638100384E+02  0.30198853845E+02  0.28390847897E+02  0.46142316489E+02  0.99999883990E+01 0.  0.
         12    1    1    2    0    0 -0.17638100384E+02 -0.30198853845E+02 -0.28390847897E+02  0.45045683511E+02  0.00000000000E+00 0. -1.
         11    1    3    3    0    0  0.95020999298E+01  0.97263160705E+01  0.12031681885E+02  0.18156334890E+02  0.51100000000E-03 0. -1.
        -11    1    3    3    0    0  0.29573195467E+01  0.39576772613E+01  0.14684728394E+01  0.51541595772E+01  0.51100000000E-03 0.  1.
        -12    1    3    3    0    0  0.51786809076E+01  0.16514860513E+02  0.14890693172E+02  0.22831822022E+02  0.00000000000E+00 0.  1.
</event>
<event>
 7    1  0.1402367E-008  0.4614232E+02  0.7816164E-02  0.1320468E+00
        -11   -1    0    0    0    0  0.00000000000E+00  0.00000000000E+00  0.45593999997E+02  0.45594000000E+02  0.51100000000E-03 0.  1.
         11   -1    0    0    0    0 -0.00000000000E+00 -0.00000000000E+00 -0.45593999997E+02  0.45594000000E+02  0.51100000000E-03 0. -1.
    9900012    2    1    2    0    0 -0.81421329174E+01  0.20581126907E+02  0.39233102756E+02  0.46142318020E+02  0.10000002361E+02 0.  0.
         12    1    1    2    0    0  0.81421329174E+01 -0.20581126907E+02 -0.39233102756E+02  0.45045681980E+02  0.00000000000E+00 0. -1.
         11    1    3    3    0    0  0.14496039949E+01  0.79594780743E+01  0.14069733542E+02  0.16229973665E+02  0.51100000000E-03 0. -1.
        -11    1    3    3    0    0 -0.75339373374E+01  0.94506111970E+01  0.16435330858E+02  0.20400842249E+02  0.51100000000E-03 0.  1.
         12    1    3    3    0    0 -0.20577995749E+01  0.31710376357E+01  0.87280383549E+01  0.95115021054E+01  0.00000000000E+00 0. -1.
</event>
<event>
 7    1  0.1402367E-008  0.4614233E+02  0.7816164E-02  0.1320468E+00
        -11   -1    0    0    0    0  0.00000000000E+00  0.00000000000E+00  0.45593999997E+02  0.45594000000E+02  0.51100000000E-03 0.  1.
         11   -1    0    0    0    0 -0.00000000000E+00 -0.00000000000E+00 -0.45593999997E+02  0.45594000000E+02  0.51100000000E-03 0. -1.
    9900012    2    1    2    0    0 -0.19319320905E+02 -0.39060218414E+02  0.11409451036E+02  0.46142329889E+02  0.10000110593E+02 0.  0.
         12    1    1    2    0    0  0.19319320905E+02  0.39060218414E+02 -0.11409451036E+02  0.45045670111E+02  0.00000000000E+00 0. -1.
         11    1    3    3    0    0 -0.69884930098E+01 -0.16290337550E+02  0.68609968804E+01  0.19007561929E+02  0.51100000000E-03 0.  1.
        -11    1    3    3    0    0 -0.12007233772E+02 -0.18403219493E+02  0.55047710622E+01  0.22652917147E+02  0.51100000000E-03 0. -1.
        -12    1    3    3    0    0 -0.32359412368E+00 -0.43666613704E+01 -0.95631690638E+00  0.44818508125E+01  0.00000000000E+00 0.  1.
</event>
<event>
 7    1  0.1402367E-008  0.4614232E+02  0.7816164E-02  0.1320468E+00
        -11   -1    0    0    0    0  0.00000000000E+00  0.00000000000E+00  0.45593999997E+02  0.45594000000E+02  0.51100000000E-03 0.  1.
         11   -1    0    0    0    0 -0.00000000000E+00 -0.00000000000E+00 -0.45593999997E+02  0.45594000000E+02  0.51100000000E-03 0. -1.
    9900012    2    1    2    0    0 -0.42923231325E+02  0.11024265806E+02  0.80731161505E+01  0.46142318428E+02  0.10000006079E+02 0.  0.
         12    1    1    2    0    0  0.42923231325E+02 -0.11024265806E+02 -0.80731161505E+01  0.45045681572E+02  0.00000000000E+00 0. -1.
         11    1    3    3    0    0 -0.20163124263E+02  0.39155639764E+01  0.60813009663E+01  0.21421144764E+02  0.51100000000E-03 0. -1.
        -11    1    3    3    0    0 -0.22208571504E+02  0.76480303670E+01  0.10613693904E+01  0.23512539676E+02  0.51100000000E-03 0.  1.
         12    1    3    3    0    0 -0.55153555753E+00 -0.53932853700E+00  0.93044579376E+00  0.12086339881E+01  0.00000000000E+00 0. -1.
</event>
<event>
 7    1  0.1402367E-008  0.4614232E+02  0.7816164E-02  0.1320468E+00
        -11   -1    0    0    0    0  0.00000000000E+00  0.00000000000E+00  0.45593999997E+02  0.45594000000E+02  0.51100000000E-03 0. -1.
         11   -1    0    0    0    0 -0.00000000000E+00 -0.00000000000E+00 -0.45593999997E+02  0.45594000000E+02  0.51100000000E-03 0.  1.
    9900012    2    1    2    0    0  0.58011705144E+01  0.22958684379E+02 -0.38319169134E+02  0.46142317733E+02  0.99999997472E+01 0.  0.
         12    1    1    2    0    0 -0.58011705144E+01 -0.22958684379E+02  0.38319169134E+02  0.45045682267E+02  0.00000000000E+00 0. -1.
         11    1    3    3    0    0  0.25664288245E+01  0.56138961244E+01 -0.16470914969E+02  0.17589582905E+02  0.51100000000E-03 0. -1.
        -11    1    3    3    0    0  0.39656456142E+00  0.76048115194E+01 -0.58237450013E+01  0.95867840175E+01  0.51100000000E-03 0.  1.
        -12    1    3    3    0    0  0.28381771285E+01  0.97399767351E+01 -0.16024509164E+02  0.18965950811E+02  0.00000000000E+00 0.  1.
</event>
<event>
 7    1  0.1402367E-008  0.4614232E+02  0.7816164E-02  0.1320468E+00
        -11   -1    0    0    0    0  0.00000000000E+00  0.00000000000E+00  0.45593999997E+02  0.45594000000E+02  0.51100000000E-03 0. -1.
         11   -1    0    0    0    0 -0.00000000000E+00 -0.00000000000E+00 -0.45593999997E+02  0.45594000000E+02  0.51100000000E-03 0.  1.
    9900012    2    1    2    0    0  0.24051534844E+02 -0.38068562123E+02 -0.11923913668E+01  0.46142317104E+02  0.99999940037E+01 0.  0.
         12    1    1    2    0    0 -0.24051534844E+02  0.38068562123E+02  0.11923913668E+01  0.45045682896E+02  0.00000000000E+00 0. -1.
         11    1    3    3    0    0  0.18749829593E+02 -0.28292218675E+02  0.12266510734E+01  0.33963368803E+02  0.51100000000E-03 0. -1.
        -11    1    3    3    0    0  0.10579806375E+01 -0.39105008708E+00 -0.14446390300E+01  0.18328189731E+01  0.51100000000E-03 0.  1.
        -12    1    3    3    0    0  0.42437246136E+01 -0.93852933602E+01 -0.97440341019E+00  0.10346129327E+02  0.00000000000E+00 0.  1.
</event>
<event>
 7    1  0.1402367E-008  0.4614232E+02  0.7816164E-02  0.1320468E+00
        -11   -1    0    0    0    0  0.00000000000E+00  0.00000000000E+00  0.45593999997E+02  0.45594000000E+02  0.51100000000E-03 0.  1.
         11   -1    0    0    0    0 -0.00000000000E+00 -0.00000000000E+00 -0.45593999997E+02  0.45594000000E+02  0.51100000000E-03 0. -1.
    9900012    2    1    2    0    0 -0.31881722103E+02  0.25442849415E+02  0.19113624814E+02  0.46142318252E+02  0.10000004479E+02 0.  0.
         12    1    1    2    0    0  0.31881722103E+02 -0.25442849415E+02 -0.19113624814E+02  0.45045681748E+02  0.00000000000E+00 0. -1.
         11    1    3    3    0    0 -0.20983717633E+02  0.14126283480E+02  0.15289093439E+02  0.29557142438E+02  0.51100000000E-03 0. -1.
        -11    1    3    3    0    0 -0.46172811675E+01  0.25570952638E+01  0.20469217958E+01  0.56610874103E+01  0.51100000000E-03 0.  1.
         12    1    3    3    0    0 -0.62807233024E+01  0.87594706713E+01  0.17776095792E+01  0.10924088404E+02  0.00000000000E+00 0. -1.
</event>
<event>
 7    1  0.1402367E-008  0.4614232E+02  0.7816164E-02  0.1320468E+00
        -11   -1    0    0    0    0  0.00000000000E+00  0.00000000000E+00  0.45593999997E+02  0.45594000000E+02  0.51100000000E-03 0. -1.
         11   -1    0    0    0    0 -0.00000000000E+00 -0.00000000000E+00 -0.45593999997E+02  0.45594000000E+02  0.51100000000E-03 0.  1.
    9900012    2    1    2    0    0  0.40890132420E+02  0.17801251580E+02  0.63424095443E+01  0.46142316011E+02  0.99999840451E+01 0.  0.
         12    1    1    2    0    0 -0.40890132420E+02 -0.17801251580E+02 -0.63424095443E+01  0.45045683989E+02  0.00000000000E+00 0. -1.
         11    1    3    3    0    0  0.57211403592E+01  0.42601581639E+01 -0.11799804184E+00  0.71340253987E+01  0.51100000000E-03 0. -1.
        -11    1    3    3    0    0  0.24296318140E+02  0.12805451036E+02  0.33010463226E+01  0.27662023760E+02  0.51100000000E-03 0.  1.
        -12    1    3    3    0    0  0.10872673921E+02  0.73564238021E+00  0.31593612635E+01  0.11346266853E+02  0.00000000000E+00 0.  1.
</event>
<event>
 7    1  0.1402367E-008  0.4614231E+02  0.7816164E-02  0.1320468E+00
        -11   -1    0    0    0    0  0.00000000000E+00  0.00000000000E+00  0.45593999997E+02  0.45594000000E+02  0.51100000000E-03 0.  1.
         11   -1    0    0    0    0 -0.00000000000E+00 -0.00000000000E+00 -0.45593999997E+02  0.45594000000E+02  0.51100000000E-03 0. -1.
    9900012    2    1    2    0    0  0.33546287424E+01 -0.29939025722E+02  0.33489038939E+02  0.46142306263E+02  0.99998951532E+01 0.  0.
         12    1    1    2    0    0 -0.33546287424E+01  0.29939025722E+02 -0.33489038939E+02  0.45045693737E+02  0.00000000000E+00 0. -1.
         11    1    3    3    0    0 -0.21593029700E+01 -0.64894421426E+01  0.11386955347E+02  0.13283004215E+02  0.51100000000E-03 0. -1.
        -11    1    3    3    0    0  0.27336650755E+01 -0.16825745321E+02  0.16774019331E+02  0.23915399958E+02  0.51100000000E-03 0.  1.
        -12    1    3    3    0    0  0.27802666369E+01 -0.66238382584E+01  0.53280642610E+01  0.89439020911E+01  0.00000000000E+00 0.  1.
</event>
<event>
 7    1  0.1402367E-008  0.4614232E+02  0.7816164E-02  0.1320468E+00
        -11   -1    0    0    0    0  0.00000000000E+00  0.00000000000E+00  0.45593999997E+02  0.45594000000E+02  0.51100000000E-03 0.  1.
         11   -1    0    0    0    0 -0.00000000000E+00 -0.00000000000E+00 -0.45593999997E+02  0.45594000000E+02  0.51100000000E-03 0. -1.
    9900012    2    1    2    0    0 -0.10044868892E+02  0.26252659487E+02  0.35199601893E+02  0.46142317692E+02  0.99999993704E+01 0.  0.
         12    1    1    2    0    0  0.10044868892E+02 -0.26252659487E+02 -0.35199601893E+02  0.45045682308E+02  0.00000000000E+00 0. -1.
         11    1    3    3    0    0 -0.19756249454E+01  0.65389921544E+01  0.39692299889E+01  0.79003986789E+01  0.51100000000E-03 0. -1.
        -11    1    3    3    0    0 -0.78629996103E+01  0.16961386859E+02  0.29677116247E+02  0.35074871860E+02  0.51100000000E-03 0.  1.
        -12    1    3    3    0    0 -0.20624433596E+00  0.27522804735E+01  0.15532556573E+01  0.31670471528E+01  0.00000000000E+00 0.  1.
</event>
<event>
 7    1  0.1402367E-008  0.4614232E+02  0.7816164E-02  0.1320468E+00
        -11   -1    0    0    0    0  0.00000000000E+00  0.00000000000E+00  0.45593999997E+02  0.45594000000E+02  0.51100000000E-03 0.  1.
         11   -1    0    0    0    0 -0.00000000000E+00 -0.00000000000E+00 -0.45593999997E+02  0.45594000000E+02  0.51100000000E-03 0. -1.
    9900012    2    1    2    0    0  0.13797660193E+01 -0.11970977198E+02  0.43403982277E+02  0.46142315114E+02  0.99999758654E+01 0.  0.
         12    1    1    2    0    0 -0.13797660193E+01  0.11970977198E+02 -0.43403982277E+02  0.45045684886E+02  0.00000000000E+00 0. -1.
         11    1    3    3    0    0  0.91667896233E+00  0.79248392781E-01  0.55026155083E+01  0.55790105145E+01  0.51100000000E-03 0. -1.
        -11    1    3    3    0    0 -0.25426079970E+01 -0.50680926047E+01  0.86684323936E+01  0.10358191855E+02  0.51100000000E-03 0.  1.
        -12    1    3    3    0    0  0.30056950539E+01 -0.69821329862E+01  0.29232934375E+02  0.30205112745E+02  0.00000000000E+00 0.  1.
</event>
<event>
 7    1  0.1402367E-008  0.4614232E+02  0.7816164E-02  0.1320468E+00
        -11   -1    0    0    0    0  0.00000000000E+00  0.00000000000E+00  0.45593999997E+02  0.45594000000E+02  0.51100000000E-03 0.  1.
         11   -1    0    0    0    0 -0.00000000000E+00 -0.00000000000E+00 -0.45593999997E+02  0.45594000000E+02  0.51100000000E-03 0. -1.
    9900012    2    1    2    0    0 -0.31015896156E+02  0.25657498647E+02  0.20219308146E+02  0.46142317931E+02  0.10000001546E+02 0.  0.
         12    1    1    2    0    0  0.31015896156E+02 -0.25657498647E+02 -0.20219308146E+02  0.45045682069E+02  0.00000000000E+00 0. -1.
         11    1    3    3    0    0 -0.18601286167E+01  0.15515253809E+00  0.19749210736E-01  0.18666925492E+01  0.51100000000E-03 0. -1.
        -11    1    3    3    0    0 -0.16231997295E+02  0.18798272201E+02  0.12441453641E+02  0.27778454653E+02  0.51100000000E-03 0.  1.
        -12    1    3    3    0    0 -0.12923770245E+02  0.67040739074E+01  0.77581052938E+01  0.16497170729E+02  0.00000000000E+00 0.  1.
</event>
<event>
 7    1  0.1666866E-008  0.4614232E+02  0.7816164E-02  0.1320468E+00
        -11   -1    0    0    0    0  0.00000000000E+00  0.00000000000E+00  0.45593999997E+02  0.45594000000E+02  0.51100000000E-03 0.  1.
         11   -1    0    0    0    0 -0.00000000000E+00 -0.00000000000E+00 -0.45593999997E+02  0.45594000000E+02  0.51100000000E-03 0. -1.
    9900012    2    1    2    0    0  0.40961554090E+02  0.17497824626E+01  0.18660192029E+02  0.46142318535E+02  0.10000007053E+02 0.  0.
         12    1    1    2    0    0 -0.40961554090E+02 -0.17497824626E+01 -0.18660192029E+02  0.45045681465E+02  0.00000000000E+00 0. -1.
         11    1    3    3    0    0  0.77985027653E+01  0.14377400881E+01 -0.24230156473E+00  0.79336279375E+01  0.51100000000E-03 0. -1.
        -11    1    3    3    0    0  0.24840125138E+02 -0.41702425949E+00  0.13803112422E+02  0.28420619960E+02  0.51100000000E-03 0.  1.
         12    1    3    3    0    0  0.83229261867E+01  0.72906663401E+00  0.50993811713E+01  0.97880706371E+01  0.00000000000E+00 0. -1.
</event>
<event>
 7    1  0.1402367E-008  0.4614232E+02  0.7816164E-02  0.1320468E+00
        -11   -1    0    0    0    0  0.00000000000E+00  0.00000000000E+00  0.45593999997E+02  0.45594000000E+02  0.51100000000E-03 0.  1.
         11   -1    0    0    0    0 -0.00000000000E+00 -0.00000000000E+00 -0.45593999997E+02  0.45594000000E+02  0.51100000000E-03 0. -1.
    9900012    2    1    2    0    0  0.67303826494E+01  0.11982097898E+02  0.42898073477E+02  0.46142318424E+02  0.10000006043E+02 0.  0.
         12    1    1    2    0    0 -0.67303826494E+01 -0.11982097898E+02 -0.42898073477E+02  0.45045681576E+02  0.00000000000E+00 0. -1.
         11    1    3    3    0    0  0.51088423686E+01  0.72186032632E+01  0.24214725844E+02  0.25779089421E+02  0.51100000000E-03 0. -1.
        -11    1    3    3    0    0  0.33513486503E+00 -0.12861645975E+01  0.71859559449E+01  0.73078381107E+01  0.51100000000E-03 0.  1.
         12    1    3    3    0    0  0.12864054158E+01  0.60496592323E+01  0.11497391688E+02  0.13055390892E+02  0.00000000000E+00 0. -1.
</event>
<event>
 7    1  0.1402367E-008  0.4614232E+02  0.7816164E-02  0.1320468E+00
        -11   -1    0    0    0    0  0.00000000000E+00  0.00000000000E+00  0.45593999997E+02  0.45594000000E+02  0.51100000000E-03 0.  1.
         11   -1    0    0    0    0 -0.00000000000E+00 -0.00000000000E+00 -0.45593999997E+02  0.45594000000E+02  0.51100000000E-03 0. -1.
    9900012    2    1    2    0    0 -0.30529008179E+02 -0.30498808664E+00  0.33120993259E+02  0.46142317048E+02  0.99999935007E+01 0.  0.
         12    1    1    2    0    0  0.30529008179E+02  0.30498808664E+00 -0.33120993259E+02  0.45045682952E+02  0.00000000000E+00 0. -1.
         11    1    3    3    0    0 -0.13537417379E+02  0.25832410324E+01  0.11970828887E+02  0.18254740426E+02  0.51100000000E-03 0. -1.
        -11    1    3    3    0    0 -0.87041845278E+01 -0.41028995237E+01  0.93518352781E+01  0.13418399164E+02  0.51100000000E-03 0.  1.
         12    1    3    3    0    0 -0.82874062722E+01  0.12146704047E+01  0.11798329094E+02  0.14469177458E+02  0.00000000000E+00 0. -1.
</event>
<event>
 7    1  0.1402367E-008  0.4614232E+02  0.7816164E-02  0.1320468E+00
        -11   -1    0    0    0    0  0.00000000000E+00  0.00000000000E+00  0.45593999997E+02  0.45594000000E+02  0.51100000000E-03 0. -1.
         11   -1    0    0    0    0 -0.00000000000E+00 -0.00000000000E+00 -0.45593999997E+02  0.45594000000E+02  0.51100000000E-03 0.  1.
    9900012    2    1    2    0    0 -0.16592425968E+02  0.29637571987E+02  0.29587487237E+02  0.46142315703E+02  0.99999812328E+01 0.  0.
         12    1    1    2    0    0  0.16592425968E+02 -0.29637571987E+02 -0.29587487237E+02  0.45045684297E+02  0.00000000000E+00 0. -1.
         11    1    3    3    0    0 -0.18651877178E+01  0.44251719799E+01  0.56152372216E+01  0.73886373298E+01  0.51100000000E-03 0. -1.
        -11    1    3    3    0    0 -0.11942683771E+01  0.68087212118E+01  0.93612823071E+01  0.11636948405E+02  0.51100000000E-03 0.  1.
        -12    1    3    3    0    0 -0.13532969873E+02  0.18403678795E+02  0.14610967709E+02  0.27116729968E+02  0.00000000000E+00 0.  1.
</event>
<event>
 7    1  0.1402367E-008  0.4614232E+02  0.7816164E-02  0.1320468E+00
        -11   -1    0    0    0    0  0.00000000000E+00  0.00000000000E+00  0.45593999997E+02  0.45594000000E+02  0.51100000000E-03 0. -1.
         11   -1    0    0    0    0 -0.00000000000E+00 -0.00000000000E+00 -0.45593999997E+02  0.45594000000E+02  0.51100000000E-03 0.  1.
    9900012    2    1    2    0    0 -0.72733851022E+01 -0.36096054286E+02 -0.25947760459E+02  0.46142317203E+02  0.99999949072E+01 0.  0.
         12    1    1    2    0    0  0.72733851022E+01  0.36096054286E+02  0.25947760459E+02  0.45045682797E+02  0.00000000000E+00 0. -1.
         11    1    3    3    0    0  0.63415882775E+00 -0.32529227877E+01 -0.61158459628E+01  0.69560934570E+01  0.51100000000E-03 0. -1.
        -11    1    3    3    0    0 -0.44427123717E+01 -0.20572296309E+02 -0.12304498517E+02  0.24379453494E+02  0.51100000000E-03 0.  1.
         12    1    3    3    0    0 -0.34648315582E+01 -0.12270835188E+02 -0.75274159799E+01  0.14806770252E+02  0.00000000000E+00 0. -1.
</event>
<event>
 7    1  0.1402367E-008  0.4614232E+02  0.7816164E-02  0.1320468E+00
        -11   -1    0    0    0    0  0.00000000000E+00  0.00000000000E+00  0.45593999997E+02  0.45594000000E+02  0.51100000000E-03 0. -1.
         11   -1    0    0    0    0 -0.00000000000E+00 -0.00000000000E+00 -0.45593999997E+02  0.45594000000E+02  0.51100000000E-03 0.  1.
    9900012    2    1    2    0    0  0.39942345716E+02  0.10827750316E+01 -0.20797838826E+02  0.46142317822E+02  0.10000000556E+02 0.  0.
         12    1    1    2    0    0 -0.39942345716E+02 -0.10827750316E+01  0.20797838826E+02  0.45045682178E+02  0.00000000000E+00 0. -1.
         11    1    3    3    0    0  0.12243652124E+02  0.12336245586E+01 -0.45286495351E+01  0.13112494567E+02  0.51100000000E-03 0. -1.
        -11    1    3    3    0    0  0.51447374821E+01  0.16217598368E+01 -0.42729351168E+00  0.54111929124E+01  0.51100000000E-03 0.  1.
        -12    1    3    3    0    0  0.22553956109E+02 -0.17726093638E+01 -0.15841895780E+02  0.27618630343E+02  0.00000000000E+00 0.  1.
</event>
<event>
 7    1  0.1402367E-008  0.4614232E+02  0.7816164E-02  0.1320468E+00
        -11   -1    0    0    0    0  0.00000000000E+00  0.00000000000E+00  0.45593999997E+02  0.45594000000E+02  0.51100000000E-03 0. -1.
         11   -1    0    0    0    0 -0.00000000000E+00 -0.00000000000E+00 -0.45593999997E+02  0.45594000000E+02  0.51100000000E-03 0.  1.
    9900012    2    1    2    0    0 -0.40800931389E+02  0.49179896266E+00 -0.19082850853E+02  0.46142322460E+02  0.10000042845E+02 0.  0.
         12    1    1    2    0    0  0.40800931389E+02 -0.49179896266E+00  0.19082850853E+02  0.45045677540E+02  0.00000000000E+00 0. -1.
         11    1    3    3    0    0 -0.85207044956E+01 -0.21100705562E+01 -0.19059127927E+01  0.89826113513E+01  0.51100000000E-03 0. -1.
        -11    1    3    3    0    0 -0.27671779766E+02  0.21239942073E+01 -0.16952411560E+02  0.32521116291E+02  0.51100000000E-03 0.  1.
        -12    1    3    3    0    0 -0.46084471266E+01  0.47787531154E+00 -0.22452650001E+00  0.46385948175E+01  0.00000000000E+00 0.  1.
</event>
<event>
 7    1  0.1402367E-008  0.4614232E+02  0.7816164E-02  0.1320468E+00
        -11   -1    0    0    0    0  0.00000000000E+00  0.00000000000E+00  0.45593999997E+02  0.45594000000E+02  0.51100000000E-03 0.  1.
         11   -1    0    0    0    0 -0.00000000000E+00 -0.00000000000E+00 -0.45593999997E+02  0.45594000000E+02  0.51100000000E-03 0. -1.
    9900012    2    1    2    0    0 -0.17967620599E+02 -0.19818812125E+01  0.41259547703E+02  0.46142317412E+02  0.99999968162E+01 0.  0.
         12    1    1    2    0    0  0.17967620599E+02  0.19818812125E+01 -0.41259547703E+02  0.45045682588E+02  0.00000000000E+00 0. -1.
         11    1    3    3    0    0 -0.89574584630E+01  0.36792796700E+01  0.16473652040E+02  0.19109012868E+02  0.51100000000E-03 0. -1.
        -11    1    3    3    0    0 -0.89948735996E+01 -0.53538902022E+01  0.23792580167E+02  0.25993436915E+02  0.51100000000E-03 0.  1.
         12    1    3    3    0    0 -0.15288536335E-01 -0.30727068023E+00  0.99331549675E+00  0.10398676293E+01  0.00000000000E+00 0. -1.
</event>
<event>
 7    1  0.1402367E-008  0.4614232E+02  0.7816164E-02  0.1320468E+00
        -11   -1    0    0    0    0  0.00000000000E+00  0.00000000000E+00  0.45593999997E+02  0.45594000000E+02  0.51100000000E-03 0.  1.
         11   -1    0    0    0    0 -0.00000000000E+00 -0.00000000000E+00 -0.45593999997E+02  0.45594000000E+02  0.51100000000E-03 0. -1.
    9900012    2    1    2    0    0 -0.42485721779E+02 -0.81550324207E+01 -0.12552784946E+02  0.46142317424E+02  0.99999969250E+01 0.  0.
         12    1    1    2    0    0  0.42485721779E+02  0.81550324207E+01  0.12552784946E+02  0.45045682576E+02  0.00000000000E+00 0. -1.
         11    1    3    3    0    0 -0.13519257945E+02  0.11631042209E+01 -0.56015979980E+01  0.14679953924E+02  0.51100000000E-03 0. -1.
        -11    1    3    3    0    0 -0.16543922765E+02 -0.35050483472E+01 -0.28724493951E+01  0.17153358568E+02  0.51100000000E-03 0.  1.
         12    1    3    3    0    0 -0.12422541069E+02 -0.58130882944E+01 -0.40787375529E+01  0.14309004932E+02  0.00000000000E+00 0. -1.
</event>
<event>
 7    1  0.1402367E-008  0.4614232E+02  0.7816164E-02  0.1320468E+00
        -11   -1    0    0    0    0  0.00000000000E+00  0.00000000000E+00  0.45593999997E+02  0.45594000000E+02  0.51100000000E-03 0. -1.
         11   -1    0    0    0    0 -0.00000000000E+00 -0.00000000000E+00 -0.45593999997E+02  0.45594000000E+02  0.51100000000E-03 0.  1.
    9900012    2    1    2    0    0  0.41590526409E+01  0.37537193959E+02 -0.24551478191E+02  0.46142315073E+02  0.99999754870E+01 0.  0.
         12    1    1    2    0    0 -0.41590526409E+01 -0.37537193959E+02  0.24551478191E+02  0.45045684927E+02  0.00000000000E+00 0. -1.
         11    1    3    3    0    0  0.87923329879E+00  0.23130377654E+02 -0.17654813572E+02  0.29111507417E+02  0.51100000000E-03 0. -1.
        -11    1    3    3    0    0  0.24453682461E+01  0.85335329163E+01 -0.66532602587E+01  0.11093551380E+02  0.51100000000E-03 0.  1.
         12    1    3    3    0    0  0.83445109602E+00  0.58732833887E+01 -0.24340436074E+00  0.59372562753E+01  0.00000000000E+00 0. -1.
</event>
<event>
 7    1  0.1402367E-008  0.4614232E+02  0.7816164E-02  0.1320468E+00
        -11   -1    0    0    0    0  0.00000000000E+00  0.00000000000E+00  0.45593999997E+02  0.45594000000E+02  0.51100000000E-03 0.  1.
         11   -1    0    0    0    0 -0.00000000000E+00 -0.00000000000E+00 -0.45593999997E+02  0.45594000000E+02  0.51100000000E-03 0. -1.
    9900012    2    1    2    0    0 -0.23493508903E+02 -0.22949246525E+02  0.30830189887E+02  0.46142317798E+02  0.10000000335E+02 0.  0.
         12    1    1    2    0    0  0.23493508903E+02  0.22949246525E+02 -0.30830189887E+02  0.45045682202E+02  0.00000000000E+00 0. -1.
         11    1    3    3    0    0 -0.39324392234E+01 -0.59128763156E+01  0.34618761376E+01  0.79000488114E+01  0.51100000000E-03 0. -1.
        -11    1    3    3    0    0 -0.51847138314E+01 -0.19629574582E+01  0.34700809015E+01  0.65403303602E+01  0.51100000000E-03 0.  1.
        -12    1    3    3    0    0 -0.14376355848E+02 -0.15073412751E+02  0.23898232848E+02  0.31701938626E+02  0.00000000000E+00 0.  1.
</event>
<event>
 7    1  0.1402367E-008  0.4614232E+02  0.7816164E-02  0.1320468E+00
        -11   -1    0    0    0    0  0.00000000000E+00  0.00000000000E+00  0.45593999997E+02  0.45594000000E+02  0.51100000000E-03 0.  1.
         11   -1    0    0    0    0 -0.00000000000E+00 -0.00000000000E+00 -0.45593999997E+02  0.45594000000E+02  0.51100000000E-03 0. -1.
    9900012    2    1    2    0    0 -0.15235218302E+02 -0.20436374224E+02  0.37139686903E+02  0.46142316395E+02  0.99999875428E+01 0.  0.
         12    1    1    2    0    0  0.15235218302E+02  0.20436374224E+02 -0.37139686903E+02  0.45045683605E+02  0.00000000000E+00 0. -1.
         11    1    3    3    0    0 -0.10985066746E+02 -0.71121865624E+01  0.16679727357E+02  0.21200664944E+02  0.51100000000E-03 0. -1.
        -11    1    3    3    0    0  0.17159432926E+00 -0.32405509819E+01  0.42950832904E+01  0.53831548382E+01  0.51100000000E-03 0.  1.
         12    1    3    3    0    0 -0.44217458858E+01 -0.10083636680E+02  0.16164876256E+02  0.19558496613E+02  0.00000000000E+00 0. -1.
</event>
<event>
 7    1  0.1402367E-008  0.4614232E+02  0.7816164E-02  0.1320468E+00
        -11   -1    0    0    0    0  0.00000000000E+00  0.00000000000E+00  0.45593999997E+02  0.45594000000E+02  0.51100000000E-03 0.  1.
         11   -1    0    0    0    0 -0.00000000000E+00 -0.00000000000E+00 -0.45593999997E+02  0.45594000000E+02  0.51100000000E-03 0. -1.
    9900012    2    1    2    0    0 -0.57580570311E+01  0.12152588013E+02  0.42991543790E+02  0.46142318147E+02  0.10000003516E+02 0.  0.
         12    1    1    2    0    0  0.57580570311E+01 -0.12152588013E+02 -0.42991543790E+02  0.45045681853E+02  0.00000000000E+00 0. -1.
         11    1    3    3    0    0  0.15170174617E+01  0.45298205043E+01  0.21453561946E+02  0.21978988517E+02  0.51100000000E-03 0. -1.
        -11    1    3    3    0    0 -0.70494549680E+01  0.79029766918E+01  0.20935679703E+02  0.23461767640E+02  0.51100000000E-03 0.  1.
        -12    1    3    3    0    0 -0.22561952490E+00 -0.28020918267E+00  0.60230214086E+00  0.70156198939E+00  0.00000000000E+00 0.  1.
</event>
<event>
 7    1  0.1402367E-008  0.4614232E+02  0.7816164E-02  0.1320468E+00
        -11   -1    0    0    0    0  0.00000000000E+00  0.00000000000E+00  0.45593999997E+02  0.45594000000E+02  0.51100000000E-03 0.  1.
         11   -1    0    0    0    0 -0.00000000000E+00 -0.00000000000E+00 -0.45593999997E+02  0.45594000000E+02  0.51100000000E-03 0. -1.
    9900012    2    1    2    0    0 -0.10980881101E+02  0.89343587292E+01  0.42763430352E+02  0.46142317731E+02  0.99999997234E+01 0.  0.
         12    1    1    2    0    0  0.10980881101E+02 -0.89343587292E+01 -0.42763430352E+02  0.45045682269E+02  0.00000000000E+00 0. -1.
         11    1    3    3    0    0 -0.10945156949E+01  0.48829275375E+01  0.20209971158E+02  0.20820275704E+02  0.51100000000E-03 0.  1.
        -11    1    3    3    0    0 -0.71488841903E+01  0.14150486196E+01  0.11318855146E+02  0.13461997989E+02  0.51100000000E-03 0. -1.
         12    1    3    3    0    0 -0.27374812160E+01  0.26363825721E+01  0.11234604048E+02  0.11860044038E+02  0.00000000000E+00 0. -1.
</event>
<event>
 7    1  0.1402367E-008  0.4614232E+02  0.7816164E-02  0.1320468E+00
        -11   -1    0    0    0    0  0.00000000000E+00  0.00000000000E+00  0.45593999997E+02  0.45594000000E+02  0.51100000000E-03 0.  1.
         11   -1    0    0    0    0 -0.00000000000E+00 -0.00000000000E+00 -0.45593999997E+02  0.45594000000E+02  0.51100000000E-03 0. -1.
    9900012    2    1    2    0    0 -0.28198247668E+02 -0.71796646103E+01  0.34386402402E+02  0.46142318457E+02  0.10000006347E+02 0.  0.
         12    1    1    2    0    0  0.28198247668E+02  0.71796646103E+01 -0.34386402402E+02  0.45045681543E+02  0.00000000000E+00 0. -1.
         11    1    3    3    0    0 -0.14193602045E+02  0.75897741161E+00  0.13139291976E+02  0.19356533254E+02  0.51100000000E-03 0. -1.
        -11    1    3    3    0    0 -0.10626836955E+02 -0.49136518393E+01  0.14174916466E+02  0.18384827852E+02  0.51100000000E-03 0.  1.
         12    1    3    3    0    0 -0.33778086687E+01 -0.30249901827E+01  0.70721939601E+01  0.84009573512E+01  0.00000000000E+00 0. -1.
</event>
<event>
 7    1  0.1402367E-008  0.4614232E+02  0.7816164E-02  0.1320468E+00
        -11   -1    0    0    0    0  0.00000000000E+00  0.00000000000E+00  0.45593999997E+02  0.45594000000E+02  0.51100000000E-03 0. -1.
         11   -1    0    0    0    0 -0.00000000000E+00 -0.00000000000E+00 -0.45593999997E+02  0.45594000000E+02  0.51100000000E-03 0.  1.
    9900012    2    1    2    0    0  0.39814468929E+02  0.19813814011E+02 -0.71647940750E+01  0.46142318343E+02  0.10000005308E+02 0.  0.
         12    1    1    2    0    0 -0.39814468929E+02 -0.19813814011E+02  0.71647940750E+01  0.45045681657E+02  0.00000000000E+00 0. -1.
         11    1    3    3    0    0  0.92118225637E+01  0.50704252033E+01 -0.51222793038E+01  0.11696351235E+02  0.51100000000E-03 0. -1.
        -11    1    3    3    0    0  0.18205261280E+02  0.11057947362E+02  0.29677671127E+00  0.21302530714E+02  0.51100000000E-03 0.  1.
        -12    1    3    3    0    0  0.12397385085E+02  0.36854414455E+01 -0.23392914825E+01  0.13143436394E+02  0.00000000000E+00 0.  1.
</event>
<event>
 7    1  0.1402367E-008  0.4614232E+02  0.7816164E-02  0.1320468E+00
        -11   -1    0    0    0    0  0.00000000000E+00  0.00000000000E+00  0.45593999997E+02  0.45594000000E+02  0.51100000000E-03 0. -1.
         11   -1    0    0    0    0 -0.00000000000E+00 -0.00000000000E+00 -0.45593999997E+02  0.45594000000E+02  0.51100000000E-03 0.  1.
    9900012    2    1    2    0    0  0.21552053698E+02 -0.32999624238E+02 -0.21809340714E+02  0.46142316957E+02  0.99999926666E+01 0.  0.
         12    1    1    2    0    0 -0.21552053698E+02  0.32999624238E+02  0.21809340714E+02  0.45045683043E+02  0.00000000000E+00 0. -1.
         11    1    3    3    0    0  0.18670765673E+02 -0.26226823659E+02 -0.20513126131E+02  0.38173709722E+02  0.51100000000E-03 0. -1.
        -11    1    3    3    0    0  0.10871541962E+01 -0.26596347243E+01 -0.18942884998E+01  0.34414953573E+01  0.51100000000E-03 0.  1.
         12    1    3    3    0    0  0.17941338292E+01 -0.41131658541E+01  0.59807391601E+00  0.45271118773E+01  0.00000000000E+00 0. -1.
</event>
<event>
 7    1  0.1402367E-008  0.4614232E+02  0.7816164E-02  0.1320468E+00
        -11   -1    0    0    0    0  0.00000000000E+00  0.00000000000E+00  0.45593999997E+02  0.45594000000E+02  0.51100000000E-03 0.  1.
         11   -1    0    0    0    0 -0.00000000000E+00 -0.00000000000E+00 -0.45593999997E+02  0.45594000000E+02  0.51100000000E-03 0. -1.
    9900012    2    1    2    0    0  0.15034443101E+02 -0.42126308041E+02  0.53341531482E+01  0.46142317651E+02  0.99999989918E+01 0.  0.
         12    1    1    2    0    0 -0.15034443101E+02  0.42126308041E+02 -0.53341531482E+01  0.45045682349E+02  0.00000000000E+00 0. -1.
         11    1    3    3    0    0  0.12537038661E+01 -0.91476998013E+01 -0.19357664614E+01  0.94339481180E+01  0.51100000000E-03 0. -1.
        -11    1    3    3    0    0  0.34856770405E+01 -0.12766928284E+02  0.16224678251E+01  0.13333296829E+02  0.51100000000E-03 0.  1.
         12    1    3    3    0    0  0.10295062194E+02 -0.20211679956E+02  0.56474517845E+01  0.23375072703E+02  0.00000000000E+00 0. -1.
</event>
<event>
 7    1  0.1402367E-008  0.4614232E+02  0.7816164E-02  0.1320468E+00
        -11   -1    0    0    0    0  0.00000000000E+00  0.00000000000E+00  0.45593999997E+02  0.45594000000E+02  0.51100000000E-03 0.  1.
         11   -1    0    0    0    0 -0.00000000000E+00 -0.00000000000E+00 -0.45593999997E+02  0.45594000000E+02  0.51100000000E-03 0. -1.
    9900012    2    1    2    0    0 -0.22750444210E+02 -0.21514697613E+02  0.32382843081E+02  0.46142318174E+02  0.10000003766E+02 0.  0.
         12    1    1    2    0    0  0.22750444210E+02  0.21514697613E+02 -0.32382843081E+02  0.45045681826E+02  0.00000000000E+00 0. -1.
         11    1    3    3    0    0 -0.20285194446E+02 -0.16641718905E+02  0.21696627854E+02  0.34046726455E+02  0.51100000000E-03 0.  1.
        -11    1    3    3    0    0 -0.10633826432E+01 -0.10743155001E+01  0.19553545549E+01  0.24715072600E+01  0.51100000000E-03 0. -1.
         12    1    3    3    0    0 -0.14018671212E+01 -0.37986632078E+01  0.87308606727E+01  0.96240844592E+01  0.00000000000E+00 0. -1.
</event>
<event>
 7    1  0.1402367E-008  0.4614232E+02  0.7816164E-02  0.1320468E+00
        -11   -1    0    0    0    0  0.00000000000E+00  0.00000000000E+00  0.45593999997E+02  0.45594000000E+02  0.51100000000E-03 0. -1.
         11   -1    0    0    0    0 -0.00000000000E+00 -0.00000000000E+00 -0.45593999997E+02  0.45594000000E+02  0.51100000000E-03 0.  1.
    9900012    2    1    2    0    0  0.41919806690E+02 -0.16485263887E+02 -0.28175818565E+00  0.46142317565E+02  0.99999982161E+01 0.  0.
         12    1    1    2    0    0 -0.41919806690E+02  0.16485263887E+02  0.28175818565E+00  0.45045682435E+02  0.00000000000E+00 0. -1.
         11    1    3    3    0    0  0.12626216029E+01  0.44279597793E+00 -0.12793943214E+01  0.18512513824E+01  0.51100000000E-03 0. -1.
        -11    1    3    3    0    0  0.29943771688E+02 -0.11156780706E+02 -0.94121906319E+00  0.31968564438E+02  0.51100000000E-03 0.  1.
        -12    1    3    3    0    0  0.10713413399E+02 -0.57712791589E+01  0.19388551989E+01  0.12322501745E+02  0.00000000000E+00 0.  1.
</event>
<event>
 7    1  0.1402367E-008  0.4614232E+02  0.7816164E-02  0.1320468E+00
        -11   -1    0    0    0    0  0.00000000000E+00  0.00000000000E+00  0.45593999997E+02  0.45594000000E+02  0.51100000000E-03 0. -1.
         11   -1    0    0    0    0 -0.00000000000E+00 -0.00000000000E+00 -0.45593999997E+02  0.45594000000E+02  0.51100000000E-03 0.  1.
    9900012    2    1    2    0    0 -0.17846211346E-02  0.32954313572E+02 -0.30710368403E+02  0.46142317480E+02  0.99999974408E+01 0.  0.
         12    1    1    2    0    0  0.17846211346E-02 -0.32954313572E+02  0.30710368403E+02  0.45045682520E+02  0.00000000000E+00 0. -1.
         11    1    3    3    0    0 -0.14032902677E+01  0.37609146582E+01 -0.13881843166E+01  0.42474414180E+01  0.51100000000E-03 0. -1.
        -11    1    3    3    0    0  0.20126073086E+01  0.18358978584E+02 -0.14273645587E+02  0.23341800304E+02  0.51100000000E-03 0.  1.
         12    1    3    3    0    0 -0.61110166207E+00  0.10834420330E+02 -0.15048538500E+02  0.18553075759E+02  0.00000000000E+00 0. -1.
</event>
<event>
 7    1  0.1402367E-008  0.4614232E+02  0.7816164E-02  0.1320468E+00
        -11   -1    0    0    0    0  0.00000000000E+00  0.00000000000E+00  0.45593999997E+02  0.45594000000E+02  0.51100000000E-03 0.  1.
         11   -1    0    0    0    0 -0.00000000000E+00 -0.00000000000E+00 -0.45593999997E+02  0.45594000000E+02  0.51100000000E-03 0. -1.
    9900012    2    1    2    0    0  0.44394569545E+02 -0.52785083960E+01  0.55111694831E+01  0.46142318242E+02  0.10000004389E+02 0.  0.
         12    1    1    2    0    0 -0.44394569545E+02  0.52785083960E+01 -0.55111694831E+01  0.45045681758E+02  0.00000000000E+00 0. -1.
         11    1    3    3    0    0  0.20144666435E+02 -0.50036119871E+01 -0.73885161917E+00  0.20769921056E+02  0.51100000000E-03 0. -1.
        -11    1    3    3    0    0  0.82818963529E+01  0.10110679122E+01  0.37940394472E+01  0.91655224135E+01  0.51100000000E-03 0.  1.
         12    1    3    3    0    0  0.15968006756E+02 -0.12859643211E+01  0.24559816551E+01  0.16206874773E+02  0.00000000000E+00 0. -1.
</event>
<event>
 7    1  0.1402367E-008  0.4614232E+02  0.7816164E-02  0.1320468E+00
        -11   -1    0    0    0    0  0.00000000000E+00  0.00000000000E+00  0.45593999997E+02  0.45594000000E+02  0.51100000000E-03 0.  1.
         11   -1    0    0    0    0 -0.00000000000E+00 -0.00000000000E+00 -0.45593999997E+02  0.45594000000E+02  0.51100000000E-03 0. -1.
    9900012    2    1    2    0    0  0.12556534240E+02  0.37939545517E+02  0.20785522628E+02  0.46142316333E+02  0.99999869738E+01 0.  0.
         12    1    1    2    0    0 -0.12556534240E+02 -0.37939545517E+02 -0.20785522628E+02  0.45045683667E+02  0.00000000000E+00 0. -1.
         11    1    3    3    0    0  0.91614944413E+01  0.28392307430E+02  0.11783905368E+02  0.32076728754E+02  0.51100000000E-03 0. -1.
        -11    1    3    3    0    0  0.28053676824E+01  0.97219323662E+01  0.80390656772E+01  0.12923336798E+02  0.51100000000E-03 0.  1.
         12    1    3    3    0    0  0.58967211595E+00 -0.17469427918E+00  0.96255158339E+00  0.11422507808E+01  0.00000000000E+00 0. -1.
</event>
<event>
 7    1  0.1402367E-008  0.4614232E+02  0.7816164E-02  0.1320468E+00
        -11   -1    0    0    0    0  0.00000000000E+00  0.00000000000E+00  0.45593999997E+02  0.45594000000E+02  0.51100000000E-03 0.  1.
         11   -1    0    0    0    0 -0.00000000000E+00 -0.00000000000E+00 -0.45593999997E+02  0.45594000000E+02  0.51100000000E-03 0. -1.
    9900012    2    1    2    0    0 -0.20716429385E+02  0.37580450210E+02  0.13698640404E+02  0.46142318372E+02  0.10000005566E+02 0.  0.
         12    1    1    2    0    0  0.20716429385E+02 -0.37580450210E+02 -0.13698640404E+02  0.45045681628E+02  0.00000000000E+00 0. -1.
         11    1    3    3    0    0 -0.79179625118E+00  0.76891259620E+01  0.33580077015E+01  0.84276814930E+01  0.51100000000E-03 0. -1.
        -11    1    3    3    0    0 -0.15166740746E+02  0.24203649487E+02  0.10097505066E+02  0.30295317826E+02  0.51100000000E-03 0.  1.
        -12    1    3    3    0    0 -0.47578923873E+01  0.56876747613E+01  0.24312763679E+00  0.74193190528E+01  0.00000000000E+00 0.  1.
</event>
<event>
 7    1  0.1402367E-008  0.4614232E+02  0.7816164E-02  0.1320468E+00
        -11   -1    0    0    0    0  0.00000000000E+00  0.00000000000E+00  0.45593999997E+02  0.45594000000E+02  0.51100000000E-03 0.  1.
         11   -1    0    0    0    0 -0.00000000000E+00 -0.00000000000E+00 -0.45593999997E+02  0.45594000000E+02  0.51100000000E-03 0. -1.
    9900012    2    1    2    0    0  0.45730689582E+01  0.32908201081E+02  0.30417939010E+02  0.46142315727E+02  0.99999814471E+01 0.  0.
         12    1    1    2    0    0 -0.45730689582E+01 -0.32908201081E+02 -0.30417939010E+02  0.45045684273E+02  0.00000000000E+00 0. -1.
         11    1    3    3    0    0  0.41384593409E+01  0.21496340122E+02  0.13848986251E+02  0.25903936086E+02  0.51100000000E-03 0. -1.
        -11    1    3    3    0    0 -0.37170188966E-02  0.10933387515E+02  0.15203636983E+02  0.18726706975E+02  0.51100000000E-03 0.  1.
         12    1    3    3    0    0  0.43832663621E+00  0.47847344417E+00  0.13653157766E+01  0.15116726651E+01  0.00000000000E+00 0. -1.
</event>
<event>
 7    1  0.1402367E-008  0.4614232E+02  0.7816164E-02  0.1320468E+00
        -11   -1    0    0    0    0  0.00000000000E+00  0.00000000000E+00  0.45593999997E+02  0.45594000000E+02  0.51100000000E-03 0. -1.
         11   -1    0    0    0    0 -0.00000000000E+00 -0.00000000000E+00 -0.45593999997E+02  0.45594000000E+02  0.51100000000E-03 0.  1.
    9900012    2    1    2    0    0  0.44658763895E+01 -0.39989640914E+02 -0.20248408502E+02  0.46142317863E+02  0.10000000926E+02 0.  0.
         12    1    1    2    0    0 -0.44658763895E+01  0.39989640914E+02  0.20248408502E+02  0.45045682137E+02  0.00000000000E+00 0. -1.
         11    1    3    3    0    0 -0.20698350341E+01 -0.11660666953E+02 -0.42305907752E+01  0.12575900342E+02  0.51100000000E-03 0. -1.
        -11    1    3    3    0    0  0.65900158639E+01 -0.25438608027E+02 -0.15810882320E+02  0.30668144506E+02  0.51100000000E-03 0.  1.
        -12    1    3    3    0    0 -0.54304440364E-01 -0.28903659341E+01 -0.20693540763E+00  0.28982730148E+01  0.00000000000E+00 0.  1.
</event>
<event>
 7    1  0.1402367E-008  0.4614232E+02  0.7816164E-02  0.1320468E+00
        -11   -1    0    0    0    0  0.00000000000E+00  0.00000000000E+00  0.45593999997E+02  0.45594000000E+02  0.51100000000E-03 0.  1.
         11   -1    0    0    0    0 -0.00000000000E+00 -0.00000000000E+00 -0.45593999997E+02  0.45594000000E+02  0.51100000000E-03 0. -1.
    9900012    2    1    2    0    0  0.38493939014E+02  0.29531741013E+01  0.23207954215E+02  0.46142315224E+02  0.99999768627E+01 0.  0.
         12    1    1    2    0    0 -0.38493939014E+02 -0.29531741013E+01 -0.23207954215E+02  0.45045684776E+02  0.00000000000E+00 0. -1.
         11    1    3    3    0    0  0.12444971072E+02  0.13688093879E+01  0.12255446825E+02  0.17519900721E+02  0.51100000000E-03 0. -1.
        -11    1    3    3    0    0  0.25060935112E+02  0.90322914522E+00  0.11079364928E+02  0.27415663754E+02  0.51100000000E-03 0.  1.
         12    1    3    3    0    0  0.98803283032E+00  0.68113556816E+00 -0.12685753807E+00  0.12067507493E+01  0.00000000000E+00 0. -1.
</event>
<event>
 7    1  0.1402367E-008  0.4614232E+02  0.7816164E-02  0.1320468E+00
        -11   -1    0    0    0    0  0.00000000000E+00  0.00000000000E+00  0.45593999997E+02  0.45594000000E+02  0.51100000000E-03 0.  1.
         11   -1    0    0    0    0 -0.00000000000E+00 -0.00000000000E+00 -0.45593999997E+02  0.45594000000E+02  0.51100000000E-03 0. -1.
    9900012    2    1    2    0    0  0.26086785114E+02  0.16311343328E+02  0.32901873664E+02  0.46142316862E+02  0.99999918024E+01 0.  0.
         12    1    1    2    0    0 -0.26086785114E+02 -0.16311343328E+02 -0.32901873664E+02  0.45045683138E+02  0.00000000000E+00 0. -1.
         11    1    3    3    0    0  0.16299829561E+02  0.11717322354E+02  0.15848523625E+02  0.25576469424E+02  0.51100000000E-03 0. -1.
        -11    1    3    3    0    0  0.81770100333E+01  0.50194086449E+01  0.12789804277E+02  0.15988653788E+02  0.51100000000E-03 0.  1.
         12    1    3    3    0    0  0.16099455197E+01 -0.42538767072E+00  0.42635457617E+01  0.45771936499E+01  0.00000000000E+00 0. -1.
</event>
<event>
 7    1  0.1402367E-008  0.4614232E+02  0.7816164E-02  0.1320468E+00
        -11   -1    0    0    0    0  0.00000000000E+00  0.00000000000E+00  0.45593999997E+02  0.45594000000E+02  0.51100000000E-03 0. -1.
         11   -1    0    0    0    0 -0.00000000000E+00 -0.00000000000E+00 -0.45593999997E+02  0.45594000000E+02  0.51100000000E-03 0.  1.
    9900012    2    1    2    0    0  0.92156392225E+01 -0.95549850518E+00 -0.44082564409E+02  0.46142317981E+02  0.10000002009E+02 0.  0.
         12    1    1    2    0    0 -0.92156392225E+01  0.95549850518E+00  0.44082564409E+02  0.45045682019E+02  0.00000000000E+00 0. -1.
         11    1    3    3    0    0  0.84286738295E+01 -0.20323432101E+01 -0.38567324387E+02  0.39529880750E+02  0.51100000000E-03 0. -1.
        -11    1    3    3    0    0  0.79799401307E+00  0.14104918819E+01 -0.58909795709E+01  0.61098217944E+01  0.51100000000E-03 0.  1.
         12    1    3    3    0    0 -0.11028620065E-01 -0.33364717696E+00  0.37573954919E+00  0.50261543746E+00  0.00000000000E+00 0. -1.
</event>
<event>
 7    1  0.1402367E-008  0.4614232E+02  0.7816164E-02  0.1320468E+00
        -11   -1    0    0    0    0  0.00000000000E+00  0.00000000000E+00  0.45593999997E+02  0.45594000000E+02  0.51100000000E-03 0.  1.
         11   -1    0    0    0    0 -0.00000000000E+00 -0.00000000000E+00 -0.45593999997E+02  0.45594000000E+02  0.51100000000E-03 0. -1.
    9900012    2    1    2    0    0 -0.75770373979E+01  0.36616215356E+02  0.25118812291E+02  0.46142318146E+02  0.10000003512E+02 0.  0.
         12    1    1    2    0    0  0.75770373979E+01 -0.36616215356E+02 -0.25118812291E+02  0.45045681854E+02  0.00000000000E+00 0. -1.
         11    1    3    3    0    0 -0.48651666434E+01  0.13047114943E+02  0.70247859897E+01  0.15596303193E+02  0.51100000000E-03 0. -1.
        -11    1    3    3    0    0  0.54650072438E+00  0.26156498343E+01  0.28900877427E-02  0.26721331762E+01  0.51100000000E-03 0.  1.
        -12    1    3    3    0    0 -0.32583714788E+01  0.20953450579E+02  0.18091136214E+02  0.27873881777E+02  0.00000000000E+00 0.  1.
</event>
<event>
 7    1  0.1402367E-008  0.4614232E+02  0.7816164E-02  0.1320468E+00
        -11   -1    0    0    0    0  0.00000000000E+00  0.00000000000E+00  0.45593999997E+02  0.45594000000E+02  0.51100000000E-03 0.  1.
         11   -1    0    0    0    0 -0.00000000000E+00 -0.00000000000E+00 -0.45593999997E+02  0.45594000000E+02  0.51100000000E-03 0. -1.
    9900012    2    1    2    0    0 -0.36697798748E+02 -0.26087222202E+02 -0.13571715758E+01  0.46142317523E+02  0.99999978277E+01 0.  0.
         12    1    1    2    0    0  0.36697798748E+02  0.26087222202E+02  0.13571715758E+01  0.45045682477E+02  0.00000000000E+00 0. -1.
         11    1    3    3    0    0 -0.50066615264E+01 -0.17234452692E+01  0.23211431174E+01  0.57814037109E+01  0.51100000000E-03 0. -1.
        -11    1    3    3    0    0 -0.14296238334E+02 -0.13413576439E+02 -0.26334585351E+01  0.19779827287E+02  0.51100000000E-03 0.  1.
         12    1    3    3    0    0 -0.17394898888E+02 -0.10950200494E+02 -0.10448561582E+01  0.20581086525E+02  0.00000000000E+00 0. -1.
</event>
<event>
 7    1  0.1402367E-008  0.4614232E+02  0.7816164E-02  0.1320468E+00
        -11   -1    0    0    0    0  0.00000000000E+00  0.00000000000E+00  0.45593999997E+02  0.45594000000E+02  0.51100000000E-03 0.  1.
         11   -1    0    0    0    0 -0.00000000000E+00 -0.00000000000E+00 -0.45593999997E+02  0.45594000000E+02  0.51100000000E-03 0. -1.
    9900012    2    1    2    0    0  0.41668303424E+02 -0.29043744500E+01 -0.16865062752E+02  0.46142320487E+02  0.10000024854E+02 0.  0.
         12    1    1    2    0    0 -0.41668303424E+02  0.29043744500E+01  0.16865062752E+02  0.45045679513E+02  0.00000000000E+00 0. -1.
         11    1    3    3    0    0  0.10944679572E+02  0.29394076817E+01 -0.50811809120E+01  0.12419522059E+02  0.51100000000E-03 0. -1.
        -11    1    3    3    0    0  0.15660339614E+02 -0.45551542633E+01 -0.78546151960E+01  0.18102227690E+02  0.51100000000E-03 0.  1.
         12    1    3    3    0    0  0.15063284238E+02 -0.12886278685E+01 -0.39292666439E+01  0.15620570738E+02  0.00000000000E+00 0. -1.
</event>
<event>
 7    1  0.1402367E-008  0.4614232E+02  0.7816164E-02  0.1320468E+00
        -11   -1    0    0    0    0  0.00000000000E+00  0.00000000000E+00  0.45593999997E+02  0.45594000000E+02  0.51100000000E-03 0. -1.
         11   -1    0    0    0    0 -0.00000000000E+00 -0.00000000000E+00 -0.45593999997E+02  0.45594000000E+02  0.51100000000E-03 0.  1.
    9900012    2    1    2    0    0  0.31215106307E+02  0.31171736490E+02 -0.91133585368E+01  0.46142319615E+02  0.10000016902E+02 0.  0.
         12    1    1    2    0    0 -0.31215106307E+02 -0.31171736490E+02  0.91133585368E+01  0.45045680385E+02  0.00000000000E+00 0. -1.
         11    1    3    3    0    0  0.23251545734E+02  0.22184389456E+02 -0.89634781533E+01  0.33363534816E+02  0.51100000000E-03 0. -1.
        -11    1    3    3    0    0  0.69593528997E+01  0.68024284248E+01  0.15220965182E+01  0.98499950928E+01  0.51100000000E-03 0.  1.
         12    1    3    3    0    0  0.10042076733E+01  0.21849186093E+01 -0.16719769017E+01  0.29287897057E+01  0.00000000000E+00 0. -1.
</event>
<event>
 7    1  0.1402367E-008  0.4614232E+02  0.7816164E-02  0.1320468E+00
        -11   -1    0    0    0    0  0.00000000000E+00  0.00000000000E+00  0.45593999997E+02  0.45594000000E+02  0.51100000000E-03 0.  1.
         11   -1    0    0    0    0 -0.00000000000E+00 -0.00000000000E+00 -0.45593999997E+02  0.45594000000E+02  0.51100000000E-03 0. -1.
    9900012    2    1    2    0    0 -0.12357570309E+02  0.29604070869E+02  0.31622821744E+02  0.46142318619E+02  0.10000007826E+02 0.  0.
         12    1    1    2    0    0  0.12357570309E+02 -0.29604070869E+02 -0.31622821744E+02  0.45045681381E+02  0.00000000000E+00 0. -1.
         11    1    3    3    0    0  0.85335626016E+00  0.24428521394E+01  0.17329257359E+01  0.31142856884E+01  0.51100000000E-03 0. -1.
        -11    1    3    3    0    0 -0.99156523584E+01  0.22725597824E+02  0.27442317939E+02  0.36984507192E+02  0.51100000000E-03 0.  1.
        -12    1    3    3    0    0 -0.32952742111E+01  0.44356209054E+01  0.24475780700E+01  0.60435257385E+01  0.00000000000E+00 0.  1.
</event>
<event>
 7    1  0.1402367E-008  0.4614232E+02  0.7816164E-02  0.1320468E+00
        -11   -1    0    0    0    0  0.00000000000E+00  0.00000000000E+00  0.45593999997E+02  0.45594000000E+02  0.51100000000E-03 0. -1.
         11   -1    0    0    0    0 -0.00000000000E+00 -0.00000000000E+00 -0.45593999997E+02  0.45594000000E+02  0.51100000000E-03 0.  1.
    9900012    2    1    2    0    0 -0.35179326999E+02 -0.20701592771E+02 -0.19051836559E+02  0.46142317992E+02  0.10000002104E+02 0.  0.
         12    1    1    2    0    0  0.35179326999E+02  0.20701592771E+02  0.19051836559E+02  0.45045682008E+02  0.00000000000E+00 0. -1.
         11    1    3    3    0    0 -0.18006817229E+01 -0.19844258819E+01 -0.39376998708E+01  0.47629697964E+01  0.51100000000E-03 0. -1.
        -11    1    3    3    0    0 -0.31208965950E+02 -0.17848495454E+02 -0.15216823027E+02  0.39039980135E+02  0.51100000000E-03 0.  1.
        -12    1    3    3    0    0 -0.21696793260E+01 -0.86867143492E+00  0.10268633877E+00  0.23393680608E+01  0.00000000000E+00 0.  1.
</event>
<event>
 7    1  0.1402367E-008  0.4614232E+02  0.7816164E-02  0.1320468E+00
        -11   -1    0    0    0    0  0.00000000000E+00  0.00000000000E+00  0.45593999997E+02  0.45594000000E+02  0.51100000000E-03 0.  1.
         11   -1    0    0    0    0 -0.00000000000E+00 -0.00000000000E+00 -0.45593999997E+02  0.45594000000E+02  0.51100000000E-03 0. -1.
    9900012    2    1    2    0    0 -0.22536040610E+02 -0.36374679054E+02  0.14075616147E+02  0.46142319046E+02  0.10000011717E+02 0.  0.
         12    1    1    2    0    0  0.22536040610E+02  0.36374679054E+02 -0.14075616147E+02  0.45045680954E+02  0.00000000000E+00 0. -1.
         11    1    3    3    0    0 -0.61015894774E+00  0.34896098464E+00  0.54761358400E+00  0.89103793904E+00  0.51100000000E-03 0. -1.
        -11    1    3    3    0    0 -0.19124092705E+02 -0.34998688434E+02  0.12251957734E+02  0.41722291194E+02  0.51100000000E-03 0.  1.
        -12    1    3    3    0    0 -0.28017889571E+01 -0.17249516050E+01  0.12760448293E+01  0.35289899130E+01  0.00000000000E+00 0.  1.
</event>
<event>
 7    1  0.1402367E-008  0.4614232E+02  0.7816164E-02  0.1320468E+00
        -11   -1    0    0    0    0  0.00000000000E+00  0.00000000000E+00  0.45593999997E+02  0.45594000000E+02  0.51100000000E-03 0.  1.
         11   -1    0    0    0    0 -0.00000000000E+00 -0.00000000000E+00 -0.45593999997E+02  0.45594000000E+02  0.51100000000E-03 0. -1.
    9900012    2    1    2    0    0  0.17478998128E+02 -0.38069177011E+02  0.16563089070E+02  0.46142317261E+02  0.99999954430E+01 0.  0.
         12    1    1    2    0    0 -0.17478998128E+02  0.38069177011E+02 -0.16563089070E+02  0.45045682739E+02  0.00000000000E+00 0. -1.
         11    1    3    3    0    0  0.19528064075E+00 -0.11052631118E+01  0.25348506843E+01  0.27722210099E+01  0.51100000000E-03 0. -1.
        -11    1    3    3    0    0  0.68267824064E+01 -0.99566897224E+01  0.38070677569E+01  0.12658372463E+02  0.51100000000E-03 0.  1.
        -12    1    3    3    0    0  0.10456935081E+02 -0.27007224177E+02  0.10221170629E+02  0.30711723788E+02  0.00000000000E+00 0.  1.
</event>
<event>
 7    1  0.1402367E-008  0.4614232E+02  0.7816164E-02  0.1320468E+00
        -11   -1    0    0    0    0  0.00000000000E+00  0.00000000000E+00  0.45593999997E+02  0.45594000000E+02  0.51100000000E-03 0.  1.
         11   -1    0    0    0    0 -0.00000000000E+00 -0.00000000000E+00 -0.45593999997E+02  0.45594000000E+02  0.51100000000E-03 0. -1.
    9900012    2    1    2    0    0 -0.66725392572E+00  0.44191709782E+02  0.87040800343E+01  0.46142318181E+02  0.10000003833E+02 0.  0.
         12    1    1    2    0    0  0.66725392572E+00 -0.44191709782E+02 -0.87040800343E+01  0.45045681819E+02  0.00000000000E+00 0. -1.
         11    1    3    3    0    0  0.19717567164E+01  0.85038329370E+01 -0.84325012348E+00  0.87700667159E+01  0.51100000000E-03 0. -1.
        -11    1    3    3    0    0 -0.34126841387E+01  0.30824923029E+02  0.68612960075E+01  0.31763181137E+02  0.51100000000E-03 0.  1.
         12    1    3    3    0    0  0.77367349666E+00  0.48629538156E+01  0.26860341503E+01  0.56090703284E+01  0.00000000000E+00 0. -1.
</event>
<event>
 7    1  0.1402367E-008  0.4614232E+02  0.7816164E-02  0.1320468E+00
        -11   -1    0    0    0    0  0.00000000000E+00  0.00000000000E+00  0.45593999997E+02  0.45594000000E+02  0.51100000000E-03 0. -1.
         11   -1    0    0    0    0 -0.00000000000E+00 -0.00000000000E+00 -0.45593999997E+02  0.45594000000E+02  0.51100000000E-03 0.  1.
    9900012    2    1    2    0    0  0.32324549353E+02 -0.30674338708E+02  0.65819406351E+01  0.46142317759E+02  0.99999999785E+01 0.  0.
         12    1    1    2    0    0 -0.32324549353E+02  0.30674338708E+02 -0.65819406351E+01  0.45045682241E+02  0.00000000000E+00 0. -1.
         11    1    3    3    0    0  0.20632300969E+02 -0.21664023053E+02  0.35692067587E+01  0.30129071928E+02  0.51100000000E-03 0. -1.
        -11    1    3    3    0    0 -0.20496906112E+00 -0.17628452062E+01  0.77023135624E-01  0.17763919505E+01  0.51100000000E-03 0.  1.
        -12    1    3    3    0    0  0.11897217446E+02 -0.72474704491E+01  0.29357107409E+01  0.14236853880E+02  0.00000000000E+00 0.  1.
</event>
<event>
 7    1  0.1402367E-008  0.4614232E+02  0.7816164E-02  0.1320468E+00
        -11   -1    0    0    0    0  0.00000000000E+00  0.00000000000E+00  0.45593999997E+02  0.45594000000E+02  0.51100000000E-03 0.  1.
         11   -1    0    0    0    0 -0.00000000000E+00 -0.00000000000E+00 -0.45593999997E+02  0.45594000000E+02  0.51100000000E-03 0. -1.
    9900012    2    1    2    0    0 -0.35471023733E+02  0.43633492616E+01  0.27420453896E+02  0.46142316153E+02  0.99999853317E+01 0.  0.
         12    1    1    2    0    0  0.35471023733E+02 -0.43633492616E+01 -0.27420453896E+02  0.45045683847E+02  0.00000000000E+00 0. -1.
         11    1    3    3    0    0 -0.93097990282E+01  0.32775259927E+01  0.48897260529E+01  0.11014715417E+02  0.51100000000E-03 0. -1.
        -11    1    3    3    0    0 -0.10164354319E+02  0.35458843061E+01  0.89334993346E+01  0.13989095927E+02  0.51100000000E-03 0.  1.
         12    1    3    3    0    0 -0.15996870386E+02 -0.24600610371E+01  0.13597228508E+02  0.21138504809E+02  0.00000000000E+00 0. -1.
</event>
<event>
 7    1  0.1402367E-008  0.4614232E+02  0.7816164E-02  0.1320468E+00
        -11   -1    0    0    0    0  0.00000000000E+00  0.00000000000E+00  0.45593999997E+02  0.45594000000E+02  0.51100000000E-03 0.  1.
         11   -1    0    0    0    0 -0.00000000000E+00 -0.00000000000E+00 -0.45593999997E+02  0.45594000000E+02  0.51100000000E-03 0. -1.
    9900012    2    1    2    0    0 -0.40942273452E+01 -0.78337671086E+01  0.44169931079E+02  0.46142318563E+02  0.10000007309E+02 0.  0.
         12    1    1    2    0    0  0.40942273452E+01  0.78337671086E+01 -0.44169931079E+02  0.45045681437E+02  0.00000000000E+00 0. -1.
         11    1    3    3    0    0 -0.83816672768E+00 -0.14310927883E+01  0.36725521098E+00  0.16986543743E+01  0.51100000000E-03 0. -1.
        -11    1    3    3    0    0 -0.24567170032E+01 -0.30582287655E+01  0.27824565470E+02  0.28099727142E+02  0.51100000000E-03 0.  1.
        -12    1    3    3    0    0 -0.79934361431E+00 -0.33444455547E+01  0.15978110398E+02  0.16343937046E+02  0.00000000000E+00 0.  1.
</event>
<event>
 7    1  0.1402367E-008  0.4614232E+02  0.7816164E-02  0.1320468E+00
        -11   -1    0    0    0    0  0.00000000000E+00  0.00000000000E+00  0.45593999997E+02  0.45594000000E+02  0.51100000000E-03 0. -1.
         11   -1    0    0    0    0 -0.00000000000E+00 -0.00000000000E+00 -0.45593999997E+02  0.45594000000E+02  0.51100000000E-03 0.  1.
    9900012    2    1    2    0    0 -0.29103955221E+02 -0.18076021741E+02 -0.29246036791E+02  0.46142318304E+02  0.10000004946E+02 0.  0.
         12    1    1    2    0    0  0.29103955221E+02  0.18076021741E+02  0.29246036791E+02  0.45045681696E+02  0.00000000000E+00 0. -1.
         11    1    3    3    0    0 -0.18904931489E+02 -0.71026883843E+01 -0.13379749193E+02  0.24225241085E+02  0.51100000000E-03 0. -1.
        -11    1    3    3    0    0 -0.75094712307E+01 -0.66770569637E+01 -0.10345746197E+02  0.14422541818E+02  0.51100000000E-03 0.  1.
         12    1    3    3    0    0 -0.26895525012E+01 -0.42962763934E+01 -0.55205414015E+01  0.74945354006E+01  0.00000000000E+00 0. -1.
</event>
<event>
 7    1  0.1402367E-008  0.4614232E+02  0.7816164E-02  0.1320468E+00
        -11   -1    0    0    0    0  0.00000000000E+00  0.00000000000E+00  0.45593999997E+02  0.45594000000E+02  0.51100000000E-03 0.  1.
         11   -1    0    0    0    0 -0.00000000000E+00 -0.00000000000E+00 -0.45593999997E+02  0.45594000000E+02  0.51100000000E-03 0. -1.
    9900012    2    1    2    0    0 -0.40334326734E+01  0.35920681015E+02  0.26880282496E+02  0.46142317734E+02  0.99999997530E+01 0.  0.
         12    1    1    2    0    0  0.40334326734E+01 -0.35920681015E+02 -0.26880282496E+02  0.45045682266E+02  0.00000000000E+00 0. -1.
         11    1    3    3    0    0  0.90008790020E+00  0.75265224253E+01  0.38621768879E+01  0.85073561475E+01  0.51100000000E-03 0. -1.
        -11    1    3    3    0    0 -0.54640243281E+01  0.21679421131E+02  0.13999870613E+02  0.26378954488E+02  0.51100000000E-03 0.  1.
        -12    1    3    3    0    0  0.53050375453E+00  0.67147374594E+01  0.90182349950E+01  0.11256007099E+02  0.00000000000E+00 0.  1.
</event>
<event>
 7    1  0.1402367E-008  0.4614232E+02  0.7816164E-02  0.1320468E+00
        -11   -1    0    0    0    0  0.00000000000E+00  0.00000000000E+00  0.45593999997E+02  0.45594000000E+02  0.51100000000E-03 0.  1.
         11   -1    0    0    0    0 -0.00000000000E+00 -0.00000000000E+00 -0.45593999997E+02  0.45594000000E+02  0.51100000000E-03 0. -1.
    9900012    2    1    2    0    0 -0.30214219569E+02  0.23797813480E+02  0.23449489004E+02  0.46142317353E+02  0.99999962829E+01 0.  0.
         12    1    1    2    0    0  0.30214219569E+02 -0.23797813480E+02 -0.23449489004E+02  0.45045682647E+02  0.00000000000E+00 0. -1.
         11    1    3    3    0    0 -0.80104917025E+01  0.10510403600E+02  0.79503878518E+01  0.15422231628E+02  0.51100000000E-03 0. -1.
        -11    1    3    3    0    0 -0.65918656821E+01  0.71565908277E+01  0.51006130263E+01  0.10985706120E+02  0.51100000000E-03 0.  1.
         12    1    3    3    0    0 -0.15611862184E+02  0.61308190522E+01  0.10398488126E+02  0.19734379605E+02  0.00000000000E+00 0. -1.
</event>
<event>
 7    1  0.1402367E-008  0.4614232E+02  0.7816164E-02  0.1320468E+00
        -11   -1    0    0    0    0  0.00000000000E+00  0.00000000000E+00  0.45593999997E+02  0.45594000000E+02  0.51100000000E-03 0.  1.
         11   -1    0    0    0    0 -0.00000000000E+00 -0.00000000000E+00 -0.45593999997E+02  0.45594000000E+02  0.51100000000E-03 0. -1.
    9900012    2    1    2    0    0 -0.25938222382E+02  0.23857768869E+02  0.28055822895E+02  0.46142315256E+02  0.99999771576E+01 0.  0.
         12    1    1    2    0    0  0.25938222382E+02 -0.23857768869E+02 -0.28055822895E+02  0.45045684744E+02  0.00000000000E+00 0. -1.
         11    1    3    3    0    0 -0.52072729920E+01  0.10608611433E+02  0.80703196255E+01  0.14310429332E+02  0.51100000000E-03 0. -1.
        -11    1    3    3    0    0 -0.15967162641E+02  0.11517708163E+02  0.16394351928E+02  0.25619966033E+02  0.51100000000E-03 0.  1.
        -12    1    3    3    0    0 -0.47637867495E+01  0.17314492725E+01  0.35911513417E+01  0.62119198914E+01  0.00000000000E+00 0.  1.
</event>
<event>
 7    1  0.1402367E-008  0.4614232E+02  0.7816164E-02  0.1320468E+00
        -11   -1    0    0    0    0  0.00000000000E+00  0.00000000000E+00  0.45593999997E+02  0.45594000000E+02  0.51100000000E-03 0.  1.
         11   -1    0    0    0    0 -0.00000000000E+00 -0.00000000000E+00 -0.45593999997E+02  0.45594000000E+02  0.51100000000E-03 0. -1.
    9900012    2    1    2    0    0 -0.16840187281E+02  0.68028368190E+01  0.41221877016E+02  0.46142316066E+02  0.99999845381E+01 0.  0.
         12    1    1    2    0    0  0.16840187281E+02 -0.68028368190E+01 -0.41221877016E+02  0.45045683934E+02  0.00000000000E+00 0. -1.
         11    1    3    3    0    0 -0.30763908809E+01  0.52038829501E+01  0.14388481522E+02  0.15606824769E+02  0.51100000000E-03 0. -1.
        -11    1    3    3    0    0 -0.88885181143E+01 -0.72900436093E+00  0.13851121696E+02  0.16473942277E+02  0.51100000000E-03 0.  1.
         12    1    3    3    0    0 -0.48752782854E+01  0.23279582299E+01  0.12982273798E+02  0.14061549020E+02  0.00000000000E+00 0. -1.
</event>
<event>
 7    1  0.1402367E-008  0.4614232E+02  0.7816164E-02  0.1320468E+00
        -11   -1    0    0    0    0  0.00000000000E+00  0.00000000000E+00  0.45593999997E+02  0.45594000000E+02  0.51100000000E-03 0.  1.
         11   -1    0    0    0    0 -0.00000000000E+00 -0.00000000000E+00 -0.45593999997E+02  0.45594000000E+02  0.51100000000E-03 0. -1.
    9900012    2    1    2    0    0  0.27673914022E+02 -0.26281810329E+02  0.23927696518E+02  0.46142315055E+02  0.99999753255E+01 0.  0.
         12    1    1    2    0    0 -0.27673914022E+02  0.26281810329E+02 -0.23927696518E+02  0.45045684945E+02  0.00000000000E+00 0. -1.
         11    1    3    3    0    0  0.59475914359E+01 -0.27523130565E+01  0.55284830907E+01  0.85739837063E+01  0.51100000000E-03 0. -1.
        -11    1    3    3    0    0  0.20490529586E+02 -0.21641951388E+02  0.14690255777E+02  0.33227089515E+02  0.51100000000E-03 0.  1.
        -12    1    3    3    0    0  0.12357930002E+01 -0.18875458848E+01  0.37089576507E+01  0.43412418340E+01  0.00000000000E+00 0.  1.
</event>
<event>
 7    1  0.1402367E-008  0.4614232E+02  0.7816164E-02  0.1320468E+00
        -11   -1    0    0    0    0  0.00000000000E+00  0.00000000000E+00  0.45593999997E+02  0.45594000000E+02  0.51100000000E-03 0.  1.
         11   -1    0    0    0    0 -0.00000000000E+00 -0.00000000000E+00 -0.45593999997E+02  0.45594000000E+02  0.51100000000E-03 0. -1.
    9900012    2    1    2    0    0 -0.12310490241E+02 -0.71868293485E+01  0.42730725372E+02  0.46142316779E+02  0.99999910403E+01 0.  0.
         12    1    1    2    0    0  0.12310490241E+02  0.71868293485E+01 -0.42730725372E+02  0.45045683221E+02  0.00000000000E+00 0. -1.
         11    1    3    3    0    0 -0.62301328211E+01 -0.49141342353E+01  0.17349303208E+02  0.19077777447E+02  0.51100000000E-03 0. -1.
        -11    1    3    3    0    0 -0.58872970985E+01 -0.72258833605E+00  0.24624358437E+02  0.25328668140E+02  0.51100000000E-03 0.  1.
         12    1    3    3    0    0 -0.19306032136E+00 -0.15501067771E+01  0.75706372707E+00  0.17358711919E+01  0.00000000000E+00 0. -1.
</event>
<event>
 7    1  0.1402367E-008  0.4614232E+02  0.7816164E-02  0.1320468E+00
        -11   -1    0    0    0    0  0.00000000000E+00  0.00000000000E+00  0.45593999997E+02  0.45594000000E+02  0.51100000000E-03 0. -1.
         11   -1    0    0    0    0 -0.00000000000E+00 -0.00000000000E+00 -0.45593999997E+02  0.45594000000E+02  0.51100000000E-03 0.  1.
    9900012    2    1    2    0    0 -0.21767063090E+02 -0.21785747239E+02 -0.32873844254E+02  0.46142318139E+02  0.10000003442E+02 0.  0.
         12    1    1    2    0    0  0.21767063090E+02  0.21785747239E+02  0.32873844254E+02  0.45045681861E+02  0.00000000000E+00 0. -1.
         11    1    3    3    0    0 -0.42061834042E+01 -0.74596520671E+01 -0.12591617716E+02  0.15227843733E+02  0.51100000000E-03 0. -1.
        -11    1    3    3    0    0 -0.89913979190E+01 -0.63244057718E+01 -0.13351615054E+02  0.17294767119E+02  0.51100000000E-03 0.  1.
         12    1    3    3    0    0 -0.85694817668E+01 -0.80016894006E+01 -0.69306114833E+01  0.13619707286E+02  0.00000000000E+00 0. -1.
</event>
<event>
 7    1  0.1402367E-008  0.4614232E+02  0.7816164E-02  0.1320468E+00
        -11   -1    0    0    0    0  0.00000000000E+00  0.00000000000E+00  0.45593999997E+02  0.45594000000E+02  0.51100000000E-03 0.  1.
         11   -1    0    0    0    0 -0.00000000000E+00 -0.00000000000E+00 -0.45593999997E+02  0.45594000000E+02  0.51100000000E-03 0. -1.
    9900012    2    1    2    0    0 -0.91096219769E+01 -0.27346961029E+02  0.34616065552E+02  0.46142317805E+02  0.10000000403E+02 0.  0.
         12    1    1    2    0    0  0.91096219769E+01  0.27346961029E+02 -0.34616065552E+02  0.45045682195E+02  0.00000000000E+00 0. -1.
         11    1    3    3    0    0 -0.21504653458E+00 -0.83007789384E+00  0.39876251891E+01  0.40787779091E+01  0.51100000000E-03 0. -1.
        -11    1    3    3    0    0 -0.95773882528E+01 -0.26320400859E+02  0.29162063579E+02  0.40434092294E+02  0.51100000000E-03 0.  1.
         12    1    3    3    0    0  0.68281281049E+00 -0.19648227628E+00  0.14663767834E+01  0.16294476027E+01  0.00000000000E+00 0. -1.
</event>
<event>
 7    1  0.1402367E-008  0.4614232E+02  0.7816164E-02  0.1320468E+00
        -11   -1    0    0    0    0  0.00000000000E+00  0.00000000000E+00  0.45593999997E+02  0.45594000000E+02  0.51100000000E-03 0.  1.
         11   -1    0    0    0    0 -0.00000000000E+00 -0.00000000000E+00 -0.45593999997E+02  0.45594000000E+02  0.51100000000E-03 0. -1.
    9900012    2    1    2    0    0 -0.58315039949E+01  0.97921240264E+01  0.43580057389E+02  0.46142317256E+02  0.99999953975E+01 0.  0.
         12    1    1    2    0    0  0.58315039949E+01 -0.97921240264E+01 -0.43580057389E+02  0.45045682744E+02  0.00000000000E+00 0. -1.
         11    1    3    3    0    0 -0.14249706094E+01 -0.60918398763E-01  0.19003192165E+02  0.19056640968E+02  0.51100000000E-03 0. -1.
        -11    1    3    3    0    0 -0.44118925004E+01  0.10087291600E+02  0.24460339141E+02  0.26823989980E+02  0.51100000000E-03 0.  1.
        -12    1    3    3    0    0  0.53591149254E-02 -0.23424917472E+00  0.11652608330E+00  0.26168630850E+00  0.00000000000E+00 0.  1.
</event>
<event>
 7    1  0.1402367E-008  0.4614232E+02  0.7816164E-02  0.1320468E+00
        -11   -1    0    0    0    0  0.00000000000E+00  0.00000000000E+00  0.45593999997E+02  0.45594000000E+02  0.51100000000E-03 0. -1.
         11   -1    0    0    0    0 -0.00000000000E+00 -0.00000000000E+00 -0.45593999997E+02  0.45594000000E+02  0.51100000000E-03 0.  1.
    9900012    2    1    2    0    0 -0.16103633605E+02  0.42009187447E+02  0.22393463246E+01  0.46142317441E+02  0.99999970782E+01 0.  0.
         12    1    1    2    0    0  0.16103633605E+02 -0.42009187447E+02 -0.22393463246E+01  0.45045682559E+02  0.00000000000E+00 0. -1.
         11    1    3    3    0    0 -0.12119630940E+01  0.52830895978E+01  0.24853071062E+01  0.59629390331E+01  0.51100000000E-03 0. -1.
        -11    1    3    3    0    0 -0.14788488026E+01  0.82365356148E+01  0.20210760973E+01  0.86088478653E+01  0.51100000000E-03 0.  1.
         12    1    3    3    0    0 -0.13412821709E+02  0.28489562235E+02 -0.22670368790E+01  0.31570530542E+02  0.00000000000E+00 0. -1.
</event>
<event>
 7    1  0.1402367E-008  0.4614232E+02  0.7816164E-02  0.1320468E+00
        -11   -1    0    0    0    0  0.00000000000E+00  0.00000000000E+00  0.45593999997E+02  0.45594000000E+02  0.51100000000E-03 0. -1.
         11   -1    0    0    0    0 -0.00000000000E+00 -0.00000000000E+00 -0.45593999997E+02  0.45594000000E+02  0.51100000000E-03 0.  1.
    9900012    2    1    2    0    0 -0.35991195273E+02 -0.25314274149E+01 -0.26969227249E+02  0.46142317850E+02  0.10000000811E+02 0.  0.
         12    1    1    2    0    0  0.35991195273E+02  0.25314274149E+01  0.26969227249E+02  0.45045682150E+02  0.00000000000E+00 0. -1.
         11    1    3    3    0    0 -0.28411673188E+02 -0.25696835133E+01 -0.24319494239E+02  0.37486854322E+02  0.51100000000E-03 0.  1.
        -11    1    3    3    0    0 -0.40357725060E+01  0.72567145440E+00  0.12509355640E+00  0.41024026422E+01  0.51100000000E-03 0. -1.
         12    1    3    3    0    0 -0.35437495796E+01 -0.68741535601E+00 -0.27748265662E+01  0.45530608855E+01  0.00000000000E+00 0. -1.
</event>
<event>
 7    1  0.1402367E-008  0.4614232E+02  0.7816164E-02  0.1320468E+00
        -11   -1    0    0    0    0  0.00000000000E+00  0.00000000000E+00  0.45593999997E+02  0.45594000000E+02  0.51100000000E-03 0.  1.
         11   -1    0    0    0    0 -0.00000000000E+00 -0.00000000000E+00 -0.45593999997E+02  0.45594000000E+02  0.51100000000E-03 0. -1.
    9900012    2    1    2    0    0  0.30691811164E+02 -0.32620910425E+02  0.47960946219E+01  0.46142316598E+02  0.99999893961E+01 0.  0.
         12    1    1    2    0    0 -0.30691811164E+02  0.32620910425E+02 -0.47960946219E+01  0.45045683402E+02  0.00000000000E+00 0. -1.
         11    1    3    3    0    0  0.20768355356E+01 -0.61048322679E+01  0.95298485335E+00  0.65184663268E+01  0.51100000000E-03 0. -1.
        -11    1    3    3    0    0  0.10633412323E+02 -0.66216083519E+01  0.25006161060E+01  0.12773732265E+02  0.51100000000E-03 0.  1.
         12    1    3    3    0    0  0.17981563306E+02 -0.19894469805E+02  0.13424936625E+01  0.26850118007E+02  0.00000000000E+00 0. -1.
</event>
<event>
 7    1  0.1402367E-008  0.4614232E+02  0.7816164E-02  0.1320468E+00
        -11   -1    0    0    0    0  0.00000000000E+00  0.00000000000E+00  0.45593999997E+02  0.45594000000E+02  0.51100000000E-03 0. -1.
         11   -1    0    0    0    0 -0.00000000000E+00 -0.00000000000E+00 -0.45593999997E+02  0.45594000000E+02  0.51100000000E-03 0.  1.
    9900012    2    1    2    0    0  0.91375582598E+01  0.42600247653E+02 -0.11438417394E+02  0.46142318037E+02  0.10000002511E+02 0.  0.
         12    1    1    2    0    0 -0.91375582598E+01 -0.42600247653E+02  0.11438417394E+02  0.45045681963E+02  0.00000000000E+00 0. -1.
         11    1    3    3    0    0  0.10461150108E+01  0.44401429770E+01  0.87053257057E+00  0.46440341826E+01  0.51100000000E-03 0. -1.
        -11    1    3    3    0    0  0.28495681362E+01  0.28468971334E+02 -0.90525285440E+01  0.30009175941E+02  0.51100000000E-03 0.  1.
         12    1    3    3    0    0  0.52418751128E+01  0.96911333423E+01 -0.32564214209E+01  0.11489107913E+02  0.00000000000E+00 0. -1.
</event>
<event>
 7    1  0.1402367E-008  0.4614232E+02  0.7816164E-02  0.1320468E+00
        -11   -1    0    0    0    0  0.00000000000E+00  0.00000000000E+00  0.45593999997E+02  0.45594000000E+02  0.51100000000E-03 0. -1.
         11   -1    0    0    0    0 -0.00000000000E+00 -0.00000000000E+00 -0.45593999997E+02  0.45594000000E+02  0.51100000000E-03 0.  1.
    9900012    2    1    2    0    0  0.40244462703E+02 -0.13397418545E+02  0.15165948347E+02  0.46142316620E+02  0.99999895969E+01 0.  0.
         12    1    1    2    0    0 -0.40244462703E+02  0.13397418545E+02 -0.15165948347E+02  0.45045683380E+02  0.00000000000E+00 0. -1.
         11    1    3    3    0    0  0.38687605576E+01 -0.28879783375E+01 -0.87091855065E+00  0.49057340442E+01  0.51100000000E-03 0. -1.
        -11    1    3    3    0    0  0.14924252964E+02 -0.52802699837E+01  0.80217840132E+01  0.17747213771E+02  0.51100000000E-03 0.  1.
         12    1    3    3    0    0  0.21451449181E+02 -0.52291702237E+01  0.80150828841E+01  0.23489368805E+02  0.00000000000E+00 0. -1.
</event>
<event>
 7    1  0.1402367E-008  0.4614232E+02  0.7816164E-02  0.1320468E+00
        -11   -1    0    0    0    0  0.00000000000E+00  0.00000000000E+00  0.45593999997E+02  0.45594000000E+02  0.51100000000E-03 0.  1.
         11   -1    0    0    0    0 -0.00000000000E+00 -0.00000000000E+00 -0.45593999997E+02  0.45594000000E+02  0.51100000000E-03 0. -1.
    9900012    2    1    2    0    0  0.26779309573E+02 -0.26273592937E+02  0.24933521179E+02  0.46142316683E+02  0.99999901711E+01 0.  0.
         12    1    1    2    0    0 -0.26779309573E+02  0.26273592937E+02 -0.24933521179E+02  0.45045683317E+02  0.00000000000E+00 0. -1.
         11    1    3    3    0    0  0.23913454774E+02 -0.19844807137E+02  0.21325707640E+02  0.37688930684E+02  0.51100000000E-03 0.  1.
        -11    1    3    3    0    0  0.20088301519E+01 -0.35830711960E+01  0.36292312391E+01  0.54813426661E+01  0.51100000000E-03 0. -1.
         12    1    3    3    0    0  0.85702464779E+00 -0.28457146040E+01 -0.21417699367E-01  0.29720433328E+01  0.00000000000E+00 0. -1.
</event>
<event>
 7    1  0.1402367E-008  0.4614232E+02  0.7816164E-02  0.1320468E+00
        -11   -1    0    0    0    0  0.00000000000E+00  0.00000000000E+00  0.45593999997E+02  0.45594000000E+02  0.51100000000E-03 0.  1.
         11   -1    0    0    0    0 -0.00000000000E+00 -0.00000000000E+00 -0.45593999997E+02  0.45594000000E+02  0.51100000000E-03 0. -1.
    9900012    2    1    2    0    0  0.66686120203E+01 -0.10887061604E+02  0.43198552537E+02  0.46142318321E+02  0.10000005101E+02 0.  0.
         12    1    1    2    0    0 -0.66686120203E+01  0.10887061604E+02 -0.43198552537E+02  0.45045681679E+02  0.00000000000E+00 0. -1.
         11    1    3    3    0    0  0.34543465751E+01 -0.53147074153E+01  0.26473977567E+02  0.27222235647E+02  0.51100000000E-03 0.  1.
        -11    1    3    3    0    0  0.37921210073E+01 -0.34562373031E+01  0.56570929827E+01  0.76373070716E+01  0.51100000000E-03 0. -1.
         12    1    3    3    0    0 -0.57785556216E+00 -0.21161168855E+01  0.11067481988E+02  0.11282775602E+02  0.00000000000E+00 0. -1.
</event>
<event>
 7    1  0.1402367E-008  0.4614232E+02  0.7816164E-02  0.1320468E+00
        -11   -1    0    0    0    0  0.00000000000E+00  0.00000000000E+00  0.45593999997E+02  0.45594000000E+02  0.51100000000E-03 0. -1.
         11   -1    0    0    0    0 -0.00000000000E+00 -0.00000000000E+00 -0.45593999997E+02  0.45594000000E+02  0.51100000000E-03 0.  1.
    9900012    2    1    2    0    0 -0.14630754192E+02  0.16986190312E+01 -0.42569580421E+02  0.46142318164E+02  0.10000003677E+02 0.  0.
         12    1    1    2    0    0  0.14630754192E+02 -0.16986190312E+01  0.42569580421E+02  0.45045681836E+02  0.00000000000E+00 0. -1.
         11    1    3    3    0    0  0.97803807015E+00  0.16002633499E+01 -0.68338092841E+01  0.70864907287E+01  0.51100000000E-03 0. -1.
        -11    1    3    3    0    0 -0.74825068016E+01 -0.10134740007E+01 -0.17626427835E+02  0.19175661555E+02  0.51100000000E-03 0.  1.
        -12    1    3    3    0    0 -0.81262854608E+01  0.11118296821E+01 -0.18109343301E+02  0.19880165881E+02  0.00000000000E+00 0.  1.
</event>
<event>
 7    1  0.1402367E-008  0.4614232E+02  0.7816164E-02  0.1320468E+00
        -11   -1    0    0    0    0  0.00000000000E+00  0.00000000000E+00  0.45593999997E+02  0.45594000000E+02  0.51100000000E-03 0. -1.
         11   -1    0    0    0    0 -0.00000000000E+00 -0.00000000000E+00 -0.45593999997E+02  0.45594000000E+02  0.51100000000E-03 0.  1.
    9900012    2    1    2    0    0  0.39937407390E+02 -0.20481599476E+02 -0.38237535925E+01  0.46142317436E+02  0.99999970349E+01 0.  0.
         12    1    1    2    0    0 -0.39937407390E+02  0.20481599476E+02  0.38237535925E+01  0.45045682564E+02  0.00000000000E+00 0. -1.
         11    1    3    3    0    0  0.40144682499E+01 -0.47914964886E+00  0.18747775756E+00  0.40473062506E+01  0.51100000000E-03 0. -1.
        -11    1    3    3    0    0  0.28457752377E+01  0.20556884244E+00 -0.15699376721E+01  0.32565932825E+01  0.51100000000E-03 0.  1.
        -12    1    3    3    0    0  0.33077163902E+02 -0.20208018669E+02 -0.24412936780E+01  0.38838417903E+02  0.00000000000E+00 0.  1.
</event>
<event>
 7    1  0.1402367E-008  0.4614232E+02  0.7816164E-02  0.1320468E+00
        -11   -1    0    0    0    0  0.00000000000E+00  0.00000000000E+00  0.45593999997E+02  0.45594000000E+02  0.51100000000E-03 0.  1.
         11   -1    0    0    0    0 -0.00000000000E+00 -0.00000000000E+00 -0.45593999997E+02  0.45594000000E+02  0.51100000000E-03 0. -1.
    9900012    2    1    2    0    0  0.37992907228E+02  0.23463003812E+02 -0.59278846998E+01  0.46142319136E+02  0.10000012537E+02 0.  0.
         12    1    1    2    0    0 -0.37992907228E+02 -0.23463003812E+02  0.59278846998E+01  0.45045680864E+02  0.00000000000E+00 0. -1.
         11    1    3    3    0    0  0.13269726508E+02  0.80162164203E+01  0.15722915866E+01  0.15582601464E+02  0.51100000000E-03 0. -1.
        -11    1    3    3    0    0  0.22971352152E+02  0.13109157040E+02 -0.54865946568E+01  0.27011770382E+02  0.51100000000E-03 0.  1.
         12    1    3    3    0    0  0.17518285677E+01  0.23376303512E+01 -0.20135816296E+01  0.35479472894E+01  0.00000000000E+00 0. -1.
</event>
<event>
 7    1  0.1402367E-008  0.4614232E+02  0.7816164E-02  0.1320468E+00
        -11   -1    0    0    0    0  0.00000000000E+00  0.00000000000E+00  0.45593999997E+02  0.45594000000E+02  0.51100000000E-03 0. -1.
         11   -1    0    0    0    0 -0.00000000000E+00 -0.00000000000E+00 -0.45593999997E+02  0.45594000000E+02  0.51100000000E-03 0.  1.
    9900012    2    1    2    0    0 -0.16425161101E+02 -0.34674354295E+02 -0.23601201306E+02  0.46142318009E+02  0.10000002256E+02 0.  0.
         12    1    1    2    0    0  0.16425161101E+02  0.34674354295E+02  0.23601201306E+02  0.45045681991E+02  0.00000000000E+00 0. -1.
         11    1    3    3    0    0 -0.37742767463E+01 -0.55251000891E+01 -0.32635647976E+01  0.74446458211E+01  0.51100000000E-03 0. -1.
        -11    1    3    3    0    0 -0.98833951645E+01 -0.20032292034E+02 -0.18478670073E+02  0.28990265125E+02  0.51100000000E-03 0.  1.
        -12    1    3    3    0    0 -0.27674891903E+01 -0.91169621719E+01 -0.18589664361E+01  0.97074070622E+01  0.00000000000E+00 0.  1.
</event>
<event>
 7    1  0.1402367E-008  0.4614232E+02  0.7816164E-02  0.1320468E+00
        -11   -1    0    0    0    0  0.00000000000E+00  0.00000000000E+00  0.45593999997E+02  0.45594000000E+02  0.51100000000E-03 0. -1.
         11   -1    0    0    0    0 -0.00000000000E+00 -0.00000000000E+00 -0.45593999997E+02  0.45594000000E+02  0.51100000000E-03 0.  1.
    9900012    2    1    2    0    0 -0.14299358336E+02  0.40627160477E+02 -0.13193773889E+02  0.46142317780E+02  0.10000000173E+02 0.  0.
         12    1    1    2    0    0  0.14299358336E+02 -0.40627160477E+02  0.13193773889E+02  0.45045682220E+02  0.00000000000E+00 0. -1.
         11    1    3    3    0    0 -0.29276885256E+01  0.19252525185E+02 -0.82773038086E+01  0.21159982153E+02  0.51100000000E-03 0. -1.
        -11    1    3    3    0    0 -0.44413911990E+01  0.61595477650E+01 -0.14297083802E+00  0.75951580216E+01  0.51100000000E-03 0.  1.
        -12    1    3    3    0    0 -0.69302786117E+01  0.15215087527E+02 -0.47734992424E+01  0.17387177606E+02  0.00000000000E+00 0.  1.
</event>
<event>
 7    1  0.1402367E-008  0.4614232E+02  0.7816164E-02  0.1320468E+00
        -11   -1    0    0    0    0  0.00000000000E+00  0.00000000000E+00  0.45593999997E+02  0.45594000000E+02  0.51100000000E-03 0.  1.
         11   -1    0    0    0    0 -0.00000000000E+00 -0.00000000000E+00 -0.45593999997E+02  0.45594000000E+02  0.51100000000E-03 0. -1.
    9900012    2    1    2    0    0 -0.39093076710E+02  0.76588588554E+01  0.21028235784E+02  0.46142318012E+02  0.10000002286E+02 0.  0.
         12    1    1    2    0    0  0.39093076710E+02 -0.76588588554E+01 -0.21028235784E+02  0.45045681988E+02  0.00000000000E+00 0. -1.
         11    1    3    3    0    0 -0.21627632802E+01  0.17529574421E+01  0.43314594157E+01  0.51489752117E+01  0.51100000000E-03 0. -1.
        -11    1    3    3    0    0 -0.25837976721E+02  0.45122998452E+01  0.12456957041E+02  0.29036832987E+02  0.51100000000E-03 0.  1.
         12    1    3    3    0    0 -0.11092336708E+02  0.13936015681E+01  0.42398193266E+01  0.11956509813E+02  0.00000000000E+00 0. -1.
</event>
<event>
 7    1  0.1402367E-008  0.4614232E+02  0.7816164E-02  0.1320468E+00
        -11   -1    0    0    0    0  0.00000000000E+00  0.00000000000E+00  0.45593999997E+02  0.45594000000E+02  0.51100000000E-03 0. -1.
         11   -1    0    0    0    0 -0.00000000000E+00 -0.00000000000E+00 -0.45593999997E+02  0.45594000000E+02  0.51100000000E-03 0.  1.
    9900012    2    1    2    0    0  0.13010001994E+00  0.82326090511E+01 -0.44286800996E+02  0.46142317407E+02  0.99999967741E+01 0.  0.
         12    1    1    2    0    0 -0.13010001994E+00 -0.82326090511E+01  0.44286800996E+02  0.45045682593E+02  0.00000000000E+00 0. -1.
         11    1    3    3    0    0 -0.33143585767E+01  0.70139869505E+00 -0.16344773618E+02  0.16692170554E+02  0.51100000000E-03 0. -1.
        -11    1    3    3    0    0  0.17075948111E+01  0.73619114890E+01 -0.22867195350E+02  0.24083650975E+02  0.51100000000E-03 0.  1.
         12    1    3    3    0    0  0.17368637856E+01  0.16929886706E+00 -0.50748320270E+01  0.53664958789E+01  0.00000000000E+00 0. -1.
</event>
<event>
 7    1  0.1402367E-008  0.4614232E+02  0.7816164E-02  0.1320468E+00
        -11   -1    0    0    0    0  0.00000000000E+00  0.00000000000E+00  0.45593999997E+02  0.45594000000E+02  0.51100000000E-03 0.  1.
         11   -1    0    0    0    0 -0.00000000000E+00 -0.00000000000E+00 -0.45593999997E+02  0.45594000000E+02  0.51100000000E-03 0. -1.
    9900012    2    1    2    0    0  0.23313471077E+02 -0.36493849539E+02  0.12401389360E+02  0.46142318233E+02  0.10000004302E+02 0.  0.
         12    1    1    2    0    0 -0.23313471077E+02  0.36493849539E+02 -0.12401389360E+02  0.45045681767E+02  0.00000000000E+00 0. -1.
         11    1    3    3    0    0  0.15014931406E+02 -0.23914443691E+02  0.98987771791E+01  0.29922141837E+02  0.51100000000E-03 0. -1.
        -11    1    3    3    0    0  0.41628656488E+01 -0.10285942326E+02  0.29158821510E+01  0.11473117664E+02  0.51100000000E-03 0.  1.
         12    1    3    3    0    0  0.41356740216E+01 -0.22934635213E+01 -0.41326997054E+00  0.47470587320E+01  0.00000000000E+00 0. -1.
</event>
<event>
 7    1  0.1402367E-008  0.4614232E+02  0.7816164E-02  0.1320468E+00
        -11   -1    0    0    0    0  0.00000000000E+00  0.00000000000E+00  0.45593999997E+02  0.45594000000E+02  0.51100000000E-03 0.  1.
         11   -1    0    0    0    0 -0.00000000000E+00 -0.00000000000E+00 -0.45593999997E+02  0.45594000000E+02  0.51100000000E-03 0. -1.
    9900012    2    1    2    0    0 -0.30025629821E+02 -0.16218617342E+02  0.29402910387E+02  0.46142321696E+02  0.10000035884E+02 0.  0.
         12    1    1    2    0    0  0.30025629821E+02  0.16218617342E+02 -0.29402910387E+02  0.45045678304E+02  0.00000000000E+00 0. -1.
         11    1    3    3    0    0 -0.25017617705E+01 -0.35310387742E+01  0.31640514446E+01  0.53608085758E+01  0.51100000000E-03 0. -1.
        -11    1    3    3    0    0 -0.27550516500E+02 -0.11368595126E+02  0.24397921805E+02  0.38516678248E+02  0.51100000000E-03 0.  1.
        -12    1    3    3    0    0  0.26648449591E-01 -0.13189834416E+01  0.18409371369E+01  0.22648348728E+01  0.00000000000E+00 0.  1.
</event>
<event>
 7    1  0.1402367E-008  0.4614231E+02  0.7816164E-02  0.1320468E+00
        -11   -1    0    0    0    0  0.00000000000E+00  0.00000000000E+00  0.45593999997E+02  0.45594000000E+02  0.51100000000E-03 0.  1.
         11   -1    0    0    0    0 -0.00000000000E+00 -0.00000000000E+00 -0.45593999997E+02  0.45594000000E+02  0.51100000000E-03 0. -1.
    9900012    2    1    2    0    0  0.43729126385E+02  0.42247908340E+01 -0.99513118723E+01  0.46142312527E+02  0.99999522696E+01 0.  0.
         12    1    1    2    0    0 -0.43729126385E+02 -0.42247908340E+01  0.99513118723E+01  0.45045687473E+02  0.00000000000E+00 0. -1.
         11    1    3    3    0    0  0.11366224510E+02  0.76145647090E+00 -0.65758038060E+01  0.13153405320E+02  0.51100000000E-03 0. -1.
        -11    1    3    3    0    0  0.15468706843E+02 -0.14778311097E+00 -0.26742101072E+01  0.15698857640E+02  0.51100000000E-03 0.  1.
         12    1    3    3    0    0  0.16894195031E+02  0.36111174740E+01 -0.70129795901E+00  0.17290049566E+02  0.00000000000E+00 0. -1.
</event>
<event>
 7    1  0.1402367E-008  0.4614233E+02  0.7816164E-02  0.1320468E+00
        -11   -1    0    0    0    0  0.00000000000E+00  0.00000000000E+00  0.45593999997E+02  0.45594000000E+02  0.51100000000E-03 0.  1.
         11   -1    0    0    0    0 -0.00000000000E+00 -0.00000000000E+00 -0.45593999997E+02  0.45594000000E+02  0.51100000000E-03 0. -1.
    9900012    2    1    2    0    0  0.20508880214E+02  0.39478775791E+02  0.70657183449E+01  0.46142331159E+02  0.10000122169E+02 0.  0.
         12    1    1    2    0    0 -0.20508880214E+02 -0.39478775791E+02 -0.70657183449E+01  0.45045668841E+02  0.00000000000E+00 0. -1.
         11    1    3    3    0    0  0.70278775781E+01  0.74508198133E+01  0.20543268624E+01  0.10446340903E+02  0.51100000000E-03 0. -1.
        -11    1    3    3    0    0  0.13834178238E+02  0.32124197834E+02  0.49620036698E+01  0.35326619633E+02  0.51100000000E-03 0.  1.
        -12    1    3    3    0    0 -0.35317560220E+00 -0.96241856008E-01  0.49387812682E-01  0.36937062265E+00  0.00000000000E+00 0.  1.
</event>
<event>
 7    1  0.1402367E-008  0.4614232E+02  0.7816164E-02  0.1320468E+00
        -11   -1    0    0    0    0  0.00000000000E+00  0.00000000000E+00  0.45593999997E+02  0.45594000000E+02  0.51100000000E-03 0.  1.
         11   -1    0    0    0    0 -0.00000000000E+00 -0.00000000000E+00 -0.45593999997E+02  0.45594000000E+02  0.51100000000E-03 0. -1.
    9900012    2    1    2    0    0  0.27029015349E+02 -0.35858960158E+02  0.35610169704E+01  0.46142317230E+02  0.99999951573E+01 0.  0.
         12    1    1    2    0    0 -0.27029015349E+02  0.35858960158E+02 -0.35610169704E+01  0.45045682770E+02  0.00000000000E+00 0. -1.
         11    1    3    3    0    0  0.13937133787E+02 -0.13628465859E+02  0.19291416068E+01  0.19588271171E+02  0.51100000000E-03 0. -1.
        -11    1    3    3    0    0  0.85460212795E+01 -0.87862841871E+01  0.16085751106E+01  0.12362070364E+02  0.51100000000E-03 0.  1.
         12    1    3    3    0    0  0.45458602823E+01 -0.13444210112E+02  0.23300253025E-01  0.14191975695E+02  0.00000000000E+00 0. -1.
</event>
<event>
 7    1  0.1402367E-008  0.4614232E+02  0.7816164E-02  0.1320468E+00
        -11   -1    0    0    0    0  0.00000000000E+00  0.00000000000E+00  0.45593999997E+02  0.45594000000E+02  0.51100000000E-03 0.  1.
         11   -1    0    0    0    0 -0.00000000000E+00 -0.00000000000E+00 -0.45593999997E+02  0.45594000000E+02  0.51100000000E-03 0. -1.
    9900012    2    1    2    0    0 -0.12278030858E+02 -0.32182860650E+02  0.29028036541E+02  0.46142318001E+02  0.10000002183E+02 0.  0.
         12    1    1    2    0    0  0.12278030858E+02  0.32182860650E+02 -0.29028036541E+02  0.45045681999E+02  0.00000000000E+00 0. -1.
         11    1    3    3    0    0  0.13334870374E+01 -0.40545404271E+01  0.19242699628E+01  0.46819120992E+01  0.51100000000E-03 0. -1.
        -11    1    3    3    0    0 -0.11462007972E+02 -0.24486931339E+02  0.22183373091E+02  0.34972696137E+02  0.51100000000E-03 0.  1.
         12    1    3    3    0    0 -0.21495099237E+01 -0.36413888846E+01  0.49203934875E+01  0.64877097649E+01  0.00000000000E+00 0. -1.
</event>
<event>
 7    1  0.1402367E-008  0.4614233E+02  0.7816164E-02  0.1320468E+00
        -11   -1    0    0    0    0  0.00000000000E+00  0.00000000000E+00  0.45593999997E+02  0.45594000000E+02  0.51100000000E-03 0.  1.
         11   -1    0    0    0    0 -0.00000000000E+00 -0.00000000000E+00 -0.45593999997E+02  0.45594000000E+02  0.51100000000E-03 0. -1.
    9900012    2    1    2    0    0  0.76214293521E+00  0.11404637418E+02  0.43571390773E+02  0.46142326397E+02  0.10000078748E+02 0.  0.
         12    1    1    2    0    0 -0.76214293521E+00 -0.11404637418E+02 -0.43571390773E+02  0.45045673603E+02  0.00000000000E+00 0. -1.
         11    1    3    3    0    0  0.28215987261E+01  0.37312694292E+01  0.16662631204E+02  0.17306850372E+02  0.51100000000E-03 0. -1.
        -11    1    3    3    0    0  0.12749961530E+01  0.43708635668E+01  0.19803869944E+02  0.20320514967E+02  0.51100000000E-03 0.  1.
         12    1    3    3    0    0 -0.33344519439E+01  0.33025044222E+01  0.71048896246E+01  0.85149610571E+01  0.00000000000E+00 0. -1.
</event>
<event>
 7    1  0.1402367E-008  0.4614232E+02  0.7816164E-02  0.1320468E+00
        -11   -1    0    0    0    0  0.00000000000E+00  0.00000000000E+00  0.45593999997E+02  0.45594000000E+02  0.51100000000E-03 0. -1.
         11   -1    0    0    0    0 -0.00000000000E+00 -0.00000000000E+00 -0.45593999997E+02  0.45594000000E+02  0.51100000000E-03 0.  1.
    9900012    2    1    2    0    0 -0.70862638209E+01 -0.25028093044E+02 -0.36776253330E+02  0.46142318905E+02  0.10000010429E+02 0.  0.
         12    1    1    2    0    0  0.70862638209E+01  0.25028093044E+02  0.36776253330E+02  0.45045681095E+02  0.00000000000E+00 0. -1.
         11    1    3    3    0    0 -0.76869190423E+01 -0.16628339933E+02 -0.20832566656E+02  0.27741417538E+02  0.51100000000E-03 0. -1.
        -11    1    3    3    0    0 -0.53636410743E+00 -0.78242309874E+01 -0.14418415143E+02  0.16413316925E+02  0.51100000000E-03 0.  1.
         12    1    3    3    0    0  0.11370193288E+01 -0.57552212422E+00 -0.15252715316E+01  0.19875844421E+01  0.00000000000E+00 0. -1.
</event>
<event>
 7    1  0.1402367E-008  0.4614232E+02  0.7816164E-02  0.1320468E+00
        -11   -1    0    0    0    0  0.00000000000E+00  0.00000000000E+00  0.45593999997E+02  0.45594000000E+02  0.51100000000E-03 0.  1.
         11   -1    0    0    0    0 -0.00000000000E+00 -0.00000000000E+00 -0.45593999997E+02  0.45594000000E+02  0.51100000000E-03 0. -1.
    9900012    2    1    2    0    0 -0.15418481073E+02  0.34975799537E+02  0.23834373317E+02  0.46142318040E+02  0.10000002546E+02 0.  0.
         12    1    1    2    0    0  0.15418481073E+02 -0.34975799537E+02 -0.23834373317E+02  0.45045681960E+02  0.00000000000E+00 0. -1.
         11    1    3    3    0    0 -0.42068089565E+01  0.52133760219E+01  0.75683757257E+01  0.10107266818E+02  0.51100000000E-03 0. -1.
        -11    1    3    3    0    0 -0.92751498787E+01  0.26167842530E+02  0.12379273029E+02  0.30397874744E+02  0.51100000000E-03 0.  1.
        -12    1    3    3    0    0 -0.19365222373E+01  0.35945809849E+01  0.38867245617E+01  0.56371764786E+01  0.00000000000E+00 0.  1.
</event>
<event>
 7    1  0.1402367E-008  0.4614232E+02  0.7816164E-02  0.1320468E+00
        -11   -1    0    0    0    0  0.00000000000E+00  0.00000000000E+00  0.45593999997E+02  0.45594000000E+02  0.51100000000E-03 0.  1.
         11   -1    0    0    0    0 -0.00000000000E+00 -0.00000000000E+00 -0.45593999997E+02  0.45594000000E+02  0.51100000000E-03 0. -1.
    9900012    2    1    2    0    0 -0.37942236597E+01  0.26380923475E+02  0.36314793588E+02  0.46142317744E+02  0.99999998466E+01 0.  0.
         12    1    1    2    0    0  0.37942236597E+01 -0.26380923475E+02 -0.36314793588E+02  0.45045682256E+02  0.00000000000E+00 0. -1.
         11    1    3    3    0    0 -0.11679615022E+01  0.73345021688E+01  0.68451318104E+01  0.10100241873E+02  0.51100000000E-03 0. -1.
        -11    1    3    3    0    0 -0.40239023070E+01  0.70768067480E+01  0.16111220043E+02  0.18051160490E+02  0.51100000000E-03 0.  1.
         12    1    3    3    0    0  0.13976401495E+01  0.11969614558E+02  0.13358441734E+02  0.17990915381E+02  0.00000000000E+00 0. -1.
</event>
<event>
 7    1  0.1402367E-008  0.4614232E+02  0.7816164E-02  0.1320468E+00
        -11   -1    0    0    0    0  0.00000000000E+00  0.00000000000E+00  0.45593999997E+02  0.45594000000E+02  0.51100000000E-03 0. -1.
         11   -1    0    0    0    0 -0.00000000000E+00 -0.00000000000E+00 -0.45593999997E+02  0.45594000000E+02  0.51100000000E-03 0.  1.
    9900012    2    1    2    0    0 -0.29766371690E+02  0.23130268436E+02  0.24659021487E+02  0.46142317164E+02  0.99999945524E+01 0.  0.
         12    1    1    2    0    0  0.29766371690E+02 -0.23130268436E+02 -0.24659021487E+02  0.45045682836E+02  0.00000000000E+00 0. -1.
         11    1    3    3    0    0 -0.86756244558E+01  0.42735186342E+01  0.74325848960E+01  0.12197243119E+02  0.51100000000E-03 0. -1.
        -11    1    3    3    0    0 -0.94155629270E+01  0.13353282472E+02  0.98629996771E+01  0.19085118310E+02  0.51100000000E-03 0.  1.
        -12    1    3    3    0    0 -0.11675184307E+02  0.55034673305E+01  0.73634369137E+01  0.14859955735E+02  0.00000000000E+00 0.  1.
</event>
<event>
 7    1  0.1402367E-008  0.4614232E+02  0.7816164E-02  0.1320468E+00
        -11   -1    0    0    0    0  0.00000000000E+00  0.00000000000E+00  0.45593999997E+02  0.45594000000E+02  0.51100000000E-03 0. -1.
         11   -1    0    0    0    0 -0.00000000000E+00 -0.00000000000E+00 -0.45593999997E+02  0.45594000000E+02  0.51100000000E-03 0.  1.
    9900012    2    1    2    0    0 -0.66919234704E+01 -0.32734831372E+02 -0.30211950310E+02  0.46142323557E+02  0.10000052855E+02 0.  0.
         12    1    1    2    0    0  0.66919234704E+01  0.32734831372E+02  0.30211950310E+02  0.45045676443E+02  0.00000000000E+00 0. -1.
         11    1    3    3    0    0  0.12493980052E+01 -0.90534764581E+01 -0.12026451809E+02  0.15105031438E+02  0.51100000000E-03 0.  1.
        -11    1    3    3    0    0 -0.75723114101E+01 -0.22220994386E+02 -0.17857304445E+02  0.29495691446E+02  0.51100000000E-03 0. -1.
         12    1    3    3    0    0 -0.36901006548E+00 -0.14603605275E+01 -0.32819405550E+00  0.15416006736E+01  0.00000000000E+00 0. -1.
</event>
<event>
 7    1  0.1402367E-008  0.4614232E+02  0.7816164E-02  0.1320468E+00
        -11   -1    0    0    0    0  0.00000000000E+00  0.00000000000E+00  0.45593999997E+02  0.45594000000E+02  0.51100000000E-03 0. -1.
         11   -1    0    0    0    0 -0.00000000000E+00 -0.00000000000E+00 -0.45593999997E+02  0.45594000000E+02  0.51100000000E-03 0.  1.
    9900012    2    1    2    0    0 -0.26404688305E+02 -0.28362664337E+02  0.22966610763E+02  0.46142317602E+02  0.99999985471E+01 0.  0.
         12    1    1    2    0    0  0.26404688305E+02  0.28362664337E+02 -0.22966610763E+02  0.45045682398E+02  0.00000000000E+00 0. -1.
         11    1    3    3    0    0 -0.39200123093E+01 -0.77066519034E+01  0.87905184734E+01  0.12330133631E+02  0.51100000000E-03 0. -1.
        -11    1    3    3    0    0 -0.19834833681E+02 -0.18826216588E+02  0.13596084774E+02  0.30540147014E+02  0.51100000000E-03 0.  1.
        -12    1    3    3    0    0 -0.26498423154E+01 -0.18297958448E+01  0.58000751540E+00  0.32720369570E+01  0.00000000000E+00 0.  1.
</event>
<event>
 7    1  0.1402367E-008  0.4614232E+02  0.7816164E-02  0.1320468E+00
        -11   -1    0    0    0    0  0.00000000000E+00  0.00000000000E+00  0.45593999997E+02  0.45594000000E+02  0.51100000000E-03 0. -1.
         11   -1    0    0    0    0 -0.00000000000E+00 -0.00000000000E+00 -0.45593999997E+02  0.45594000000E+02  0.51100000000E-03 0.  1.
    9900012    2    1    2    0    0 -0.32720266684E+02 -0.14381312203E+02 -0.27416701163E+02  0.46142317685E+02  0.99999993087E+01 0.  0.
         12    1    1    2    0    0  0.32720266684E+02  0.14381312203E+02  0.27416701163E+02  0.45045682315E+02  0.00000000000E+00 0. -1.
         11    1    3    3    0    0 -0.24039479133E+02 -0.85188413518E+01 -0.15017993044E+02  0.29597421007E+02  0.51100000000E-03 0. -1.
        -11    1    3    3    0    0 -0.14864719025E+01 -0.26641699396E+01 -0.40337010207E+01  0.50574839960E+01  0.51100000000E-03 0.  1.
        -12    1    3    3    0    0 -0.71943156486E+01 -0.31983009116E+01 -0.83650070988E+01  0.11487412682E+02  0.00000000000E+00 0.  1.
</event>
<event>
 7    1  0.1402367E-008  0.4614232E+02  0.7816164E-02  0.1320468E+00
        -11   -1    0    0    0    0  0.00000000000E+00  0.00000000000E+00  0.45593999997E+02  0.45594000000E+02  0.51100000000E-03 0.  1.
         11   -1    0    0    0    0 -0.00000000000E+00 -0.00000000000E+00 -0.45593999997E+02  0.45594000000E+02  0.51100000000E-03 0. -1.
    9900012    2    1    2    0    0 -0.61493436317E+01  0.45035987250E+01  0.44396133094E+02  0.46142318050E+02  0.10000002639E+02 0.  0.
         12    1    1    2    0    0  0.61493436317E+01 -0.45035987250E+01 -0.44396133094E+02  0.45045681950E+02  0.00000000000E+00 0. -1.
         11    1    3    3    0    0 -0.44017936893E+01 -0.96855050567E+00  0.16245568669E+02  0.16859192727E+02  0.51100000000E-03 0.  1.
        -11    1    3    3    0    0  0.11444090106E+01 -0.60178111387E+00  0.35038351637E+01  0.37347923112E+01  0.51100000000E-03 0. -1.
        -12    1    3    3    0    0 -0.28919589530E+01  0.60739303446E+01  0.24646729262E+02  0.25548333013E+02  0.00000000000E+00 0.  1.
</event>
<event>
 7    1  0.1402367E-008  0.4614232E+02  0.7816164E-02  0.1320468E+00
        -11   -1    0    0    0    0  0.00000000000E+00  0.00000000000E+00  0.45593999997E+02  0.45594000000E+02  0.51100000000E-03 0. -1.
         11   -1    0    0    0    0 -0.00000000000E+00 -0.00000000000E+00 -0.45593999997E+02  0.45594000000E+02  0.51100000000E-03 0.  1.
    9900012    2    1    2    0    0  0.12646380581E+02  0.42912799960E+02 -0.52606274709E+01  0.46142317148E+02  0.99999944089E+01 0.  0.
         12    1    1    2    0    0 -0.12646380581E+02 -0.42912799960E+02  0.52606274709E+01  0.45045682852E+02  0.00000000000E+00 0. -1.
         11    1    3    3    0    0  0.27166002417E+01  0.49596372902E+01 -0.19178523473E+01  0.59712709544E+01  0.51100000000E-03 0. -1.
        -11    1    3    3    0    0  0.66232917334E+00  0.16943864313E+02 -0.29085518236E+01  0.17204443954E+02  0.51100000000E-03 0.  1.
        -12    1    3    3    0    0  0.92674511657E+01  0.21009298357E+02 -0.43422330002E+00  0.22966602240E+02  0.00000000000E+00 0.  1.
</event>
<event>
 7    1  0.1402367E-008  0.4614232E+02  0.7816164E-02  0.1320468E+00
        -11   -1    0    0    0    0  0.00000000000E+00  0.00000000000E+00  0.45593999997E+02  0.45594000000E+02  0.51100000000E-03 0.  1.
         11   -1    0    0    0    0 -0.00000000000E+00 -0.00000000000E+00 -0.45593999997E+02  0.45594000000E+02  0.51100000000E-03 0. -1.
    9900012    2    1    2    0    0  0.13190102382E+02 -0.25758164183E+02  0.34520307374E+02  0.46142318252E+02  0.10000004480E+02 0.  0.
         12    1    1    2    0    0 -0.13190102382E+02  0.25758164183E+02 -0.34520307374E+02  0.45045681748E+02  0.00000000000E+00 0. -1.
         11    1    3    3    0    0  0.43500738619E+01 -0.16397892983E+02  0.19378259078E+02  0.25755212327E+02  0.51100000000E-03 0. -1.
        -11    1    3    3    0    0  0.59409788678E+01 -0.72761916165E+01  0.77497276922E+01  0.12177703967E+02  0.51100000000E-03 0.  1.
         12    1    3    3    0    0  0.28990496524E+01 -0.20840795838E+01  0.73923206039E+01  0.82094019581E+01  0.00000000000E+00 0. -1.
</event>
<event>
 7    1  0.1402367E-008  0.4614231E+02  0.7816164E-02  0.1320468E+00
        -11   -1    0    0    0    0  0.00000000000E+00  0.00000000000E+00  0.45593999997E+02  0.45594000000E+02  0.51100000000E-03 0.  1.
         11   -1    0    0    0    0 -0.00000000000E+00 -0.00000000000E+00 -0.45593999997E+02  0.45594000000E+02  0.51100000000E-03 0. -1.
    9900012    2    1    2    0    0 -0.36095618419E+02 -0.76234506479E+01  0.25847689867E+02  0.46142314965E+02  0.99999744998E+01 0.  0.
         12    1    1    2    0    0  0.36095618419E+02  0.76234506479E+01 -0.25847689867E+02  0.45045685035E+02  0.00000000000E+00 0. -1.
         11    1    3    3    0    0 -0.33715699974E+00  0.84063070332E-01  0.22646346682E+01  0.22911376833E+01  0.51100000000E-03 0. -1.
        -11    1    3    3    0    0 -0.24356679385E+02 -0.28639275716E+01  0.16809873990E+02  0.29732503689E+02  0.51100000000E-03 0.  1.
         12    1    3    3    0    0 -0.11401782034E+02 -0.48435861466E+01  0.67731812089E+01  0.14118673592E+02  0.00000000000E+00 0. -1.
</event>
<event>
 7    1  0.1402367E-008  0.4614232E+02  0.7816164E-02  0.1320468E+00
        -11   -1    0    0    0    0  0.00000000000E+00  0.00000000000E+00  0.45593999997E+02  0.45594000000E+02  0.51100000000E-03 0.  1.
         11   -1    0    0    0    0 -0.00000000000E+00 -0.00000000000E+00 -0.45593999997E+02  0.45594000000E+02  0.51100000000E-03 0. -1.
    9900012    2    1    2    0    0  0.21322075354E+02  0.19455028441E+02  0.34583008968E+02  0.46142317207E+02  0.99999949439E+01 0.  0.
         12    1    1    2    0    0 -0.21322075354E+02 -0.19455028441E+02 -0.34583008968E+02  0.45045682793E+02  0.00000000000E+00 0. -1.
         11    1    3    3    0    0  0.27580990915E+01  0.78523022729E+00  0.64233269058E+01  0.70344030243E+01  0.51100000000E-03 0. -1.
        -11    1    3    3    0    0  0.12465021953E+02  0.10890688272E+02  0.13171219401E+02  0.21153365787E+02  0.51100000000E-03 0.  1.
        -12    1    3    3    0    0  0.60989543096E+01  0.77791099415E+01  0.14988462661E+02  0.17954548395E+02  0.00000000000E+00 0.  1.
</event>
<event>
 7    1  0.1402367E-008  0.4614232E+02  0.7816164E-02  0.1320468E+00
        -11   -1    0    0    0    0  0.00000000000E+00  0.00000000000E+00  0.45593999997E+02  0.45594000000E+02  0.51100000000E-03 0. -1.
         11   -1    0    0    0    0 -0.00000000000E+00 -0.00000000000E+00 -0.45593999997E+02  0.45594000000E+02  0.51100000000E-03 0.  1.
    9900012    2    1    2    0    0  0.18580041686E+02  0.39371757302E+02 -0.11565462385E+02  0.46142321603E+02  0.10000035029E+02 0.  0.
         12    1    1    2    0    0 -0.18580041686E+02 -0.39371757302E+02  0.11565462385E+02  0.45045678397E+02  0.00000000000E+00 0. -1.
         11    1    3    3    0    0 -0.25775311131E+00  0.57783303735E+00 -0.14788519027E+01  0.16085182301E+01  0.51100000000E-03 0. -1.
        -11    1    3    3    0    0  0.16407178532E+02  0.34146726474E+02 -0.10382761647E+02  0.39280990007E+02  0.51100000000E-03 0.  1.
         12    1    3    3    0    0  0.24306162655E+01  0.46471977910E+01  0.29615116499E+00  0.52528133654E+01  0.00000000000E+00 0. -1.
</event>
<event>
 7    1  0.1402367E-008  0.4614232E+02  0.7816164E-02  0.1320468E+00
        -11   -1    0    0    0    0  0.00000000000E+00  0.00000000000E+00  0.45593999997E+02  0.45594000000E+02  0.51100000000E-03 0.  1.
         11   -1    0    0    0    0 -0.00000000000E+00 -0.00000000000E+00 -0.45593999997E+02  0.45594000000E+02  0.51100000000E-03 0. -1.
    9900012    2    1    2    0    0  0.22509354410E+02 -0.25809129642E+02  0.29263137769E+02  0.46142318288E+02  0.10000004803E+02 0.  0.
         12    1    1    2    0    0 -0.22509354410E+02  0.25809129642E+02 -0.29263137769E+02  0.45045681712E+02  0.00000000000E+00 0. -1.
         11    1    3    3    0    0 -0.45395513230E+00 -0.59050006060E+00 -0.27637114772E+00  0.79444751628E+00  0.51100000000E-03 0. -1.
        -11    1    3    3    0    0  0.92352614851E+01 -0.71113088558E+01  0.91546723455E+01  0.14821227829E+02  0.51100000000E-03 0.  1.
        -12    1    3    3    0    0  0.13728048057E+02 -0.18107320726E+02  0.20384836571E+02  0.30526642943E+02  0.00000000000E+00 0.  1.
</event>
<event>
 7    1  0.1402367E-008  0.4614232E+02  0.7816164E-02  0.1320468E+00
        -11   -1    0    0    0    0  0.00000000000E+00  0.00000000000E+00  0.45593999997E+02  0.45594000000E+02  0.51100000000E-03 0.  1.
         11   -1    0    0    0    0 -0.00000000000E+00 -0.00000000000E+00 -0.45593999997E+02  0.45594000000E+02  0.51100000000E-03 0. -1.
    9900012    2    1    2    0    0  0.20575919899E+02  0.32767674168E+02  0.23065652540E+02  0.46142320106E+02  0.10000021380E+02 0.  0.
         12    1    1    2    0    0 -0.20575919899E+02 -0.32767674168E+02 -0.23065652540E+02  0.45045679894E+02  0.00000000000E+00 0. -1.
         11    1    3    3    0    0  0.28125646039E+01  0.55104360600E+01  0.12328625148E+00  0.61879419020E+01  0.51100000000E-03 0. -1.
        -11    1    3    3    0    0  0.61088690236E+01  0.11767698484E+02  0.80659542131E+01  0.15519556243E+02  0.51100000000E-03 0.  1.
         12    1    3    3    0    0  0.11654486271E+02  0.15489539623E+02  0.14876412076E+02  0.24434821960E+02  0.00000000000E+00 0. -1.
</event>
<event>
 7    1  0.1402367E-008  0.4614232E+02  0.7816164E-02  0.1320468E+00
        -11   -1    0    0    0    0  0.00000000000E+00  0.00000000000E+00  0.45593999997E+02  0.45594000000E+02  0.51100000000E-03 0.  1.
         11   -1    0    0    0    0 -0.00000000000E+00 -0.00000000000E+00 -0.45593999997E+02  0.45594000000E+02  0.51100000000E-03 0. -1.
    9900012    2    1    2    0    0  0.42640481182E+02  0.10955213816E+02  0.95334218566E+01  0.46142317882E+02  0.10000001101E+02 0.  0.
         12    1    1    2    0    0 -0.42640481182E+02 -0.10955213816E+02 -0.95334218566E+01  0.45045682118E+02  0.00000000000E+00 0. -1.
         11    1    3    3    0    0  0.94171445343E+01  0.20157920506E+01  0.42946969838E+01  0.10544688294E+02  0.51100000000E-03 0. -1.
        -11    1    3    3    0    0  0.29623645897E+02  0.72441902233E+01  0.21715131481E+01  0.30573749489E+02  0.51100000000E-03 0.  1.
        -12    1    3    3    0    0  0.35996907513E+01  0.16952315419E+01  0.30672117247E+01  0.50238800991E+01  0.00000000000E+00 0.  1.
</event>
<event>
 7    1  0.1402367E-008  0.4614232E+02  0.7816164E-02  0.1320468E+00
        -11   -1    0    0    0    0  0.00000000000E+00  0.00000000000E+00  0.45593999997E+02  0.45594000000E+02  0.51100000000E-03 0.  1.
         11   -1    0    0    0    0 -0.00000000000E+00 -0.00000000000E+00 -0.45593999997E+02  0.45594000000E+02  0.51100000000E-03 0. -1.
    9900012    2    1    2    0    0  0.27471796829E+01  0.26899725180E+02  0.36027368228E+02  0.46142317938E+02  0.10000001617E+02 0.  0.
         12    1    1    2    0    0 -0.27471796829E+01 -0.26899725180E+02 -0.36027368228E+02  0.45045682062E+02  0.00000000000E+00 0. -1.
         11    1    3    3    0    0  0.30182057622E+01  0.16534013550E+01  0.31908472372E+01  0.46930596007E+01  0.51100000000E-03 0. -1.
        -11    1    3    3    0    0 -0.73821341789E-01  0.20460382545E+01  0.33963540411E+01  0.39657210143E+01  0.51100000000E-03 0.  1.
         12    1    3    3    0    0 -0.19720473743E+00  0.23200285570E+02  0.29440166950E+02  0.37483537323E+02  0.00000000000E+00 0. -1.
</event>
<event>
 7    1  0.1402367E-008  0.4614232E+02  0.7816164E-02  0.1320468E+00
        -11   -1    0    0    0    0  0.00000000000E+00  0.00000000000E+00  0.45593999997E+02  0.45594000000E+02  0.51100000000E-03 0.  1.
         11   -1    0    0    0    0 -0.00000000000E+00 -0.00000000000E+00 -0.45593999997E+02  0.45594000000E+02  0.51100000000E-03 0. -1.
    9900012    2    1    2    0    0  0.24353844916E+02  0.10457860081E+02  0.36423026866E+02  0.46142317790E+02  0.10000000261E+02 0.  0.
         12    1    1    2    0    0 -0.24353844916E+02 -0.10457860081E+02 -0.36423026866E+02  0.45045682210E+02  0.00000000000E+00 0. -1.
         11    1    3    3    0    0  0.21940204524E+01  0.30329078661E+01  0.74204143916E+01  0.83111254277E+01  0.51100000000E-03 0. -1.
        -11    1    3    3    0    0  0.15610941840E+02  0.19065053063E+01  0.18752099308E+02  0.24474016759E+02  0.51100000000E-03 0.  1.
         12    1    3    3    0    0  0.65488826243E+01  0.55184469088E+01  0.10250513166E+02  0.13357175603E+02  0.00000000000E+00 0. -1.
</event>
<event>
 7    1  0.1402367E-008  0.4614232E+02  0.7816164E-02  0.1320468E+00
        -11   -1    0    0    0    0  0.00000000000E+00  0.00000000000E+00  0.45593999997E+02  0.45594000000E+02  0.51100000000E-03 0.  1.
         11   -1    0    0    0    0 -0.00000000000E+00 -0.00000000000E+00 -0.45593999997E+02  0.45594000000E+02  0.51100000000E-03 0. -1.
    9900012    2    1    2    0    0 -0.40575094932E+02 -0.56338656903E+01  0.18735920405E+02  0.46142317801E+02  0.10000000363E+02 0.  0.
         12    1    1    2    0    0  0.40575094932E+02  0.56338656903E+01 -0.18735920405E+02  0.45045682199E+02  0.00000000000E+00 0. -1.
         11    1    3    3    0    0 -0.19944569112E+02  0.62581693445E+00  0.11127524605E+02  0.22847303736E+02  0.51100000000E-03 0. -1.
        -11    1    3    3    0    0 -0.85953576905E+01 -0.31022219125E+01  0.96170972200E+00  0.91885167722E+01  0.51100000000E-03 0.  1.
        -12    1    3    3    0    0 -0.12035168129E+02 -0.31574607122E+01  0.66466860779E+01  0.14106497293E+02  0.00000000000E+00 0.  1.
</event>
<event>
 7    1  0.1402367E-008  0.4614232E+02  0.7816164E-02  0.1320468E+00
        -11   -1    0    0    0    0  0.00000000000E+00  0.00000000000E+00  0.45593999997E+02  0.45594000000E+02  0.51100000000E-03 0.  1.
         11   -1    0    0    0    0 -0.00000000000E+00 -0.00000000000E+00 -0.45593999997E+02  0.45594000000E+02  0.51100000000E-03 0. -1.
    9900012    2    1    2    0    0 -0.26446983227E+02  0.34568875935E+02  0.11604464088E+02  0.46142315500E+02  0.99999793848E+01 0.  0.
         12    1    1    2    0    0  0.26446983227E+02 -0.34568875935E+02 -0.11604464088E+02  0.45045684500E+02  0.00000000000E+00 0. -1.
         11    1    3    3    0    0 -0.70178405200E+01  0.15128388735E+02  0.65642693583E+01  0.17922272840E+02  0.51100000000E-03 0. -1.
        -11    1    3    3    0    0 -0.12810599898E+02  0.12921109952E+02  0.14239804637E+01  0.18250870466E+02  0.51100000000E-03 0.  1.
         12    1    3    3    0    0 -0.66185428090E+01  0.65193772484E+01  0.36162142664E+01  0.99691721944E+01  0.00000000000E+00 0. -1.
</event>
<event>
 7    1  0.1402367E-008  0.4614232E+02  0.7816164E-02  0.1320468E+00
        -11   -1    0    0    0    0  0.00000000000E+00  0.00000000000E+00  0.45593999997E+02  0.45594000000E+02  0.51100000000E-03 0.  1.
         11   -1    0    0    0    0 -0.00000000000E+00 -0.00000000000E+00 -0.45593999997E+02  0.45594000000E+02  0.51100000000E-03 0. -1.
    9900012    2    1    2    0    0 -0.34407828286E+02  0.77794329339E+01 -0.28012410158E+02  0.46142319331E+02  0.10000014315E+02 0.  0.
         12    1    1    2    0    0  0.34407828286E+02 -0.77794329339E+01  0.28012410158E+02  0.45045680669E+02  0.00000000000E+00 0. -1.
         11    1    3    3    0    0 -0.23970116482E+01  0.35540237914E+01 -0.31642374329E+01  0.53281468396E+01  0.51100000000E-03 0. -1.
        -11    1    3    3    0    0 -0.12998993468E+02  0.68937848855E+00 -0.92406951613E+01  0.15963693846E+02  0.51100000000E-03 0.  1.
         12    1    3    3    0    0 -0.19011823169E+02  0.35360306539E+01 -0.15607477563E+02  0.24850478645E+02  0.00000000000E+00 0. -1.
</event>
<event>
 7    1  0.1402367E-008  0.4614232E+02  0.7816164E-02  0.1320468E+00
        -11   -1    0    0    0    0  0.00000000000E+00  0.00000000000E+00  0.45593999997E+02  0.45594000000E+02  0.51100000000E-03 0.  1.
         11   -1    0    0    0    0 -0.00000000000E+00 -0.00000000000E+00 -0.45593999997E+02  0.45594000000E+02  0.51100000000E-03 0. -1.
    9900012    2    1    2    0    0 -0.17163128518E+02 -0.28292832896E+02  0.30562331783E+02  0.46142317656E+02  0.99999990449E+01 0.  0.
         12    1    1    2    0    0  0.17163128518E+02  0.28292832896E+02 -0.30562331783E+02  0.45045682344E+02  0.00000000000E+00 0. -1.
         11    1    3    3    0    0 -0.63556971240E+01 -0.11072152771E+02  0.15642278805E+02  0.20190798384E+02  0.51100000000E-03 0. -1.
        -11    1    3    3    0    0  0.36001810462E+00 -0.32360319405E+01  0.15142485820E+01  0.35908863509E+01  0.51100000000E-03 0.  1.
         12    1    3    3    0    0 -0.11167449498E+02 -0.13984648185E+02  0.13405804396E+02  0.22360632921E+02  0.00000000000E+00 0. -1.
</event>
<event>
 7    1  0.1402367E-008  0.4614232E+02  0.7816164E-02  0.1320468E+00
        -11   -1    0    0    0    0  0.00000000000E+00  0.00000000000E+00  0.45593999997E+02  0.45594000000E+02  0.51100000000E-03 0.  1.
         11   -1    0    0    0    0 -0.00000000000E+00 -0.00000000000E+00 -0.45593999997E+02  0.45594000000E+02  0.51100000000E-03 0. -1.
    9900012    2    1    2    0    0  0.40199661072E+02 -0.20323130035E+02  0.26643993882E+00  0.46142319242E+02  0.10000013500E+02 0.  0.
         12    1    1    2    0    0 -0.40199661072E+02  0.20323130035E+02 -0.26643993882E+00  0.45045680758E+02  0.00000000000E+00 0. -1.
         11    1    3    3    0    0  0.24868048572E+02 -0.13165612997E+02  0.35339633668E+01  0.28359162589E+02  0.51100000000E-03 0.  1.
        -11    1    3    3    0    0  0.52978022586E+01 -0.30814314182E+01 -0.32836588951E+01  0.69530097337E+01  0.51100000000E-03 0. -1.
        -12    1    3    3    0    0  0.10033810242E+02 -0.40760856197E+01  0.16135467161E-01  0.10830146919E+02  0.00000000000E+00 0.  1.
</event>
<event>
 7    1  0.1402367E-008  0.4614232E+02  0.7816164E-02  0.1320468E+00
        -11   -1    0    0    0    0  0.00000000000E+00  0.00000000000E+00  0.45593999997E+02  0.45594000000E+02  0.51100000000E-03 0.  1.
         11   -1    0    0    0    0 -0.00000000000E+00 -0.00000000000E+00 -0.45593999997E+02  0.45594000000E+02  0.51100000000E-03 0. -1.
    9900012    2    1    2    0    0  0.35372259656E+02 -0.23445313011E+02  0.15107416471E+02  0.46142317767E+02  0.10000000058E+02 0.  0.
         12    1    1    2    0    0 -0.35372259656E+02  0.23445313011E+02 -0.15107416471E+02  0.45045682233E+02  0.00000000000E+00 0. -1.
         11    1    3    3    0    0  0.23954435318E+02 -0.17257022067E+02  0.69762813525E+01  0.30336253622E+02  0.51100000000E-03 0.  1.
        -11    1    3    3    0    0  0.36441672154E+01 -0.22385154038E+01  0.66778992263E+00  0.43286082693E+01  0.51100000000E-03 0. -1.
         12    1    3    3    0    0  0.77736571225E+01 -0.39497755397E+01  0.74633451963E+01  0.11477455876E+02  0.00000000000E+00 0. -1.
</event>
<event>
 7    1  0.1402367E-008  0.4614232E+02  0.7816164E-02  0.1320468E+00
        -11   -1    0    0    0    0  0.00000000000E+00  0.00000000000E+00  0.45593999997E+02  0.45594000000E+02  0.51100000000E-03 0. -1.
         11   -1    0    0    0    0 -0.00000000000E+00 -0.00000000000E+00 -0.45593999997E+02  0.45594000000E+02  0.51100000000E-03 0.  1.
    9900012    2    1    2    0    0  0.35452422500E+02  0.10786665940E+02 -0.25610294187E+02  0.46142316616E+02  0.99999895580E+01 0.  0.
         12    1    1    2    0    0 -0.35452422500E+02 -0.10786665940E+02  0.25610294187E+02  0.45045683384E+02  0.00000000000E+00 0. -1.
         11    1    3    3    0    0  0.14130267109E+02  0.13264113758E+01 -0.69800716927E+01  0.15815979793E+02  0.51100000000E-03 0. -1.
        -11    1    3    3    0    0  0.20452306371E+02  0.91395731534E+01 -0.18954137947E+02  0.29344300620E+02  0.51100000000E-03 0.  1.
        -12    1    3    3    0    0  0.86984901934E+00  0.32068141036E+00  0.32391545243E+00  0.98203620285E+00  0.00000000000E+00 0.  1.
</event>
<event>
 7    1  0.1402367E-008  0.4614232E+02  0.7816164E-02  0.1320468E+00
        -11   -1    0    0    0    0  0.00000000000E+00  0.00000000000E+00  0.45593999997E+02  0.45594000000E+02  0.51100000000E-03 0.  1.
         11   -1    0    0    0    0 -0.00000000000E+00 -0.00000000000E+00 -0.45593999997E+02  0.45594000000E+02  0.51100000000E-03 0. -1.
    9900012    2    1    2    0    0 -0.12023709908E+01  0.36166121121E+02  0.26826843067E+02  0.46142317390E+02  0.99999966116E+01 0.  0.
         12    1    1    2    0    0  0.12023709908E+01 -0.36166121121E+02 -0.26826843067E+02  0.45045682610E+02  0.00000000000E+00 0. -1.
         11    1    3    3    0    0 -0.24424702054E+00  0.27260038666E+02  0.21388109581E+02  0.34649972531E+02  0.51100000000E-03 0.  1.
        -11    1    3    3    0    0 -0.12805996047E+00  0.15908198343E+01 -0.85148973546E+00  0.18089063351E+01  0.51100000000E-03 0. -1.
         12    1    3    3    0    0 -0.83006400980E+00  0.73152626206E+01  0.62902232216E+01  0.96834385239E+01  0.00000000000E+00 0. -1.
</event>
<event>
 7    1  0.1402367E-008  0.4614231E+02  0.7816164E-02  0.1320468E+00
        -11   -1    0    0    0    0  0.00000000000E+00  0.00000000000E+00  0.45593999997E+02  0.45594000000E+02  0.51100000000E-03 0.  1.
         11   -1    0    0    0    0 -0.00000000000E+00 -0.00000000000E+00 -0.45593999997E+02  0.45594000000E+02  0.51100000000E-03 0. -1.
    9900012    2    1    2    0    0  0.24456956238E+02 -0.19258942364E+02  0.32558627988E+02  0.46142314015E+02  0.99999658399E+01 0.  0.
         12    1    1    2    0    0 -0.24456956238E+02  0.19258942364E+02 -0.32558627988E+02  0.45045685985E+02  0.00000000000E+00 0. -1.
         11    1    3    3    0    0 -0.19042935815E-01  0.67750662164E+00  0.39959879972E+00  0.78680195579E+00  0.51100000000E-03 0. -1.
        -11    1    3    3    0    0  0.13264020474E+02 -0.13203833748E+02  0.21322558907E+02  0.28371235140E+02  0.51100000000E-03 0.  1.
         12    1    3    3    0    0  0.11211978700E+02 -0.67326152370E+01  0.10836470281E+02  0.16984276919E+02  0.00000000000E+00 0. -1.
</event>
<event>
 7    1  0.1402367E-008  0.4614232E+02  0.7816164E-02  0.1320468E+00
        -11   -1    0    0    0    0  0.00000000000E+00  0.00000000000E+00  0.45593999997E+02  0.45594000000E+02  0.51100000000E-03 0.  1.
         11   -1    0    0    0    0 -0.00000000000E+00 -0.00000000000E+00 -0.45593999997E+02  0.45594000000E+02  0.51100000000E-03 0. -1.
    9900012    2    1    2    0    0 -0.14383971311E+02  0.32312641674E+02  0.27894587197E+02  0.46142318326E+02  0.10000005152E+02 0.  0.
         12    1    1    2    0    0  0.14383971311E+02 -0.32312641674E+02 -0.27894587197E+02  0.45045681674E+02  0.00000000000E+00 0. -1.
         11    1    3    3    0    0 -0.82368089081E+01  0.16473796219E+02  0.14473347015E+02  0.23424533228E+02  0.51100000000E-03 0. -1.
        -11    1    3    3    0    0 -0.42602788070E+01  0.82604964367E+01  0.31478879493E+01  0.98130003412E+01  0.51100000000E-03 0.  1.
         12    1    3    3    0    0 -0.18868835958E+01  0.75783490176E+01  0.10273352232E+02  0.12904784757E+02  0.00000000000E+00 0. -1.
</event>
<event>
 7    1  0.1402367E-008  0.4614232E+02  0.7816164E-02  0.1320468E+00
        -11   -1    0    0    0    0  0.00000000000E+00  0.00000000000E+00  0.45593999997E+02  0.45594000000E+02  0.51100000000E-03 0.  1.
         11   -1    0    0    0    0 -0.00000000000E+00 -0.00000000000E+00 -0.45593999997E+02  0.45594000000E+02  0.51100000000E-03 0. -1.
    9900012    2    1    2    0    0 -0.32279967632E+02 -0.26132033276E+02  0.17442305192E+02  0.46142317811E+02  0.10000000454E+02 0.  0.
         12    1    1    2    0    0  0.32279967632E+02  0.26132033276E+02 -0.17442305192E+02  0.45045682189E+02  0.00000000000E+00 0. -1.
         11    1    3    3    0    0 -0.21159623292E+02 -0.20295066251E+02  0.15011528884E+02  0.32938812542E+02  0.51100000000E-03 0. -1.
        -11    1    3    3    0    0 -0.11797108670E+01  0.25636369118E+00 -0.26589213479E+00  0.12361791781E+01  0.51100000000E-03 0.  1.
        -12    1    3    3    0    0 -0.99406334735E+01 -0.60933307164E+01  0.26966684419E+01  0.11967326091E+02  0.00000000000E+00 0.  1.
</event>
<event>
 7    1  0.1402367E-008  0.4614232E+02  0.7816164E-02  0.1320468E+00
        -11   -1    0    0    0    0  0.00000000000E+00  0.00000000000E+00  0.45593999997E+02  0.45594000000E+02  0.51100000000E-03 0.  1.
         11   -1    0    0    0    0 -0.00000000000E+00 -0.00000000000E+00 -0.45593999997E+02  0.45594000000E+02  0.51100000000E-03 0. -1.
    9900012    2    1    2    0    0 -0.33962016605E+02  0.23161615292E+02  0.18418320759E+02  0.46142317250E+02  0.99999953398E+01 0.  0.
         12    1    1    2    0    0  0.33962016605E+02 -0.23161615292E+02 -0.18418320759E+02  0.45045682750E+02  0.00000000000E+00 0. -1.
         11    1    3    3    0    0 -0.21910189989E+02  0.10466913359E+02  0.11887429789E+02  0.27035600379E+02  0.51100000000E-03 0.  1.
        -11    1    3    3    0    0 -0.49955616036E+00  0.22552277866E+01  0.14544808554E+01  0.27296746228E+01  0.51100000000E-03 0. -1.
        -12    1    3    3    0    0 -0.11552270456E+02  0.10439474147E+02  0.50764101146E+01  0.16377042248E+02  0.00000000000E+00 0.  1.
</event>
<event>
 7    1  0.1402367E-008  0.4614232E+02  0.7816164E-02  0.1320468E+00
        -11   -1    0    0    0    0  0.00000000000E+00  0.00000000000E+00  0.45593999997E+02  0.45594000000E+02  0.51100000000E-03 0.  1.
         11   -1    0    0    0    0 -0.00000000000E+00 -0.00000000000E+00 -0.45593999997E+02  0.45594000000E+02  0.51100000000E-03 0. -1.
    9900012    2    1    2    0    0 -0.12624940303E+02 -0.45681492132E+01  0.42998331477E+02  0.46142316359E+02  0.99999872114E+01 0.  0.
         12    1    1    2    0    0  0.12624940303E+02  0.45681492132E+01 -0.42998331477E+02  0.45045683641E+02  0.00000000000E+00 0. -1.
         11    1    3    3    0    0 -0.87295602372E+00 -0.33788044923E+01  0.87142076495E+01  0.93870009714E+01  0.51100000000E-03 0. -1.
        -11    1    3    3    0    0 -0.21012466830E+01  0.19402781016E+01  0.49573364590E+01  0.57232072969E+01  0.51100000000E-03 0.  1.
         12    1    3    3    0    0 -0.96507375964E+01 -0.31296228225E+01  0.29326787369E+02  0.31032108090E+02  0.00000000000E+00 0. -1.
</event>
<event>
 7    1  0.1402367E-008  0.4614232E+02  0.7816164E-02  0.1320468E+00
        -11   -1    0    0    0    0  0.00000000000E+00  0.00000000000E+00  0.45593999997E+02  0.45594000000E+02  0.51100000000E-03 0.  1.
         11   -1    0    0    0    0 -0.00000000000E+00 -0.00000000000E+00 -0.45593999997E+02  0.45594000000E+02  0.51100000000E-03 0. -1.
    9900012    2    1    2    0    0  0.66386670025E+01 -0.13487035067E+02  0.42463413084E+02  0.46142318018E+02  0.10000002340E+02 0.  0.
         12    1    1    2    0    0 -0.66386670025E+01  0.13487035067E+02 -0.42463413084E+02  0.45045681982E+02  0.00000000000E+00 0. -1.
         11    1    3    3    0    0  0.24737463760E+01 -0.11388809136E+02  0.26581656246E+02  0.29024280244E+02  0.51100000000E-03 0. -1.
        -11    1    3    3    0    0  0.33708519929E-02 -0.21185747476E+01  0.69221474798E+01  0.72390949930E+01  0.51100000000E-03 0.  1.
         12    1    3    3    0    0  0.41615497744E+01  0.20348816476E-01  0.89596093590E+01  0.98789427808E+01  0.00000000000E+00 0. -1.
</event>
<event>
 7    1  0.1402367E-008  0.4614232E+02  0.7816164E-02  0.1320468E+00
        -11   -1    0    0    0    0  0.00000000000E+00  0.00000000000E+00  0.45593999997E+02  0.45594000000E+02  0.51100000000E-03 0.  1.
         11   -1    0    0    0    0 -0.00000000000E+00 -0.00000000000E+00 -0.45593999997E+02  0.45594000000E+02  0.51100000000E-03 0. -1.
    9900012    2    1    2    0    0 -0.18766427696E+02  0.20165453378E+02  0.35641115245E+02  0.46142318583E+02  0.10000007498E+02 0.  0.
         12    1    1    2    0    0  0.18766427696E+02 -0.20165453378E+02 -0.35641115245E+02  0.45045681417E+02  0.00000000000E+00 0. -1.
         11    1    3    3    0    0 -0.29485347395E+01  0.49324976206E+01  0.12976751060E+02  0.14192232320E+02  0.51100000000E-03 0. -1.
        -11    1    3    3    0    0 -0.10762153451E+02  0.75283072197E+01  0.15220878300E+02  0.20104091449E+02  0.51100000000E-03 0.  1.
        -12    1    3    3    0    0 -0.50557395049E+01  0.77046485373E+01  0.74434858846E+01  0.11845994814E+02  0.00000000000E+00 0.  1.
</event>
<event>
 7    1  0.1402367E-008  0.4614232E+02  0.7816164E-02  0.1320468E+00
        -11   -1    0    0    0    0  0.00000000000E+00  0.00000000000E+00  0.45593999997E+02  0.45594000000E+02  0.51100000000E-03 0. -1.
         11   -1    0    0    0    0 -0.00000000000E+00 -0.00000000000E+00 -0.45593999997E+02  0.45594000000E+02  0.51100000000E-03 0.  1.
    9900012    2    1    2    0    0 -0.44937602635E+02 -0.31122323243E+01  0.19841644502E+00  0.46142317747E+02  0.99999998688E+01 0.  0.
         12    1    1    2    0    0  0.44937602635E+02  0.31122323243E+01 -0.19841644502E+00  0.45045682253E+02  0.00000000000E+00 0. -1.
         11    1    3    3    0    0 -0.60353983943E+01  0.27442543197E+01  0.41991076689E+00  0.66432891599E+01  0.51100000000E-03 0. -1.
        -11    1    3    3    0    0 -0.27886942118E+02 -0.26231878027E+01 -0.52632117186E+00  0.28014990080E+02  0.51100000000E-03 0.  1.
         12    1    3    3    0    0 -0.11015262122E+02 -0.32332988414E+01  0.30482684999E+00  0.11484038506E+02  0.00000000000E+00 0. -1.
</event>
<event>
 7    1  0.1672882E-008  0.4614232E+02  0.7816164E-02  0.1320468E+00
        -11   -1    0    0    0    0  0.00000000000E+00  0.00000000000E+00  0.45593999997E+02  0.45594000000E+02  0.51100000000E-03 0. -1.
         11   -1    0    0    0    0 -0.00000000000E+00 -0.00000000000E+00 -0.45593999997E+02  0.45594000000E+02  0.51100000000E-03 0.  1.
    9900012    2    1    2    0    0 -0.11128305554E+02  0.80975874871E+01 -0.42891764456E+02  0.46142316902E+02  0.99999921667E+01 0.  0.
         12    1    1    2    0    0  0.11128305554E+02 -0.80975874871E+01  0.42891764456E+02  0.45045683098E+02  0.00000000000E+00 0. -1.
         11    1    3    3    0    0 -0.28430742043E+00  0.23463219439E+01 -0.44191054969E+01  0.50114420108E+01  0.51100000000E-03 0. -1.
        -11    1    3    3    0    0 -0.10792495308E+02  0.71625433119E+01 -0.36278317023E+02  0.38521374170E+02  0.51100000000E-03 0.  1.
        -12    1    3    3    0    0 -0.51502824924E-01 -0.14112777687E+01 -0.21943419365E+01  0.26095007215E+01  0.00000000000E+00 0.  1.
</event>
<event>
 7    1  0.1402367E-008  0.4614231E+02  0.7816164E-02  0.1320468E+00
        -11   -1    0    0    0    0  0.00000000000E+00  0.00000000000E+00  0.45593999997E+02  0.45594000000E+02  0.51100000000E-03 0. -1.
         11   -1    0    0    0    0 -0.00000000000E+00 -0.00000000000E+00 -0.45593999997E+02  0.45594000000E+02  0.51100000000E-03 0.  1.
    9900012    2    1    2    0    0 -0.13431702083E+02  0.31751409527E+02 -0.28992263105E+02  0.46142312662E+02  0.99999535061E+01 0.  0.
         12    1    1    2    0    0  0.13431702083E+02 -0.31751409527E+02  0.28992263105E+02  0.45045687338E+02  0.00000000000E+00 0. -1.
         11    1    3    3    0    0 -0.32614656728E+01  0.20036820064E+01 -0.55023962806E+01  0.67028549892E+01  0.51100000000E-03 0. -1.
        -11    1    3    3    0    0 -0.93186842548E+01  0.28533206694E+02 -0.23178228916E+02  0.37923766380E+02  0.51100000000E-03 0.  1.
        -12    1    3    3    0    0 -0.85155215512E+00  0.12145208267E+01 -0.31163790796E+00  0.15156912935E+01  0.00000000000E+00 0.  1.
</event>
<event>
 7    1  0.1402367E-008  0.4614232E+02  0.7816164E-02  0.1320468E+00
        -11   -1    0    0    0    0  0.00000000000E+00  0.00000000000E+00  0.45593999997E+02  0.45594000000E+02  0.51100000000E-03 0.  1.
         11   -1    0    0    0    0 -0.00000000000E+00 -0.00000000000E+00 -0.45593999997E+02  0.45594000000E+02  0.51100000000E-03 0. -1.
    9900012    2    1    2    0    0  0.11480883134E+02 -0.25055408981E+02  0.35630454908E+02  0.46142317480E+02  0.99999974368E+01 0.  0.
         12    1    1    2    0    0 -0.11480883134E+02  0.25055408981E+02 -0.35630454908E+02  0.45045682520E+02  0.00000000000E+00 0. -1.
         11    1    3    3    0    0  0.22223993011E+01 -0.77699805062E+01  0.45435680578E+01  0.92712278948E+01  0.51100000000E-03 0. -1.
        -11    1    3    3    0    0  0.27463009691E+01 -0.80615170491E+01  0.14163719872E+02  0.16526983603E+02  0.51100000000E-03 0.  1.
         12    1    3    3    0    0  0.65121828637E+01 -0.92239114261E+01  0.16923166978E+02  0.20344105982E+02  0.00000000000E+00 0. -1.
</event>
<event>
 7    1  0.1402367E-008  0.4614232E+02  0.7816164E-02  0.1320468E+00
        -11   -1    0    0    0    0  0.00000000000E+00  0.00000000000E+00  0.45593999997E+02  0.45594000000E+02  0.51100000000E-03 0.  1.
         11   -1    0    0    0    0 -0.00000000000E+00 -0.00000000000E+00 -0.45593999997E+02  0.45594000000E+02  0.51100000000E-03 0. -1.
    9900012    2    1    2    0    0  0.33159672048E+02  0.22489220281E+02  0.20586030889E+02  0.46142317111E+02  0.99999940755E+01 0.  0.
         12    1    1    2    0    0 -0.33159672048E+02 -0.22489220281E+02 -0.20586030889E+02  0.45045682889E+02  0.00000000000E+00 0. -1.
         11    1    3    3    0    0  0.38273076004E+01  0.64528219189E+01  0.45966621449E+01  0.87986645191E+01  0.51100000000E-03 0. -1.
        -11    1    3    3    0    0  0.23023494737E+02  0.10944056760E+02  0.10600116361E+02  0.27608262448E+02  0.51100000000E-03 0.  1.
        -12    1    3    3    0    0  0.63088697100E+01  0.50923416024E+01  0.53892523832E+01  0.97353901444E+01  0.00000000000E+00 0.  1.
</event>
<event>
 7    1  0.1402367E-008  0.4614232E+02  0.7816164E-02  0.1320468E+00
        -11   -1    0    0    0    0  0.00000000000E+00  0.00000000000E+00  0.45593999997E+02  0.45594000000E+02  0.51100000000E-03 0.  1.
         11   -1    0    0    0    0 -0.00000000000E+00 -0.00000000000E+00 -0.45593999997E+02  0.45594000000E+02  0.51100000000E-03 0. -1.
    9900012    2    1    2    0    0 -0.34597920839E+02  0.28814598565E+02  0.13476920724E+01  0.46142317734E+02  0.99999997571E+01 0.  0.
         12    1    1    2    0    0  0.34597920839E+02 -0.28814598565E+02 -0.13476920724E+01  0.45045682266E+02  0.00000000000E+00 0. -1.
         11    1    3    3    0    0 -0.13211396159E+02  0.10143051856E+02  0.43019774456E+01  0.17202601537E+02  0.51100000000E-03 0.  1.
        -11    1    3    3    0    0 -0.16581484091E+02  0.14468987677E+02 -0.42821623289E+01  0.22419503418E+02  0.51100000000E-03 0. -1.
         12    1    3    3    0    0 -0.48050405891E+01  0.42025590326E+01  0.13278769557E+01  0.65202127799E+01  0.00000000000E+00 0. -1.
</event>
<event>
 7    1  0.1402367E-008  0.4614232E+02  0.7816164E-02  0.1320468E+00
        -11   -1    0    0    0    0  0.00000000000E+00  0.00000000000E+00  0.45593999997E+02  0.45594000000E+02  0.51100000000E-03 0. -1.
         11   -1    0    0    0    0 -0.00000000000E+00 -0.00000000000E+00 -0.45593999997E+02  0.45594000000E+02  0.51100000000E-03 0.  1.
    9900012    2    1    2    0    0  0.35247758204E+02  0.16748922239E+02 -0.22498503036E+02  0.46142317705E+02  0.99999994884E+01 0.  0.
         12    1    1    2    0    0 -0.35247758204E+02 -0.16748922239E+02  0.22498503036E+02  0.45045682295E+02  0.00000000000E+00 0. -1.
         11    1    3    3    0    0  0.13215912346E+02  0.84751998717E+01 -0.59003177892E+01  0.16772092960E+02  0.51100000000E-03 0. -1.
        -11    1    3    3    0    0  0.20290123689E+02  0.72811650636E+01 -0.12787514298E+02  0.25064417132E+02  0.51100000000E-03 0.  1.
         12    1    3    3    0    0  0.17417221692E+01  0.99255730396E+00 -0.38106709489E+01  0.43058076127E+01  0.00000000000E+00 0. -1.
</event>
<event>
 7    1  0.1402367E-008  0.4614232E+02  0.7816164E-02  0.1320468E+00
        -11   -1    0    0    0    0  0.00000000000E+00  0.00000000000E+00  0.45593999997E+02  0.45594000000E+02  0.51100000000E-03 0.  1.
         11   -1    0    0    0    0 -0.00000000000E+00 -0.00000000000E+00 -0.45593999997E+02  0.45594000000E+02  0.51100000000E-03 0. -1.
    9900012    2    1    2    0    0 -0.17551639882E+02  0.26996242646E+02  0.31500099965E+02  0.46142317883E+02  0.10000001115E+02 0.  0.
         12    1    1    2    0    0  0.17551639882E+02 -0.26996242646E+02 -0.31500099965E+02  0.45045682117E+02  0.00000000000E+00 0. -1.
         11    1    3    3    0    0 -0.42560711965E+01  0.13039584779E+02  0.16476367245E+02  0.21438647138E+02  0.51100000000E-03 0. -1.
        -11    1    3    3    0    0 -0.52339204695E+01  0.36285365665E+01  0.35694055103E+01  0.73007435959E+01  0.51100000000E-03 0.  1.
         12    1    3    3    0    0 -0.80616482162E+01  0.10328121301E+02  0.11454327209E+02  0.17402927150E+02  0.00000000000E+00 0. -1.
</event>
<event>
 7    1  0.1402367E-008  0.4614232E+02  0.7816164E-02  0.1320468E+00
        -11   -1    0    0    0    0  0.00000000000E+00  0.00000000000E+00  0.45593999997E+02  0.45594000000E+02  0.51100000000E-03 0.  1.
         11   -1    0    0    0    0 -0.00000000000E+00 -0.00000000000E+00 -0.45593999997E+02  0.45594000000E+02  0.51100000000E-03 0. -1.
    9900012    2    1    2    0    0 -0.26417919961E+02 -0.27861471791E+02  0.23557279666E+02  0.46142317292E+02  0.99999957205E+01 0.  0.
         12    1    1    2    0    0  0.26417919961E+02  0.27861471791E+02 -0.23557279666E+02  0.45045682708E+02  0.00000000000E+00 0. -1.
         11    1    3    3    0    0 -0.14940142884E+01 -0.42085530469E+01  0.97984041940E+00  0.45720985282E+01  0.51100000000E-03 0. -1.
        -11    1    3    3    0    0 -0.11799935279E+02 -0.99543159973E+01  0.13636477666E+02  0.20598067942E+02  0.51100000000E-03 0.  1.
         12    1    3    3    0    0 -0.13123970393E+02 -0.13698602747E+02  0.89409615807E+01  0.20972150821E+02  0.00000000000E+00 0. -1.
</event>
<event>
 7    1  0.1402367E-008  0.4614232E+02  0.7816164E-02  0.1320468E+00
        -11   -1    0    0    0    0  0.00000000000E+00  0.00000000000E+00  0.45593999997E+02  0.45594000000E+02  0.51100000000E-03 0.  1.
         11   -1    0    0    0    0 -0.00000000000E+00 -0.00000000000E+00 -0.45593999997E+02  0.45594000000E+02  0.51100000000E-03 0. -1.
    9900012    2    1    2    0    0 -0.37808155189E+02 -0.42129909170E+01 -0.24122762304E+02  0.46142317050E+02  0.99999935175E+01 0.  0.
         12    1    1    2    0    0  0.37808155189E+02  0.42129909170E+01  0.24122762304E+02  0.45045682950E+02  0.00000000000E+00 0. -1.
         11    1    3    3    0    0 -0.10714472523E+02  0.17999294501E+01 -0.10315938481E+02  0.14981930933E+02  0.51100000000E-03 0. -1.
        -11    1    3    3    0    0 -0.91424327929E+01 -0.52666635665E+00 -0.48341145573E+01  0.10355197663E+02  0.51100000000E-03 0.  1.
         12    1    3    3    0    0 -0.17951249873E+02 -0.54862540104E+01 -0.89727092657E+01  0.20805188455E+02  0.00000000000E+00 0. -1.
</event>
<event>
 7    1  0.1402367E-008  0.4614232E+02  0.7816164E-02  0.1320468E+00
        -11   -1    0    0    0    0  0.00000000000E+00  0.00000000000E+00  0.45593999997E+02  0.45594000000E+02  0.51100000000E-03 0. -1.
         11   -1    0    0    0    0 -0.00000000000E+00 -0.00000000000E+00 -0.45593999997E+02  0.45594000000E+02  0.51100000000E-03 0.  1.
    9900012    2    1    2    0    0  0.39303095465E+02  0.21980831912E+02 -0.11059789600E+01  0.46142317919E+02  0.10000001441E+02 0.  0.
         12    1    1    2    0    0 -0.39303095465E+02 -0.21980831912E+02  0.11059789600E+01  0.45045682081E+02  0.00000000000E+00 0. -1.
         11    1    3    3    0    0  0.16041643539E+02  0.10651614967E+02 -0.41672604066E+01  0.19701707753E+02  0.51100000000E-03 0. -1.
        -11    1    3    3    0    0  0.30580471604E+01  0.25753367028E-01  0.90838552147E+00  0.31902163230E+01  0.51100000000E-03 0.  1.
        -12    1    3    3    0    0  0.20203404765E+02  0.11303463579E+02  0.21528959251E+01  0.23250393843E+02  0.00000000000E+00 0.  1.
</event>
<event>
 7    1  0.1402367E-008  0.4614232E+02  0.7816164E-02  0.1320468E+00
        -11   -1    0    0    0    0  0.00000000000E+00  0.00000000000E+00  0.45593999997E+02  0.45594000000E+02  0.51100000000E-03 0. -1.
         11   -1    0    0    0    0 -0.00000000000E+00 -0.00000000000E+00 -0.45593999997E+02  0.45594000000E+02  0.51100000000E-03 0.  1.
    9900012    2    1    2    0    0  0.23970973043E+02  0.21603191078E+02 -0.31429413707E+02  0.46142318083E+02  0.10000002937E+02 0.  0.
         12    1    1    2    0    0 -0.23970973043E+02 -0.21603191078E+02  0.31429413707E+02  0.45045681917E+02  0.00000000000E+00 0. -1.
         11    1    3    3    0    0  0.29549181286E+01  0.51206151562E+01 -0.31898981464E+01  0.67177147282E+01  0.51100000000E-03 0. -1.
        -11    1    3    3    0    0  0.19407832986E+02  0.16829566841E+02 -0.27465018654E+02  0.37606190331E+02  0.51100000000E-03 0.  1.
         12    1    3    3    0    0  0.16082219279E+01 -0.34699091925E+00 -0.77449690689E+00  0.18184130241E+01  0.00000000000E+00 0. -1.
</event>
<event>
 7    1  0.1402367E-008  0.4614232E+02  0.7816164E-02  0.1320468E+00
        -11   -1    0    0    0    0  0.00000000000E+00  0.00000000000E+00  0.45593999997E+02  0.45594000000E+02  0.51100000000E-03 0.  1.
         11   -1    0    0    0    0 -0.00000000000E+00 -0.00000000000E+00 -0.45593999997E+02  0.45594000000E+02  0.51100000000E-03 0. -1.
    9900012    2    1    2    0    0 -0.91945050324E+01 -0.32670964476E+02  0.29617269158E+02  0.46142317910E+02  0.10000001361E+02 0.  0.
         12    1    1    2    0    0  0.91945050324E+01  0.32670964476E+02 -0.29617269158E+02  0.45045682090E+02  0.00000000000E+00 0. -1.
         11    1    3    3    0    0 -0.76707564197E+01 -0.32526281088E+02  0.27891799181E+02  0.43528748285E+02  0.51100000000E-03 0.  1.
        -11    1    3    3    0    0 -0.16054556533E+01 -0.41175321815E+00  0.16121891510E+01  0.23121813699E+01  0.51100000000E-03 0. -1.
        -12    1    3    3    0    0  0.81707040625E-01  0.26706983056E+00  0.11328082580E+00  0.30138825520E+00  0.00000000000E+00 0.  1.
</event>
<event>
 7    1  0.1402367E-008  0.4614232E+02  0.7816164E-02  0.1320468E+00
        -11   -1    0    0    0    0  0.00000000000E+00  0.00000000000E+00  0.45593999997E+02  0.45594000000E+02  0.51100000000E-03 0.  1.
         11   -1    0    0    0    0 -0.00000000000E+00 -0.00000000000E+00 -0.45593999997E+02  0.45594000000E+02  0.51100000000E-03 0. -1.
    9900012    2    1    2    0    0  0.28342715257E+02 -0.25475969728E+02  0.24016221633E+02  0.46142318262E+02  0.10000004563E+02 0.  0.
         12    1    1    2    0    0 -0.28342715257E+02  0.25475969728E+02 -0.24016221633E+02  0.45045681738E+02  0.00000000000E+00 0. -1.
         11    1    3    3    0    0  0.49331564114E+01 -0.82905152608E+01  0.62332861376E+01  0.11485753428E+02  0.51100000000E-03 0.  1.
        -11    1    3    3    0    0  0.16623944875E+02 -0.90800683021E+01  0.13453156610E+02  0.23233394212E+02  0.51100000000E-03 0. -1.
         12    1    3    3    0    0  0.67856139705E+01 -0.81053861656E+01  0.43297788853E+01  0.11423170621E+02  0.00000000000E+00 0. -1.
</event>
<event>
 7    1  0.1402367E-008  0.4614232E+02  0.7816164E-02  0.1320468E+00
        -11   -1    0    0    0    0  0.00000000000E+00  0.00000000000E+00  0.45593999997E+02  0.45594000000E+02  0.51100000000E-03 0.  1.
         11   -1    0    0    0    0 -0.00000000000E+00 -0.00000000000E+00 -0.45593999997E+02  0.45594000000E+02  0.51100000000E-03 0. -1.
    9900012    2    1    2    0    0 -0.44633487494E+02 -0.60214578701E+00  0.60500241344E+01  0.46142316772E+02  0.99999909842E+01 0.  0.
         12    1    1    2    0    0  0.44633487494E+02  0.60214578701E+00 -0.60500241344E+01  0.45045683228E+02  0.00000000000E+00 0. -1.
         11    1    3    3    0    0 -0.39941502967E+01 -0.11761413287E+01 -0.93647834518E+00  0.42677320640E+01  0.51100000000E-03 0. -1.
        -11    1    3    3    0    0 -0.38664857300E+02  0.22034970946E+01  0.65499955000E+01  0.39277589422E+02  0.51100000000E-03 0.  1.
         12    1    3    3    0    0 -0.19744798968E+01 -0.16295015529E+01  0.43650697960E+00  0.25969952863E+01  0.00000000000E+00 0. -1.
</event>
<event>
 7    1  0.1402367E-008  0.4614232E+02  0.7816164E-02  0.1320468E+00
        -11   -1    0    0    0    0  0.00000000000E+00  0.00000000000E+00  0.45593999997E+02  0.45594000000E+02  0.51100000000E-03 0. -1.
         11   -1    0    0    0    0 -0.00000000000E+00 -0.00000000000E+00 -0.45593999997E+02  0.45594000000E+02  0.51100000000E-03 0.  1.
    9900012    2    1    2    0    0  0.26463204853E+02  0.11031129901E+02 -0.34743727832E+02  0.46142315838E+02  0.99999824634E+01 0.  0.
         12    1    1    2    0    0 -0.26463204853E+02 -0.11031129901E+02  0.34743727832E+02  0.45045684162E+02  0.00000000000E+00 0. -1.
         11    1    3    3    0    0  0.13943796819E+02  0.56915873888E+00 -0.16735407787E+02  0.21790532014E+02  0.51100000000E-03 0. -1.
        -11    1    3    3    0    0  0.11836476023E+02  0.96651575015E+01 -0.16268609951E+02  0.22320060577E+02  0.51100000000E-03 0.  1.
        -12    1    3    3    0    0  0.68293201125E+00  0.79681366036E+00 -0.17397100937E+01  0.20317232468E+01  0.00000000000E+00 0.  1.
</event>
<event>
 7    1  0.1402367E-008  0.4614232E+02  0.7816164E-02  0.1320468E+00
        -11   -1    0    0    0    0  0.00000000000E+00  0.00000000000E+00  0.45593999997E+02  0.45594000000E+02  0.51100000000E-03 0.  1.
         11   -1    0    0    0    0 -0.00000000000E+00 -0.00000000000E+00 -0.45593999997E+02  0.45594000000E+02  0.51100000000E-03 0. -1.
    9900012    2    1    2    0    0 -0.89343395750E+01 -0.17324447641E+02  0.40609783970E+02  0.46142318034E+02  0.10000002487E+02 0.  0.
         12    1    1    2    0    0  0.89343395750E+01  0.17324447641E+02 -0.40609783970E+02  0.45045681966E+02  0.00000000000E+00 0. -1.
         11    1    3    3    0    0 -0.31016190559E+01 -0.10934249973E+01  0.11362668424E+02  0.11829025867E+02  0.51100000000E-03 0. -1.
        -11    1    3    3    0    0 -0.38926861506E+01 -0.13928873757E+02  0.26718648420E+02  0.30381782424E+02  0.51100000000E-03 0.  1.
         12    1    3    3    0    0 -0.19400343684E+01 -0.23021488870E+01  0.25284671253E+01  0.39315097421E+01  0.00000000000E+00 0. -1.
</event>
<event>
 7    1  0.1402367E-008  0.4614232E+02  0.7816164E-02  0.1320468E+00
        -11   -1    0    0    0    0  0.00000000000E+00  0.00000000000E+00  0.45593999997E+02  0.45594000000E+02  0.51100000000E-03 0.  1.
         11   -1    0    0    0    0 -0.00000000000E+00 -0.00000000000E+00 -0.45593999997E+02  0.45594000000E+02  0.51100000000E-03 0. -1.
    9900012    2    1    2    0    0 -0.18047181652E+02 -0.29156244347E+01  0.41169308370E+02  0.46142316710E+02  0.99999904150E+01 0.  0.
         12    1    1    2    0    0  0.18047181652E+02  0.29156244347E+01 -0.41169308370E+02  0.45045683290E+02  0.00000000000E+00 0. -1.
         11    1    3    3    0    0 -0.20106628072E+00  0.12702373076E+01  0.88501393826E+01  0.89430921845E+01  0.51100000000E-03 0. -1.
        -11    1    3    3    0    0 -0.13527377991E+02 -0.34908897455E+01  0.23123353708E+02  0.27016027715E+02  0.51100000000E-03 0.  1.
         12    1    3    3    0    0 -0.43187373801E+01 -0.69497199680E+00  0.91958152794E+01  0.10183196811E+02  0.00000000000E+00 0. -1.
</event>
<event>
 7    1  0.1402367E-008  0.4614232E+02  0.7816164E-02  0.1320468E+00
        -11   -1    0    0    0    0  0.00000000000E+00  0.00000000000E+00  0.45593999997E+02  0.45594000000E+02  0.51100000000E-03 0. -1.
         11   -1    0    0    0    0 -0.00000000000E+00 -0.00000000000E+00 -0.45593999997E+02  0.45594000000E+02  0.51100000000E-03 0.  1.
    9900012    2    1    2    0    0  0.25370950664E+01  0.41909474681E+02 -0.16317858209E+02  0.46142318565E+02  0.10000007332E+02 0.  0.
         12    1    1    2    0    0 -0.25370950664E+01 -0.41909474681E+02  0.16317858209E+02  0.45045681435E+02  0.00000000000E+00 0. -1.
         11    1    3    3    0    0 -0.59526468851E+00  0.11293041875E+02 -0.78289013503E+01  0.13754229584E+02  0.51100000000E-03 0. -1.
        -11    1    3    3    0    0  0.20048170231E+01  0.23478234612E+02 -0.40563046496E+01  0.23910257202E+02  0.51100000000E-03 0.  1.
        -12    1    3    3    0    0  0.11275427317E+01  0.71381981938E+01 -0.44326522092E+01  0.84778317791E+01  0.00000000000E+00 0.  1.
</event>
<event>
 7    1  0.1402367E-008  0.4614232E+02  0.7816164E-02  0.1320468E+00
        -11   -1    0    0    0    0  0.00000000000E+00  0.00000000000E+00  0.45593999997E+02  0.45594000000E+02  0.51100000000E-03 0.  1.
         11   -1    0    0    0    0 -0.00000000000E+00 -0.00000000000E+00 -0.45593999997E+02  0.45594000000E+02  0.51100000000E-03 0. -1.
    9900012    2    1    2    0    0  0.15795036035E+02 -0.41954822476E+02 -0.44071799193E+01  0.46142317330E+02  0.99999960694E+01 0.  0.
         12    1    1    2    0    0 -0.15795036035E+02  0.41954822476E+02  0.44071799193E+01  0.45045682670E+02  0.00000000000E+00 0. -1.
         11    1    3    3    0    0  0.85768012013E+00 -0.41703874228E+00 -0.13858690170E+01  0.16823108198E+01  0.51100000000E-03 0. -1.
        -11    1    3    3    0    0  0.14106855962E+02 -0.34662000020E+02 -0.22278553141E+01  0.37488944638E+02  0.51100000000E-03 0.  1.
        -12    1    3    3    0    0  0.83049995232E+00 -0.68757837143E+01 -0.79345558823E+00  0.69710618723E+01  0.00000000000E+00 0.  1.
</event>
<event>
 7    1  0.1402367E-008  0.4614232E+02  0.7816164E-02  0.1320468E+00
        -11   -1    0    0    0    0  0.00000000000E+00  0.00000000000E+00  0.45593999997E+02  0.45594000000E+02  0.51100000000E-03 0.  1.
         11   -1    0    0    0    0 -0.00000000000E+00 -0.00000000000E+00 -0.45593999997E+02  0.45594000000E+02  0.51100000000E-03 0. -1.
    9900012    2    1    2    0    0  0.13512380053E+02 -0.39882265931E+02  0.15997934101E+02  0.46142318231E+02  0.10000004289E+02 0.  0.
         12    1    1    2    0    0 -0.13512380053E+02  0.39882265931E+02 -0.15997934101E+02  0.45045681769E+02  0.00000000000E+00 0. -1.
         11    1    3    3    0    0  0.65826926668E+01 -0.81720029056E+01  0.37577537775E+01  0.11146039115E+02  0.51100000000E-03 0. -1.
        -11    1    3    3    0    0  0.28997208246E+01 -0.95608082889E+01  0.59191002464E+01  0.11612630365E+02  0.51100000000E-03 0.  1.
         12    1    3    3    0    0  0.40299665613E+01 -0.22149454737E+02  0.63210800770E+01  0.23383648752E+02  0.00000000000E+00 0. -1.
</event>
<event>
 7    1  0.1402367E-008  0.4614232E+02  0.7816164E-02  0.1320468E+00
        -11   -1    0    0    0    0  0.00000000000E+00  0.00000000000E+00  0.45593999997E+02  0.45594000000E+02  0.51100000000E-03 0.  1.
         11   -1    0    0    0    0 -0.00000000000E+00 -0.00000000000E+00 -0.45593999997E+02  0.45594000000E+02  0.51100000000E-03 0. -1.
    9900012    2    1    2    0    0 -0.96924983631E+01 -0.11950111194E+02  0.42336318653E+02  0.46142316975E+02  0.99999928337E+01 0.  0.
         12    1    1    2    0    0  0.96924983631E+01  0.11950111194E+02 -0.42336318653E+02  0.45045683025E+02  0.00000000000E+00 0. -1.
         11    1    3    3    0    0 -0.85098634676E+01 -0.92325227827E+01  0.21002995541E+02  0.24470044445E+02  0.51100000000E-03 0. -1.
        -11    1    3    3    0    0 -0.19077846296E+01 -0.19584320702E+01  0.14034300381E+02  0.14298135746E+02  0.51100000000E-03 0.  1.
         12    1    3    3    0    0  0.72514973399E+00 -0.75915634104E+00  0.72990227306E+01  0.73741367840E+01  0.00000000000E+00 0. -1.
</event>
<event>
 7    1  0.1402367E-008  0.4614232E+02  0.7816164E-02  0.1320468E+00
        -11   -1    0    0    0    0  0.00000000000E+00  0.00000000000E+00  0.45593999997E+02  0.45594000000E+02  0.51100000000E-03 0. -1.
         11   -1    0    0    0    0 -0.00000000000E+00 -0.00000000000E+00 -0.45593999997E+02  0.45594000000E+02  0.51100000000E-03 0.  1.
    9900012    2    1    2    0    0 -0.33258542689E+02 -0.67586600011E+01 -0.29619306640E+02  0.46142317935E+02  0.10000001588E+02 0.  0.
         12    1    1    2    0    0  0.33258542689E+02  0.67586600011E+01  0.29619306640E+02  0.45045682065E+02  0.00000000000E+00 0. -1.
         11    1    3    3    0    0 -0.10806447717E+02 -0.27129656981E+01 -0.15806606560E+02  0.19338777271E+02  0.51100000000E-03 0. -1.
        -11    1    3    3    0    0 -0.20944156351E+02 -0.34696635261E+01 -0.13502574463E+02  0.25159804603E+02  0.51100000000E-03 0.  1.
         12    1    3    3    0    0 -0.15079386211E+01 -0.57603077685E+00 -0.31012561689E+00  0.16437360613E+01  0.00000000000E+00 0. -1.
</event>
<event>
 7    1  0.1402367E-008  0.4614232E+02  0.7816164E-02  0.1320468E+00
        -11   -1    0    0    0    0  0.00000000000E+00  0.00000000000E+00  0.45593999997E+02  0.45594000000E+02  0.51100000000E-03 0. -1.
         11   -1    0    0    0    0 -0.00000000000E+00 -0.00000000000E+00 -0.45593999997E+02  0.45594000000E+02  0.51100000000E-03 0.  1.
    9900012    2    1    2    0    0  0.73454536806E+00 -0.22367379954E+02 -0.39093147344E+02  0.46142318607E+02  0.10000007718E+02 0.  0.
         12    1    1    2    0    0 -0.73454536806E+00  0.22367379954E+02  0.39093147344E+02  0.45045681393E+02  0.00000000000E+00 0. -1.
         11    1    3    3    0    0  0.56640963678E+00 -0.46836619981E+01 -0.15178987779E+02  0.15895256520E+02  0.51100000000E-03 0. -1.
        -11    1    3    3    0    0  0.18327423745E+01 -0.16093693108E+02 -0.21388956785E+02  0.26830083397E+02  0.51100000000E-03 0.  1.
         12    1    3    3    0    0 -0.16646066432E+01 -0.15900248473E+01 -0.25252027801E+01  0.34169786906E+01  0.00000000000E+00 0. -1.
</event>
<event>
 7    1  0.1402367E-008  0.4614231E+02  0.7816164E-02  0.1320468E+00
        -11   -1    0    0    0    0  0.00000000000E+00  0.00000000000E+00  0.45593999997E+02  0.45594000000E+02  0.51100000000E-03 0.  1.
         11   -1    0    0    0    0 -0.00000000000E+00 -0.00000000000E+00 -0.45593999997E+02  0.45594000000E+02  0.51100000000E-03 0. -1.
    9900012    2    1    2    0    0  0.12603411003E+02 -0.90401599265E+01  0.42291174274E+02  0.46142313393E+02  0.99999601662E+01 0.  0.
         12    1    1    2    0    0 -0.12603411003E+02  0.90401599265E+01 -0.42291174274E+02  0.45045686607E+02  0.00000000000E+00 0. -1.
         11    1    3    3    0    0  0.34677343903E+01 -0.32256556513E+01  0.23873574764E+02  0.24338808690E+02  0.51100000000E-03 0. -1.
        -11    1    3    3    0    0  0.35536323830E+01 -0.19071681759E+01  0.11075104199E+02  0.11786582492E+02  0.51100000000E-03 0.  1.
         12    1    3    3    0    0  0.55820442295E+01 -0.39073360992E+01  0.73424953114E+01  0.10016922210E+02  0.00000000000E+00 0. -1.
</event>
<event>
 7    1  0.1402367E-008  0.4614232E+02  0.7816164E-02  0.1320468E+00
        -11   -1    0    0    0    0  0.00000000000E+00  0.00000000000E+00  0.45593999997E+02  0.45594000000E+02  0.51100000000E-03 0. -1.
         11   -1    0    0    0    0 -0.00000000000E+00 -0.00000000000E+00 -0.45593999997E+02  0.45594000000E+02  0.51100000000E-03 0.  1.
    9900012    2    1    2    0    0 -0.14085987539E+02  0.36913073965E+02 -0.21636160759E+02  0.46142317333E+02  0.99999961001E+01 0.  0.
         12    1    1    2    0    0  0.14085987539E+02 -0.36913073965E+02  0.21636160759E+02  0.45045682667E+02  0.00000000000E+00 0. -1.
         11    1    3    3    0    0 -0.14468085306E+01  0.63541919584E+01 -0.34442826475E+01  0.73710307003E+01  0.51100000000E-03 0. -1.
        -11    1    3    3    0    0 -0.13242414507E+02  0.24555421944E+02 -0.16843189352E+02  0.32588699217E+02  0.51100000000E-03 0.  1.
        -12    1    3    3    0    0  0.60323549853E+00  0.60034600627E+01 -0.13486887593E+01  0.61825874163E+01  0.00000000000E+00 0.  1.
</event>
<event>
 7    1  0.1402367E-008  0.4614232E+02  0.7816164E-02  0.1320468E+00
        -11   -1    0    0    0    0  0.00000000000E+00  0.00000000000E+00  0.45593999997E+02  0.45594000000E+02  0.51100000000E-03 0.  1.
         11   -1    0    0    0    0 -0.00000000000E+00 -0.00000000000E+00 -0.45593999997E+02  0.45594000000E+02  0.51100000000E-03 0. -1.
    9900012    2    1    2    0    0 -0.79673779763E+01 -0.23902637480E+02  0.37340306065E+02  0.46142315996E+02  0.99999839078E+01 0.  0.
         12    1    1    2    0    0  0.79673779763E+01  0.23902637480E+02 -0.37340306065E+02  0.45045684004E+02  0.00000000000E+00 0. -1.
         11    1    3    3    0    0 -0.49667765587E+00 -0.13249939039E+02  0.14708511404E+02  0.19802724086E+02  0.51100000000E-03 0. -1.
        -11    1    3    3    0    0 -0.43981661542E+01 -0.84676375805E+01  0.14258519202E+02  0.17156634921E+02  0.51100000000E-03 0.  1.
         12    1    3    3    0    0 -0.30725341662E+01 -0.21850608611E+01  0.83732754588E+01  0.91829569899E+01  0.00000000000E+00 0. -1.
</event>
<event>
 7    1  0.1402367E-008  0.4614232E+02  0.7816164E-02  0.1320468E+00
        -11   -1    0    0    0    0  0.00000000000E+00  0.00000000000E+00  0.45593999997E+02  0.45594000000E+02  0.51100000000E-03 0.  1.
         11   -1    0    0    0    0 -0.00000000000E+00 -0.00000000000E+00 -0.45593999997E+02  0.45594000000E+02  0.51100000000E-03 0. -1.
    9900012    2    1    2    0    0 -0.14252788847E+01 -0.34683942257E+02  0.28707250330E+02  0.46142317722E+02  0.99999996429E+01 0.  0.
         12    1    1    2    0    0  0.14252788847E+01  0.34683942257E+02 -0.28707250330E+02  0.45045682278E+02  0.00000000000E+00 0. -1.
         11    1    3    3    0    0  0.84539744041E+00 -0.49441042368E+01  0.27723648787E+01  0.57310444789E+01  0.51100000000E-03 0. -1.
        -11    1    3    3    0    0 -0.54194535573E+01 -0.18920945894E+02  0.17490479132E+02  0.26330391773E+02  0.51100000000E-03 0.  1.
        -12    1    3    3    0    0  0.31487772321E+01 -0.10818892126E+02  0.84444063197E+01  0.14080881470E+02  0.00000000000E+00 0.  1.
</event>
<event>
 7    1  0.1402367E-008  0.4614232E+02  0.7816164E-02  0.1320468E+00
        -11   -1    0    0    0    0  0.00000000000E+00  0.00000000000E+00  0.45593999997E+02  0.45594000000E+02  0.51100000000E-03 0.  1.
         11   -1    0    0    0    0 -0.00000000000E+00 -0.00000000000E+00 -0.45593999997E+02  0.45594000000E+02  0.51100000000E-03 0. -1.
    9900012    2    1    2    0    0  0.16785787008E+02 -0.66172685682E+01  0.41274236364E+02  0.46142317896E+02  0.10000001232E+02 0.  0.
         12    1    1    2    0    0 -0.16785787008E+02  0.66172685682E+01 -0.41274236364E+02  0.45045682104E+02  0.00000000000E+00 0. -1.
         11    1    3    3    0    0  0.59212928960E+01 -0.40671471114E+01  0.67457554638E+01  0.98543702094E+01  0.51100000000E-03 0. -1.
        -11    1    3    3    0    0  0.93402855967E+01 -0.22399938101E+01  0.29939842325E+02  0.31442847613E+02  0.51100000000E-03 0.  1.
         12    1    3    3    0    0  0.15242085156E+01 -0.31012764673E+00  0.45886385751E+01  0.48451000743E+01  0.00000000000E+00 0. -1.
</event>
<event>
 7    1  0.1402367E-008  0.4614232E+02  0.7816164E-02  0.1320468E+00
        -11   -1    0    0    0    0  0.00000000000E+00  0.00000000000E+00  0.45593999997E+02  0.45594000000E+02  0.51100000000E-03 0.  1.
         11   -1    0    0    0    0 -0.00000000000E+00 -0.00000000000E+00 -0.45593999997E+02  0.45594000000E+02  0.51100000000E-03 0. -1.
    9900012    2    1    2    0    0  0.47218663374E+01 -0.12185288027E+02  0.43108424100E+02  0.46142317694E+02  0.99999993916E+01 0.  0.
         12    1    1    2    0    0 -0.47218663374E+01  0.12185288027E+02 -0.43108424100E+02  0.45045682306E+02  0.00000000000E+00 0. -1.
         11    1    3    3    0    0  0.32433971257E+01 -0.23886527123E+01  0.42042134545E+01  0.58224305687E+01  0.51100000000E-03 0. -1.
        -11    1    3    3    0    0 -0.27759744336E+00 -0.27374786063E+01  0.17459850779E+02  0.17675328539E+02  0.51100000000E-03 0.  1.
         12    1    3    3    0    0  0.17560666551E+01 -0.70591567088E+01  0.21444359866E+02  0.22644558587E+02  0.00000000000E+00 0. -1.
</event>
<event>
 7    1  0.1402367E-008  0.4614232E+02  0.7816164E-02  0.1320468E+00
        -11   -1    0    0    0    0  0.00000000000E+00  0.00000000000E+00  0.45593999997E+02  0.45594000000E+02  0.51100000000E-03 0.  1.
         11   -1    0    0    0    0 -0.00000000000E+00 -0.00000000000E+00 -0.45593999997E+02  0.45594000000E+02  0.51100000000E-03 0. -1.
    9900012    2    1    2    0    0  0.12195221296E+02 -0.37749152894E+02  0.21339903903E+02  0.46142318018E+02  0.10000002341E+02 0.  0.
         12    1    1    2    0    0 -0.12195221296E+02  0.37749152894E+02 -0.21339903903E+02  0.45045681982E+02  0.00000000000E+00 0. -1.
         11    1    3    3    0    0  0.44913287443E+01 -0.13787415091E+02  0.11173169109E+02  0.18305861274E+02  0.51100000000E-03 0. -1.
        -11    1    3    3    0    0  0.77371380940E+01 -0.18440573509E+02  0.98859131638E+01  0.22308055419E+02  0.51100000000E-03 0.  1.
         12    1    3    3    0    0 -0.33245542564E-01 -0.55211642929E+01  0.28082163005E+00  0.55284013244E+01  0.00000000000E+00 0. -1.
</event>
<event>
 7    1  0.1402367E-008  0.4614232E+02  0.7816164E-02  0.1320468E+00
        -11   -1    0    0    0    0  0.00000000000E+00  0.00000000000E+00  0.45593999997E+02  0.45594000000E+02  0.51100000000E-03 0.  1.
         11   -1    0    0    0    0 -0.00000000000E+00 -0.00000000000E+00 -0.45593999997E+02  0.45594000000E+02  0.51100000000E-03 0. -1.
    9900012    2    1    2    0    0 -0.41945462633E+01 -0.21449959432E+02  0.39388051251E+02  0.46142316974E+02  0.99999928187E+01 0.  0.
         12    1    1    2    0    0  0.41945462633E+01  0.21449959432E+02 -0.39388051251E+02  0.45045683026E+02  0.00000000000E+00 0. -1.
         11    1    3    3    0    0 -0.20988257886E+01 -0.59259293294E+01  0.88226674322E+01  0.10833336005E+02  0.51100000000E-03 0. -1.
        -11    1    3    3    0    0 -0.45122778478E+01 -0.12369130988E+02  0.19301387045E+02  0.23364494322E+02  0.51100000000E-03 0.  1.
        -12    1    3    3    0    0  0.24165573731E+01 -0.31548991144E+01  0.11263996773E+02  0.11944486647E+02  0.00000000000E+00 0.  1.
</event>
<event>
 7    1  0.1402367E-008  0.4614232E+02  0.7816164E-02  0.1320468E+00
        -11   -1    0    0    0    0  0.00000000000E+00  0.00000000000E+00  0.45593999997E+02  0.45594000000E+02  0.51100000000E-03 0.  1.
         11   -1    0    0    0    0 -0.00000000000E+00 -0.00000000000E+00 -0.45593999997E+02  0.45594000000E+02  0.51100000000E-03 0. -1.
    9900012    2    1    2    0    0 -0.21780453952E+02 -0.87013396112E+01  0.38457925259E+02  0.46142317626E+02  0.99999987663E+01 0.  0.
         12    1    1    2    0    0  0.21780453952E+02  0.87013396112E+01 -0.38457925259E+02  0.45045682374E+02  0.00000000000E+00 0. -1.
         11    1    3    3    0    0 -0.41948259926E+01 -0.53911575212E+00  0.98919603358E+01  0.10758163898E+02  0.51100000000E-03 0. -1.
        -11    1    3    3    0    0 -0.55498906175E+01  0.87562523278E+00  0.10136167701E+02  0.11589214871E+02  0.51100000000E-03 0.  1.
        -12    1    3    3    0    0 -0.12035737341E+02 -0.90378490919E+01  0.18429797222E+02  0.23794938857E+02  0.00000000000E+00 0.  1.
</event>
<event>
 7    1  0.1402367E-008  0.4614232E+02  0.7816164E-02  0.1320468E+00
        -11   -1    0    0    0    0  0.00000000000E+00  0.00000000000E+00  0.45593999997E+02  0.45594000000E+02  0.51100000000E-03 0.  1.
         11   -1    0    0    0    0 -0.00000000000E+00 -0.00000000000E+00 -0.45593999997E+02  0.45594000000E+02  0.51100000000E-03 0. -1.
    9900012    2    1    2    0    0 -0.30301029213E+01  0.35753638434E+02  0.27232504382E+02  0.46142317855E+02  0.10000000853E+02 0.  0.
         12    1    1    2    0    0  0.30301029213E+01 -0.35753638434E+02 -0.27232504382E+02  0.45045682145E+02  0.00000000000E+00 0. -1.
         11    1    3    3    0    0  0.84590438026E+00  0.58944371528E+01  0.87794242193E+01  0.10608403907E+02  0.51100000000E-03 0. -1.
        -11    1    3    3    0    0 -0.43092753324E+01  0.29220345382E+02  0.17596080509E+02  0.34380524831E+02  0.51100000000E-03 0.  1.
        -12    1    3    3    0    0  0.43326803086E+00  0.63885589979E+00  0.85699965446E+00  0.11533891169E+01  0.00000000000E+00 0.  1.
</event>
<event>
 7    1  0.1402367E-008  0.4614232E+02  0.7816164E-02  0.1320468E+00
        -11   -1    0    0    0    0  0.00000000000E+00  0.00000000000E+00  0.45593999997E+02  0.45594000000E+02  0.51100000000E-03 0.  1.
         11   -1    0    0    0    0 -0.00000000000E+00 -0.00000000000E+00 -0.45593999997E+02  0.45594000000E+02  0.51100000000E-03 0. -1.
    9900012    2    1    2    0    0 -0.34498850098E+02 -0.14044980640E+02  0.25331430434E+02  0.46142317554E+02  0.99999981072E+01 0.  0.
         12    1    1    2    0    0  0.34498850098E+02  0.14044980640E+02 -0.25331430434E+02  0.45045682446E+02  0.00000000000E+00 0. -1.
         11    1    3    3    0    0 -0.75281635225E+01 -0.55674550364E+01  0.66259460313E+01  0.11470525824E+02  0.51100000000E-03 0. -1.
        -11    1    3    3    0    0 -0.23608006067E+02 -0.77440174318E+01  0.18910972409E+02  0.31223911256E+02  0.51100000000E-03 0.  1.
         12    1    3    3    0    0 -0.33626805081E+01 -0.73350817182E+00 -0.20548800605E+00  0.34478804733E+01  0.00000000000E+00 0. -1.
</event>
<event>
 7    1  0.1402367E-008  0.4614232E+02  0.7816164E-02  0.1320468E+00
        -11   -1    0    0    0    0  0.00000000000E+00  0.00000000000E+00  0.45593999997E+02  0.45594000000E+02  0.51100000000E-03 0.  1.
         11   -1    0    0    0    0 -0.00000000000E+00 -0.00000000000E+00 -0.45593999997E+02  0.45594000000E+02  0.51100000000E-03 0. -1.
    9900012    2    1    2    0    0 -0.58088481666E+00  0.55453437826E-01  0.45041902745E+02  0.46142317575E+02  0.99999983062E+01 0.  0.
         12    1    1    2    0    0  0.58088481666E+00 -0.55453437826E-01 -0.45041902745E+02  0.45045682425E+02  0.00000000000E+00 0. -1.
         11    1    3    3    0    0 -0.24934181065E+01  0.28005884364E+01  0.27308440489E+02  0.27564675794E+02  0.51100000000E-03 0. -1.
        -11    1    3    3    0    0  0.23782300928E+01 -0.35825323434E+01  0.11631347987E+02  0.12400756938E+02  0.51100000000E-03 0.  1.
        -12    1    3    3    0    0 -0.46569680289E+00  0.83739734480E+00  0.61021142681E+01  0.61768848432E+01  0.00000000000E+00 0.  1.
</event>
<event>
 7    1  0.1402367E-008  0.4614232E+02  0.7816164E-02  0.1320468E+00
        -11   -1    0    0    0    0  0.00000000000E+00  0.00000000000E+00  0.45593999997E+02  0.45594000000E+02  0.51100000000E-03 0. -1.
         11   -1    0    0    0    0 -0.00000000000E+00 -0.00000000000E+00 -0.45593999997E+02  0.45594000000E+02  0.51100000000E-03 0.  1.
    9900012    2    1    2    0    0  0.35437659110E+02 -0.11393800129E+02  0.25366653758E+02  0.46142317772E+02  0.10000000097E+02 0.  0.
         12    1    1    2    0    0 -0.35437659110E+02  0.11393800129E+02 -0.25366653758E+02  0.45045682228E+02  0.00000000000E+00 0. -1.
         11    1    3    3    0    0  0.22186502008E+00 -0.15544946786E+01  0.23754091839E+01  0.28474983486E+01  0.51100000000E-03 0. -1.
        -11    1    3    3    0    0  0.27227032538E+02 -0.78847748045E+01  0.16344892401E+02  0.32720581939E+02  0.51100000000E-03 0.  1.
         12    1    3    3    0    0  0.79887615512E+01 -0.19545306457E+01  0.66463521728E+01  0.10574237484E+02  0.00000000000E+00 0. -1.
</event>
<event>
 7    1  0.1402367E-008  0.4614232E+02  0.7816164E-02  0.1320468E+00
        -11   -1    0    0    0    0  0.00000000000E+00  0.00000000000E+00  0.45593999997E+02  0.45594000000E+02  0.51100000000E-03 0.  1.
         11   -1    0    0    0    0 -0.00000000000E+00 -0.00000000000E+00 -0.45593999997E+02  0.45594000000E+02  0.51100000000E-03 0. -1.
    9900012    2    1    2    0    0 -0.14987459548E+01 -0.21053993385E+02  0.39794428524E+02  0.46142318537E+02  0.10000007073E+02 0.  0.
         12    1    1    2    0    0  0.14987459548E+01  0.21053993385E+02 -0.39794428524E+02  0.45045681463E+02  0.00000000000E+00 0. -1.
         11    1    3    3    0    0 -0.25600942127E+00 -0.71606069931E+01  0.80995199468E+01  0.10813975077E+02  0.51100000000E-03 0. -1.
        -11    1    3    3    0    0 -0.16622503190E+01 -0.93520065980E+01  0.13093517660E+02  0.16176010277E+02  0.51100000000E-03 0.  1.
        -12    1    3    3    0    0  0.41951378549E+00 -0.45413797943E+01  0.18601390918E+02  0.19152333183E+02  0.00000000000E+00 0.  1.
</event>
<event>
 7    1  0.1402367E-008  0.4614232E+02  0.7816164E-02  0.1320468E+00
        -11   -1    0    0    0    0  0.00000000000E+00  0.00000000000E+00  0.45593999997E+02  0.45594000000E+02  0.51100000000E-03 0. -1.
         11   -1    0    0    0    0 -0.00000000000E+00 -0.00000000000E+00 -0.45593999997E+02  0.45594000000E+02  0.51100000000E-03 0.  1.
    9900012    2    1    2    0    0  0.21020490156E+02  0.22115620376E+02  0.33138371624E+02  0.46142319353E+02  0.10000014519E+02 0.  0.
         12    1    1    2    0    0 -0.21020490156E+02 -0.22115620376E+02 -0.33138371624E+02  0.45045680647E+02  0.00000000000E+00 0. -1.
         11    1    3    3    0    0 -0.21091292404E+00  0.22384660220E+01  0.57648757383E+00  0.23211102035E+01  0.51100000000E-03 0. -1.
        -11    1    3    3    0    0  0.14240542014E+02  0.11785937112E+02  0.18465752695E+02  0.26128248570E+02  0.51100000000E-03 0.  1.
        -12    1    3    3    0    0  0.69908610654E+01  0.80912172423E+01  0.14096131356E+02  0.17692960580E+02  0.00000000000E+00 0.  1.
</event>
<event>
 7    1  0.1402367E-008  0.4614232E+02  0.7816164E-02  0.1320468E+00
        -11   -1    0    0    0    0  0.00000000000E+00  0.00000000000E+00  0.45593999997E+02  0.45594000000E+02  0.51100000000E-03 0. -1.
         11   -1    0    0    0    0 -0.00000000000E+00 -0.00000000000E+00 -0.45593999997E+02  0.45594000000E+02  0.51100000000E-03 0.  1.
    9900012    2    1    2    0    0  0.24721832161E+02 -0.33775502136E+02 -0.16648123255E+02  0.46142317212E+02  0.99999949970E+01 0.  0.
         12    1    1    2    0    0 -0.24721832161E+02  0.33775502136E+02  0.16648123255E+02  0.45045682788E+02  0.00000000000E+00 0. -1.
         11    1    3    3    0    0  0.10742059517E+01 -0.12848498604E+01 -0.20565804702E+01  0.26522219141E+01  0.51100000000E-03 0. -1.
        -11    1    3    3    0    0  0.70784501136E+01 -0.96692235707E+01 -0.83503586556E+01  0.14605712253E+02  0.51100000000E-03 0.  1.
        -12    1    3    3    0    0  0.16569176095E+02 -0.22821428704E+02 -0.62411841290E+01  0.28884383046E+02  0.00000000000E+00 0.  1.
</event>
<event>
 7    1  0.1402367E-008  0.4614232E+02  0.7816164E-02  0.1320468E+00
        -11   -1    0    0    0    0  0.00000000000E+00  0.00000000000E+00  0.45593999997E+02  0.45594000000E+02  0.51100000000E-03 0. -1.
         11   -1    0    0    0    0 -0.00000000000E+00 -0.00000000000E+00 -0.45593999997E+02  0.45594000000E+02  0.51100000000E-03 0.  1.
    9900012    2    1    2    0    0 -0.46619126884E+01 -0.38341617641E+02  0.23179742429E+02  0.46142317273E+02  0.99999955519E+01 0.  0.
         12    1    1    2    0    0  0.46619126884E+01  0.38341617641E+02 -0.23179742429E+02  0.45045682727E+02  0.00000000000E+00 0. -1.
         11    1    3    3    0    0 -0.30666423179E+01 -0.45835919059E+01  0.28954170602E+01  0.62287278058E+01  0.51100000000E-03 0. -1.
        -11    1    3    3    0    0  0.22899979368E+00 -0.17810720553E+02  0.72285386584E+01  0.19223058521E+02  0.51100000000E-03 0.  1.
         12    1    3    3    0    0 -0.18242701641E+01 -0.15947305182E+02  0.13055786710E+02  0.20690530946E+02  0.00000000000E+00 0. -1.
</event>
<event>
 7    1  0.1402367E-008  0.4614232E+02  0.7816164E-02  0.1320468E+00
        -11   -1    0    0    0    0  0.00000000000E+00  0.00000000000E+00  0.45593999997E+02  0.45594000000E+02  0.51100000000E-03 0. -1.
         11   -1    0    0    0    0 -0.00000000000E+00 -0.00000000000E+00 -0.45593999997E+02  0.45594000000E+02  0.51100000000E-03 0.  1.
    9900012    2    1    2    0    0 -0.27490286099E+02 -0.17740248233E+01 -0.35640575523E+02  0.46142316328E+02  0.99999869339E+01 0.  0.
         12    1    1    2    0    0  0.27490286099E+02  0.17740248233E+01  0.35640575523E+02  0.45045683672E+02  0.00000000000E+00 0. -1.
         11    1    3    3    0    0 -0.62574322893E+00  0.18765896847E+01 -0.35230183392E+01  0.40403962569E+01  0.51100000000E-03 0. -1.
        -11    1    3    3    0    0 -0.11793183052E+02 -0.28238031945E+01 -0.14518892037E+02  0.18916956871E+02  0.51100000000E-03 0.  1.
         12    1    3    3    0    0 -0.15071359818E+02 -0.82681131356E+00 -0.17598665146E+02  0.23184963201E+02  0.00000000000E+00 0. -1.
</event>
<event>
 7    1  0.1402367E-008  0.4614232E+02  0.7816164E-02  0.1320468E+00
        -11   -1    0    0    0    0  0.00000000000E+00  0.00000000000E+00  0.45593999997E+02  0.45594000000E+02  0.51100000000E-03 0.  1.
         11   -1    0    0    0    0 -0.00000000000E+00 -0.00000000000E+00 -0.45593999997E+02  0.45594000000E+02  0.51100000000E-03 0. -1.
    9900012    2    1    2    0    0 -0.15697694767E+00 -0.44972054189E+02  0.25695865595E+01  0.46142322351E+02  0.10000041853E+02 0.  0.
         12    1    1    2    0    0  0.15697694767E+00  0.44972054189E+02 -0.25695865595E+01  0.45045677649E+02  0.00000000000E+00 0. -1.
         11    1    3    3    0    0 -0.78561857917E+00 -0.89165255672E+01  0.30816537365E+01  0.94666897465E+01  0.51100000000E-03 0. -1.
        -11    1    3    3    0    0  0.10328054861E+00 -0.31101966348E+02 -0.27322512964E+01  0.31221918182E+02  0.51100000000E-03 0.  1.
        -12    1    3    3    0    0  0.52536108290E+00 -0.49535622744E+01  0.22201841194E+01  0.54537144221E+01  0.00000000000E+00 0.  1.
</event>
<event>
 7    1  0.1402367E-008  0.4614232E+02  0.7816164E-02  0.1320468E+00
        -11   -1    0    0    0    0  0.00000000000E+00  0.00000000000E+00  0.45593999997E+02  0.45594000000E+02  0.51100000000E-03 0.  1.
         11   -1    0    0    0    0 -0.00000000000E+00 -0.00000000000E+00 -0.45593999997E+02  0.45594000000E+02  0.51100000000E-03 0. -1.
    9900012    2    1    2    0    0  0.37499120869E+02  0.37061720228E+00  0.24955806297E+02  0.46142315512E+02  0.99999794892E+01 0.  0.
         12    1    1    2    0    0 -0.37499120869E+02 -0.37061720228E+00 -0.24955806297E+02  0.45045684488E+02  0.00000000000E+00 0. -1.
         11    1    3    3    0    0  0.10882053933E+02 -0.18635969751E+01  0.77258909890E+01  0.13475217376E+02  0.51100000000E-03 0. -1.
        -11    1    3    3    0    0  0.18688735354E+02  0.91467798420E+00  0.15829236443E+02  0.24508573838E+02  0.51100000000E-03 0.  1.
         12    1    3    3    0    0  0.79283315818E+01  0.13195361931E+01  0.14006788653E+01  0.81585242979E+01  0.00000000000E+00 0. -1.
</event>
<event>
 7    1  0.1402367E-008  0.4614232E+02  0.7816164E-02  0.1320468E+00
        -11   -1    0    0    0    0  0.00000000000E+00  0.00000000000E+00  0.45593999997E+02  0.45594000000E+02  0.51100000000E-03 0.  1.
         11   -1    0    0    0    0 -0.00000000000E+00 -0.00000000000E+00 -0.45593999997E+02  0.45594000000E+02  0.51100000000E-03 0. -1.
    9900012    2    1    2    0    0  0.22101537877E+02  0.22568493468E+02  0.32113838161E+02  0.46142317905E+02  0.10000001315E+02 0.  0.
         12    1    1    2    0    0 -0.22101537877E+02 -0.22568493468E+02 -0.32113838161E+02  0.45045682095E+02  0.00000000000E+00 0. -1.
         11    1    3    3    0    0  0.14162358068E+02  0.18514567753E+02  0.20875275489E+02  0.31291192565E+02  0.51100000000E-03 0. -1.
        -11    1    3    3    0    0  0.14528150161E+01  0.26934816950E+01  0.31107145951E+01  0.43637209656E+01  0.51100000000E-03 0.  1.
         12    1    3    3    0    0  0.64863647931E+01  0.13604440195E+01  0.81278480768E+01  0.10487404375E+02  0.00000000000E+00 0. -1.
</event>
<event>
 7    1  0.1402367E-008  0.4614232E+02  0.7816164E-02  0.1320468E+00
        -11   -1    0    0    0    0  0.00000000000E+00  0.00000000000E+00  0.45593999997E+02  0.45594000000E+02  0.51100000000E-03 0.  1.
         11   -1    0    0    0    0 -0.00000000000E+00 -0.00000000000E+00 -0.45593999997E+02  0.45594000000E+02  0.51100000000E-03 0. -1.
    9900012    2    1    2    0    0  0.15957595129E+01  0.19580590595E+02  0.40536002249E+02  0.46142318134E+02  0.10000003400E+02 0.  0.
         12    1    1    2    0    0 -0.15957595129E+01 -0.19580590595E+02 -0.40536002249E+02  0.45045681866E+02  0.00000000000E+00 0. -1.
         11    1    3    3    0    0  0.15888170890E+01  0.37476336617E+01  0.43040903109E+01  0.59240435067E+01  0.51100000000E-03 0. -1.
        -11    1    3    3    0    0  0.23881272804E+01  0.90784969310E+01  0.13956290155E+02  0.16819640115E+02  0.51100000000E-03 0.  1.
        -12    1    3    3    0    0 -0.23811848564E+01  0.67544600022E+01  0.22275621782E+02  0.23398634512E+02  0.00000000000E+00 0.  1.
</event>
<event>
 7    1  0.1402367E-008  0.4614232E+02  0.7816164E-02  0.1320468E+00
        -11   -1    0    0    0    0  0.00000000000E+00  0.00000000000E+00  0.45593999997E+02  0.45594000000E+02  0.51100000000E-03 0.  1.
         11   -1    0    0    0    0 -0.00000000000E+00 -0.00000000000E+00 -0.45593999997E+02  0.45594000000E+02  0.51100000000E-03 0. -1.
    9900012    2    1    2    0    0  0.35754127609E+02  0.23585184359E+02  0.13946146327E+02  0.46142316970E+02  0.99999927820E+01 0.  0.
         12    1    1    2    0    0 -0.35754127609E+02 -0.23585184359E+02 -0.13946146327E+02  0.45045683030E+02  0.00000000000E+00 0. -1.
         11    1    3    3    0    0  0.18834128946E+00  0.76111019292E-01 -0.36251036145E+00  0.41554705131E+00  0.51100000000E-03 0. -1.
        -11    1    3    3    0    0  0.12415203708E+02  0.40853705687E+01  0.60273159039E+01  0.14392917462E+02  0.51100000000E-03 0.  1.
        -12    1    3    3    0    0  0.23150582611E+02  0.19423702771E+02  0.82813407843E+01  0.31333852456E+02  0.00000000000E+00 0.  1.
</event>
<event>
 7    1  0.1402367E-008  0.4614232E+02  0.7816164E-02  0.1320468E+00
        -11   -1    0    0    0    0  0.00000000000E+00  0.00000000000E+00  0.45593999997E+02  0.45594000000E+02  0.51100000000E-03 0. -1.
         11   -1    0    0    0    0 -0.00000000000E+00 -0.00000000000E+00 -0.45593999997E+02  0.45594000000E+02  0.51100000000E-03 0.  1.
    9900012    2    1    2    0    0 -0.41594146980E+02 -0.80825308715E+01 -0.15287681796E+02  0.46142316711E+02  0.99999904233E+01 0.  0.
         12    1    1    2    0    0  0.41594146980E+02  0.80825308715E+01  0.15287681796E+02  0.45045683289E+02  0.00000000000E+00 0. -1.
         11    1    3    3    0    0 -0.12379464351E+02 -0.91439921702E+00 -0.64880765299E+01  0.14006512802E+02  0.51100000000E-03 0. -1.
        -11    1    3    3    0    0 -0.11144787518E+02 -0.58033928226E+01 -0.55010712817E+01  0.13716684825E+02  0.51100000000E-03 0.  1.
         12    1    3    3    0    0 -0.18069895110E+02 -0.13647388318E+01 -0.32985339848E+01  0.18419119084E+02  0.00000000000E+00 0. -1.
</event>
<event>
 7    1  0.1402367E-008  0.4614232E+02  0.7816164E-02  0.1320468E+00
        -11   -1    0    0    0    0  0.00000000000E+00  0.00000000000E+00  0.45593999997E+02  0.45594000000E+02  0.51100000000E-03 0. -1.
         11   -1    0    0    0    0 -0.00000000000E+00 -0.00000000000E+00 -0.45593999997E+02  0.45594000000E+02  0.51100000000E-03 0.  1.
    9900012    2    1    2    0    0 -0.28660412412E+02  0.34701465772E+02 -0.18714995717E+01  0.46142317887E+02  0.10000001150E+02 0.  0.
         12    1    1    2    0    0  0.28660412412E+02 -0.34701465772E+02  0.18714995717E+01  0.45045682113E+02  0.00000000000E+00 0. -1.
         11    1    3    3    0    0 -0.13430139780E+02  0.10625959929E+02 -0.31998122278E+01  0.17421781697E+02  0.51100000000E-03 0. -1.
        -11    1    3    3    0    0 -0.93177191136E+01  0.15427508885E+02 -0.75763955761E+00  0.18038900683E+02  0.51100000000E-03 0.  1.
         12    1    3    3    0    0 -0.59125535185E+01  0.86479969573E+01  0.20859522137E+01  0.10681635508E+02  0.00000000000E+00 0. -1.
</event>
<event>
 7    1  0.1402367E-008  0.4614232E+02  0.7816164E-02  0.1320468E+00
        -11   -1    0    0    0    0  0.00000000000E+00  0.00000000000E+00  0.45593999997E+02  0.45594000000E+02  0.51100000000E-03 0.  1.
         11   -1    0    0    0    0 -0.00000000000E+00 -0.00000000000E+00 -0.45593999997E+02  0.45594000000E+02  0.51100000000E-03 0. -1.
    9900012    2    1    2    0    0 -0.10934271885E+02  0.65339972758E+01  0.43207199194E+02  0.46142317806E+02  0.10000000413E+02 0.  0.
         12    1    1    2    0    0  0.10934271885E+02 -0.65339972758E+01 -0.43207199194E+02  0.45045682194E+02  0.00000000000E+00 0. -1.
         11    1    3    3    0    0 -0.45681922438E+01  0.18618998597E+01  0.49825262446E+01  0.70114634352E+01  0.51100000000E-03 0. -1.
        -11    1    3    3    0    0 -0.25660256294E+00  0.73050347368E+00  0.82816552286E+01  0.83177697604E+01  0.51100000000E-03 0.  1.
         12    1    3    3    0    0 -0.61094770781E+01  0.39415939424E+01  0.29943017721E+02  0.30813084611E+02  0.00000000000E+00 0. -1.
</event>
<event>
 7    1  0.1402367E-008  0.4614232E+02  0.7816164E-02  0.1320468E+00
        -11   -1    0    0    0    0  0.00000000000E+00  0.00000000000E+00  0.45593999997E+02  0.45594000000E+02  0.51100000000E-03 0.  1.
         11   -1    0    0    0    0 -0.00000000000E+00 -0.00000000000E+00 -0.45593999997E+02  0.45594000000E+02  0.51100000000E-03 0. -1.
    9900012    2    1    2    0    0  0.24844889636E+02 -0.21513305349E+02  0.30806210983E+02  0.46142317818E+02  0.10000000520E+02 0.  0.
         12    1    1    2    0    0 -0.24844889636E+02  0.21513305349E+02 -0.30806210983E+02  0.45045682182E+02  0.00000000000E+00 0. -1.
         11    1    3    3    0    0  0.10070709666E+02 -0.12090193531E+02  0.18943168734E+02  0.24625913480E+02  0.51100000000E-03 0. -1.
        -11    1    3    3    0    0  0.12042998782E+02 -0.88048500813E+01  0.86124437983E+01  0.17225951151E+02  0.51100000000E-03 0.  1.
         12    1    3    3    0    0  0.27311811881E+01 -0.61826173718E+00  0.32505984512E+01  0.42904531869E+01  0.00000000000E+00 0. -1.
</event>
<event>
 7    1  0.1402367E-008  0.4614232E+02  0.7816164E-02  0.1320468E+00
        -11   -1    0    0    0    0  0.00000000000E+00  0.00000000000E+00  0.45593999997E+02  0.45594000000E+02  0.51100000000E-03 0.  1.
         11   -1    0    0    0    0 -0.00000000000E+00 -0.00000000000E+00 -0.45593999997E+02  0.45594000000E+02  0.51100000000E-03 0. -1.
    9900012    2    1    2    0    0  0.27695064349E+02 -0.21584562780E+02  0.28217080537E+02  0.46142316814E+02  0.99999913612E+01 0.  0.
         12    1    1    2    0    0 -0.27695064349E+02  0.21584562780E+02 -0.28217080537E+02  0.45045683186E+02  0.00000000000E+00 0. -1.
         11    1    3    3    0    0  0.93905073443E+01 -0.30476182004E+01  0.89947485476E+01  0.13355714379E+02  0.51100000000E-03 0. -1.
        -11    1    3    3    0    0  0.16989487053E+02 -0.15705657244E+02  0.15150957649E+02  0.27656135987E+02  0.51100000000E-03 0.  1.
         12    1    3    3    0    0  0.13150699518E+01 -0.28312873360E+01  0.40713743397E+01  0.51304664478E+01  0.00000000000E+00 0. -1.
</event>
<event>
 7    1  0.1402367E-008  0.4614232E+02  0.7816164E-02  0.1320468E+00
        -11   -1    0    0    0    0  0.00000000000E+00  0.00000000000E+00  0.45593999997E+02  0.45594000000E+02  0.51100000000E-03 0.  1.
         11   -1    0    0    0    0 -0.00000000000E+00 -0.00000000000E+00 -0.45593999997E+02  0.45594000000E+02  0.51100000000E-03 0. -1.
    9900012    2    1    2    0    0 -0.35796212240E+02  0.23823205685E+02  0.13423840496E+02  0.46142318370E+02  0.10000005555E+02 0.  0.
         12    1    1    2    0    0  0.35796212240E+02 -0.23823205685E+02 -0.13423840496E+02  0.45045681630E+02  0.00000000000E+00 0. -1.
         11    1    3    3    0    0 -0.63478469194E+01  0.71885209143E+01  0.54360356950E+01  0.11023632695E+02  0.51100000000E-03 0. -1.
        -11    1    3    3    0    0 -0.27180269056E+02  0.16748570065E+02  0.75259479490E+01  0.32801242629E+02  0.51100000000E-03 0.  1.
         12    1    3    3    0    0 -0.22680962641E+01 -0.11388529456E+00  0.46185685147E+00  0.23174430467E+01  0.00000000000E+00 0. -1.
</event>
<event>
 7    1  0.1402367E-008  0.4614232E+02  0.7816164E-02  0.1320468E+00
        -11   -1    0    0    0    0  0.00000000000E+00  0.00000000000E+00  0.45593999997E+02  0.45594000000E+02  0.51100000000E-03 0.  1.
         11   -1    0    0    0    0 -0.00000000000E+00 -0.00000000000E+00 -0.45593999997E+02  0.45594000000E+02  0.51100000000E-03 0. -1.
    9900012    2    1    2    0    0 -0.26123910106E+02 -0.25375161024E+02  0.26509545091E+02  0.46142318108E+02  0.10000003159E+02 0.  0.
         12    1    1    2    0    0  0.26123910106E+02  0.25375161024E+02 -0.26509545091E+02  0.45045681892E+02  0.00000000000E+00 0. -1.
         11    1    3    3    0    0  0.12212402795E+00  0.10304325685E+00  0.31259294214E+00  0.35106523550E+00  0.51100000000E-03 0. -1.
        -11    1    3    3    0    0 -0.40816303093E+01 -0.91625892671E+01  0.73235621648E+01  0.12419634097E+02  0.51100000000E-03 0.  1.
        -12    1    3    3    0    0 -0.22164403825E+02 -0.16315615014E+02  0.18873389984E+02  0.33371618775E+02  0.00000000000E+00 0.  1.
</event>
<event>
 7    1  0.1402367E-008  0.4614232E+02  0.7816164E-02  0.1320468E+00
        -11   -1    0    0    0    0  0.00000000000E+00  0.00000000000E+00  0.45593999997E+02  0.45594000000E+02  0.51100000000E-03 0.  1.
         11   -1    0    0    0    0 -0.00000000000E+00 -0.00000000000E+00 -0.45593999997E+02  0.45594000000E+02  0.51100000000E-03 0. -1.
    9900012    2    1    2    0    0 -0.21943742775E+02  0.25866171115E+02  0.29639953361E+02  0.46142317739E+02  0.99999997939E+01 0.  0.
         12    1    1    2    0    0  0.21943742775E+02 -0.25866171115E+02 -0.29639953361E+02  0.45045682261E+02  0.00000000000E+00 0. -1.
         11    1    3    3    0    0 -0.83633505015E+01  0.60845595458E+01  0.14346476743E+02  0.17685838732E+02  0.51100000000E-03 0. -1.
        -11    1    3    3    0    0 -0.65451280567E+01  0.95853476722E+01  0.76181483943E+01  0.13883579383E+02  0.51100000000E-03 0.  1.
         12    1    3    3    0    0 -0.70352642167E+01  0.10196263897E+02  0.76753282243E+01  0.14572899623E+02  0.00000000000E+00 0. -1.
</event>
<event>
 7    1  0.1402367E-008  0.4614232E+02  0.7816164E-02  0.1320468E+00
        -11   -1    0    0    0    0  0.00000000000E+00  0.00000000000E+00  0.45593999997E+02  0.45594000000E+02  0.51100000000E-03 0. -1.
         11   -1    0    0    0    0 -0.00000000000E+00 -0.00000000000E+00 -0.45593999997E+02  0.45594000000E+02  0.51100000000E-03 0.  1.
    9900012    2    1    2    0    0  0.29167925135E+02  0.26572083507E+02 -0.21731776220E+02  0.46142316785E+02  0.99999911003E+01 0.  0.
         12    1    1    2    0    0 -0.29167925135E+02 -0.26572083507E+02  0.21731776220E+02  0.45045683215E+02  0.00000000000E+00 0. -1.
         11    1    3    3    0    0  0.23386699324E+02  0.20754988966E+02 -0.16559819139E+02  0.35382691848E+02  0.51100000000E-03 0. -1.
        -11    1    3    3    0    0 -0.72118073714E-01 -0.30433839753E+00  0.48320573964E+00  0.57559614723E+00  0.51100000000E-03 0.  1.
        -12    1    3    3    0    0  0.58533438849E+01  0.61214329389E+01 -0.56551628204E+01  0.10184028790E+02  0.00000000000E+00 0.  1.
</event>
<event>
 7    1  0.1402367E-008  0.4614232E+02  0.7816164E-02  0.1320468E+00
        -11   -1    0    0    0    0  0.00000000000E+00  0.00000000000E+00  0.45593999997E+02  0.45594000000E+02  0.51100000000E-03 0.  1.
         11   -1    0    0    0    0 -0.00000000000E+00 -0.00000000000E+00 -0.45593999997E+02  0.45594000000E+02  0.51100000000E-03 0. -1.
    9900012    2    1    2    0    0 -0.24543762664E+02 -0.37586560596E+01  0.37584435943E+02  0.46142316453E+02  0.99999880699E+01 0.  0.
         12    1    1    2    0    0  0.24543762664E+02  0.37586560596E+01 -0.37584435943E+02  0.45045683547E+02  0.00000000000E+00 0. -1.
         11    1    3    3    0    0 -0.60302379606E+01  0.13828682067E+01  0.12438951204E+02  0.13892573615E+02  0.51100000000E-03 0. -1.
        -11    1    3    3    0    0 -0.70530230294E+01  0.64502996346E+00  0.65094041385E+01  0.96194355347E+01  0.51100000000E-03 0.  1.
        -12    1    3    3    0    0 -0.11460501673E+02 -0.57865542297E+01  0.18636080601E+02  0.22630307303E+02  0.00000000000E+00 0.  1.
</event>
<event>
 7    1  0.1402367E-008  0.4614232E+02  0.7816164E-02  0.1320468E+00
        -11   -1    0    0    0    0  0.00000000000E+00  0.00000000000E+00  0.45593999997E+02  0.45594000000E+02  0.51100000000E-03 0.  1.
         11   -1    0    0    0    0 -0.00000000000E+00 -0.00000000000E+00 -0.45593999997E+02  0.45594000000E+02  0.51100000000E-03 0. -1.
    9900012    2    1    2    0    0 -0.16067006386E+02  0.30324733913E+02  0.29178335317E+02  0.46142318376E+02  0.10000005604E+02 0.  0.
         12    1    1    2    0    0  0.16067006386E+02 -0.30324733913E+02 -0.29178335317E+02  0.45045681624E+02  0.00000000000E+00 0. -1.
         11    1    3    3    0    0  0.54756057453E-01  0.70048793909E+01  0.32931245650E+01  0.77405428213E+01  0.51100000000E-03 0. -1.
        -11    1    3    3    0    0 -0.12176712135E+02  0.17237922004E+02  0.19750855970E+02  0.28905269160E+02  0.51100000000E-03 0.  1.
         12    1    3    3    0    0 -0.39450503088E+01  0.60819325182E+01  0.61343547826E+01  0.94965063941E+01  0.00000000000E+00 0. -1.
</event>
<event>
 7    1  0.1402367E-008  0.4614231E+02  0.7816164E-02  0.1320468E+00
        -11   -1    0    0    0    0  0.00000000000E+00  0.00000000000E+00  0.45593999997E+02  0.45594000000E+02  0.51100000000E-03 0. -1.
         11   -1    0    0    0    0 -0.00000000000E+00 -0.00000000000E+00 -0.45593999997E+02  0.45594000000E+02  0.51100000000E-03 0.  1.
    9900012    2    1    2    0    0 -0.33240644210E+02 -0.92199550007E+01  0.28968363918E+02  0.46142310907E+02  0.99999375016E+01 0.  0.
         12    1    1    2    0    0  0.33240644210E+02  0.92199550007E+01 -0.28968363918E+02  0.45045689093E+02  0.00000000000E+00 0. -1.
         11    1    3    3    0    0 -0.21509730046E+01  0.91140404099E+00  0.33580215259E+01  0.40906785528E+01  0.51100000000E-03 0. -1.
        -11    1    3    3    0    0 -0.15417282572E+02 -0.16152631833E+01  0.12539155757E+02  0.19938207152E+02  0.51100000000E-03 0.  1.
         12    1    3    3    0    0 -0.15672388634E+02 -0.85160958584E+01  0.13071186635E+02  0.22113425203E+02  0.00000000000E+00 0. -1.
</event>
<event>
 7    1  0.1402367E-008  0.4614232E+02  0.7816164E-02  0.1320468E+00
        -11   -1    0    0    0    0  0.00000000000E+00  0.00000000000E+00  0.45593999997E+02  0.45594000000E+02  0.51100000000E-03 0.  1.
         11   -1    0    0    0    0 -0.00000000000E+00 -0.00000000000E+00 -0.45593999997E+02  0.45594000000E+02  0.51100000000E-03 0. -1.
    9900012    2    1    2    0    0 -0.31618118096E+02 -0.25853294728E+02  0.19000401323E+02  0.46142317736E+02  0.99999997689E+01 0.  0.
         12    1    1    2    0    0  0.31618118096E+02  0.25853294728E+02 -0.19000401323E+02  0.45045682264E+02  0.00000000000E+00 0. -1.
         11    1    3    3    0    0 -0.12904093098E+01 -0.10487930515E+01 -0.92993689912E+00  0.19052312062E+01  0.51100000000E-03 0. -1.
        -11    1    3    3    0    0 -0.10673285503E+02 -0.11098227975E+02  0.60361201772E+01  0.16538574143E+02  0.51100000000E-03 0.  1.
        -12    1    3    3    0    0 -0.19654423283E+02 -0.13706273701E+02  0.13894218045E+02  0.27698512386E+02  0.00000000000E+00 0.  1.
</event>
<event>
 7    1  0.1402367E-008  0.4614232E+02  0.7816164E-02  0.1320468E+00
        -11   -1    0    0    0    0  0.00000000000E+00  0.00000000000E+00  0.45593999997E+02  0.45594000000E+02  0.51100000000E-03 0.  1.
         11   -1    0    0    0    0 -0.00000000000E+00 -0.00000000000E+00 -0.45593999997E+02  0.45594000000E+02  0.51100000000E-03 0. -1.
    9900012    2    1    2    0    0  0.12072321285E+02 -0.11845286469E+02  0.41749990741E+02  0.46142317859E+02  0.10000000892E+02 0.  0.
         12    1    1    2    0    0 -0.12072321285E+02  0.11845286469E+02 -0.41749990741E+02  0.45045682141E+02  0.00000000000E+00 0. -1.
         11    1    3    3    0    0  0.25552058287E+01 -0.10143195232E+01  0.29402980864E+01  0.40253290574E+01  0.51100000000E-03 0. -1.
        -11    1    3    3    0    0  0.64752718822E+01 -0.25864414434E+01  0.11717409005E+02  0.13635120070E+02  0.51100000000E-03 0.  1.
        -12    1    3    3    0    0  0.30418435736E+01 -0.82445255020E+01  0.27092283649E+02  0.28481868731E+02  0.00000000000E+00 0.  1.
</event>
<event>
 7    1  0.1402367E-008  0.4614232E+02  0.7816164E-02  0.1320468E+00
        -11   -1    0    0    0    0  0.00000000000E+00  0.00000000000E+00  0.45593999997E+02  0.45594000000E+02  0.51100000000E-03 0.  1.
         11   -1    0    0    0    0 -0.00000000000E+00 -0.00000000000E+00 -0.45593999997E+02  0.45594000000E+02  0.51100000000E-03 0. -1.
    9900012    2    1    2    0    0  0.14786142322E+02 -0.23247671927E+02  0.35637469842E+02  0.46142317504E+02  0.99999976540E+01 0.  0.
         12    1    1    2    0    0 -0.14786142322E+02  0.23247671927E+02 -0.35637469842E+02  0.45045682496E+02  0.00000000000E+00 0. -1.
         11    1    3    3    0    0  0.10910165600E+02 -0.18312521118E+02  0.20329146207E+02  0.29455972720E+02  0.51100000000E-03 0.  1.
        -11    1    3    3    0    0  0.10234982932E+01 -0.10422975438E+00  0.24775138648E+01  0.26826270350E+01  0.51100000000E-03 0. -1.
        -12    1    3    3    0    0  0.28524784287E+01 -0.48309210547E+01  0.12830809770E+02  0.14003717748E+02  0.00000000000E+00 0.  1.
</event>
<event>
 7    1  0.1402367E-008  0.4614233E+02  0.7816164E-02  0.1320468E+00
        -11   -1    0    0    0    0  0.00000000000E+00  0.00000000000E+00  0.45593999997E+02  0.45594000000E+02  0.51100000000E-03 0. -1.
         11   -1    0    0    0    0 -0.00000000000E+00 -0.00000000000E+00 -0.45593999997E+02  0.45594000000E+02  0.51100000000E-03 0.  1.
    9900012    2    1    2    0    0  0.23040867329E+01  0.31002688706E+02 -0.32598116471E+02  0.46142326288E+02  0.10000077755E+02 0.  0.
         12    1    1    2    0    0 -0.23040867329E+01 -0.31002688706E+02  0.32598116471E+02  0.45045673712E+02  0.00000000000E+00 0. -1.
         11    1    3    3    0    0 -0.14964190979E+01  0.50999324066E+01 -0.47875552661E+01  0.71532696269E+01  0.51100000000E-03 0. -1.
        -11    1    3    3    0    0  0.30051671645E+01  0.72668297470E+01 -0.12905084206E+02  0.15112215022E+02  0.51100000000E-03 0.  1.
        -12    1    3    3    0    0  0.79533866636E+00  0.18635926553E+02 -0.14905476999E+02  0.23876841639E+02  0.00000000000E+00 0.  1.
</event>
<event>
 7    1  0.1402367E-008  0.4614232E+02  0.7816164E-02  0.1320468E+00
        -11   -1    0    0    0    0  0.00000000000E+00  0.00000000000E+00  0.45593999997E+02  0.45594000000E+02  0.51100000000E-03 0.  1.
         11   -1    0    0    0    0 -0.00000000000E+00 -0.00000000000E+00 -0.45593999997E+02  0.45594000000E+02  0.51100000000E-03 0. -1.
    9900012    2    1    2    0    0  0.21778367401E+02  0.33825203552E+02  0.20265038593E+02  0.46142317952E+02  0.10000001744E+02 0.  0.
         12    1    1    2    0    0 -0.21778367401E+02 -0.33825203552E+02 -0.20265038593E+02  0.45045682048E+02  0.00000000000E+00 0. -1.
         11    1    3    3    0    0  0.11858391415E+02  0.17556084768E+02  0.10311044822E+02  0.23561731790E+02  0.51100000000E-03 0. -1.
        -11    1    3    3    0    0  0.38657809465E+00  0.35553718554E+01 -0.42331560244E+00  0.36012925476E+01  0.51100000000E-03 0.  1.
        -12    1    3    3    0    0  0.95333978908E+01  0.12713746928E+02  0.10377309373E+02  0.18979293615E+02  0.00000000000E+00 0.  1.
</event>
<event>
 7    1  0.1402367E-008  0.4614232E+02  0.7816164E-02  0.1320468E+00
        -11   -1    0    0    0    0  0.00000000000E+00  0.00000000000E+00  0.45593999997E+02  0.45594000000E+02  0.51100000000E-03 0.  1.
         11   -1    0    0    0    0 -0.00000000000E+00 -0.00000000000E+00 -0.45593999997E+02  0.45594000000E+02  0.51100000000E-03 0. -1.
    9900012    2    1    2    0    0 -0.29202166192E+02  0.29582678619E+02  0.17355460629E+02  0.46142318762E+02  0.10000009128E+02 0.  0.
         12    1    1    2    0    0  0.29202166192E+02 -0.29582678619E+02 -0.17355460629E+02  0.45045681238E+02  0.00000000000E+00 0. -1.
         11    1    3    3    0    0 -0.10089803655E+01  0.43785284050E+01  0.82124665786E-01  0.44940290490E+01  0.51100000000E-03 0. -1.
        -11    1    3    3    0    0 -0.13375334366E+02  0.10309946350E+02  0.76778049339E+01  0.18551098404E+02  0.51100000000E-03 0.  1.
         12    1    3    3    0    0 -0.14817851460E+02  0.14894203864E+02  0.95955310292E+01  0.23097191309E+02  0.00000000000E+00 0. -1.
</event>
<event>
 7    1  0.1402367E-008  0.4614232E+02  0.7816164E-02  0.1320468E+00
        -11   -1    0    0    0    0  0.00000000000E+00  0.00000000000E+00  0.45593999997E+02  0.45594000000E+02  0.51100000000E-03 0.  1.
         11   -1    0    0    0    0 -0.00000000000E+00 -0.00000000000E+00 -0.45593999997E+02  0.45594000000E+02  0.51100000000E-03 0. -1.
    9900012    2    1    2    0    0  0.11897884047E+02 -0.31590799170E+01  0.43330983792E+02  0.46142316665E+02  0.99999900065E+01 0.  0.
         12    1    1    2    0    0 -0.11897884047E+02  0.31590799170E+01 -0.43330983792E+02  0.45045683335E+02  0.00000000000E+00 0. -1.
         11    1    3    3    0    0  0.66739161568E+01 -0.57611497128E+01  0.16775331077E+02  0.18951087986E+02  0.51100000000E-03 0. -1.
        -11    1    3    3    0    0  0.28594582725E+01  0.14055486182E+01  0.15221147219E+02  0.15551057567E+02  0.51100000000E-03 0.  1.
         12    1    3    3    0    0  0.23645096182E+01  0.11965211776E+01  0.11334505496E+02  0.11640171111E+02  0.00000000000E+00 0. -1.
</event>
<event>
 7    1  0.1402367E-008  0.4614231E+02  0.7816164E-02  0.1320468E+00
        -11   -1    0    0    0    0  0.00000000000E+00  0.00000000000E+00  0.45593999997E+02  0.45594000000E+02  0.51100000000E-03 0.  1.
         11   -1    0    0    0    0 -0.00000000000E+00 -0.00000000000E+00 -0.45593999997E+02  0.45594000000E+02  0.51100000000E-03 0. -1.
    9900012    2    1    2    0    0  0.32859504541E+02  0.30809622330E+02 -0.36592933594E+00  0.46142314623E+02  0.99999713849E+01 0.  0.
         12    1    1    2    0    0 -0.32859504541E+02 -0.30809622330E+02  0.36592933594E+00  0.45045685377E+02  0.00000000000E+00 0. -1.
         11    1    3    3    0    0  0.15917398304E+02  0.16027482927E+02 -0.44438280367E+01  0.23021541773E+02  0.51100000000E-03 0. -1.
        -11    1    3    3    0    0  0.13534259949E+02  0.13501172353E+02  0.34927815322E+01  0.19433408614E+02  0.51100000000E-03 0.  1.
         12    1    3    3    0    0  0.34078462882E+01  0.12809670507E+01  0.58511716849E+00  0.36873642362E+01  0.00000000000E+00 0. -1.
</event>
<event>
 7    1  0.1402367E-008  0.4614231E+02  0.7816164E-02  0.1320468E+00
        -11   -1    0    0    0    0  0.00000000000E+00  0.00000000000E+00  0.45593999997E+02  0.45594000000E+02  0.51100000000E-03 0.  1.
         11   -1    0    0    0    0 -0.00000000000E+00 -0.00000000000E+00 -0.45593999997E+02  0.45594000000E+02  0.51100000000E-03 0. -1.
    9900012    2    1    2    0    0 -0.42156467998E+02 -0.42510904325E+00  0.15867114072E+02  0.46142314072E+02  0.99999663616E+01 0.  0.
         12    1    1    2    0    0  0.42156467998E+02  0.42510904325E+00 -0.15867114072E+02  0.45045685928E+02  0.00000000000E+00 0. -1.
         11    1    3    3    0    0 -0.29184852658E+02  0.28327017226E+00  0.90093653512E+01  0.30545122867E+02  0.51100000000E-03 0. -1.
        -11    1    3    3    0    0 -0.73675812245E+01 -0.63771313010E+00  0.95318974705E+00  0.74563061961E+01  0.51100000000E-03 0.  1.
         12    1    3    3    0    0 -0.56040341150E+01 -0.70666085402E-01  0.59045589736E+01  0.81408850090E+01  0.00000000000E+00 0. -1.
</event>
<event>
 7    1  0.1402367E-008  0.4614232E+02  0.7816164E-02  0.1320468E+00
        -11   -1    0    0    0    0  0.00000000000E+00  0.00000000000E+00  0.45593999997E+02  0.45594000000E+02  0.51100000000E-03 0.  1.
         11   -1    0    0    0    0 -0.00000000000E+00 -0.00000000000E+00 -0.45593999997E+02  0.45594000000E+02  0.51100000000E-03 0. -1.
    9900012    2    1    2    0    0 -0.47942464018E+01  0.14534165016E+02  0.42366103364E+02  0.46142318015E+02  0.10000002315E+02 0.  0.
         12    1    1    2    0    0  0.47942464018E+01 -0.14534165016E+02 -0.42366103364E+02  0.45045681985E+02  0.00000000000E+00 0. -1.
         11    1    3    3    0    0  0.16140521925E+01  0.10085378090E+02  0.20864300712E+02  0.23230132591E+02  0.51100000000E-03 0. -1.
        -11    1    3    3    0    0 -0.44198318775E+01  0.33344934594E+01  0.13477207194E+02  0.14570136392E+02  0.51100000000E-03 0.  1.
         12    1    3    3    0    0 -0.19884667167E+01  0.11142934666E+01  0.80245954569E+01  0.83420490324E+01  0.00000000000E+00 0. -1.
</event>
<event>
 7    1  0.1402367E-008  0.4614232E+02  0.7816164E-02  0.1320468E+00
        -11   -1    0    0    0    0  0.00000000000E+00  0.00000000000E+00  0.45593999997E+02  0.45594000000E+02  0.51100000000E-03 0.  1.
         11   -1    0    0    0    0 -0.00000000000E+00 -0.00000000000E+00 -0.45593999997E+02  0.45594000000E+02  0.51100000000E-03 0. -1.
    9900012    2    1    2    0    0 -0.19067811659E+02 -0.27198024895E+02  0.30426944169E+02  0.46142323947E+02  0.10000056406E+02 0.  0.
         12    1    1    2    0    0  0.19067811659E+02  0.27198024895E+02 -0.30426944169E+02  0.45045676053E+02  0.00000000000E+00 0. -1.
         11    1    3    3    0    0 -0.29791303261E+01 -0.42584403531E+00  0.20477577472E+01  0.36400374578E+01  0.51100000000E-03 0. -1.
        -11    1    3    3    0    0 -0.52191565050E+01 -0.68807589037E+01  0.10731837929E+02  0.13775223531E+02  0.51100000000E-03 0.  1.
        -12    1    3    3    0    0 -0.10869524828E+02 -0.19891421956E+02  0.17647348493E+02  0.28727062958E+02  0.00000000000E+00 0.  1.
</event>
<event>
 7    1  0.1402367E-008  0.4614232E+02  0.7816164E-02  0.1320468E+00
        -11   -1    0    0    0    0  0.00000000000E+00  0.00000000000E+00  0.45593999997E+02  0.45594000000E+02  0.51100000000E-03 0.  1.
         11   -1    0    0    0    0 -0.00000000000E+00 -0.00000000000E+00 -0.45593999997E+02  0.45594000000E+02  0.51100000000E-03 0. -1.
    9900012    2    1    2    0    0 -0.49031603000E+01  0.38608458028E+02  0.22681698741E+02  0.46142317965E+02  0.10000001861E+02 0.  0.
         12    1    1    2    0    0  0.49031603000E+01 -0.38608458028E+02 -0.22681698741E+02  0.45045682035E+02  0.00000000000E+00 0. -1.
         11    1    3    3    0    0 -0.48981363206E+01  0.11292044490E+02  0.83647235113E+01  0.14881888585E+02  0.51100000000E-03 0. -1.
        -11    1    3    3    0    0 -0.21653290742E+01  0.14360344596E+02  0.59970272525E+01  0.15712176267E+02  0.51100000000E-03 0.  1.
        -12    1    3    3    0    0  0.21603050948E+01  0.12956068942E+02  0.83199479771E+01  0.15548253113E+02  0.00000000000E+00 0.  1.
</event>
<event>
 7    1  0.1402367E-008  0.4614232E+02  0.7816164E-02  0.1320468E+00
        -11   -1    0    0    0    0  0.00000000000E+00  0.00000000000E+00  0.45593999997E+02  0.45594000000E+02  0.51100000000E-03 0.  1.
         11   -1    0    0    0    0 -0.00000000000E+00 -0.00000000000E+00 -0.45593999997E+02  0.45594000000E+02  0.51100000000E-03 0. -1.
    9900012    2    1    2    0    0  0.31309314513E+02 -0.27764617542E+02  0.16672322488E+02  0.46142317636E+02  0.99999988554E+01 0.  0.
         12    1    1    2    0    0 -0.31309314513E+02  0.27764617542E+02 -0.16672322488E+02  0.45045682364E+02  0.00000000000E+00 0. -1.
         11    1    3    3    0    0  0.13967523709E+02 -0.17271803773E+02  0.57874968974E+01  0.22954346968E+02  0.51100000000E-03 0. -1.
        -11    1    3    3    0    0  0.15535160450E+02 -0.90351699355E+01  0.10558934097E+02  0.20843862298E+02  0.51100000000E-03 0.  1.
         12    1    3    3    0    0  0.18066303544E+01 -0.14576438329E+01  0.32589149317E+00  0.23441083692E+01  0.00000000000E+00 0. -1.
</event>
<event>
 7    1  0.1402367E-008  0.4614232E+02  0.7816164E-02  0.1320468E+00
        -11   -1    0    0    0    0  0.00000000000E+00  0.00000000000E+00  0.45593999997E+02  0.45594000000E+02  0.51100000000E-03 0. -1.
         11   -1    0    0    0    0 -0.00000000000E+00 -0.00000000000E+00 -0.45593999997E+02  0.45594000000E+02  0.51100000000E-03 0.  1.
    9900012    2    1    2    0    0 -0.62610167494E+01 -0.37206992590E+02 -0.24607984439E+02  0.46142317338E+02  0.99999961379E+01 0.  0.
         12    1    1    2    0    0  0.62610167494E+01  0.37206992590E+02  0.24607984439E+02  0.45045682662E+02  0.00000000000E+00 0. -1.
         11    1    3    3    0    0 -0.51877798349E+01 -0.15302365888E+02 -0.13162559129E+02  0.20840547605E+02  0.51100000000E-03 0. -1.
        -11    1    3    3    0    0 -0.49005909287E+00 -0.20137762227E+02 -0.86016183255E+01  0.21903366488E+02  0.51100000000E-03 0.  1.
        -12    1    3    3    0    0 -0.58317782158E+00 -0.17668644749E+01 -0.28438069847E+01  0.33984032442E+01  0.00000000000E+00 0.  1.
</event>
<event>
 7    1  0.1402367E-008  0.4614232E+02  0.7816164E-02  0.1320468E+00
        -11   -1    0    0    0    0  0.00000000000E+00  0.00000000000E+00  0.45593999997E+02  0.45594000000E+02  0.51100000000E-03 0.  1.
         11   -1    0    0    0    0 -0.00000000000E+00 -0.00000000000E+00 -0.45593999997E+02  0.45594000000E+02  0.51100000000E-03 0. -1.
    9900012    2    1    2    0    0  0.32680681029E+02  0.30070760391E+02  0.75389695535E+01  0.46142316467E+02  0.99999882024E+01 0.  0.
         12    1    1    2    0    0 -0.32680681029E+02 -0.30070760391E+02 -0.75389695535E+01  0.45045683533E+02  0.00000000000E+00 0. -1.
         11    1    3    3    0    0  0.14978697604E+02  0.92067407543E+01  0.31561811753E+01  0.17863004706E+02  0.51100000000E-03 0. -1.
        -11    1    3    3    0    0  0.98017515266E+01  0.14149523085E+02  0.53809276868E+00  0.17221291491E+02  0.51100000000E-03 0.  1.
         12    1    3    3    0    0  0.79002318977E+01  0.67144965515E+01  0.38446956096E+01  0.11058020271E+02  0.00000000000E+00 0. -1.
</event>
<event>
 7    1  0.1402367E-008  0.4614232E+02  0.7816164E-02  0.1320468E+00
        -11   -1    0    0    0    0  0.00000000000E+00  0.00000000000E+00  0.45593999997E+02  0.45594000000E+02  0.51100000000E-03 0.  1.
         11   -1    0    0    0    0 -0.00000000000E+00 -0.00000000000E+00 -0.45593999997E+02  0.45594000000E+02  0.51100000000E-03 0. -1.
    9900012    2    1    2    0    0  0.23979672466E+01  0.23365565985E+02  0.38437137377E+02  0.46142318182E+02  0.10000003841E+02 0.  0.
         12    1    1    2    0    0 -0.23979672466E+01 -0.23365565985E+02 -0.38437137377E+02  0.45045681818E+02  0.00000000000E+00 0. -1.
         11    1    3    3    0    0  0.25029465666E+01  0.42213302184E+01  0.10576755064E+02  0.11659850697E+02  0.51100000000E-03 0. -1.
        -11    1    3    3    0    0  0.25135822462E+01  0.73590059993E+01  0.14653976033E+02  0.16589517137E+02  0.51100000000E-03 0.  1.
         12    1    3    3    0    0 -0.26185615661E+01  0.11785229767E+02  0.13206406279E+02  0.17892950348E+02  0.00000000000E+00 0. -1.
</event>
<event>
 7    1  0.1402367E-008  0.4614232E+02  0.7816164E-02  0.1320468E+00
        -11   -1    0    0    0    0  0.00000000000E+00  0.00000000000E+00  0.45593999997E+02  0.45594000000E+02  0.51100000000E-03 0.  1.
         11   -1    0    0    0    0 -0.00000000000E+00 -0.00000000000E+00 -0.45593999997E+02  0.45594000000E+02  0.51100000000E-03 0. -1.
    9900012    2    1    2    0    0  0.28931500480E+01  0.16674187424E+01  0.44921740954E+02  0.46142318600E+02  0.10000007646E+02 0.  0.
         12    1    1    2    0    0 -0.28931500480E+01 -0.16674187424E+01 -0.44921740954E+02  0.45045681400E+02  0.00000000000E+00 0. -1.
         11    1    3    3    0    0 -0.74086467966E+00  0.18943926158E+01  0.68160337158E+01  0.71130808890E+01  0.51100000000E-03 0. -1.
        -11    1    3    3    0    0  0.19295234140E+01  0.34430008881E+01  0.25105014775E+02  0.25413364257E+02  0.51100000000E-03 0.  1.
        -12    1    3    3    0    0  0.17044913136E+01 -0.36699747615E+01  0.13000692463E+02  0.13615873454E+02  0.00000000000E+00 0.  1.
</event>
<event>
 7    1  0.1402367E-008  0.4614232E+02  0.7816164E-02  0.1320468E+00
        -11   -1    0    0    0    0  0.00000000000E+00  0.00000000000E+00  0.45593999997E+02  0.45594000000E+02  0.51100000000E-03 0. -1.
         11   -1    0    0    0    0 -0.00000000000E+00 -0.00000000000E+00 -0.45593999997E+02  0.45594000000E+02  0.51100000000E-03 0.  1.
    9900012    2    1    2    0    0 -0.11989827293E+02 -0.18318797870E+02 -0.39367234842E+02  0.46142317709E+02  0.99999995291E+01 0.  0.
         12    1    1    2    0    0  0.11989827293E+02  0.18318797870E+02  0.39367234842E+02  0.45045682291E+02  0.00000000000E+00 0. -1.
         11    1    3    3    0    0 -0.32581549657E+01 -0.87848789126E+01 -0.12263346052E+02  0.15433059578E+02  0.51100000000E-03 0. -1.
        -11    1    3    3    0    0 -0.45134680579E+01 -0.90869629294E+01 -0.17916957813E+02  0.20590329447E+02  0.51100000000E-03 0.  1.
        -12    1    3    3    0    0 -0.42182042690E+01 -0.44695602778E+00 -0.91869309766E+01  0.10118928684E+02  0.00000000000E+00 0.  1.
</event>
<event>
 7    1  0.1402367E-008  0.4614232E+02  0.7816164E-02  0.1320468E+00
        -11   -1    0    0    0    0  0.00000000000E+00  0.00000000000E+00  0.45593999997E+02  0.45594000000E+02  0.51100000000E-03 0.  1.
         11   -1    0    0    0    0 -0.00000000000E+00 -0.00000000000E+00 -0.45593999997E+02  0.45594000000E+02  0.51100000000E-03 0. -1.
    9900012    2    1    2    0    0 -0.11354852596E+01  0.34656971634E+02  0.28752711837E+02  0.46142318214E+02  0.10000004127E+02 0.  0.
         12    1    1    2    0    0  0.11354852596E+01 -0.34656971634E+02 -0.28752711837E+02  0.45045681786E+02  0.00000000000E+00 0. -1.
         11    1    3    3    0    0  0.21352689475E+01  0.26359218718E+01  0.18373132278E+01  0.38578721791E+01  0.51100000000E-03 0. -1.
        -11    1    3    3    0    0 -0.13072895496E+01  0.19121567626E+02  0.12718606935E+02  0.23002311125E+02  0.51100000000E-03 0.  1.
        -12    1    3    3    0    0 -0.19634646574E+01  0.12899482135E+02  0.14196791675E+02  0.19282134910E+02  0.00000000000E+00 0.  1.
</event>
<event>
 7    1  0.1402367E-008  0.4614232E+02  0.7816164E-02  0.1320468E+00
        -11   -1    0    0    0    0  0.00000000000E+00  0.00000000000E+00  0.45593999997E+02  0.45594000000E+02  0.51100000000E-03 0. -1.
         11   -1    0    0    0    0 -0.00000000000E+00 -0.00000000000E+00 -0.45593999997E+02  0.45594000000E+02  0.51100000000E-03 0.  1.
    9900012    2    1    2    0    0  0.28252827009E+02  0.26902738172E+02 -0.22519634205E+02  0.46142317856E+02  0.10000000862E+02 0.  0.
         12    1    1    2    0    0 -0.28252827009E+02 -0.26902738172E+02  0.22519634205E+02  0.45045682144E+02  0.00000000000E+00 0. -1.
         11    1    3    3    0    0  0.10080327071E+02  0.81369637969E+01 -0.40556138792E+01  0.13574652036E+02  0.51100000000E-03 0. -1.
        -11    1    3    3    0    0  0.10192130103E+02  0.69482677008E+01 -0.10710902779E+02  0.16336504482E+02  0.51100000000E-03 0.  1.
        -12    1    3    3    0    0  0.79803698344E+01  0.11817506674E+02 -0.77531175464E+01  0.16231161338E+02  0.00000000000E+00 0.  1.
</event>
<event>
 7    1  0.1402367E-008  0.4614232E+02  0.7816164E-02  0.1320468E+00
        -11   -1    0    0    0    0  0.00000000000E+00  0.00000000000E+00  0.45593999997E+02  0.45594000000E+02  0.51100000000E-03 0.  1.
         11   -1    0    0    0    0 -0.00000000000E+00 -0.00000000000E+00 -0.45593999997E+02  0.45594000000E+02  0.51100000000E-03 0. -1.
    9900012    2    1    2    0    0  0.32605442192E+02  0.11945219403E+02  0.28693386114E+02  0.46142317257E+02  0.99999953992E+01 0.  0.
         12    1    1    2    0    0 -0.32605442192E+02 -0.11945219403E+02 -0.28693386114E+02  0.45045682743E+02  0.00000000000E+00 0. -1.
         11    1    3    3    0    0 -0.49368509760E+00  0.66117173884E+00  0.15131131801E+01  0.17234804323E+01  0.51100000000E-03 0. -1.
        -11    1    3    3    0    0  0.31058639910E+02  0.11378692520E+02  0.25318579071E+02  0.41655062153E+02  0.51100000000E-03 0.  1.
        -12    1    3    3    0    0  0.20404873804E+01 -0.94644855290E-01  0.18616938623E+01  0.27637746715E+01  0.00000000000E+00 0.  1.
</event>
<event>
 7    1  0.1402367E-008  0.4614232E+02  0.7816164E-02  0.1320468E+00
        -11   -1    0    0    0    0  0.00000000000E+00  0.00000000000E+00  0.45593999997E+02  0.45594000000E+02  0.51100000000E-03 0. -1.
         11   -1    0    0    0    0 -0.00000000000E+00 -0.00000000000E+00 -0.45593999997E+02  0.45594000000E+02  0.51100000000E-03 0.  1.
    9900012    2    1    2    0    0 -0.35453857833E+02 -0.27095806268E+02 -0.61607299557E+01  0.46142319339E+02  0.10000014392E+02 0.  0.
         12    1    1    2    0    0  0.35453857833E+02  0.27095806268E+02  0.61607299557E+01  0.45045680661E+02  0.00000000000E+00 0. -1.
         11    1    3    3    0    0 -0.75206461992E+01 -0.57455787138E+01  0.23666519005E+01  0.97556565893E+01  0.51100000000E-03 0. -1.
        -11    1    3    3    0    0 -0.20445152549E+02 -0.13616500652E+02 -0.50893486167E+01  0.25086148018E+02  0.51100000000E-03 0.  1.
        -12    1    3    3    0    0 -0.74880590849E+01 -0.77337269024E+01 -0.34380332395E+01  0.11300514732E+02  0.00000000000E+00 0.  1.
</event>
<event>
 7    1  0.1402367E-008  0.4614232E+02  0.7816164E-02  0.1320468E+00
        -11   -1    0    0    0    0  0.00000000000E+00  0.00000000000E+00  0.45593999997E+02  0.45594000000E+02  0.51100000000E-03 0.  1.
         11   -1    0    0    0    0 -0.00000000000E+00 -0.00000000000E+00 -0.45593999997E+02  0.45594000000E+02  0.51100000000E-03 0. -1.
    9900012    2    1    2    0    0 -0.22890439092E+02 -0.10185164230E+02  0.37435326235E+02  0.46142318492E+02  0.10000006666E+02 0.  0.
         12    1    1    2    0    0  0.22890439092E+02  0.10185164230E+02 -0.37435326235E+02  0.45045681508E+02  0.00000000000E+00 0. -1.
         11    1    3    3    0    0 -0.17659990245E+01 -0.10901859329E+01  0.12980273652E+01  0.24478834173E+01  0.51100000000E-03 0. -1.
        -11    1    3    3    0    0 -0.23819469541E+01 -0.37844552849E+01  0.11132939366E+02  0.11997421068E+02  0.51100000000E-03 0.  1.
        -12    1    3    3    0    0 -0.18742493113E+02 -0.53105230122E+01  0.25004359504E+02  0.31697014007E+02  0.00000000000E+00 0.  1.
</event>
<event>
 7    1  0.1402367E-008  0.4614232E+02  0.7816164E-02  0.1320468E+00
        -11   -1    0    0    0    0  0.00000000000E+00  0.00000000000E+00  0.45593999997E+02  0.45594000000E+02  0.51100000000E-03 0.  1.
         11   -1    0    0    0    0 -0.00000000000E+00 -0.00000000000E+00 -0.45593999997E+02  0.45594000000E+02  0.51100000000E-03 0. -1.
    9900012    2    1    2    0    0 -0.18796758980E+02  0.18190521275E+02  0.36672882136E+02  0.46142317670E+02  0.99999991653E+01 0.  0.
         12    1    1    2    0    0  0.18796758980E+02 -0.18190521275E+02 -0.36672882136E+02  0.45045682330E+02  0.00000000000E+00 0. -1.
         11    1    3    3    0    0  0.11965609471E+00  0.82192806580E+00  0.36378004546E-01  0.83138856540E+00  0.51100000000E-03 0. -1.
        -11    1    3    3    0    0 -0.60633736819E+01  0.19099801410E+01  0.65672549040E+01  0.91400963770E+01  0.51100000000E-03 0.  1.
        -12    1    3    3    0    0 -0.12853041393E+02  0.15458613069E+02  0.30069249228E+02  0.36170832727E+02  0.00000000000E+00 0.  1.
</event>
<event>
 7    1  0.1402367E-008  0.4614232E+02  0.7816164E-02  0.1320468E+00
        -11   -1    0    0    0    0  0.00000000000E+00  0.00000000000E+00  0.45593999997E+02  0.45594000000E+02  0.51100000000E-03 0.  1.
         11   -1    0    0    0    0 -0.00000000000E+00 -0.00000000000E+00 -0.45593999997E+02  0.45594000000E+02  0.51100000000E-03 0. -1.
    9900012    2    1    2    0    0  0.26430036126E+02 -0.28062796673E+02  0.23303350249E+02  0.46142317637E+02  0.99999988676E+01 0.  0.
         12    1    1    2    0    0 -0.26430036126E+02  0.28062796673E+02 -0.23303350249E+02  0.45045682363E+02  0.00000000000E+00 0. -1.
         11    1    3    3    0    0  0.99380832108E+00 -0.10711191534E+01 -0.68857185731E+00  0.16152655149E+01  0.51100000000E-03 0. -1.
        -11    1    3    3    0    0  0.17584772499E+02 -0.18418944092E+02  0.19462095252E+02  0.32050817106E+02  0.51100000000E-03 0.  1.
         12    1    3    3    0    0  0.78514553058E+01 -0.85727334279E+01  0.45298268536E+01  0.12476235016E+02  0.00000000000E+00 0. -1.
</event>
<event>
 7    1  0.1402367E-008  0.4614232E+02  0.7816164E-02  0.1320468E+00
        -11   -1    0    0    0    0  0.00000000000E+00  0.00000000000E+00  0.45593999997E+02  0.45594000000E+02  0.51100000000E-03 0.  1.
         11   -1    0    0    0    0 -0.00000000000E+00 -0.00000000000E+00 -0.45593999997E+02  0.45594000000E+02  0.51100000000E-03 0. -1.
    9900012    2    1    2    0    0 -0.76789910761E+01  0.26467436224E+02  0.35631747056E+02  0.46142317827E+02  0.10000000600E+02 0.  0.
         12    1    1    2    0    0  0.76789910761E+01 -0.26467436224E+02 -0.35631747056E+02  0.45045682173E+02  0.00000000000E+00 0. -1.
         11    1    3    3    0    0 -0.18787960434E+01  0.99916333899E+01  0.94628273865E+01  0.13889122175E+02  0.51100000000E-03 0. -1.
        -11    1    3    3    0    0 -0.28332839791E+01  0.13753218321E+02  0.15844917802E+02  0.21171677608E+02  0.51100000000E-03 0.  1.
        -12    1    3    3    0    0 -0.29669110535E+01  0.27225845127E+01  0.10324001867E+02  0.11081518045E+02  0.00000000000E+00 0.  1.
</event>
<event>
 7    1  0.1402367E-008  0.4614232E+02  0.7816164E-02  0.1320468E+00
        -11   -1    0    0    0    0  0.00000000000E+00  0.00000000000E+00  0.45593999997E+02  0.45594000000E+02  0.51100000000E-03 0.  1.
         11   -1    0    0    0    0 -0.00000000000E+00 -0.00000000000E+00 -0.45593999997E+02  0.45594000000E+02  0.51100000000E-03 0. -1.
    9900012    2    1    2    0    0 -0.44544922969E+01  0.46137521704E+01  0.44586818918E+02  0.46142316167E+02  0.99999854680E+01 0.  0.
         12    1    1    2    0    0  0.44544922969E+01 -0.46137521704E+01 -0.44586818918E+02  0.45045683833E+02  0.00000000000E+00 0. -1.
         11    1    3    3    0    0 -0.75450995160E+00  0.25807766438E+01  0.51390579546E+01  0.57999664029E+01  0.51100000000E-03 0. -1.
        -11    1    3    3    0    0 -0.44420388085E+01  0.42226426265E+01  0.27852073469E+02  0.28518422402E+02  0.51100000000E-03 0.  1.
        -12    1    3    3    0    0  0.74205646324E+00 -0.21896671000E+01  0.11595687494E+02  0.11823927362E+02  0.00000000000E+00 0.  1.
</event>
<event>
 7    1  0.1402367E-008  0.4614232E+02  0.7816164E-02  0.1320468E+00
        -11   -1    0    0    0    0  0.00000000000E+00  0.00000000000E+00  0.45593999997E+02  0.45594000000E+02  0.51100000000E-03 0.  1.
         11   -1    0    0    0    0 -0.00000000000E+00 -0.00000000000E+00 -0.45593999997E+02  0.45594000000E+02  0.51100000000E-03 0. -1.
    9900012    2    1    2    0    0  0.42825531871E+00 -0.16523524949E+02  0.41903499326E+02  0.46142317242E+02  0.99999952653E+01 0.  0.
         12    1    1    2    0    0 -0.42825531871E+00  0.16523524949E+02 -0.41903499326E+02  0.45045682758E+02  0.00000000000E+00 0. -1.
         11    1    3    3    0    0 -0.66422671819E+00 -0.18842612209E+01  0.23366974178E+01  0.30743767767E+01  0.51100000000E-03 0. -1.
        -11    1    3    3    0    0 -0.25198413228E+01 -0.94762224973E+01  0.30415635116E+02  0.31957147133E+02  0.51100000000E-03 0.  1.
        -12    1    3    3    0    0  0.36123233597E+01 -0.51630412307E+01  0.91511667923E+01  0.11110793332E+02  0.00000000000E+00 0.  1.
</event>
<event>
 7    1  0.1402367E-008  0.4614232E+02  0.7816164E-02  0.1320468E+00
        -11   -1    0    0    0    0  0.00000000000E+00  0.00000000000E+00  0.45593999997E+02  0.45594000000E+02  0.51100000000E-03 0.  1.
         11   -1    0    0    0    0 -0.00000000000E+00 -0.00000000000E+00 -0.45593999997E+02  0.45594000000E+02  0.51100000000E-03 0. -1.
    9900012    2    1    2    0    0 -0.30583034825E+02 -0.13674521123E+02  0.30113093615E+02  0.46142323691E+02  0.10000054074E+02 0.  0.
         12    1    1    2    0    0  0.30583034825E+02  0.13674521123E+02 -0.30113093615E+02  0.45045676309E+02  0.00000000000E+00 0. -1.
         11    1    3    3    0    0 -0.39930396693E+01 -0.12595349383E+01  0.18538732587E+00  0.41910813382E+01  0.51100000000E-03 0. -1.
        -11    1    3    3    0    0 -0.53854668129E+01 -0.24300763643E+01  0.50577235332E+01  0.77774733384E+01  0.51100000000E-03 0.  1.
         12    1    3    3    0    0 -0.21204528343E+02 -0.99849098208E+01  0.24869982756E+02  0.34173769014E+02  0.00000000000E+00 0. -1.
</event>
<event>
 7    1  0.1402367E-008  0.4614232E+02  0.7816164E-02  0.1320468E+00
        -11   -1    0    0    0    0  0.00000000000E+00  0.00000000000E+00  0.45593999997E+02  0.45594000000E+02  0.51100000000E-03 0.  1.
         11   -1    0    0    0    0 -0.00000000000E+00 -0.00000000000E+00 -0.45593999997E+02  0.45594000000E+02  0.51100000000E-03 0. -1.
    9900012    2    1    2    0    0  0.36820993173E+02  0.55943603586E+00 -0.25942531383E+02  0.46142318282E+02  0.10000004746E+02 0.  0.
         12    1    1    2    0    0 -0.36820993173E+02 -0.55943603586E+00  0.25942531383E+02  0.45045681718E+02  0.00000000000E+00 0. -1.
         11    1    3    3    0    0  0.91900736255E+01 -0.24101634259E+01 -0.54427825529E+01  0.10949439399E+02  0.51100000000E-03 0. -1.
        -11    1    3    3    0    0  0.19536937199E+02  0.48547151444E+01 -0.16175627835E+02  0.25824622173E+02  0.51100000000E-03 0.  1.
        -12    1    3    3    0    0  0.80939823481E+01 -0.18851156826E+01 -0.43241209951E+01  0.93682567092E+01  0.00000000000E+00 0.  1.
</event>
<event>
 7    1  0.1402367E-008  0.4614232E+02  0.7816164E-02  0.1320468E+00
        -11   -1    0    0    0    0  0.00000000000E+00  0.00000000000E+00  0.45593999997E+02  0.45594000000E+02  0.51100000000E-03 0. -1.
         11   -1    0    0    0    0 -0.00000000000E+00 -0.00000000000E+00 -0.45593999997E+02  0.45594000000E+02  0.51100000000E-03 0.  1.
    9900012    2    1    2    0    0  0.41152683318E+02 -0.50722419741E+01 -0.17602345733E+02  0.46142316986E+02  0.99999929335E+01 0.  0.
         12    1    1    2    0    0 -0.41152683318E+02  0.50722419741E+01  0.17602345733E+02  0.45045683014E+02  0.00000000000E+00 0. -1.
         11    1    3    3    0    0  0.88542005713E+01 -0.37564983588E+01 -0.62401361110E+01  0.11465053276E+02  0.51100000000E-03 0. -1.
        -11    1    3    3    0    0  0.25585947150E+02 -0.12989259346E+01 -0.11206988053E+02  0.27962912610E+02  0.51100000000E-03 0.  1.
        -12    1    3    3    0    0  0.67125355962E+01 -0.16817680753E-01 -0.15522156948E+00  0.67143511005E+01  0.00000000000E+00 0.  1.
</event>
<event>
 7    1  0.1681272E-008  0.4614232E+02  0.7816164E-02  0.1320468E+00
        -11   -1    0    0    0    0  0.00000000000E+00  0.00000000000E+00  0.45593999997E+02  0.45594000000E+02  0.51100000000E-03 0. -1.
         11   -1    0    0    0    0 -0.00000000000E+00 -0.00000000000E+00 -0.45593999997E+02  0.45594000000E+02  0.51100000000E-03 0.  1.
    9900012    2    1    2    0    0 -0.55294945338E+01  0.18868569706E+02 -0.40527959455E+02  0.46142315078E+02  0.99999755293E+01 0.  0.
         12    1    1    2    0    0  0.55294945338E+01 -0.18868569706E+02  0.40527959455E+02  0.45045684922E+02  0.00000000000E+00 0. -1.
         11    1    3    3    0    0 -0.64196291204E+00  0.43087621378E+00 -0.54729893737E+01  0.55273306069E+01  0.51100000000E-03 0. -1.
        -11    1    3    3    0    0 -0.61820442757E+01  0.10579480097E+02 -0.17788744636E+02  0.21600520979E+02  0.51100000000E-03 0.  1.
        -12    1    3    3    0    0  0.12945126539E+01  0.78582133947E+01 -0.17266225445E+02  0.19014463492E+02  0.00000000000E+00 0.  1.
</event>
<event>
 7    1  0.1402367E-008  0.4614232E+02  0.7816164E-02  0.1320468E+00
        -11   -1    0    0    0    0  0.00000000000E+00  0.00000000000E+00  0.45593999997E+02  0.45594000000E+02  0.51100000000E-03 0.  1.
         11   -1    0    0    0    0 -0.00000000000E+00 -0.00000000000E+00 -0.45593999997E+02  0.45594000000E+02  0.51100000000E-03 0. -1.
    9900012    2    1    2    0    0 -0.16762003013E+02 -0.39361534991E+02  0.14100287624E+02  0.46142319930E+02  0.10000019779E+02 0.  0.
         12    1    1    2    0    0  0.16762003013E+02  0.39361534991E+02 -0.14100287624E+02  0.45045680070E+02  0.00000000000E+00 0. -1.
         11    1    3    3    0    0 -0.22279979777E+01 -0.69554003050E+01  0.45582684017E+01  0.86092612618E+01  0.51100000000E-03 0. -1.
        -11    1    3    3    0    0 -0.51358088500E+01 -0.61704412319E+01 -0.14438761900E+00  0.80294287210E+01  0.51100000000E-03 0.  1.
        -12    1    3    3    0    0 -0.93981961854E+01 -0.26235693454E+02  0.96864068416E+01  0.29503629947E+02  0.00000000000E+00 0.  1.
</event>
<event>
 7    1  0.1402367E-008  0.4614232E+02  0.7816164E-02  0.1320468E+00
        -11   -1    0    0    0    0  0.00000000000E+00  0.00000000000E+00  0.45593999997E+02  0.45594000000E+02  0.51100000000E-03 0.  1.
         11   -1    0    0    0    0 -0.00000000000E+00 -0.00000000000E+00 -0.45593999997E+02  0.45594000000E+02  0.51100000000E-03 0. -1.
    9900012    2    1    2    0    0  0.35095668035E+02 -0.22795008302E+01  0.28146252672E+02  0.46142316762E+02  0.99999908918E+01 0.  0.
         12    1    1    2    0    0 -0.35095668035E+02  0.22795008302E+01 -0.28146252672E+02  0.45045683238E+02  0.00000000000E+00 0. -1.
         11    1    3    3    0    0  0.73980692570E+01  0.12471390518E+01  0.30376668685E+01  0.80940845567E+01  0.51100000000E-03 0. -1.
        -11    1    3    3    0    0  0.17998873585E+02 -0.43593912515E+01  0.13610055389E+02  0.22982544471E+02  0.51100000000E-03 0.  1.
         12    1    3    3    0    0  0.96987251933E+01  0.83275136955E+00  0.11498530415E+02  0.15065687735E+02  0.00000000000E+00 0. -1.
</event>
<event>
 7    1  0.1402367E-008  0.4614232E+02  0.7816164E-02  0.1320468E+00
        -11   -1    0    0    0    0  0.00000000000E+00  0.00000000000E+00  0.45593999997E+02  0.45594000000E+02  0.51100000000E-03 0.  1.
         11   -1    0    0    0    0 -0.00000000000E+00 -0.00000000000E+00 -0.45593999997E+02  0.45594000000E+02  0.51100000000E-03 0. -1.
    9900012    2    1    2    0    0 -0.10931736981E+02  0.41050615583E+02  0.14981905859E+02  0.46142318561E+02  0.10000007290E+02 0.  0.
         12    1    1    2    0    0  0.10931736981E+02 -0.41050615583E+02 -0.14981905859E+02  0.45045681439E+02  0.00000000000E+00 0. -1.
         11    1    3    3    0    0 -0.14654954239E+01  0.38086939651E+00  0.16875257351E+01  0.22672630422E+01  0.51100000000E-03 0. -1.
        -11    1    3    3    0    0 -0.91025096648E+01  0.36374878068E+02  0.11702034827E+02  0.39280084725E+02  0.51100000000E-03 0.  1.
        -12    1    3    3    0    0 -0.36373189232E+00  0.42948681189E+01  0.15923452966E+01  0.45949707934E+01  0.00000000000E+00 0.  1.
</event>
<event>
 7    1  0.1402367E-008  0.4614232E+02  0.7816164E-02  0.1320468E+00
        -11   -1    0    0    0    0  0.00000000000E+00  0.00000000000E+00  0.45593999997E+02  0.45594000000E+02  0.51100000000E-03 0.  1.
         11   -1    0    0    0    0 -0.00000000000E+00 -0.00000000000E+00 -0.45593999997E+02  0.45594000000E+02  0.51100000000E-03 0. -1.
    9900012    2    1    2    0    0 -0.26027023482E+00  0.34882279698E+02  0.28500390928E+02  0.46142318070E+02  0.10000002814E+02 0.  0.
         12    1    1    2    0    0  0.26027023482E+00 -0.34882279698E+02 -0.28500390928E+02  0.45045681930E+02  0.00000000000E+00 0. -1.
         11    1    3    3    0    0  0.14391379294E-01  0.13307297471E+01 -0.16852104039E+00  0.13414351918E+01  0.51100000000E-03 0. -1.
        -11    1    3    3    0    0  0.21764369740E+00  0.20635312563E+02  0.12601781907E+02  0.24179917304E+02  0.51100000000E-03 0.  1.
         12    1    3    3    0    0 -0.49230531152E+00  0.12916237388E+02  0.16067130061E+02  0.20620965574E+02  0.00000000000E+00 0. -1.
</event>
<event>
 7    1  0.1402367E-008  0.4614232E+02  0.7816164E-02  0.1320468E+00
        -11   -1    0    0    0    0  0.00000000000E+00  0.00000000000E+00  0.45593999997E+02  0.45594000000E+02  0.51100000000E-03 0.  1.
         11   -1    0    0    0    0 -0.00000000000E+00 -0.00000000000E+00 -0.45593999997E+02  0.45594000000E+02  0.51100000000E-03 0. -1.
    9900012    2    1    2    0    0 -0.46613660548E+01 -0.34869073476E+02  0.28134193688E+02  0.46142317931E+02  0.10000001550E+02 0.  0.
         12    1    1    2    0    0  0.46613660548E+01  0.34869073476E+02 -0.28134193688E+02  0.45045682069E+02  0.00000000000E+00 0. -1.
         11    1    3    3    0    0 -0.20776658998E+01 -0.18197698242E+02  0.19582764118E+02  0.26813384114E+02  0.51100000000E-03 0. -1.
        -11    1    3    3    0    0 -0.20384514593E+01 -0.16663932271E+02  0.83169828082E+01  0.18735370996E+02  0.51100000000E-03 0.  1.
         12    1    3    3    0    0 -0.54524869570E+00 -0.74429632337E-02  0.23444676224E+00  0.59356282075E+00  0.00000000000E+00 0. -1.
</event>
<event>
 7    1  0.1402367E-008  0.4614232E+02  0.7816164E-02  0.1320468E+00
        -11   -1    0    0    0    0  0.00000000000E+00  0.00000000000E+00  0.45593999997E+02  0.45594000000E+02  0.51100000000E-03 0.  1.
         11   -1    0    0    0    0 -0.00000000000E+00 -0.00000000000E+00 -0.45593999997E+02  0.45594000000E+02  0.51100000000E-03 0. -1.
    9900012    2    1    2    0    0  0.25143386783E+02  0.97003166542E+01  0.36094701211E+02  0.46142317659E+02  0.99999990648E+01 0.  0.
         12    1    1    2    0    0 -0.25143386783E+02 -0.97003166542E+01 -0.36094701211E+02  0.45045682341E+02  0.00000000000E+00 0. -1.
         11    1    3    3    0    0  0.16501634702E+02  0.66492918851E+01  0.19309596802E+02  0.26256000444E+02  0.51100000000E-03 0. -1.
        -11    1    3    3    0    0  0.45489151933E+01  0.80486889222E+00  0.13244244429E+02  0.14026776327E+02  0.51100000000E-03 0.  1.
        -12    1    3    3    0    0  0.40928368883E+01  0.22461558768E+01  0.35408599796E+01  0.58595408875E+01  0.00000000000E+00 0.  1.
</event>
<event>
 7    1  0.1402367E-008  0.4614232E+02  0.7816164E-02  0.1320468E+00
        -11   -1    0    0    0    0  0.00000000000E+00  0.00000000000E+00  0.45593999997E+02  0.45594000000E+02  0.51100000000E-03 0. -1.
         11   -1    0    0    0    0 -0.00000000000E+00 -0.00000000000E+00 -0.45593999997E+02  0.45594000000E+02  0.51100000000E-03 0.  1.
    9900012    2    1    2    0    0  0.12076442354E+02  0.43376762875E+02 -0.13150410497E+01  0.46142319293E+02  0.10000013967E+02 0.  0.
         12    1    1    2    0    0 -0.12076442354E+02 -0.43376762875E+02  0.13150410497E+01  0.45045680707E+02  0.00000000000E+00 0. -1.
         11    1    3    3    0    0  0.85666572550E-01  0.33677643439E+01 -0.14870481759E+01  0.36824567854E+01  0.51100000000E-03 0. -1.
        -11    1    3    3    0    0  0.91128479556E+01  0.17636880284E+02  0.11187256143E+01  0.19883538198E+02  0.51100000000E-03 0.  1.
        -12    1    3    3    0    0  0.28779278259E+01  0.22372118247E+02 -0.94671848808E+00  0.22576324309E+02  0.00000000000E+00 0.  1.
</event>
<event>
 7    1  0.1402367E-008  0.4614232E+02  0.7816164E-02  0.1320468E+00
        -11   -1    0    0    0    0  0.00000000000E+00  0.00000000000E+00  0.45593999997E+02  0.45594000000E+02  0.51100000000E-03 0.  1.
         11   -1    0    0    0    0 -0.00000000000E+00 -0.00000000000E+00 -0.45593999997E+02  0.45594000000E+02  0.51100000000E-03 0. -1.
    9900012    2    1    2    0    0  0.43080309773E+02  0.30959029531E+00 -0.13156920177E+02  0.46142317800E+02  0.10000000356E+02 0.  0.
         12    1    1    2    0    0 -0.43080309773E+02 -0.30959029531E+00  0.13156920177E+02  0.45045682200E+02  0.00000000000E+00 0. -1.
         11    1    3    3    0    0  0.30980878648E+02 -0.59531503711E+00 -0.74254589464E+01  0.31863877394E+02  0.51100000000E-03 0. -1.
        -11    1    3    3    0    0  0.44465084945E+01 -0.14142628771E+01 -0.43362428679E+00  0.46861079331E+01  0.51100000000E-03 0.  1.
         12    1    3    3    0    0  0.76529226309E+01  0.23191682095E+01 -0.52978369441E+01  0.95923324726E+01  0.00000000000E+00 0. -1.
</event>
<event>
 7    1  0.1402367E-008  0.4614232E+02  0.7816164E-02  0.1320468E+00
        -11   -1    0    0    0    0  0.00000000000E+00  0.00000000000E+00  0.45593999997E+02  0.45594000000E+02  0.51100000000E-03 0.  1.
         11   -1    0    0    0    0 -0.00000000000E+00 -0.00000000000E+00 -0.45593999997E+02  0.45594000000E+02  0.51100000000E-03 0. -1.
    9900012    2    1    2    0    0  0.12061735885E+02 -0.25621693777E+02  0.35030798825E+02  0.46142317290E+02  0.99999957028E+01 0.  0.
         12    1    1    2    0    0 -0.12061735885E+02  0.25621693777E+02 -0.35030798825E+02  0.45045682710E+02  0.00000000000E+00 0. -1.
         11    1    3    3    0    0  0.40363742047E+01 -0.10853056060E+02  0.21497014172E+02  0.24417263588E+02  0.51100000000E-03 0. -1.
        -11    1    3    3    0    0  0.55982233040E+01 -0.96786327208E+01  0.74835379239E+01  0.13454344117E+02  0.51100000000E-03 0.  1.
        -12    1    3    3    0    0  0.24271383760E+01 -0.50900049957E+01  0.60502467291E+01  0.82707095847E+01  0.00000000000E+00 0.  1.
</event>
<event>
 7    1  0.1402367E-008  0.4614232E+02  0.7816164E-02  0.1320468E+00
        -11   -1    0    0    0    0  0.00000000000E+00  0.00000000000E+00  0.45593999997E+02  0.45594000000E+02  0.51100000000E-03 0.  1.
         11   -1    0    0    0    0 -0.00000000000E+00 -0.00000000000E+00 -0.45593999997E+02  0.45594000000E+02  0.51100000000E-03 0. -1.
    9900012    2    1    2    0    0 -0.26747957710E+02  0.14073012949E+02  0.33400758564E+02  0.46142316435E+02  0.99999879093E+01 0.  0.
         12    1    1    2    0    0  0.26747957710E+02 -0.14073012949E+02 -0.33400758564E+02  0.45045683565E+02  0.00000000000E+00 0. -1.
         11    1    3    3    0    0 -0.14379533911E+01  0.15616726002E+01  0.79100522082E+00  0.22654405279E+01  0.51100000000E-03 0. -1.
        -11    1    3    3    0    0 -0.14810429029E+02  0.32721509206E+01  0.14384952476E+02  0.20904129680E+02  0.51100000000E-03 0.  1.
        -12    1    3    3    0    0 -0.10499575290E+02  0.92391894283E+01  0.18224800868E+02  0.22972746228E+02  0.00000000000E+00 0.  1.
</event>
<event>
 7    1  0.1402367E-008  0.4614231E+02  0.7816164E-02  0.1320468E+00
        -11   -1    0    0    0    0  0.00000000000E+00  0.00000000000E+00  0.45593999997E+02  0.45594000000E+02  0.51100000000E-03 0.  1.
         11   -1    0    0    0    0 -0.00000000000E+00 -0.00000000000E+00 -0.45593999997E+02  0.45594000000E+02  0.51100000000E-03 0. -1.
    9900012    2    1    2    0    0  0.12714077488E+02  0.16232415160E+02  0.40049652926E+02  0.46142314660E+02  0.99999717193E+01 0.  0.
         12    1    1    2    0    0 -0.12714077488E+02 -0.16232415160E+02 -0.40049652926E+02  0.45045685340E+02  0.00000000000E+00 0. -1.
         11    1    3    3    0    0  0.10776729646E+02  0.11397417419E+02  0.24079197173E+02  0.28737549694E+02  0.51100000000E-03 0. -1.
        -11    1    3    3    0    0  0.21837708716E+01  0.29430826712E+01  0.14607097156E+02  0.15059810039E+02  0.51100000000E-03 0.  1.
         12    1    3    3    0    0 -0.24642302952E+00  0.18919150705E+01  0.13633585969E+01  0.23449549265E+01  0.00000000000E+00 0. -1.
</event>
<event>
 7    1  0.1402367E-008  0.4614232E+02  0.7816164E-02  0.1320468E+00
        -11   -1    0    0    0    0  0.00000000000E+00  0.00000000000E+00  0.45593999997E+02  0.45594000000E+02  0.51100000000E-03 0.  1.
         11   -1    0    0    0    0 -0.00000000000E+00 -0.00000000000E+00 -0.45593999997E+02  0.45594000000E+02  0.51100000000E-03 0. -1.
    9900012    2    1    2    0    0  0.14547875091E+02 -0.11587584732E+02  0.41026828560E+02  0.46142318173E+02  0.10000003757E+02 0.  0.
         12    1    1    2    0    0 -0.14547875091E+02  0.11587584732E+02 -0.41026828560E+02  0.45045681827E+02  0.00000000000E+00 0. -1.
         11    1    3    3    0    0  0.34322186435E+01  0.12419898841E+01  0.60878718899E+01  0.70982285183E+01  0.51100000000E-03 0. -1.
        -11    1    3    3    0    0  0.62432594274E+01 -0.46375332661E+01  0.17984612779E+02  0.19594164951E+02  0.51100000000E-03 0.  1.
        -12    1    3    3    0    0  0.48723970198E+01 -0.81920413498E+01  0.16954343891E+02  0.19449924703E+02  0.00000000000E+00 0.  1.
</event>
<event>
 7    1  0.1402367E-008  0.4614232E+02  0.7816164E-02  0.1320468E+00
        -11   -1    0    0    0    0  0.00000000000E+00  0.00000000000E+00  0.45593999997E+02  0.45594000000E+02  0.51100000000E-03 0. -1.
         11   -1    0    0    0    0 -0.00000000000E+00 -0.00000000000E+00 -0.45593999997E+02  0.45594000000E+02  0.51100000000E-03 0.  1.
    9900012    2    1    2    0    0 -0.30585887534E+02 -0.32293095935E+02  0.71255137808E+01  0.46142317544E+02  0.99999980190E+01 0.  0.
         12    1    1    2    0    0  0.30585887534E+02  0.32293095935E+02 -0.71255137808E+01  0.45045682456E+02  0.00000000000E+00 0. -1.
         11    1    3    3    0    0 -0.12420038378E+02 -0.78793709743E+01  0.99088405776E+00  0.14741902582E+02  0.51100000000E-03 0. -1.
        -11    1    3    3    0    0 -0.58640400414E+01 -0.71340920983E+01 -0.28401697970E+00  0.92392045968E+01  0.51100000000E-03 0.  1.
         12    1    3    3    0    0 -0.12301809114E+02 -0.17279632862E+02  0.64186467027E+01  0.22161210365E+02  0.00000000000E+00 0. -1.
</event>
<event>
 7    1  0.1402367E-008  0.4614232E+02  0.7816164E-02  0.1320468E+00
        -11   -1    0    0    0    0  0.00000000000E+00  0.00000000000E+00  0.45593999997E+02  0.45594000000E+02  0.51100000000E-03 0.  1.
         11   -1    0    0    0    0 -0.00000000000E+00 -0.00000000000E+00 -0.45593999997E+02  0.45594000000E+02  0.51100000000E-03 0. -1.
    9900012    2    1    2    0    0 -0.24560757386E+02 -0.34272721479E+02  0.15851284742E+02  0.46142317977E+02  0.10000001969E+02 0.  0.
         12    1    1    2    0    0  0.24560757386E+02  0.34272721479E+02 -0.15851284742E+02  0.45045682023E+02  0.00000000000E+00 0. -1.
         11    1    3    3    0    0 -0.45785826408E+00 -0.55811942704E+01  0.28697201546E+01  0.62924286011E+01  0.51100000000E-03 0. -1.
        -11    1    3    3    0    0 -0.20233564776E+02 -0.25650571248E+02  0.12163035674E+02  0.34860986589E+02  0.51100000000E-03 0.  1.
        -12    1    3    3    0    0 -0.38693343460E+01 -0.30409559604E+01  0.81852891331E+00  0.49889027868E+01  0.00000000000E+00 0.  1.
</event>
<event>
 7    1  0.1402367E-008  0.4614232E+02  0.7816164E-02  0.1320468E+00
        -11   -1    0    0    0    0  0.00000000000E+00  0.00000000000E+00  0.45593999997E+02  0.45594000000E+02  0.51100000000E-03 0. -1.
         11   -1    0    0    0    0 -0.00000000000E+00 -0.00000000000E+00 -0.45593999997E+02  0.45594000000E+02  0.51100000000E-03 0.  1.
    9900012    2    1    2    0    0 -0.67630676652E+00 -0.32071845657E+02 -0.31623611743E+02  0.46142317695E+02  0.99999993935E+01 0.  0.
         12    1    1    2    0    0  0.67630676652E+00  0.32071845657E+02  0.31623611743E+02  0.45045682305E+02  0.00000000000E+00 0. -1.
         11    1    3    3    0    0 -0.61351020867E+00 -0.13941486486E+02 -0.16909041669E+02  0.21923894058E+02  0.51100000000E-03 0. -1.
        -11    1    3    3    0    0  0.19857594066E+01 -0.29791031256E+01 -0.48302902114E+01  0.60124869764E+01  0.51100000000E-03 0.  1.
        -12    1    3    3    0    0 -0.20485559645E+01 -0.15151256045E+02 -0.98842798620E+01  0.18205936660E+02  0.00000000000E+00 0.  1.
</event>
<event>
 7    1  0.1402367E-008  0.4614231E+02  0.7816164E-02  0.1320468E+00
        -11   -1    0    0    0    0  0.00000000000E+00  0.00000000000E+00  0.45593999997E+02  0.45594000000E+02  0.51100000000E-03 0.  1.
         11   -1    0    0    0    0 -0.00000000000E+00 -0.00000000000E+00 -0.45593999997E+02  0.45594000000E+02  0.51100000000E-03 0. -1.
    9900012    2    1    2    0    0 -0.40957944786E+02 -0.81033305277E+01 -0.16908480279E+02  0.46142313058E+02  0.99999571111E+01 0.  0.
         12    1    1    2    0    0  0.40957944786E+02  0.81033305277E+01  0.16908480279E+02  0.45045686942E+02  0.00000000000E+00 0. -1.
         11    1    3    3    0    0 -0.21002411682E+02 -0.22015536304E+01 -0.13448635036E+02  0.25036252104E+02  0.51100000000E-03 0. -1.
        -11    1    3    3    0    0 -0.12101783399E+02 -0.33182050164E+01 -0.18752688912E+01  0.12687800426E+02  0.51100000000E-03 0.  1.
         12    1    3    3    0    0 -0.78537497050E+01 -0.25835718808E+01 -0.15845763521E+01  0.84182605274E+01  0.00000000000E+00 0. -1.
</event>
<event>
 7    1  0.1402367E-008  0.4614232E+02  0.7816164E-02  0.1320468E+00
        -11   -1    0    0    0    0  0.00000000000E+00  0.00000000000E+00  0.45593999997E+02  0.45594000000E+02  0.51100000000E-03 0.  1.
         11   -1    0    0    0    0 -0.00000000000E+00 -0.00000000000E+00 -0.45593999997E+02  0.45594000000E+02  0.51100000000E-03 0. -1.
    9900012    2    1    2    0    0 -0.19512467808E+02  0.37694119173E+02  0.15084110805E+02  0.46142318532E+02  0.10000007029E+02 0.  0.
         12    1    1    2    0    0  0.19512467808E+02 -0.37694119173E+02 -0.15084110805E+02  0.45045681468E+02  0.00000000000E+00 0. -1.
         11    1    3    3    0    0 -0.64383993610E+01  0.60486267805E+01  0.34848151152E+01  0.94964629684E+01  0.51100000000E-03 0. -1.
        -11    1    3    3    0    0 -0.33833146068E+01  0.14745209135E+02  0.67733870282E+01  0.16575487392E+02  0.51100000000E-03 0.  1.
        -12    1    3    3    0    0 -0.96907538400E+01  0.16900283257E+02  0.48259086617E+01  0.20070368172E+02  0.00000000000E+00 0.  1.
</event>
<event>
 7    1  0.1402367E-008  0.4614232E+02  0.7816164E-02  0.1320468E+00
        -11   -1    0    0    0    0  0.00000000000E+00  0.00000000000E+00  0.45593999997E+02  0.45594000000E+02  0.51100000000E-03 0.  1.
         11   -1    0    0    0    0 -0.00000000000E+00 -0.00000000000E+00 -0.45593999997E+02  0.45594000000E+02  0.51100000000E-03 0. -1.
    9900012    2    1    2    0    0 -0.32794967130E+02 -0.18774039575E+02  0.24518137125E+02  0.46142317864E+02  0.10000000937E+02 0.  0.
         12    1    1    2    0    0  0.32794967130E+02  0.18774039575E+02 -0.24518137125E+02  0.45045682136E+02  0.00000000000E+00 0. -1.
         11    1    3    3    0    0 -0.15945863827E+02 -0.95539401068E+01  0.17390100446E+02  0.25455135799E+02  0.51100000000E-03 0. -1.
        -11    1    3    3    0    0 -0.13322855156E+02 -0.84373344375E+01  0.52833631782E+01  0.16631326125E+02  0.51100000000E-03 0.  1.
        -12    1    3    3    0    0 -0.35262481463E+01 -0.78276503058E+00  0.18446735007E+01  0.40558559401E+01  0.00000000000E+00 0.  1.
</event>
<event>
 7    1  0.1402367E-008  0.4614232E+02  0.7816164E-02  0.1320468E+00
        -11   -1    0    0    0    0  0.00000000000E+00  0.00000000000E+00  0.45593999997E+02  0.45594000000E+02  0.51100000000E-03 0.  1.
         11   -1    0    0    0    0 -0.00000000000E+00 -0.00000000000E+00 -0.45593999997E+02  0.45594000000E+02  0.51100000000E-03 0. -1.
    9900012    2    1    2    0    0 -0.36899349817E+01  0.32479343075E+02  0.30993388333E+02  0.46142317997E+02  0.10000002155E+02 0.  0.
         12    1    1    2    0    0  0.36899349817E+01 -0.32479343075E+02 -0.30993388333E+02  0.45045682003E+02  0.00000000000E+00 0. -1.
         11    1    3    3    0    0 -0.83757647223E+00 -0.80706579406E-01  0.88127541270E+00  0.12184804114E+01  0.51100000000E-03 0. -1.
        -11    1    3    3    0    0 -0.48554278742E+01  0.26795179724E+02  0.24843569940E+02  0.36861359225E+02  0.51100000000E-03 0.  1.
        -12    1    3    3    0    0  0.20030693648E+01  0.57648699303E+01  0.52685429796E+01  0.80624783609E+01  0.00000000000E+00 0.  1.
</event>
<event>
 7    1  0.1402367E-008  0.4614232E+02  0.7816164E-02  0.1320468E+00
        -11   -1    0    0    0    0  0.00000000000E+00  0.00000000000E+00  0.45593999997E+02  0.45594000000E+02  0.51100000000E-03 0.  1.
         11   -1    0    0    0    0 -0.00000000000E+00 -0.00000000000E+00 -0.45593999997E+02  0.45594000000E+02  0.51100000000E-03 0. -1.
    9900012    2    1    2    0    0 -0.41614492030E+02  0.14816744992E+02  0.88210904756E+01  0.46142317452E+02  0.99999971809E+01 0.  0.
         12    1    1    2    0    0  0.41614492030E+02 -0.14816744992E+02 -0.88210904756E+01  0.45045682548E+02  0.00000000000E+00 0. -1.
         11    1    3    3    0    0 -0.16066156159E+02  0.60946371057E+01  0.63517492443E+01  0.18319680507E+02  0.51100000000E-03 0. -1.
        -11    1    3    3    0    0 -0.10785019473E+02  0.52351052467E+00  0.35297545307E+00  0.10803485560E+02  0.51100000000E-03 0.  1.
        -12    1    3    3    0    0 -0.14763316398E+02  0.81985973618E+01  0.21163657783E+01  0.17019151385E+02  0.00000000000E+00 0.  1.
</event>
<event>
 7    1  0.1402367E-008  0.4614232E+02  0.7816164E-02  0.1320468E+00
        -11   -1    0    0    0    0  0.00000000000E+00  0.00000000000E+00  0.45593999997E+02  0.45594000000E+02  0.51100000000E-03 0. -1.
         11   -1    0    0    0    0 -0.00000000000E+00 -0.00000000000E+00 -0.45593999997E+02  0.45594000000E+02  0.51100000000E-03 0.  1.
    9900012    2    1    2    0    0 -0.21878023905E+02 -0.32497433796E+02 -0.22234709815E+02  0.46142318144E+02  0.10000003492E+02 0.  0.
         12    1    1    2    0    0  0.21878023905E+02  0.32497433796E+02  0.22234709815E+02  0.45045681856E+02  0.00000000000E+00 0. -1.
         11    1    3    3    0    0 -0.16846745078E+02 -0.18671727230E+02 -0.13732900849E+02  0.28653774332E+02  0.51100000000E-03 0. -1.
        -11    1    3    3    0    0 -0.53933944843E+01 -0.10048298018E+02 -0.55620212367E+01  0.12688304757E+02  0.51100000000E-03 0.  1.
         12    1    3    3    0    0  0.36211565717E+00 -0.37774085480E+01 -0.29397877296E+01  0.48002390548E+01  0.00000000000E+00 0. -1.
</event>
<event>
 7    1  0.1402367E-008  0.4614232E+02  0.7816164E-02  0.1320468E+00
        -11   -1    0    0    0    0  0.00000000000E+00  0.00000000000E+00  0.45593999997E+02  0.45594000000E+02  0.51100000000E-03 0. -1.
         11   -1    0    0    0    0 -0.00000000000E+00 -0.00000000000E+00 -0.45593999997E+02  0.45594000000E+02  0.51100000000E-03 0.  1.
    9900012    2    1    2    0    0 -0.19786357916E+02 -0.35576558784E+02 -0.19285279200E+02  0.46142317762E+02  0.10000000006E+02 0.  0.
         12    1    1    2    0    0  0.19786357916E+02  0.35576558784E+02  0.19285279200E+02  0.45045682238E+02  0.00000000000E+00 0. -1.
         11    1    3    3    0    0 -0.34324795583E+01 -0.28074295694E+01 -0.40115639914E+00  0.44524716083E+01  0.51100000000E-03 0. -1.
        -11    1    3    3    0    0 -0.31777258392E+01 -0.11666873719E+02 -0.82273160107E+01  0.14625409836E+02  0.51100000000E-03 0.  1.
        -12    1    3    3    0    0 -0.13176152519E+02 -0.21102255496E+02 -0.10656806790E+02  0.27064436317E+02  0.00000000000E+00 0.  1.
</event>
<event>
 7    1  0.1704926E-008  0.4614231E+02  0.7816164E-02  0.1320468E+00
        -11   -1    0    0    0    0  0.00000000000E+00  0.00000000000E+00  0.45593999997E+02  0.45594000000E+02  0.51100000000E-03 0. -1.
         11   -1    0    0    0    0 -0.00000000000E+00 -0.00000000000E+00 -0.45593999997E+02  0.45594000000E+02  0.51100000000E-03 0.  1.
    9900012    2    1    2    0    0 -0.14980475019E+02 -0.84006813891E+01 -0.41642858554E+02  0.46142314877E+02  0.99999737025E+01 0.  0.
         12    1    1    2    0    0  0.14980475019E+02  0.84006813891E+01  0.41642858554E+02  0.45045685123E+02  0.00000000000E+00 0. -1.
         11    1    3    3    0    0 -0.35221172303E+00  0.68030354496E+00 -0.84464277403E-01  0.77071427028E+00  0.51100000000E-03 0. -1.
        -11    1    3    3    0    0 -0.14102772177E+02 -0.98954922116E+01 -0.39001609932E+02  0.42637243423E+02  0.51100000000E-03 0.  1.
        -12    1    3    3    0    0 -0.52549111945E+00  0.81450727757E+00 -0.25567843454E+01  0.27343571842E+01  0.00000000000E+00 0.  1.
</event>
<event>
 7    1  0.1402367E-008  0.4614232E+02  0.7816164E-02  0.1320468E+00
        -11   -1    0    0    0    0  0.00000000000E+00  0.00000000000E+00  0.45593999997E+02  0.45594000000E+02  0.51100000000E-03 0. -1.
         11   -1    0    0    0    0 -0.00000000000E+00 -0.00000000000E+00 -0.45593999997E+02  0.45594000000E+02  0.51100000000E-03 0.  1.
    9900012    2    1    2    0    0  0.62695324881E+01 -0.21073727406E+02 -0.39315448059E+02  0.46142317849E+02  0.10000000801E+02 0.  0.
         12    1    1    2    0    0 -0.62695324881E+01  0.21073727406E+02  0.39315448059E+02  0.45045682151E+02  0.00000000000E+00 0. -1.
         11    1    3    3    0    0  0.43093472828E+01 -0.30459121259E+01 -0.13487619147E+02  0.14483229101E+02  0.51100000000E-03 0. -1.
        -11    1    3    3    0    0 -0.10933917444E+00 -0.31208062242E+01 -0.60268716715E+01  0.67878250530E+01  0.51100000000E-03 0.  1.
         12    1    3    3    0    0  0.20695243798E+01 -0.14907009056E+02 -0.19800957241E+02  0.24871263695E+02  0.00000000000E+00 0. -1.
</event>
<event>
 7    1  0.1402367E-008  0.4614232E+02  0.7816164E-02  0.1320468E+00
        -11   -1    0    0    0    0  0.00000000000E+00  0.00000000000E+00  0.45593999997E+02  0.45594000000E+02  0.51100000000E-03 0.  1.
         11   -1    0    0    0    0 -0.00000000000E+00 -0.00000000000E+00 -0.45593999997E+02  0.45594000000E+02  0.51100000000E-03 0. -1.
    9900012    2    1    2    0    0 -0.15671722461E+02 -0.27314732626E+02  0.32208940146E+02  0.46142319534E+02  0.10000016165E+02 0.  0.
         12    1    1    2    0    0  0.15671722461E+02  0.27314732626E+02 -0.32208940146E+02  0.45045680466E+02  0.00000000000E+00 0. -1.
         11    1    3    3    0    0 -0.44149161703E+01 -0.14111343941E+02  0.11654880131E+02  0.18827048195E+02  0.51100000000E-03 0. -1.
        -11    1    3    3    0    0 -0.87922522612E+01 -0.10290130884E+02  0.18669145005E+02  0.23059216572E+02  0.51100000000E-03 0.  1.
         12    1    3    3    0    0 -0.24645540298E+01 -0.29132578015E+01  0.18849150096E+01  0.42560547667E+01  0.00000000000E+00 0. -1.
</event>
<event>
 7    1  0.1402367E-008  0.4614232E+02  0.7816164E-02  0.1320468E+00
        -11   -1    0    0    0    0  0.00000000000E+00  0.00000000000E+00  0.45593999997E+02  0.45594000000E+02  0.51100000000E-03 0.  1.
         11   -1    0    0    0    0 -0.00000000000E+00 -0.00000000000E+00 -0.45593999997E+02  0.45594000000E+02  0.51100000000E-03 0. -1.
    9900012    2    1    2    0    0 -0.31188828197E+02  0.80293627361E+01  0.31494441112E+02  0.46142317730E+02  0.99999997122E+01 0.  0.
         12    1    1    2    0    0  0.31188828197E+02 -0.80293627361E+01 -0.31494441112E+02  0.45045682270E+02  0.00000000000E+00 0. -1.
         11    1    3    3    0    0 -0.12319999424E+02  0.87320034449E+00  0.64193388152E+01  0.13919510614E+02  0.51100000000E-03 0. -1.
        -11    1    3    3    0    0 -0.11171281308E+02  0.46069899433E+01  0.16044130924E+02  0.20085716810E+02  0.51100000000E-03 0.  1.
         12    1    3    3    0    0 -0.76975474653E+01  0.25491724484E+01  0.90309713720E+01  0.12137090305E+02  0.00000000000E+00 0. -1.
</event>
<event>
 7    1  0.1402367E-008  0.4614232E+02  0.7816164E-02  0.1320468E+00
        -11   -1    0    0    0    0  0.00000000000E+00  0.00000000000E+00  0.45593999997E+02  0.45594000000E+02  0.51100000000E-03 0.  1.
         11   -1    0    0    0    0 -0.00000000000E+00 -0.00000000000E+00 -0.45593999997E+02  0.45594000000E+02  0.51100000000E-03 0. -1.
    9900012    2    1    2    0    0  0.83297838363E+01 -0.44231117059E+02 -0.18265781295E+01  0.46142318712E+02  0.10000008673E+02 0.  0.
         12    1    1    2    0    0 -0.83297838363E+01  0.44231117059E+02  0.18265781295E+01  0.45045681288E+02  0.00000000000E+00 0. -1.
         11    1    3    3    0    0 -0.74009571388E-01 -0.31496876250E+01  0.10019333584E+01  0.33060369429E+01  0.51100000000E-03 0. -1.
        -11    1    3    3    0    0  0.50089388853E+01 -0.34636109546E+02 -0.47114584020E+01  0.35312142300E+02  0.51100000000E-03 0.  1.
        -12    1    3    3    0    0  0.33948545224E+01 -0.64453198874E+01  0.18829469141E+01  0.75241394698E+01  0.00000000000E+00 0.  1.
</event>
<event>
 7    1  0.1402367E-008  0.4614232E+02  0.7816164E-02  0.1320468E+00
        -11   -1    0    0    0    0  0.00000000000E+00  0.00000000000E+00  0.45593999997E+02  0.45594000000E+02  0.51100000000E-03 0.  1.
         11   -1    0    0    0    0 -0.00000000000E+00 -0.00000000000E+00 -0.45593999997E+02  0.45594000000E+02  0.51100000000E-03 0. -1.
    9900012    2    1    2    0    0 -0.21895572149E+02  0.13000203669E+02  0.37157665443E+02  0.46142317895E+02  0.10000001220E+02 0.  0.
         12    1    1    2    0    0  0.21895572149E+02 -0.13000203669E+02 -0.37157665443E+02  0.45045682105E+02  0.00000000000E+00 0. -1.
         11    1    3    3    0    0 -0.56137269272E+01  0.81063614899E+01  0.15134281944E+02  0.18063042846E+02  0.51100000000E-03 0.  1.
        -11    1    3    3    0    0 -0.48637370322E+01  0.18552362613E+01  0.41683927769E+01  0.66688333393E+01  0.51100000000E-03 0. -1.
         12    1    3    3    0    0 -0.11418108189E+02  0.30386059179E+01  0.17854990721E+02  0.21410441710E+02  0.00000000000E+00 0. -1.
</event>
<event>
 7    1  0.1402367E-008  0.4614232E+02  0.7816164E-02  0.1320468E+00
        -11   -1    0    0    0    0  0.00000000000E+00  0.00000000000E+00  0.45593999997E+02  0.45594000000E+02  0.51100000000E-03 0. -1.
         11   -1    0    0    0    0 -0.00000000000E+00 -0.00000000000E+00 -0.45593999997E+02  0.45594000000E+02  0.51100000000E-03 0.  1.
    9900012    2    1    2    0    0 -0.18154611155E+02  0.37509935705E+02  0.17103454138E+02  0.46142319561E+02  0.10000016411E+02 0.  0.
         12    1    1    2    0    0  0.18154611155E+02 -0.37509935705E+02 -0.17103454138E+02  0.45045680439E+02  0.00000000000E+00 0. -1.
         11    1    3    3    0    0  0.11329647511E+00 -0.26346025554E+00  0.54229315540E+00  0.61345702786E+00  0.51100000000E-03 0. -1.
        -11    1    3    3    0    0 -0.77149435662E+01  0.10144412441E+02  0.63574187839E+01  0.14242409623E+02  0.51100000000E-03 0.  1.
         12    1    3    3    0    0 -0.10552964064E+02  0.27628983519E+02  0.10203742198E+02  0.31286452910E+02  0.00000000000E+00 0. -1.
</event>
<event>
 7    1  0.1402367E-008  0.4614232E+02  0.7816164E-02  0.1320468E+00
        -11   -1    0    0    0    0  0.00000000000E+00  0.00000000000E+00  0.45593999997E+02  0.45594000000E+02  0.51100000000E-03 0. -1.
         11   -1    0    0    0    0 -0.00000000000E+00 -0.00000000000E+00 -0.45593999997E+02  0.45594000000E+02  0.51100000000E-03 0.  1.
    9900012    2    1    2    0    0 -0.37013892189E+02  0.80917064840E+01 -0.24364104281E+02  0.46142317563E+02  0.99999981902E+01 0.  0.
         12    1    1    2    0    0  0.37013892189E+02 -0.80917064840E+01  0.24364104281E+02  0.45045682437E+02  0.00000000000E+00 0. -1.
         11    1    3    3    0    0 -0.43488165656E+00  0.19389618671E+01 -0.19625144990E+01  0.27928764020E+01  0.51100000000E-03 0. -1.
        -11    1    3    3    0    0 -0.33093562182E+02  0.55316453828E+01 -0.19840402108E+02  0.38979796236E+02  0.51100000000E-03 0.  1.
         12    1    3    3    0    0 -0.34854483503E+01  0.62109923420E+00 -0.25611876742E+01  0.43696449242E+01  0.00000000000E+00 0. -1.
</event>
<event>
 7    1  0.1402367E-008  0.4614232E+02  0.7816164E-02  0.1320468E+00
        -11   -1    0    0    0    0  0.00000000000E+00  0.00000000000E+00  0.45593999997E+02  0.45594000000E+02  0.51100000000E-03 0.  1.
         11   -1    0    0    0    0 -0.00000000000E+00 -0.00000000000E+00 -0.45593999997E+02  0.45594000000E+02  0.51100000000E-03 0. -1.
    9900012    2    1    2    0    0  0.22519449387E+02  0.52864507145E+01  0.38652829497E+02  0.46142318853E+02  0.10000009956E+02 0.  0.
         12    1    1    2    0    0 -0.22519449387E+02 -0.52864507145E+01 -0.38652829497E+02  0.45045681147E+02  0.00000000000E+00 0. -1.
         11    1    3    3    0    0 -0.83695931498E+00  0.35177431974E+00  0.85200974668E+00  0.12450570013E+01  0.51100000000E-03 0. -1.
        -11    1    3    3    0    0  0.15808478816E+02  0.52007899795E+01  0.24937098378E+02  0.29980245073E+02  0.51100000000E-03 0.  1.
         12    1    3    3    0    0  0.75479298866E+01 -0.26611358473E+00  0.12863721372E+02  0.14917016778E+02  0.00000000000E+00 0. -1.
</event>
<event>
 7    1  0.1402367E-008  0.4614233E+02  0.7816164E-02  0.1320468E+00
        -11   -1    0    0    0    0  0.00000000000E+00  0.00000000000E+00  0.45593999997E+02  0.45594000000E+02  0.51100000000E-03 0.  1.
         11   -1    0    0    0    0 -0.00000000000E+00 -0.00000000000E+00 -0.45593999997E+02  0.45594000000E+02  0.51100000000E-03 0. -1.
    9900012    2    1    2    0    0 -0.12193440815E+02  0.62593388508E-01  0.43363908927E+02  0.46142328574E+02  0.10000098596E+02 0.  0.
         12    1    1    2    0    0  0.12193440815E+02 -0.62593388508E-01 -0.43363908927E+02  0.45045671426E+02  0.00000000000E+00 0. -1.
         11    1    3    3    0    0 -0.14027934628E+01 -0.22624679676E+01  0.14445569136E+02  0.14688807260E+02  0.51100000000E-03 0. -1.
        -11    1    3    3    0    0 -0.57208674200E+01 -0.10751942956E+01  0.18323415115E+02  0.19225813599E+02  0.51100000000E-03 0.  1.
         12    1    3    3    0    0 -0.50697799320E+01  0.34002556517E+01  0.10594924676E+02  0.12227707715E+02  0.00000000000E+00 0. -1.
</event>
<event>
 7    1  0.1840027E-008  0.4614232E+02  0.7816164E-02  0.1320468E+00
        -11   -1    0    0    0    0  0.00000000000E+00  0.00000000000E+00  0.45593999997E+02  0.45594000000E+02  0.51100000000E-03 0.  1.
         11   -1    0    0    0    0 -0.00000000000E+00 -0.00000000000E+00 -0.45593999997E+02  0.45594000000E+02  0.51100000000E-03 0. -1.
    9900012    2    1    2    0    0 -0.76947811591E+01  0.40551779392E+02  0.18040424242E+02  0.46142319011E+02  0.10000011400E+02 0.  0.
         12    1    1    2    0    0  0.76947811591E+01 -0.40551779392E+02 -0.18040424242E+02  0.45045680989E+02  0.00000000000E+00 0. -1.
         11    1    3    3    0    0 -0.32307634356E-01  0.45040074000E+01  0.46938251897E+01  0.65053148744E+01  0.51100000000E-03 0. -1.
        -11    1    3    3    0    0 -0.86068875390E+01  0.32129542667E+02  0.11405530550E+02  0.35163505975E+02  0.51100000000E-03 0.  1.
        -12    1    3    3    0    0  0.94441401427E+00  0.39182293249E+01  0.19410685020E+01  0.44734981616E+01  0.00000000000E+00 0.  1.
</event>
<event>
 7    1  0.1402367E-008  0.4614232E+02  0.7816164E-02  0.1320468E+00
        -11   -1    0    0    0    0  0.00000000000E+00  0.00000000000E+00  0.45593999997E+02  0.45594000000E+02  0.51100000000E-03 0.  1.
         11   -1    0    0    0    0 -0.00000000000E+00 -0.00000000000E+00 -0.45593999997E+02  0.45594000000E+02  0.51100000000E-03 0. -1.
    9900012    2    1    2    0    0 -0.10038791143E+02  0.56012190995E+01  0.43554133551E+02  0.46142317272E+02  0.99999955423E+01 0.  0.
         12    1    1    2    0    0  0.10038791143E+02 -0.56012190995E+01 -0.43554133551E+02  0.45045682728E+02  0.00000000000E+00 0. -1.
         11    1    3    3    0    0 -0.55886127667E+01  0.29255192107E+01  0.16873572472E+02  0.18014125111E+02  0.51100000000E-03 0.  1.
        -11    1    3    3    0    0 -0.28631257653E+01  0.38034962182E+01  0.77334926107E+01  0.90813534702E+01  0.51100000000E-03 0. -1.
        -12    1    3    3    0    0 -0.15870526112E+01 -0.11277963294E+01  0.18947068469E+02  0.19046838691E+02  0.00000000000E+00 0.  1.
</event>
<event>
 7    1  0.1402367E-008  0.4614232E+02  0.7816164E-02  0.1320468E+00
        -11   -1    0    0    0    0  0.00000000000E+00  0.00000000000E+00  0.45593999997E+02  0.45594000000E+02  0.51100000000E-03 0.  1.
         11   -1    0    0    0    0 -0.00000000000E+00 -0.00000000000E+00 -0.45593999997E+02  0.45594000000E+02  0.51100000000E-03 0. -1.
    9900012    2    1    2    0    0 -0.63013599762E+01  0.34655327951E+02  0.28078723687E+02  0.46142316335E+02  0.99999869942E+01 0.  0.
         12    1    1    2    0    0  0.63013599762E+01 -0.34655327951E+02 -0.28078723687E+02  0.45045683665E+02  0.00000000000E+00 0. -1.
         11    1    3    3    0    0 -0.19052025208E+01  0.97058722949E+01  0.41982282415E+01  0.10745179118E+02  0.51100000000E-03 0.  1.
        -11    1    3    3    0    0  0.13916753456E+01  0.58249502608E+01  0.39428254442E+01  0.71702634926E+01  0.51100000000E-03 0. -1.
        -12    1    3    3    0    0 -0.57878328010E+01  0.19124505396E+02  0.19937670001E+02  0.28226873724E+02  0.00000000000E+00 0.  1.
</event>
<event>
 7    1  0.1402367E-008  0.4614232E+02  0.7816164E-02  0.1320468E+00
        -11   -1    0    0    0    0  0.00000000000E+00  0.00000000000E+00  0.45593999997E+02  0.45594000000E+02  0.51100000000E-03 0.  1.
         11   -1    0    0    0    0 -0.00000000000E+00 -0.00000000000E+00 -0.45593999997E+02  0.45594000000E+02  0.51100000000E-03 0. -1.
    9900012    2    1    2    0    0  0.35179397016E+02  0.12837970545E+02  0.25034176807E+02  0.46142317959E+02  0.10000001805E+02 0.  0.
         12    1    1    2    0    0 -0.35179397016E+02 -0.12837970545E+02 -0.25034176807E+02  0.45045682041E+02  0.00000000000E+00 0. -1.
         11    1    3    3    0    0  0.18804588409E+02  0.54707518924E+01  0.95515787100E+01  0.21789316823E+02  0.51100000000E-03 0. -1.
        -11    1    3    3    0    0  0.13304225514E+02  0.53442908684E+01  0.90836815450E+01  0.16972835122E+02  0.51100000000E-03 0.  1.
         12    1    3    3    0    0  0.30705830930E+01  0.20229277845E+01  0.63989165518E+01  0.73801660137E+01  0.00000000000E+00 0. -1.
</event>
<event>
 7    1  0.1402367E-008  0.4614231E+02  0.7816164E-02  0.1320468E+00
        -11   -1    0    0    0    0  0.00000000000E+00  0.00000000000E+00  0.45593999997E+02  0.45594000000E+02  0.51100000000E-03 0.  1.
         11   -1    0    0    0    0 -0.00000000000E+00 -0.00000000000E+00 -0.45593999997E+02  0.45594000000E+02  0.51100000000E-03 0. -1.
    9900012    2    1    2    0    0 -0.92260330877E+01  0.13716134520E+01  0.44069410174E+02  0.46142312936E+02  0.99999559962E+01 0.  0.
         12    1    1    2    0    0  0.92260330877E+01 -0.13716134520E+01 -0.44069410174E+02  0.45045687064E+02  0.00000000000E+00 0. -1.
         11    1    3    3    0    0  0.55772292032E+00 -0.78953773712E-01  0.27128181863E+01  0.27706806613E+01  0.51100000000E-03 0. -1.
        -11    1    3    3    0    0 -0.15217954878E+01  0.40508401669E+01  0.16086926741E+02  0.16658762853E+02  0.51100000000E-03 0.  1.
        -12    1    3    3    0    0 -0.82619605202E+01 -0.26002729412E+01  0.25269665247E+02  0.26712869421E+02  0.00000000000E+00 0.  1.
</event>
<event>
 7    1  0.1402367E-008  0.4614232E+02  0.7816164E-02  0.1320468E+00
        -11   -1    0    0    0    0  0.00000000000E+00  0.00000000000E+00  0.45593999997E+02  0.45594000000E+02  0.51100000000E-03 0.  1.
         11   -1    0    0    0    0 -0.00000000000E+00 -0.00000000000E+00 -0.45593999997E+02  0.45594000000E+02  0.51100000000E-03 0. -1.
    9900012    2    1    2    0    0  0.42609500371E+02 -0.10542780458E+02 -0.10118974350E+02  0.46142318925E+02  0.10000010609E+02 0.  0.
         12    1    1    2    0    0 -0.42609500371E+02  0.10542780458E+02  0.10118974350E+02  0.45045681075E+02  0.00000000000E+00 0. -1.
         11    1    3    3    0    0  0.24408425958E+01  0.13261064024E+01 -0.12708819086E+01  0.30547359714E+01  0.51100000000E-03 0. -1.
        -11    1    3    3    0    0  0.81897625883E+01 -0.33643631785E+01 -0.37137206183E+01  0.96011911730E+01  0.51100000000E-03 0.  1.
        -12    1    3    3    0    0  0.31978895187E+02 -0.85045236815E+01 -0.51343718226E+01  0.33486391780E+02  0.00000000000E+00 0.  1.
</event>
<event>
 7    1  0.1402367E-008  0.4614232E+02  0.7816164E-02  0.1320468E+00
        -11   -1    0    0    0    0  0.00000000000E+00  0.00000000000E+00  0.45593999997E+02  0.45594000000E+02  0.51100000000E-03 0.  1.
         11   -1    0    0    0    0 -0.00000000000E+00 -0.00000000000E+00 -0.45593999997E+02  0.45594000000E+02  0.51100000000E-03 0. -1.
    9900012    2    1    2    0    0  0.21621662591E+02  0.27585338226E+01  0.39420904237E+02  0.46142317710E+02  0.99999995382E+01 0.  0.
         12    1    1    2    0    0 -0.21621662591E+02 -0.27585338226E+01 -0.39420904237E+02  0.45045682290E+02  0.00000000000E+00 0. -1.
         11    1    3    3    0    0  0.25317045214E+01  0.31247372941E+01  0.11870008581E+02  0.12532781612E+02  0.51100000000E-03 0. -1.
        -11    1    3    3    0    0  0.10933766405E+02 -0.11017526847E+01  0.14342756720E+02  0.18068640717E+02  0.51100000000E-03 0.  1.
         12    1    3    3    0    0  0.81561916651E+01  0.73554921322E+00  0.13208138936E+02  0.15540895382E+02  0.00000000000E+00 0. -1.
</event>
<event>
 7    1  0.1402367E-008  0.4614232E+02  0.7816164E-02  0.1320468E+00
        -11   -1    0    0    0    0  0.00000000000E+00  0.00000000000E+00  0.45593999997E+02  0.45594000000E+02  0.51100000000E-03 0.  1.
         11   -1    0    0    0    0 -0.00000000000E+00 -0.00000000000E+00 -0.45593999997E+02  0.45594000000E+02  0.51100000000E-03 0. -1.
    9900012    2    1    2    0    0 -0.38111321081E+02 -0.37144582775E+01  0.23724322324E+02  0.46142318025E+02  0.10000002409E+02 0.  0.
         12    1    1    2    0    0  0.38111321081E+02  0.37144582775E+01 -0.23724322324E+02  0.45045681975E+02  0.00000000000E+00 0. -1.
         11    1    3    3    0    0 -0.19814762640E+02 -0.32347537330E+01  0.76309869258E+01  0.21478370793E+02  0.51100000000E-03 0. -1.
        -11    1    3    3    0    0 -0.11783223036E+02 -0.58253436564E+00  0.12642977131E+02  0.17292442349E+02  0.51100000000E-03 0.  1.
        -12    1    3    3    0    0 -0.65133354056E+01  0.10282982119E+00  0.34503582668E+01  0.73715048834E+01  0.00000000000E+00 0.  1.
</event>
<event>
 7    1  0.1402367E-008  0.4614232E+02  0.7816164E-02  0.1320468E+00
        -11   -1    0    0    0    0  0.00000000000E+00  0.00000000000E+00  0.45593999997E+02  0.45594000000E+02  0.51100000000E-03 0.  1.
         11   -1    0    0    0    0 -0.00000000000E+00 -0.00000000000E+00 -0.45593999997E+02  0.45594000000E+02  0.51100000000E-03 0. -1.
    9900012    2    1    2    0    0  0.35345532212E+02 -0.25839524650E+02 -0.10588942264E+02  0.46142318967E+02  0.10000010994E+02 0.  0.
         12    1    1    2    0    0 -0.35345532212E+02  0.25839524650E+02  0.10588942264E+02  0.45045681033E+02  0.00000000000E+00 0. -1.
         11    1    3    3    0    0  0.19611290530E+02 -0.10543826049E+02 -0.43230365990E+01  0.22681790708E+02  0.51100000000E-03 0.  1.
        -11    1    3    3    0    0  0.12722833798E+02 -0.13411946741E+02 -0.71149388935E+01  0.19808411621E+02  0.51100000000E-03 0. -1.
        -12    1    3    3    0    0  0.30114078841E+01 -0.18837518591E+01  0.84903322888E+00  0.36521166377E+01  0.00000000000E+00 0.  1.
</event>
<event>
 7    1  0.1402367E-008  0.4614232E+02  0.7816164E-02  0.1320468E+00
        -11   -1    0    0    0    0  0.00000000000E+00  0.00000000000E+00  0.45593999997E+02  0.45594000000E+02  0.51100000000E-03 0. -1.
         11   -1    0    0    0    0 -0.00000000000E+00 -0.00000000000E+00 -0.45593999997E+02  0.45594000000E+02  0.51100000000E-03 0.  1.
    9900012    2    1    2    0    0 -0.22501310326E+02  0.36688847232E+02 -0.13294094086E+02  0.46142318574E+02  0.10000007408E+02 0.  0.
         12    1    1    2    0    0  0.22501310326E+02 -0.36688847232E+02  0.13294094086E+02  0.45045681426E+02  0.00000000000E+00 0. -1.
         11    1    3    3    0    0 -0.69272909466E+01  0.16054854550E+02 -0.85555628654E+01  0.19466467853E+02  0.51100000000E-03 0. -1.
        -11    1    3    3    0    0 -0.60002851224E+01  0.11000846330E+02 -0.90338437445E+00  0.12563365198E+02  0.51100000000E-03 0.  1.
         12    1    3    3    0    0 -0.95737342570E+01  0.96331463525E+01 -0.38351468461E+01  0.14112485522E+02  0.00000000000E+00 0. -1.
</event>
<event>
 7    1  0.1402367E-008  0.4614232E+02  0.7816164E-02  0.1320468E+00
        -11   -1    0    0    0    0  0.00000000000E+00  0.00000000000E+00  0.45593999997E+02  0.45594000000E+02  0.51100000000E-03 0.  1.
         11   -1    0    0    0    0 -0.00000000000E+00 -0.00000000000E+00 -0.45593999997E+02  0.45594000000E+02  0.51100000000E-03 0. -1.
    9900012    2    1    2    0    0 -0.27046574405E+02  0.18054013410E+02  0.31171283450E+02  0.46142317641E+02  0.99999989085E+01 0.  0.
         12    1    1    2    0    0  0.27046574405E+02 -0.18054013410E+02 -0.31171283450E+02  0.45045682359E+02  0.00000000000E+00 0. -1.
         11    1    3    3    0    0 -0.49645429126E+01  0.29888388149E+00  0.54400076313E+01  0.73708684153E+01  0.51100000000E-03 0. -1.
        -11    1    3    3    0    0 -0.14500967199E+02  0.15132605790E+02  0.19267835363E+02  0.28469690682E+02  0.51100000000E-03 0.  1.
        -12    1    3    3    0    0 -0.75810642935E+01  0.26225237388E+01  0.64634404555E+01  0.10301758544E+02  0.00000000000E+00 0.  1.
</event>
<event>
 7    1  0.1402367E-008  0.4614232E+02  0.7816164E-02  0.1320468E+00
        -11   -1    0    0    0    0  0.00000000000E+00  0.00000000000E+00  0.45593999997E+02  0.45594000000E+02  0.51100000000E-03 0.  1.
         11   -1    0    0    0    0 -0.00000000000E+00 -0.00000000000E+00 -0.45593999997E+02  0.45594000000E+02  0.51100000000E-03 0. -1.
    9900012    2    1    2    0    0  0.20205050862E+01 -0.97300140369E+01  0.43935838544E+02  0.46142317382E+02  0.99999965394E+01 0.  0.
         12    1    1    2    0    0 -0.20205050862E+01  0.97300140369E+01 -0.43935838544E+02  0.45045682618E+02  0.00000000000E+00 0. -1.
         11    1    3    3    0    0 -0.17031580911E+01 -0.25132111061E+01  0.54890882480E+01  0.62727240975E+01  0.51100000000E-03 0. -1.
        -11    1    3    3    0    0  0.40413568489E+01 -0.46131776664E+01  0.35026507322E+02  0.35559389601E+02  0.51100000000E-03 0.  1.
        -12    1    3    3    0    0 -0.31769367156E+00 -0.26036252644E+01  0.34202429744E+01  0.43102036832E+01  0.00000000000E+00 0.  1.
</event>
<event>
 7    1  0.1402367E-008  0.4614232E+02  0.7816164E-02  0.1320468E+00
        -11   -1    0    0    0    0  0.00000000000E+00  0.00000000000E+00  0.45593999997E+02  0.45594000000E+02  0.51100000000E-03 0.  1.
         11   -1    0    0    0    0 -0.00000000000E+00 -0.00000000000E+00 -0.45593999997E+02  0.45594000000E+02  0.51100000000E-03 0. -1.
    9900012    2    1    2    0    0 -0.20245693129E+02 -0.32567613195E+02  0.23634210766E+02  0.46142318319E+02  0.10000005092E+02 0.  0.
         12    1    1    2    0    0  0.20245693129E+02  0.32567613195E+02 -0.23634210766E+02  0.45045681681E+02  0.00000000000E+00 0. -1.
         11    1    3    3    0    0 -0.19471681671E+02 -0.26050410638E+02  0.19148716515E+02  0.37741802102E+02  0.51100000000E-03 0. -1.
        -11    1    3    3    0    0 -0.60245041307E+00 -0.24547739061E+01  0.33162355783E+01  0.41696858517E+01  0.51100000000E-03 0.  1.
         12    1    3    3    0    0 -0.17156104578E+00 -0.40624286515E+01  0.11692586733E+01  0.42308303660E+01  0.00000000000E+00 0. -1.
</event>
<event>
 7    1  0.1402367E-008  0.4614232E+02  0.7816164E-02  0.1320468E+00
        -11   -1    0    0    0    0  0.00000000000E+00  0.00000000000E+00  0.45593999997E+02  0.45594000000E+02  0.51100000000E-03 0. -1.
         11   -1    0    0    0    0 -0.00000000000E+00 -0.00000000000E+00 -0.45593999997E+02  0.45594000000E+02  0.51100000000E-03 0.  1.
    9900012    2    1    2    0    0 -0.16112540722E+01 -0.81848776065E+01 -0.44266521859E+02  0.46142319646E+02  0.10000017186E+02 0.  0.
         12    1    1    2    0    0  0.16112540722E+01  0.81848776065E+01  0.44266521859E+02  0.45045680354E+02  0.00000000000E+00 0. -1.
         11    1    3    3    0    0  0.14777775429E+01  0.49680219953E+00 -0.68642456429E+01  0.70390700663E+01  0.51100000000E-03 0. -1.
        -11    1    3    3    0    0 -0.36330423542E+01 -0.18146932334E+01 -0.19565759593E+02  0.19982769002E+02  0.51100000000E-03 0.  1.
         12    1    3    3    0    0  0.54401073910E+00 -0.68669865726E+01 -0.17836516622E+02  0.19120480577E+02  0.00000000000E+00 0. -1.
</event>
<event>
 7    1  0.1402367E-008  0.4614232E+02  0.7816164E-02  0.1320468E+00
        -11   -1    0    0    0    0  0.00000000000E+00  0.00000000000E+00  0.45593999997E+02  0.45594000000E+02  0.51100000000E-03 0.  1.
         11   -1    0    0    0    0 -0.00000000000E+00 -0.00000000000E+00 -0.45593999997E+02  0.45594000000E+02  0.51100000000E-03 0. -1.
    9900012    2    1    2    0    0  0.77786108518E+01 -0.42051100868E+02  0.14153147836E+02  0.46142318024E+02  0.10000002399E+02 0.  0.
         12    1    1    2    0    0 -0.77786108518E+01  0.42051100868E+02 -0.14153147836E+02  0.45045681976E+02  0.00000000000E+00 0. -1.
         11    1    3    3    0    0  0.62710994378E+00 -0.10109769633E+02  0.61086821332E+01  0.11828639253E+02  0.51100000000E-03 0. -1.
        -11    1    3    3    0    0  0.33181310407E+01 -0.26280832518E+02  0.69924748286E+01  0.27396840254E+02  0.51100000000E-03 0.  1.
        -12    1    3    3    0    0  0.38333698674E+01 -0.56604987167E+01  0.10519908739E+01  0.69168385163E+01  0.00000000000E+00 0.  1.
</event>
<event>
 7    1  0.1402367E-008  0.4614232E+02  0.7816164E-02  0.1320468E+00
        -11   -1    0    0    0    0  0.00000000000E+00  0.00000000000E+00  0.45593999997E+02  0.45594000000E+02  0.51100000000E-03 0.  1.
         11   -1    0    0    0    0 -0.00000000000E+00 -0.00000000000E+00 -0.45593999997E+02  0.45594000000E+02  0.51100000000E-03 0. -1.
    9900012    2    1    2    0    0 -0.29729188284E+01  0.10150481553E+02  0.43786332860E+02  0.46142317993E+02  0.10000002117E+02 0.  0.
         12    1    1    2    0    0  0.29729188284E+01 -0.10150481553E+02 -0.43786332860E+02  0.45045682007E+02  0.00000000000E+00 0. -1.
         11    1    3    3    0    0  0.12848553804E+01  0.43632148402E+01  0.92986841791E+01  0.10351522826E+02  0.51100000000E-03 0. -1.
        -11    1    3    3    0    0 -0.10425954904E+01  0.59776908022E+01  0.26334225575E+02  0.27024271120E+02  0.51100000000E-03 0.  1.
         12    1    3    3    0    0 -0.32151787184E+01 -0.19042408946E+00  0.81534231064E+01  0.87665240476E+01  0.00000000000E+00 0. -1.
</event>
<event>
 7    1  0.1402367E-008  0.4614232E+02  0.7816164E-02  0.1320468E+00
        -11   -1    0    0    0    0  0.00000000000E+00  0.00000000000E+00  0.45593999997E+02  0.45594000000E+02  0.51100000000E-03 0.  1.
         11   -1    0    0    0    0 -0.00000000000E+00 -0.00000000000E+00 -0.45593999997E+02  0.45594000000E+02  0.51100000000E-03 0. -1.
    9900012    2    1    2    0    0  0.47856427425E+01  0.14217168652E+02  0.42474500053E+02  0.46142318568E+02  0.10000007355E+02 0.  0.
         12    1    1    2    0    0 -0.47856427425E+01 -0.14217168652E+02 -0.42474500053E+02  0.45045681432E+02  0.00000000000E+00 0. -1.
         11    1    3    3    0    0  0.56297353415E+01  0.77124533278E+01  0.29106583171E+02  0.30632809870E+02  0.51100000000E-03 0. -1.
        -11    1    3    3    0    0  0.97503962181E+00  0.58000461165E+01  0.10614577000E+02  0.12135093010E+02  0.51100000000E-03 0.  1.
         12    1    3    3    0    0 -0.18191322208E+01  0.70466920811E+00  0.27533398822E+01  0.33744156882E+01  0.00000000000E+00 0. -1.
</event>
<event>
 7    1  0.1402367E-008  0.4614232E+02  0.7816164E-02  0.1320468E+00
        -11   -1    0    0    0    0  0.00000000000E+00  0.00000000000E+00  0.45593999997E+02  0.45594000000E+02  0.51100000000E-03 0. -1.
         11   -1    0    0    0    0 -0.00000000000E+00 -0.00000000000E+00 -0.45593999997E+02  0.45594000000E+02  0.51100000000E-03 0.  1.
    9900012    2    1    2    0    0 -0.14037526426E+02  0.10527643092E+02 -0.41487710242E+02  0.46142317428E+02  0.99999969648E+01 0.  0.
         12    1    1    2    0    0  0.14037526426E+02 -0.10527643092E+02  0.41487710242E+02  0.45045682572E+02  0.00000000000E+00 0. -1.
         11    1    3    3    0    0 -0.22376166968E+01  0.14446925718E+01 -0.45340479910E+01  0.52584842450E+01  0.51100000000E-03 0. -1.
        -11    1    3    3    0    0 -0.65605118410E+01  0.99586674783E+01 -0.28568813505E+02  0.30957914641E+02  0.51100000000E-03 0.  1.
        -12    1    3    3    0    0 -0.52393978885E+01 -0.87571695768E+00 -0.83848487458E+01  0.99259185426E+01  0.00000000000E+00 0.  1.
</event>
<event>
 7    1  0.1402367E-008  0.4614232E+02  0.7816164E-02  0.1320468E+00
        -11   -1    0    0    0    0  0.00000000000E+00  0.00000000000E+00  0.45593999997E+02  0.45594000000E+02  0.51100000000E-03 0.  1.
         11   -1    0    0    0    0 -0.00000000000E+00 -0.00000000000E+00 -0.45593999997E+02  0.45594000000E+02  0.51100000000E-03 0. -1.
    9900012    2    1    2    0    0  0.31796251877E+02 -0.15724238468E+02  0.27764369976E+02  0.46142317088E+02  0.99999938653E+01 0.  0.
         12    1    1    2    0    0 -0.31796251877E+02  0.15724238468E+02 -0.27764369976E+02  0.45045682912E+02  0.00000000000E+00 0. -1.
         11    1    3    3    0    0  0.31622623888E+01 -0.64414646046E+00  0.25878224047E+00  0.32375602832E+01  0.51100000000E-03 0. -1.
        -11    1    3    3    0    0  0.93276096298E+00  0.58075407661E+00  0.10902863791E+01  0.15479156828E+01  0.51100000000E-03 0.  1.
         12    1    3    3    0    0  0.27701228525E+02 -0.15660846085E+02  0.26415301356E+02  0.41356841122E+02  0.00000000000E+00 0. -1.
</event>
<event>
 7    1  0.1402367E-008  0.4614232E+02  0.7816164E-02  0.1320468E+00
        -11   -1    0    0    0    0  0.00000000000E+00  0.00000000000E+00  0.45593999997E+02  0.45594000000E+02  0.51100000000E-03 0. -1.
         11   -1    0    0    0    0 -0.00000000000E+00 -0.00000000000E+00 -0.45593999997E+02  0.45594000000E+02  0.51100000000E-03 0.  1.
    9900012    2    1    2    0    0 -0.28517047319E+02 -0.67990326166E+00 -0.34863007644E+02  0.46142316985E+02  0.99999929257E+01 0.  0.
         12    1    1    2    0    0  0.28517047319E+02  0.67990326166E+00  0.34863007644E+02  0.45045683015E+02  0.00000000000E+00 0. -1.
         11    1    3    3    0    0 -0.12206451714E+02 -0.39653583553E+01 -0.11894895829E+02  0.17498859317E+02  0.51100000000E-03 0. -1.
        -11    1    3    3    0    0 -0.84250416788E+01 -0.10221292293E+00 -0.97834855418E+01  0.12911559332E+02  0.51100000000E-03 0.  1.
         12    1    3    3    0    0 -0.78855539262E+01  0.33876680166E+01 -0.13184626273E+02  0.15731898337E+02  0.00000000000E+00 0. -1.
</event>
<event>
 7    1  0.1402367E-008  0.4614232E+02  0.7816164E-02  0.1320468E+00
        -11   -1    0    0    0    0  0.00000000000E+00  0.00000000000E+00  0.45593999997E+02  0.45594000000E+02  0.51100000000E-03 0. -1.
         11   -1    0    0    0    0 -0.00000000000E+00 -0.00000000000E+00 -0.45593999997E+02  0.45594000000E+02  0.51100000000E-03 0.  1.
    9900012    2    1    2    0    0  0.57365021240E+01 -0.19797397585E+02 -0.40053328398E+02  0.46142317371E+02  0.99999964449E+01 0.  0.
         12    1    1    2    0    0 -0.57365021240E+01  0.19797397585E+02  0.40053328398E+02  0.45045682629E+02  0.00000000000E+00 0. -1.
         11    1    3    3    0    0 -0.17925749857E+01 -0.96333599685E+01 -0.14785236515E+02  0.17737479201E+02  0.51100000000E-03 0. -1.
        -11    1    3    3    0    0  0.34950252494E+01 -0.62615282499E+01 -0.16543028468E+02  0.18030355756E+02  0.51100000000E-03 0.  1.
         12    1    3    3    0    0  0.40340518604E+01 -0.39025093663E+01 -0.87250634149E+01  0.10374482414E+02  0.00000000000E+00 0. -1.
</event>
<event>
 7    1  0.1402367E-008  0.4614232E+02  0.7816164E-02  0.1320468E+00
        -11   -1    0    0    0    0  0.00000000000E+00  0.00000000000E+00  0.45593999997E+02  0.45594000000E+02  0.51100000000E-03 0. -1.
         11   -1    0    0    0    0 -0.00000000000E+00 -0.00000000000E+00 -0.45593999997E+02  0.45594000000E+02  0.51100000000E-03 0.  1.
    9900012    2    1    2    0    0  0.42571944275E+02  0.55949371308E+01 -0.13617627543E+02  0.46142317180E+02  0.99999947000E+01 0.  0.
         12    1    1    2    0    0 -0.42571944275E+02 -0.55949371308E+01  0.13617627543E+02  0.45045682820E+02  0.00000000000E+00 0. -1.
         11    1    3    3    0    0  0.53321324606E+01  0.14144747791E+01 -0.48859474400E-01  0.55167710654E+01  0.51100000000E-03 0. -1.
        -11    1    3    3    0    0  0.32636107488E+02  0.49649825226E+01 -0.14155840664E+02  0.35918719195E+02  0.51100000000E-03 0.  1.
        -12    1    3    3    0    0  0.46037043259E+01 -0.78452017093E+00  0.58707259555E+00  0.47068269196E+01  0.00000000000E+00 0.  1.
</event>
<event>
 7    1  0.1402367E-008  0.4614232E+02  0.7816164E-02  0.1320468E+00
        -11   -1    0    0    0    0  0.00000000000E+00  0.00000000000E+00  0.45593999997E+02  0.45594000000E+02  0.51100000000E-03 0.  1.
         11   -1    0    0    0    0 -0.00000000000E+00 -0.00000000000E+00 -0.45593999997E+02  0.45594000000E+02  0.51100000000E-03 0. -1.
    9900012    2    1    2    0    0  0.35835702957E+02  0.20486805877E+02  0.18033486123E+02  0.46142318262E+02  0.10000004570E+02 0.  0.
         12    1    1    2    0    0 -0.35835702957E+02 -0.20486805877E+02 -0.18033486123E+02  0.45045681738E+02  0.00000000000E+00 0. -1.
         11    1    3    3    0    0  0.27806405356E+02  0.14628105483E+02  0.11979656038E+02  0.33625731336E+02  0.51100000000E-03 0.  1.
        -11    1    3    3    0    0  0.10738809713E+01  0.19542131724E+01  0.34839340147E+01  0.41364194594E+01  0.51100000000E-03 0. -1.
         12    1    3    3    0    0  0.69554166305E+01  0.39044872207E+01  0.25698960700E+01  0.83801674667E+01  0.00000000000E+00 0. -1.
</event>
<event>
 7    1  0.1402367E-008  0.4614232E+02  0.7816164E-02  0.1320468E+00
        -11   -1    0    0    0    0  0.00000000000E+00  0.00000000000E+00  0.45593999997E+02  0.45594000000E+02  0.51100000000E-03 0.  1.
         11   -1    0    0    0    0 -0.00000000000E+00 -0.00000000000E+00 -0.45593999997E+02  0.45594000000E+02  0.51100000000E-03 0. -1.
    9900012    2    1    2    0    0 -0.53584989984E+01  0.97491882142E+01  0.43650352917E+02  0.46142317720E+02  0.99999996210E+01 0.  0.
         12    1    1    2    0    0  0.53584989984E+01 -0.97491882142E+01 -0.43650352917E+02  0.45045682280E+02  0.00000000000E+00 0. -1.
         11    1    3    3    0    0 -0.25093809477E+01 -0.20872261610E+00  0.10626912519E+02  0.10921164215E+02  0.51100000000E-03 0. -1.
        -11    1    3    3    0    0 -0.43949413575E+00  0.88060258403E+01  0.19006030404E+02  0.20951573644E+02  0.51100000000E-03 0.  1.
        -12    1    3    3    0    0 -0.24096239149E+01  0.11518849900E+01  0.14017409994E+02  0.14269579860E+02  0.00000000000E+00 0.  1.
</event>
<event>
 7    1  0.1402367E-008  0.4614232E+02  0.7816164E-02  0.1320468E+00
        -11   -1    0    0    0    0  0.00000000000E+00  0.00000000000E+00  0.45593999997E+02  0.45594000000E+02  0.51100000000E-03 0.  1.
         11   -1    0    0    0    0 -0.00000000000E+00 -0.00000000000E+00 -0.45593999997E+02  0.45594000000E+02  0.51100000000E-03 0. -1.
    9900012    2    1    2    0    0 -0.11012716992E+02 -0.37009380363E+02  0.23197830657E+02  0.46142317437E+02  0.99999970475E+01 0.  0.
         12    1    1    2    0    0  0.11012716992E+02  0.37009380363E+02 -0.23197830657E+02  0.45045682563E+02  0.00000000000E+00 0. -1.
         11    1    3    3    0    0 -0.79145265659E+01 -0.20340202213E+02  0.16486790783E+02  0.27352839476E+02  0.51100000000E-03 0.  1.
        -11    1    3    3    0    0 -0.39418599716E+01 -0.14340046288E+02  0.46946524257E+01  0.15595350245E+02  0.51100000000E-03 0. -1.
        -12    1    3    3    0    0  0.84366954588E+00 -0.23291318614E+01  0.20163874479E+01  0.31941277167E+01  0.00000000000E+00 0.  1.
</event>
<event>
 7    1  0.1402367E-008  0.4614232E+02  0.7816164E-02  0.1320468E+00
        -11   -1    0    0    0    0  0.00000000000E+00  0.00000000000E+00  0.45593999997E+02  0.45594000000E+02  0.51100000000E-03 0. -1.
         11   -1    0    0    0    0 -0.00000000000E+00 -0.00000000000E+00 -0.45593999997E+02  0.45594000000E+02  0.51100000000E-03 0.  1.
    9900012    2    1    2    0    0 -0.13368796588E+02 -0.26005187011E+02 -0.34265421769E+02  0.46142316492E+02  0.99999884267E+01 0.  0.
         12    1    1    2    0    0  0.13368796588E+02  0.26005187011E+02  0.34265421769E+02  0.45045683508E+02  0.00000000000E+00 0. -1.
         11    1    3    3    0    0  0.15429631434E+01 -0.39369092988E+01 -0.45989197228E+01  0.62474036980E+01  0.51100000000E-03 0. -1.
        -11    1    3    3    0    0 -0.39103832486E+01 -0.67044637775E+01 -0.92730476380E+01  0.12092573938E+02  0.51100000000E-03 0.  1.
         12    1    3    3    0    0 -0.11001376483E+02 -0.15363813934E+02 -0.20393454409E+02  0.27802338856E+02  0.00000000000E+00 0. -1.
</event>
<event>
 7    1  0.1402367E-008  0.4614232E+02  0.7816164E-02  0.1320468E+00
        -11   -1    0    0    0    0  0.00000000000E+00  0.00000000000E+00  0.45593999997E+02  0.45594000000E+02  0.51100000000E-03 0. -1.
         11   -1    0    0    0    0 -0.00000000000E+00 -0.00000000000E+00 -0.45593999997E+02  0.45594000000E+02  0.51100000000E-03 0.  1.
    9900012    2    1    2    0    0 -0.41243042298E+01 -0.41462697076E+02 -0.17115734948E+02  0.46142317443E+02  0.99999971012E+01 0.  0.
         12    1    1    2    0    0  0.41243042298E+01  0.41462697076E+02  0.17115734948E+02  0.45045682557E+02  0.00000000000E+00 0. -1.
         11    1    3    3    0    0  0.53202348329E+00 -0.23675632866E+02 -0.57282207956E+01  0.24364547079E+02  0.51100000000E-03 0. -1.
        -11    1    3    3    0    0 -0.19357542802E+01 -0.11835411814E+02 -0.68051042675E+01  0.13788892696E+02  0.51100000000E-03 0.  1.
         12    1    3    3    0    0 -0.27205734329E+01 -0.59516523957E+01 -0.45824098848E+01  0.79888776681E+01  0.00000000000E+00 0. -1.
</event>
<event>
 7    1  0.1402367E-008  0.4614232E+02  0.7816164E-02  0.1320468E+00
        -11   -1    0    0    0    0  0.00000000000E+00  0.00000000000E+00  0.45593999997E+02  0.45594000000E+02  0.51100000000E-03 0. -1.
         11   -1    0    0    0    0 -0.00000000000E+00 -0.00000000000E+00 -0.45593999997E+02  0.45594000000E+02  0.51100000000E-03 0.  1.
    9900012    2    1    2    0    0 -0.11282556073E+00  0.44836834671E+02 -0.43311610426E+01  0.46142318421E+02  0.10000006020E+02 0.  0.
         12    1    1    2    0    0  0.11282556073E+00 -0.44836834671E+02  0.43311610426E+01  0.45045681579E+02  0.00000000000E+00 0. -1.
         11    1    3    3    0    0  0.29475205950E+01  0.13934528911E+02  0.78112192496E+00  0.14264260420E+02  0.51100000000E-03 0. -1.
        -11    1    3    3    0    0 -0.11308371641E+01  0.22614358709E+02 -0.56972901731E+01  0.23348385984E+02  0.51100000000E-03 0.  1.
         12    1    3    3    0    0 -0.19295089916E+01  0.82879470516E+01  0.58500720554E+00  0.85296720165E+01  0.00000000000E+00 0. -1.
</event>
<event>
 7    1  0.1402367E-008  0.4614232E+02  0.7816164E-02  0.1320468E+00
        -11   -1    0    0    0    0  0.00000000000E+00  0.00000000000E+00  0.45593999997E+02  0.45594000000E+02  0.51100000000E-03 0.  1.
         11   -1    0    0    0    0 -0.00000000000E+00 -0.00000000000E+00 -0.45593999997E+02  0.45594000000E+02  0.51100000000E-03 0. -1.
    9900012    2    1    2    0    0  0.16341330446E+02  0.39811581823E+02  0.13308355763E+02  0.46142318064E+02  0.10000002762E+02 0.  0.
         12    1    1    2    0    0 -0.16341330446E+02 -0.39811581823E+02 -0.13308355763E+02  0.45045681936E+02  0.00000000000E+00 0. -1.
         11    1    3    3    0    0 -0.20936243424E+00  0.80266645804E+00  0.17020472661E+01  0.18934284324E+01  0.51100000000E-03 0. -1.
        -11    1    3    3    0    0  0.95194190433E+01  0.19642221328E+02  0.34916793633E+01  0.22104932089E+02  0.51100000000E-03 0.  1.
        -12    1    3    3    0    0  0.70312738366E+01  0.19366694037E+02  0.81146291335E+01  0.22143957543E+02  0.00000000000E+00 0.  1.
</event>
<event>
 7    1  0.1402367E-008  0.4614232E+02  0.7816164E-02  0.1320468E+00
        -11   -1    0    0    0    0  0.00000000000E+00  0.00000000000E+00  0.45593999997E+02  0.45594000000E+02  0.51100000000E-03 0.  1.
         11   -1    0    0    0    0 -0.00000000000E+00 -0.00000000000E+00 -0.45593999997E+02  0.45594000000E+02  0.51100000000E-03 0. -1.
    9900012    2    1    2    0    0  0.33174092918E+02 -0.15480147115E+01  0.30433479634E+02  0.46142317930E+02  0.10000001543E+02 0.  0.
         12    1    1    2    0    0 -0.33174092918E+02  0.15480147115E+01 -0.30433479634E+02  0.45045682070E+02  0.00000000000E+00 0. -1.
         11    1    3    3    0    0  0.63136478294E+01 -0.24749872222E+01  0.97293181237E+01  0.11859483213E+02  0.51100000000E-03 0.  1.
        -11    1    3    3    0    0  0.77570514558E+01  0.17270618859E+01  0.83026749707E+01  0.11492997954E+02  0.51100000000E-03 0. -1.
        -12    1    3    3    0    0  0.19103393633E+02 -0.80008937524E+00  0.12401486540E+02  0.22789836763E+02  0.00000000000E+00 0.  1.
</event>
<event>
 7    1  0.1402367E-008  0.4614232E+02  0.7816164E-02  0.1320468E+00
        -11   -1    0    0    0    0  0.00000000000E+00  0.00000000000E+00  0.45593999997E+02  0.45594000000E+02  0.51100000000E-03 0.  1.
         11   -1    0    0    0    0 -0.00000000000E+00 -0.00000000000E+00 -0.45593999997E+02  0.45594000000E+02  0.51100000000E-03 0. -1.
    9900012    2    1    2    0    0 -0.14937256336E+02 -0.26729646122E+01  0.42412816804E+02  0.46142318787E+02  0.10000009354E+02 0.  0.
         12    1    1    2    0    0  0.14937256336E+02  0.26729646122E+01 -0.42412816804E+02  0.45045681213E+02  0.00000000000E+00 0. -1.
         11    1    3    3    0    0 -0.16051139785E+01 -0.25461474172E+01  0.15396924820E+02  0.15688357203E+02  0.51100000000E-03 0. -1.
        -11    1    3    3    0    0 -0.66458516772E+01 -0.19824967397E+01  0.15948339474E+02  0.17391008311E+02  0.51100000000E-03 0.  1.
         12    1    3    3    0    0 -0.66862906807E+01  0.18556795448E+01  0.11067552511E+02  0.13062953273E+02  0.00000000000E+00 0. -1.
</event>
<event>
 7    1  0.1402367E-008  0.4614232E+02  0.7816164E-02  0.1320468E+00
        -11   -1    0    0    0    0  0.00000000000E+00  0.00000000000E+00  0.45593999997E+02  0.45594000000E+02  0.51100000000E-03 0.  1.
         11   -1    0    0    0    0 -0.00000000000E+00 -0.00000000000E+00 -0.45593999997E+02  0.45594000000E+02  0.51100000000E-03 0. -1.
    9900012    2    1    2    0    0  0.25958657976E+02  0.23316411448E+02  0.28488710899E+02  0.46142316351E+02  0.99999871402E+01 0.  0.
         12    1    1    2    0    0 -0.25958657976E+02 -0.23316411448E+02 -0.28488710899E+02  0.45045683649E+02  0.00000000000E+00 0. -1.
         11    1    3    3    0    0  0.47411135445E+01  0.16413048395E+01  0.54355973641E+01  0.73971452726E+01  0.51100000000E-03 0. -1.
        -11    1    3    3    0    0  0.79648704728E+01  0.10990919545E+02  0.66885806428E+01  0.15131972289E+02  0.51100000000E-03 0.  1.
        -12    1    3    3    0    0  0.13252673959E+02  0.10684187064E+02  0.16364532892E+02  0.23613198789E+02  0.00000000000E+00 0.  1.
</event>
<event>
 7    1  0.1402367E-008  0.4614232E+02  0.7816164E-02  0.1320468E+00
        -11   -1    0    0    0    0  0.00000000000E+00  0.00000000000E+00  0.45593999997E+02  0.45594000000E+02  0.51100000000E-03 0.  1.
         11   -1    0    0    0    0 -0.00000000000E+00 -0.00000000000E+00 -0.45593999997E+02  0.45594000000E+02  0.51100000000E-03 0. -1.
    9900012    2    1    2    0    0  0.55312312191E+01  0.32915351057E+02  0.30250596483E+02  0.46142318280E+02  0.10000004731E+02 0.  0.
         12    1    1    2    0    0 -0.55312312191E+01 -0.32915351057E+02 -0.30250596483E+02  0.45045681720E+02  0.00000000000E+00 0. -1.
         11    1    3    3    0    0 -0.37554428196E+00  0.20797469321E+02  0.17665899956E+02  0.27290287378E+02  0.51100000000E-03 0. -1.
        -11    1    3    3    0    0  0.51409442716E+01  0.99938038684E+01  0.12153442741E+02  0.16553295578E+02  0.51100000000E-03 0.  1.
        -12    1    3    3    0    0  0.76583122948E+00  0.21240778680E+01  0.43125378602E+00  0.22987353239E+01  0.00000000000E+00 0.  1.
</event>
<event>
 7    1  0.1402367E-008  0.4614231E+02  0.7816164E-02  0.1320468E+00
        -11   -1    0    0    0    0  0.00000000000E+00  0.00000000000E+00  0.45593999997E+02  0.45594000000E+02  0.51100000000E-03 0.  1.
         11   -1    0    0    0    0 -0.00000000000E+00 -0.00000000000E+00 -0.45593999997E+02  0.45594000000E+02  0.51100000000E-03 0. -1.
    9900012    2    1    2    0    0  0.80355903621E+01 -0.83900420828E+01  0.43521840088E+02  0.46142311157E+02  0.99999397828E+01 0.  0.
         12    1    1    2    0    0 -0.80355903621E+01  0.83900420828E+01 -0.43521840088E+02  0.45045688843E+02  0.00000000000E+00 0. -1.
         11    1    3    3    0    0 -0.23843946406E-01  0.17681844936E+01  0.10390374144E+02  0.10539777988E+02  0.51100000000E-03 0. -1.
        -11    1    3    3    0    0  0.51029746561E+01 -0.73218000512E+01  0.22023757512E+02  0.23763312091E+02  0.51100000000E-03 0.  1.
         12    1    3    3    0    0  0.29564596524E+01 -0.28364265252E+01  0.11107708433E+02  0.11839221078E+02  0.00000000000E+00 0. -1.
</event>
<event>
 7    1  0.1402367E-008  0.4614232E+02  0.7816164E-02  0.1320468E+00
        -11   -1    0    0    0    0  0.00000000000E+00  0.00000000000E+00  0.45593999997E+02  0.45594000000E+02  0.51100000000E-03 0.  1.
         11   -1    0    0    0    0 -0.00000000000E+00 -0.00000000000E+00 -0.45593999997E+02  0.45594000000E+02  0.51100000000E-03 0. -1.
    9900012    2    1    2    0    0  0.44659817869E+02  0.41223601063E+01  0.41976545141E+01  0.46142317761E+02  0.10000000002E+02 0.  0.
         12    1    1    2    0    0 -0.44659817869E+02 -0.41223601063E+01 -0.41976545141E+01  0.45045682239E+02  0.00000000000E+00 0. -1.
         11    1    3    3    0    0  0.90626221816E+01  0.33684363198E+01 -0.90856257198E+00  0.97109716433E+01  0.51100000000E-03 0. -1.
        -11    1    3    3    0    0  0.22905507638E+02 -0.20854548926E+01  0.22004884383E+01  0.23105271085E+02  0.51100000000E-03 0.  1.
         12    1    3    3    0    0  0.12691688049E+02  0.28393786790E+01  0.29057286477E+01  0.13326075033E+02  0.00000000000E+00 0. -1.
</event>
<event>
 7    1  0.1402367E-008  0.4614232E+02  0.7816164E-02  0.1320468E+00
        -11   -1    0    0    0    0  0.00000000000E+00  0.00000000000E+00  0.45593999997E+02  0.45594000000E+02  0.51100000000E-03 0. -1.
         11   -1    0    0    0    0 -0.00000000000E+00 -0.00000000000E+00 -0.45593999997E+02  0.45594000000E+02  0.51100000000E-03 0.  1.
    9900012    2    1    2    0    0 -0.21887531618E+02 -0.37376830286E+02 -0.12370206150E+02  0.46142317824E+02  0.10000000570E+02 0.  0.
         12    1    1    2    0    0  0.21887531618E+02  0.37376830286E+02  0.12370206150E+02  0.45045682176E+02  0.00000000000E+00 0. -1.
         11    1    3    3    0    0 -0.19691546138E+01 -0.99982008322E+00 -0.90829557400E+00  0.23879303178E+01  0.51100000000E-03 0. -1.
        -11    1    3    3    0    0 -0.14251077965E+02 -0.30594151457E+02 -0.11504492586E+02  0.35657378990E+02  0.51100000000E-03 0.  1.
        -12    1    3    3    0    0 -0.56672990392E+01 -0.57828587456E+01  0.42582010027E-01  0.80970085155E+01  0.00000000000E+00 0.  1.
</event>
<event>
 7    1  0.1402367E-008  0.4614232E+02  0.7816164E-02  0.1320468E+00
        -11   -1    0    0    0    0  0.00000000000E+00  0.00000000000E+00  0.45593999997E+02  0.45594000000E+02  0.51100000000E-03 0. -1.
         11   -1    0    0    0    0 -0.00000000000E+00 -0.00000000000E+00 -0.45593999997E+02  0.45594000000E+02  0.51100000000E-03 0.  1.
    9900012    2    1    2    0    0  0.55669231339E+01  0.42031933399E+02 -0.15213135448E+02  0.46142317093E+02  0.99999939038E+01 0.  0.
         12    1    1    2    0    0 -0.55669231339E+01 -0.42031933399E+02  0.15213135448E+02  0.45045682907E+02  0.00000000000E+00 0. -1.
         11    1    3    3    0    0 -0.55676270428E+00  0.85374702342E+01  0.19311050780E+00  0.85577844469E+01  0.51100000000E-03 0. -1.
        -11    1    3    3    0    0  0.54935141169E+00  0.13211646563E+02 -0.52658050883E+01  0.14232993198E+02  0.51100000000E-03 0.  1.
         12    1    3    3    0    0  0.55743344265E+01  0.20282816601E+02 -0.10140440868E+02  0.23351539448E+02  0.00000000000E+00 0. -1.
</event>
<event>
 7    1  0.1402367E-008  0.4614232E+02  0.7816164E-02  0.1320468E+00
        -11   -1    0    0    0    0  0.00000000000E+00  0.00000000000E+00  0.45593999997E+02  0.45594000000E+02  0.51100000000E-03 0.  1.
         11   -1    0    0    0    0 -0.00000000000E+00 -0.00000000000E+00 -0.45593999997E+02  0.45594000000E+02  0.51100000000E-03 0. -1.
    9900012    2    1    2    0    0  0.33998104391E+02  0.27057000109E+02  0.11881116010E+02  0.46142320132E+02  0.10000021621E+02 0.  0.
         12    1    1    2    0    0 -0.33998104391E+02 -0.27057000109E+02 -0.11881116010E+02  0.45045679868E+02  0.00000000000E+00 0. -1.
         11    1    3    3    0    0  0.45562925615E+01  0.29562221460E+01 -0.12876413642E+01  0.55818520069E+01  0.51100000000E-03 0. -1.
        -11    1    3    3    0    0  0.18868198735E+02  0.14368261229E+02  0.58210447595E+01  0.24420082240E+02  0.51100000000E-03 0.  1.
         12    1    3    3    0    0  0.10573613094E+02  0.97325167345E+01  0.73477126147E+01  0.16140385885E+02  0.00000000000E+00 0. -1.
</event>
<event>
 7    1  0.1402367E-008  0.4614232E+02  0.7816164E-02  0.1320468E+00
        -11   -1    0    0    0    0  0.00000000000E+00  0.00000000000E+00  0.45593999997E+02  0.45594000000E+02  0.51100000000E-03 0.  1.
         11   -1    0    0    0    0 -0.00000000000E+00 -0.00000000000E+00 -0.45593999997E+02  0.45594000000E+02  0.51100000000E-03 0. -1.
    9900012    2    1    2    0    0  0.23045716146E+02 -0.27714022587E+02  0.27017427698E+02  0.46142317853E+02  0.10000000841E+02 0.  0.
         12    1    1    2    0    0 -0.23045716146E+02  0.27714022587E+02 -0.27017427698E+02  0.45045682147E+02  0.00000000000E+00 0. -1.
         11    1    3    3    0    0  0.48508206684E+01 -0.10032828348E+02  0.11883868728E+02  0.16291545108E+02  0.51100000000E-03 0. -1.
        -11    1    3    3    0    0  0.15737014133E+02 -0.13631659464E+02  0.10915728833E+02  0.23508060103E+02  0.51100000000E-03 0.  1.
        -12    1    3    3    0    0  0.24578813443E+01 -0.40495347752E+01  0.42178301370E+01  0.63427126423E+01  0.00000000000E+00 0.  1.
</event>
<event>
 7    1  0.1402367E-008  0.4614232E+02  0.7816164E-02  0.1320468E+00
        -11   -1    0    0    0    0  0.00000000000E+00  0.00000000000E+00  0.45593999997E+02  0.45594000000E+02  0.51100000000E-03 0. -1.
         11   -1    0    0    0    0 -0.00000000000E+00 -0.00000000000E+00 -0.45593999997E+02  0.45594000000E+02  0.51100000000E-03 0.  1.
    9900012    2    1    2    0    0  0.33338446689E+02 -0.26115446273E+02 -0.15350729027E+02  0.46142318261E+02  0.10000004560E+02 0.  0.
         12    1    1    2    0    0 -0.33338446689E+02  0.26115446273E+02  0.15350729027E+02  0.45045681739E+02  0.00000000000E+00 0. -1.
         11    1    3    3    0    0  0.77191904946E+01 -0.71519670822E+01 -0.53411493161E+00  0.10536688951E+02  0.51100000000E-03 0. -1.
        -11    1    3    3    0    0  0.24736542199E+02 -0.19018302079E+02 -0.15117065365E+02  0.34671573363E+02  0.51100000000E-03 0.  1.
         12    1    3    3    0    0  0.88271399539E+00  0.54822887958E-01  0.30045127036E+00  0.93405594724E+00  0.00000000000E+00 0. -1.
</event>
<event>
 7    1  0.1402367E-008  0.4614232E+02  0.7816164E-02  0.1320468E+00
        -11   -1    0    0    0    0  0.00000000000E+00  0.00000000000E+00  0.45593999997E+02  0.45594000000E+02  0.51100000000E-03 0.  1.
         11   -1    0    0    0    0 -0.00000000000E+00 -0.00000000000E+00 -0.45593999997E+02  0.45594000000E+02  0.51100000000E-03 0. -1.
    9900012    2    1    2    0    0  0.82144205509E+01  0.33451365962E+02  0.29028309969E+02  0.46142319082E+02  0.10000012045E+02 0.  0.
         12    1    1    2    0    0 -0.82144205509E+01 -0.33451365962E+02 -0.29028309969E+02  0.45045680918E+02  0.00000000000E+00 0. -1.
         11    1    3    3    0    0  0.18122401396E+01  0.52386422853E+01  0.16776271273E+01  0.57915473197E+01  0.51100000000E-03 0. -1.
        -11    1    3    3    0    0  0.58132735429E+01  0.28024776937E+02  0.27524432364E+02  0.39708647029E+02  0.51100000000E-03 0.  1.
         12    1    3    3    0    0  0.58890686829E+00  0.18794673989E+00 -0.17374952261E+00  0.64212473334E+00  0.00000000000E+00 0. -1.
</event>
<event>
 7    1  0.1402367E-008  0.4614232E+02  0.7816164E-02  0.1320468E+00
        -11   -1    0    0    0    0  0.00000000000E+00  0.00000000000E+00  0.45593999997E+02  0.45594000000E+02  0.51100000000E-03 0.  1.
         11   -1    0    0    0    0 -0.00000000000E+00 -0.00000000000E+00 -0.45593999997E+02  0.45594000000E+02  0.51100000000E-03 0. -1.
    9900012    2    1    2    0    0 -0.41352491723E+02 -0.68064164854E+01  0.16515375626E+02  0.46142317531E+02  0.99999978998E+01 0.  0.
         12    1    1    2    0    0  0.41352491723E+02  0.68064164854E+01 -0.16515375626E+02  0.45045682469E+02  0.00000000000E+00 0. -1.
         11    1    3    3    0    0 -0.12372805327E+02  0.17161228493E+01  0.64370130826E+01  0.14052278356E+02  0.51100000000E-03 0. -1.
        -11    1    3    3    0    0 -0.28423697129E+02 -0.76900300163E+01  0.99472413256E+01  0.31080391413E+02  0.51100000000E-03 0.  1.
         12    1    3    3    0    0 -0.55598926621E+00 -0.83250931841E+00  0.13112121789E+00  0.10096477619E+01  0.00000000000E+00 0. -1.
</event>
<event>
 7    1  0.1402367E-008  0.4614232E+02  0.7816164E-02  0.1320468E+00
        -11   -1    0    0    0    0  0.00000000000E+00  0.00000000000E+00  0.45593999997E+02  0.45594000000E+02  0.51100000000E-03 0.  1.
         11   -1    0    0    0    0 -0.00000000000E+00 -0.00000000000E+00 -0.45593999997E+02  0.45594000000E+02  0.51100000000E-03 0. -1.
    9900012    2    1    2    0    0 -0.28159600959E+02 -0.45696786499E+01  0.34860699162E+02  0.46142318352E+02  0.10000005385E+02 0.  0.
         12    1    1    2    0    0  0.28159600959E+02  0.45696786499E+01 -0.34860699162E+02  0.45045681648E+02  0.00000000000E+00 0. -1.
         11    1    3    3    0    0  0.89835740517E-01 -0.64586061950E+00 -0.10823575427E+00  0.66100048390E+00  0.51100000000E-03 0. -1.
        -11    1    3    3    0    0 -0.19158986684E+02 -0.18876444702E+01  0.19352727936E+02  0.27297583249E+02  0.51100000000E-03 0.  1.
        -12    1    3    3    0    0 -0.90904500150E+01 -0.20361735602E+01  0.15616206980E+02  0.18183734618E+02  0.00000000000E+00 0.  1.
</event>
<event>
 7    1  0.1402367E-008  0.4614232E+02  0.7816164E-02  0.1320468E+00
        -11   -1    0    0    0    0  0.00000000000E+00  0.00000000000E+00  0.45593999997E+02  0.45594000000E+02  0.51100000000E-03 0.  1.
         11   -1    0    0    0    0 -0.00000000000E+00 -0.00000000000E+00 -0.45593999997E+02  0.45594000000E+02  0.51100000000E-03 0. -1.
    9900012    2    1    2    0    0  0.16231981748E+02 -0.21095744281E+02  0.36340136315E+02  0.46142321343E+02  0.10000032662E+02 0.  0.
         12    1    1    2    0    0 -0.16231981748E+02  0.21095744281E+02 -0.36340136315E+02  0.45045678657E+02  0.00000000000E+00 0. -1.
         11    1    3    3    0    0  0.68140037893E+01 -0.11169706685E+02  0.14538852010E+02  0.19559427730E+02  0.51100000000E-03 0. -1.
        -11    1    3    3    0    0  0.40269995962E+01 -0.87850607199E+01  0.14748086553E+02  0.17632358742E+02  0.51100000000E-03 0.  1.
         12    1    3    3    0    0  0.53909783623E+01 -0.11409768759E+01  0.70531977525E+01  0.89505348706E+01  0.00000000000E+00 0. -1.
</event>
<event>
 7    1  0.1402367E-008  0.4614232E+02  0.7816164E-02  0.1320468E+00
        -11   -1    0    0    0    0  0.00000000000E+00  0.00000000000E+00  0.45593999997E+02  0.45594000000E+02  0.51100000000E-03 0.  1.
         11   -1    0    0    0    0 -0.00000000000E+00 -0.00000000000E+00 -0.45593999997E+02  0.45594000000E+02  0.51100000000E-03 0. -1.
    9900012    2    1    2    0    0  0.14162946365E+02 -0.30692033751E+02  0.29774544558E+02  0.46142317753E+02  0.99999999235E+01 0.  0.
         12    1    1    2    0    0 -0.14162946365E+02  0.30692033751E+02 -0.29774544558E+02  0.45045682247E+02  0.00000000000E+00 0. -1.
         11    1    3    3    0    0  0.92752625560E+01 -0.10598614380E+02  0.12329897834E+02  0.18718640526E+02  0.51100000000E-03 0. -1.
        -11    1    3    3    0    0  0.52970520961E+01 -0.13358208542E+02  0.12665168980E+02  0.19154816677E+02  0.51100000000E-03 0.  1.
         12    1    3    3    0    0 -0.40936828715E+00 -0.67352108293E+01  0.47794777428E+01  0.82688605505E+01  0.00000000000E+00 0. -1.
</event>
<event>
 7    1  0.1402367E-008  0.4614232E+02  0.7816164E-02  0.1320468E+00
        -11   -1    0    0    0    0  0.00000000000E+00  0.00000000000E+00  0.45593999997E+02  0.45594000000E+02  0.51100000000E-03 0.  1.
         11   -1    0    0    0    0 -0.00000000000E+00 -0.00000000000E+00 -0.45593999997E+02  0.45594000000E+02  0.51100000000E-03 0. -1.
    9900012    2    1    2    0    0 -0.56158937550E+01 -0.23685588428E+02  0.37902085484E+02  0.46142318232E+02  0.10000004296E+02 0.  0.
         12    1    1    2    0    0  0.56158937550E+01  0.23685588428E+02 -0.37902085484E+02  0.45045681768E+02  0.00000000000E+00 0. -1.
         11    1    3    3    0    0 -0.19301062295E+01 -0.36626852530E+00  0.52085416382E+01  0.55667197655E+01  0.51100000000E-03 0.  1.
        -11    1    3    3    0    0 -0.20090567065E+01 -0.19658003405E+02  0.24760227252E+02  0.31678735147E+02  0.51100000000E-03 0. -1.
         12    1    3    3    0    0 -0.16767308189E+01 -0.36613164983E+01  0.79333165941E+01  0.88968633193E+01  0.00000000000E+00 0. -1.
</event>
<event>
 7    1  0.1402367E-008  0.4614232E+02  0.7816164E-02  0.1320468E+00
        -11   -1    0    0    0    0  0.00000000000E+00  0.00000000000E+00  0.45593999997E+02  0.45594000000E+02  0.51100000000E-03 0. -1.
         11   -1    0    0    0    0 -0.00000000000E+00 -0.00000000000E+00 -0.45593999997E+02  0.45594000000E+02  0.51100000000E-03 0.  1.
    9900012    2    1    2    0    0 -0.27080410950E+02  0.35404414364E+02 -0.65032486172E+01  0.46142318117E+02  0.10000003249E+02 0.  0.
         12    1    1    2    0    0  0.27080410950E+02 -0.35404414364E+02  0.65032486172E+01  0.45045681883E+02  0.00000000000E+00 0. -1.
         11    1    3    3    0    0 -0.26039575447E+01  0.39423259447E+01  0.17807049977E+01  0.50491028212E+01  0.51100000000E-03 0. -1.
        -11    1    3    3    0    0 -0.16146467740E+02  0.16897397676E+02 -0.33945918716E+01  0.23616810177E+02  0.51100000000E-03 0.  1.
        -12    1    3    3    0    0 -0.83299856653E+01  0.14564690743E+02 -0.48893617433E+01  0.17476405119E+02  0.00000000000E+00 0.  1.
</event>
<event>
 7    1  0.1402367E-008  0.4614232E+02  0.7816164E-02  0.1320468E+00
        -11   -1    0    0    0    0  0.00000000000E+00  0.00000000000E+00  0.45593999997E+02  0.45594000000E+02  0.51100000000E-03 0.  1.
         11   -1    0    0    0    0 -0.00000000000E+00 -0.00000000000E+00 -0.45593999997E+02  0.45594000000E+02  0.51100000000E-03 0. -1.
    9900012    2    1    2    0    0  0.31869666921E+02  0.28285499543E+02  0.14607132502E+02  0.46142317921E+02  0.10000001459E+02 0.  0.
         12    1    1    2    0    0 -0.31869666921E+02 -0.28285499543E+02 -0.14607132502E+02  0.45045682079E+02  0.00000000000E+00 0. -1.
         11    1    3    3    0    0  0.74617459559E+01  0.39325168301E+01  0.92286551691E+00  0.84849291307E+01  0.51100000000E-03 0. -1.
        -11    1    3    3    0    0  0.11978039866E+02  0.10061248295E+02  0.30570099399E+01  0.15938866532E+02  0.51100000000E-03 0.  1.
        -12    1    3    3    0    0  0.12429881098E+02  0.14291734418E+02  0.10627257045E+02  0.21718522258E+02  0.00000000000E+00 0.  1.
</event>
<event>
 7    1  0.1402367E-008  0.4614232E+02  0.7816164E-02  0.1320468E+00
        -11   -1    0    0    0    0  0.00000000000E+00  0.00000000000E+00  0.45593999997E+02  0.45594000000E+02  0.51100000000E-03 0.  1.
         11   -1    0    0    0    0 -0.00000000000E+00 -0.00000000000E+00 -0.45593999997E+02  0.45594000000E+02  0.51100000000E-03 0. -1.
    9900012    2    1    2    0    0 -0.23337568213E+02  0.37494103665E+02  0.88692472973E+01  0.46142318217E+02  0.10000004153E+02 0.  0.
         12    1    1    2    0    0  0.23337568213E+02 -0.37494103665E+02 -0.88692472973E+01  0.45045681783E+02  0.00000000000E+00 0. -1.
         11    1    3    3    0    0 -0.16366216376E+02  0.29050093116E+02  0.67349836550E+01  0.34016480618E+02  0.51100000000E-03 0. -1.
        -11    1    3    3    0    0 -0.66926598745E+01  0.83353654529E+01  0.75702149523E+00  0.10716487075E+02  0.51100000000E-03 0.  1.
         12    1    3    3    0    0 -0.27869196199E+00  0.10864509618E+00  0.13772421472E+01  0.14093505237E+01  0.00000000000E+00 0. -1.
</event>
<event>
 7    1  0.1402367E-008  0.4614232E+02  0.7816164E-02  0.1320468E+00
        -11   -1    0    0    0    0  0.00000000000E+00  0.00000000000E+00  0.45593999997E+02  0.45594000000E+02  0.51100000000E-03 0. -1.
         11   -1    0    0    0    0 -0.00000000000E+00 -0.00000000000E+00 -0.45593999997E+02  0.45594000000E+02  0.51100000000E-03 0.  1.
    9900012    2    1    2    0    0 -0.17306566537E+02  0.40880130976E+02 -0.76427206137E+01  0.46142317273E+02  0.99999955532E+01 0.  0.
         12    1    1    2    0    0  0.17306566537E+02 -0.40880130976E+02  0.76427206137E+01  0.45045682727E+02  0.00000000000E+00 0. -1.
         11    1    3    3    0    0 -0.34655077957E+00  0.34360644126E+01  0.96911748682E-01  0.34548557479E+01  0.51100000000E-03 0. -1.
        -11    1    3    3    0    0 -0.37368275471E+01  0.23115235960E+01 -0.14399696390E+01  0.46239089820E+01  0.51100000000E-03 0.  1.
        -12    1    3    3    0    0 -0.13223188210E+02  0.35132542968E+02 -0.62996627233E+01  0.38063552544E+02  0.00000000000E+00 0.  1.
</event>
<event>
 7    1  0.1402367E-008  0.4614232E+02  0.7816164E-02  0.1320468E+00
        -11   -1    0    0    0    0  0.00000000000E+00  0.00000000000E+00  0.45593999997E+02  0.45594000000E+02  0.51100000000E-03 0. -1.
         11   -1    0    0    0    0 -0.00000000000E+00 -0.00000000000E+00 -0.45593999997E+02  0.45594000000E+02  0.51100000000E-03 0.  1.
    9900012    2    1    2    0    0 -0.22338277984E+01 -0.84664340009E+01 -0.44186456866E+02  0.46142318057E+02  0.10000002697E+02 0.  0.
         12    1    1    2    0    0  0.22338277984E+01  0.84664340009E+01  0.44186456866E+02  0.45045681943E+02  0.00000000000E+00 0. -1.
         11    1    3    3    0    0  0.21059494200E+01 -0.35780281881E+01 -0.26019246765E+02  0.26348406235E+02  0.51100000000E-03 0. -1.
        -11    1    3    3    0    0 -0.30026641276E+01 -0.76311140655E+00 -0.10894315478E+02  0.11326272153E+02  0.51100000000E-03 0.  1.
         12    1    3    3    0    0 -0.13371130908E+01 -0.41252944062E+01 -0.72728946237E+01  0.84676396689E+01  0.00000000000E+00 0. -1.
</event>
<event>
 7    1  0.1402367E-008  0.4614232E+02  0.7816164E-02  0.1320468E+00
        -11   -1    0    0    0    0  0.00000000000E+00  0.00000000000E+00  0.45593999997E+02  0.45594000000E+02  0.51100000000E-03 0.  1.
         11   -1    0    0    0    0 -0.00000000000E+00 -0.00000000000E+00 -0.45593999997E+02  0.45594000000E+02  0.51100000000E-03 0. -1.
    9900012    2    1    2    0    0  0.18772453713E+02  0.24735924283E+02  0.32631925089E+02  0.46142317592E+02  0.99999984599E+01 0.  0.
         12    1    1    2    0    0 -0.18772453713E+02 -0.24735924283E+02 -0.32631925089E+02  0.45045682408E+02  0.00000000000E+00 0. -1.
         11    1    3    3    0    0  0.96314463479E+01  0.12102997371E+02  0.12424076016E+02  0.19839480064E+02  0.51100000000E-03 0. -1.
        -11    1    3    3    0    0  0.77127865359E+01  0.89684733675E+01  0.10455375284E+02  0.15787193015E+02  0.51100000000E-03 0.  1.
         12    1    3    3    0    0  0.14282208290E+01  0.36644535452E+01  0.97524737891E+01  0.10515644513E+02  0.00000000000E+00 0. -1.
</event>
<event>
 7    1  0.1402367E-008  0.4614232E+02  0.7816164E-02  0.1320468E+00
        -11   -1    0    0    0    0  0.00000000000E+00  0.00000000000E+00  0.45593999997E+02  0.45594000000E+02  0.51100000000E-03 0. -1.
         11   -1    0    0    0    0 -0.00000000000E+00 -0.00000000000E+00 -0.45593999997E+02  0.45594000000E+02  0.51100000000E-03 0.  1.
    9900012    2    1    2    0    0 -0.28569512925E+02  0.34193058364E+02  0.66129501704E+01  0.46142318531E+02  0.10000007022E+02 0.  0.
         12    1    1    2    0    0  0.28569512925E+02 -0.34193058364E+02 -0.66129501704E+01  0.45045681469E+02  0.00000000000E+00 0. -1.
         11    1    3    3    0    0 -0.59134884585E+01  0.63228069743E+01 -0.20665562734E+01  0.89004431842E+01  0.51100000000E-03 0. -1.
        -11    1    3    3    0    0 -0.21384186575E+02  0.25691505757E+02  0.68389429860E+01  0.34119027609E+02  0.51100000000E-03 0.  1.
         12    1    3    3    0    0 -0.12718378908E+01  0.21787456322E+01  0.18405634578E+01  0.31228477376E+01  0.00000000000E+00 0. -1.
</event>
<event>
 7    1  0.1402367E-008  0.4614232E+02  0.7816164E-02  0.1320468E+00
        -11   -1    0    0    0    0  0.00000000000E+00  0.00000000000E+00  0.45593999997E+02  0.45594000000E+02  0.51100000000E-03 0. -1.
         11   -1    0    0    0    0 -0.00000000000E+00 -0.00000000000E+00 -0.45593999997E+02  0.45594000000E+02  0.51100000000E-03 0.  1.
    9900012    2    1    2    0    0  0.18427081664E+02 -0.52666318587E+01 -0.40765410511E+02  0.46142318255E+02  0.10000004502E+02 0.  0.
         12    1    1    2    0    0 -0.18427081664E+02  0.52666318587E+01  0.40765410511E+02  0.45045681745E+02  0.00000000000E+00 0. -1.
         11    1    3    3    0    0  0.57601767041E+01  0.13707726912E+01 -0.12237974826E+02  0.13595097702E+02  0.51100000000E-03 0. -1.
        -11    1    3    3    0    0  0.12809019178E+02 -0.63061964828E+01 -0.28766557561E+02  0.32114699447E+02  0.51100000000E-03 0.  1.
        -12    1    3    3    0    0 -0.14211421806E+00 -0.33120806700E+00  0.23912187674E+00  0.43252110533E+00  0.00000000000E+00 0.  1.
</event>
<event>
 7    1  0.1402367E-008  0.4614232E+02  0.7816164E-02  0.1320468E+00
        -11   -1    0    0    0    0  0.00000000000E+00  0.00000000000E+00  0.45593999997E+02  0.45594000000E+02  0.51100000000E-03 0. -1.
         11   -1    0    0    0    0 -0.00000000000E+00 -0.00000000000E+00 -0.45593999997E+02  0.45594000000E+02  0.51100000000E-03 0.  1.
    9900012    2    1    2    0    0 -0.24827753413E+02 -0.42860674873E+01 -0.37340671970E+02  0.46142317663E+02  0.99999991011E+01 0.  0.
         12    1    1    2    0    0  0.24827753413E+02  0.42860674873E+01  0.37340671970E+02  0.45045682337E+02  0.00000000000E+00 0. -1.
         11    1    3    3    0    0 -0.14389252898E+01  0.78369450859E+00 -0.22396248000E+01  0.27749959600E+01  0.51100000000E-03 0. -1.
        -11    1    3    3    0    0 -0.94823065931E+01 -0.49179703122E+01 -0.21007512396E+02  0.23567268565E+02  0.51100000000E-03 0.  1.
        -12    1    3    3    0    0 -0.13906521530E+02 -0.15179168363E+00 -0.14093534775E+02  0.19800053137E+02  0.00000000000E+00 0.  1.
</event>
<event>
 7    1  0.1402367E-008  0.4614232E+02  0.7816164E-02  0.1320468E+00
        -11   -1    0    0    0    0  0.00000000000E+00  0.00000000000E+00  0.45593999997E+02  0.45594000000E+02  0.51100000000E-03 0.  1.
         11   -1    0    0    0    0 -0.00000000000E+00 -0.00000000000E+00 -0.45593999997E+02  0.45594000000E+02  0.51100000000E-03 0. -1.
    9900012    2    1    2    0    0  0.23972844978E+02 -0.36387311230E+02  0.11418394933E+02  0.46142318101E+02  0.10000003098E+02 0.  0.
         12    1    1    2    0    0 -0.23972844978E+02  0.36387311230E+02 -0.11418394933E+02  0.45045681899E+02  0.00000000000E+00 0. -1.
         11    1    3    3    0    0  0.37418249321E+01 -0.32892929369E+01  0.35958089746E+01  0.61441471573E+01  0.51100000000E-03 0. -1.
        -11    1    3    3    0    0  0.40085216760E+01 -0.94460354777E+01  0.42074751222E+01  0.11090476971E+02  0.51100000000E-03 0.  1.
         12    1    3    3    0    0  0.16222498370E+02 -0.23651982816E+02  0.36151108366E+01  0.28907693973E+02  0.00000000000E+00 0. -1.
</event>
<event>
 7    1  0.1402367E-008  0.4614233E+02  0.7816164E-02  0.1320468E+00
        -11   -1    0    0    0    0  0.00000000000E+00  0.00000000000E+00  0.45593999997E+02  0.45594000000E+02  0.51100000000E-03 0. -1.
         11   -1    0    0    0    0 -0.00000000000E+00 -0.00000000000E+00 -0.45593999997E+02  0.45594000000E+02  0.51100000000E-03 0.  1.
    9900012    2    1    2    0    0 -0.40488596914E+02  0.36241725182E+01 -0.19407513661E+02  0.46142326589E+02  0.10000080501E+02 0.  0.
         12    1    1    2    0    0  0.40488596914E+02 -0.36241725182E+01  0.19407513661E+02  0.45045673411E+02  0.00000000000E+00 0. -1.
         11    1    3    3    0    0 -0.35892085701E+01  0.37611600221E+00 -0.26758501822E+01  0.44926668990E+01  0.51100000000E-03 0. -1.
        -11    1    3    3    0    0 -0.33451356083E+02  0.30103580666E+01 -0.11742052833E+02  0.35579928112E+02  0.51100000000E-03 0.  1.
        -12    1    3    3    0    0 -0.34480322610E+01  0.23769844938E+00 -0.49896106461E+01  0.60697315777E+01  0.00000000000E+00 0.  1.
</event>
<event>
 7    1  0.1402367E-008  0.4614232E+02  0.7816164E-02  0.1320468E+00
        -11   -1    0    0    0    0  0.00000000000E+00  0.00000000000E+00  0.45593999997E+02  0.45594000000E+02  0.51100000000E-03 0.  1.
         11   -1    0    0    0    0 -0.00000000000E+00 -0.00000000000E+00 -0.45593999997E+02  0.45594000000E+02  0.51100000000E-03 0. -1.
    9900012    2    1    2    0    0  0.26820151652E+02 -0.27652104773E+02  0.23348521555E+02  0.46142324383E+02  0.10000060380E+02 0.  0.
         12    1    1    2    0    0 -0.26820151652E+02  0.27652104773E+02 -0.23348521555E+02  0.45045675617E+02  0.00000000000E+00 0. -1.
         11    1    3    3    0    0  0.92153587719E+01 -0.81933111239E+01  0.12276372165E+02  0.17400071789E+02  0.51100000000E-03 0. -1.
        -11    1    3    3    0    0  0.14898306731E+02 -0.15687724253E+02  0.10553573422E+02  0.24071604598E+02  0.51100000000E-03 0.  1.
         12    1    3    3    0    0  0.27064861491E+01 -0.37710693961E+01  0.51857596840E+00  0.46706479957E+01  0.00000000000E+00 0. -1.
</event>
<event>
 7    1  0.1402367E-008  0.4614232E+02  0.7816164E-02  0.1320468E+00
        -11   -1    0    0    0    0  0.00000000000E+00  0.00000000000E+00  0.45593999997E+02  0.45594000000E+02  0.51100000000E-03 0. -1.
         11   -1    0    0    0    0 -0.00000000000E+00 -0.00000000000E+00 -0.45593999997E+02  0.45594000000E+02  0.51100000000E-03 0.  1.
    9900012    2    1    2    0    0 -0.13675396957E+02 -0.38554571795E+02 -0.18858471657E+02  0.46142318281E+02  0.10000004744E+02 0.  0.
         12    1    1    2    0    0  0.13675396957E+02  0.38554571795E+02  0.18858471657E+02  0.45045681719E+02  0.00000000000E+00 0. -1.
         11    1    3    3    0    0 -0.90059264312E+01 -0.28992762087E+02 -0.10596942629E+02  0.32155592945E+02  0.51100000000E-03 0. -1.
        -11    1    3    3    0    0 -0.10472009802E+01 -0.39464241911E+01 -0.52666596740E+01  0.66639776539E+01  0.51100000000E-03 0.  1.
        -12    1    3    3    0    0 -0.36222695458E+01 -0.56153855170E+01 -0.29948693545E+01  0.73227476822E+01  0.00000000000E+00 0.  1.
</event>
<event>
 7    1  0.1402367E-008  0.4614232E+02  0.7816164E-02  0.1320468E+00
        -11   -1    0    0    0    0  0.00000000000E+00  0.00000000000E+00  0.45593999997E+02  0.45594000000E+02  0.51100000000E-03 0. -1.
         11   -1    0    0    0    0 -0.00000000000E+00 -0.00000000000E+00 -0.45593999997E+02  0.45594000000E+02  0.51100000000E-03 0.  1.
    9900012    2    1    2    0    0  0.29250916215E+02  0.27018188645E+02 -0.21059793516E+02  0.46142317410E+02  0.99999967954E+01 0.  0.
         12    1    1    2    0    0 -0.29250916215E+02 -0.27018188645E+02  0.21059793516E+02  0.45045682590E+02  0.00000000000E+00 0. -1.
         11    1    3    3    0    0  0.18977729999E+02  0.17991607708E+02 -0.15612455491E+02  0.30456541999E+02  0.51100000000E-03 0. -1.
        -11    1    3    3    0    0  0.73689692093E+01  0.68613633095E+01 -0.64119225634E+01  0.11937033337E+02  0.51100000000E-03 0.  1.
         12    1    3    3    0    0  0.29042170070E+01  0.21652176277E+01  0.96458453871E+00  0.37487420732E+01  0.00000000000E+00 0. -1.
</event>
<event>
 7    1  0.1402367E-008  0.4614232E+02  0.7816164E-02  0.1320468E+00
        -11   -1    0    0    0    0  0.00000000000E+00  0.00000000000E+00  0.45593999997E+02  0.45594000000E+02  0.51100000000E-03 0.  1.
         11   -1    0    0    0    0 -0.00000000000E+00 -0.00000000000E+00 -0.45593999997E+02  0.45594000000E+02  0.51100000000E-03 0. -1.
    9900012    2    1    2    0    0  0.29996662702E+02 -0.27112154801E+02  0.19855598667E+02  0.46142317525E+02  0.99999978451E+01 0.  0.
         12    1    1    2    0    0 -0.29996662702E+02  0.27112154801E+02 -0.19855598667E+02  0.45045682475E+02  0.00000000000E+00 0. -1.
         11    1    3    3    0    0  0.10054591762E+02 -0.83079832778E+01  0.44457793151E+01  0.13779780681E+02  0.51100000000E-03 0. -1.
        -11    1    3    3    0    0  0.93875704014E+01 -0.39832448543E+01  0.65982714770E+01  0.12146188882E+02  0.51100000000E-03 0.  1.
        -12    1    3    3    0    0  0.10554500539E+02 -0.14820926669E+02  0.88115478750E+01  0.20216347961E+02  0.00000000000E+00 0.  1.
</event>
<event>
 7    1  0.1402367E-008  0.4614232E+02  0.7816164E-02  0.1320468E+00
        -11   -1    0    0    0    0  0.00000000000E+00  0.00000000000E+00  0.45593999997E+02  0.45594000000E+02  0.51100000000E-03 0.  1.
         11   -1    0    0    0    0 -0.00000000000E+00 -0.00000000000E+00 -0.45593999997E+02  0.45594000000E+02  0.51100000000E-03 0. -1.
    9900012    2    1    2    0    0  0.37293842084E+02 -0.23030897488E+02 -0.10385604629E+02  0.46142315635E+02  0.99999806083E+01 0.  0.
         12    1    1    2    0    0 -0.37293842084E+02  0.23030897488E+02  0.10385604629E+02  0.45045684365E+02  0.00000000000E+00 0. -1.
         11    1    3    3    0    0  0.87480031238E+01 -0.44816370951E+01 -0.47783698156E+01  0.10929110122E+02  0.51100000000E-03 0. -1.
        -11    1    3    3    0    0  0.10815018631E+02 -0.10728569129E+02 -0.40992372589E+01  0.15775632156E+02  0.51100000000E-03 0.  1.
         12    1    3    3    0    0  0.17730820329E+02 -0.78206912637E+01 -0.15079975542E+01  0.19437573357E+02  0.00000000000E+00 0. -1.
</event>
<event>
 7    1  0.1402367E-008  0.4614232E+02  0.7816164E-02  0.1320468E+00
        -11   -1    0    0    0    0  0.00000000000E+00  0.00000000000E+00  0.45593999997E+02  0.45594000000E+02  0.51100000000E-03 0.  1.
         11   -1    0    0    0    0 -0.00000000000E+00 -0.00000000000E+00 -0.45593999997E+02  0.45594000000E+02  0.51100000000E-03 0. -1.
    9900012    2    1    2    0    0 -0.72095621106E+01  0.43150825682E+02  0.10730419214E+02  0.46142318305E+02  0.10000004961E+02 0.  0.
         12    1    1    2    0    0  0.72095621106E+01 -0.43150825682E+02 -0.10730419214E+02  0.45045681695E+02  0.00000000000E+00 0. -1.
         11    1    3    3    0    0 -0.54334257416E+00  0.18028059680E+02  0.54316559263E+01  0.18836375536E+02  0.51100000000E-03 0. -1.
        -11    1    3    3    0    0 -0.63499917528E+01  0.17562757285E+02  0.62186582764E+01  0.19683611197E+02  0.51100000000E-03 0.  1.
        -12    1    3    3    0    0 -0.31622778363E+00  0.75600087163E+01 -0.91989498910E+00  0.76223315719E+01  0.00000000000E+00 0.  1.
</event>
<event>
 7    1  0.1402367E-008  0.4614232E+02  0.7816164E-02  0.1320468E+00
        -11   -1    0    0    0    0  0.00000000000E+00  0.00000000000E+00  0.45593999997E+02  0.45594000000E+02  0.51100000000E-03 0.  1.
         11   -1    0    0    0    0 -0.00000000000E+00 -0.00000000000E+00 -0.45593999997E+02  0.45594000000E+02  0.51100000000E-03 0. -1.
    9900012    2    1    2    0    0  0.39179037996E+02  0.43139137852E+01  0.21806116251E+02  0.46142316784E+02  0.99999910908E+01 0.  0.
         12    1    1    2    0    0 -0.39179037996E+02 -0.43139137852E+01 -0.21806116251E+02  0.45045683216E+02  0.00000000000E+00 0. -1.
         11    1    3    3    0    0  0.32665122227E+02  0.22630178731E+01  0.14190596472E+02  0.35686194648E+02  0.51100000000E-03 0.  1.
        -11    1    3    3    0    0  0.55168337285E+01  0.14319960859E+01  0.72597286858E+01  0.92298281691E+01  0.51100000000E-03 0. -1.
         12    1    3    3    0    0  0.99708204060E+00  0.61889982620E+00  0.35579109327E+00  0.12262939666E+01  0.00000000000E+00 0. -1.
</event>
