<event>
 7    1  0.1857734E-013  0.7246156E+02  0.7816164E-02  0.1226708E+00
        -11   -1    0    0    0    0  0.00000000000E+00  0.00000000000E+00  0.45593999997E+02  0.45594000000E+02  0.51100000000E-03 0. -1.
         11   -1    0    0    0    0 -0.00000000000E+00 -0.00000000000E+00 -0.45593999997E+02  0.45594000000E+02  0.51100000000E-03 0.  1.
    9900012    2    1    2    0    0  0.18078633859E+02 -0.43457702737E+01  0.22264009698E+01  0.72461559261E+02  0.69999985627E+02 0.  0.
        -12    1    1    2    0    0 -0.18078633859E+02  0.43457702737E+01 -0.22264009698E+01  0.18726440739E+02  0.00000000000E+00 0.  1.
         11    1    3    3    0    0  0.29736530669E+02 -0.24489766797E+02  0.13918884095E+01  0.38547986816E+02  0.51100000000E-03 0. -1.
        -11    1    3    3    0    0 -0.12158327476E+02  0.11518577851E+02  0.11403989801E+02  0.20262120974E+02  0.51100000000E-03 0.  1.
         12    1    3    3    0    0  0.50043066641E+00  0.86254186715E+01 -0.10569477240E+02  0.13651451470E+02  0.00000000000E+00 0. -1.
</event>
<event>
 7    1  0.2703597E-013  0.7246153E+02  0.7816164E-02  0.1226708E+00
        -11   -1    0    0    0    0  0.00000000000E+00  0.00000000000E+00  0.45593999997E+02  0.45594000000E+02  0.51100000000E-03 0. -1.
         11   -1    0    0    0    0 -0.00000000000E+00 -0.00000000000E+00 -0.45593999997E+02  0.45594000000E+02  0.51100000000E-03 0.  1.
    9900012    2    1    2    0    0 -0.24731771180E+01 -0.76725516847E+01  0.16902539805E+02  0.72461534602E+02  0.69999953505E+02 0.  0.
        -12    1    1    2    0    0  0.24731771180E+01  0.76725516847E+01 -0.16902539805E+02  0.18726465398E+02  0.00000000000E+00 0.  1.
         11    1    3    3    0    0 -0.24407497685E+02 -0.13731694320E+02  0.17411432870E+02  0.32976406217E+02  0.51100000000E-03 0. -1.
        -11    1    3    3    0    0  0.19438680201E+02 -0.10934332489E+02 -0.40589782219E-01  0.22302994478E+02  0.51100000000E-03 0.  1.
         12    1    3    3    0    0  0.24956403666E+01  0.16993475124E+02 -0.46830328241E+00  0.17182133907E+02  0.00000000000E+00 0. -1.
</event>
<event>
 7    1  0.1857734E-013  0.7246157E+02  0.7816164E-02  0.1226708E+00
        -11   -1    0    0    0    0  0.00000000000E+00  0.00000000000E+00  0.45593999997E+02  0.45594000000E+02  0.51100000000E-03 0. -1.
         11   -1    0    0    0    0 -0.00000000000E+00 -0.00000000000E+00 -0.45593999997E+02  0.45594000000E+02  0.51100000000E-03 0.  1.
    9900012    2    1    2    0    0 -0.48129301962E+01 -0.16266734688E+02  0.79314643839E+01  0.72461572638E+02  0.70000003053E+02 0.  0.
        -12    1    1    2    0    0  0.48129301962E+01  0.16266734688E+02 -0.79314643839E+01  0.18726427362E+02  0.00000000000E+00 0.  1.
         11    1    3    3    0    0  0.80056173760E+01 -0.12338826409E+02  0.29297402995E+02  0.32782226423E+02  0.51100000000E-03 0. -1.
        -11    1    3    3    0    0  0.98096012398E+01  0.34787382099E-01 -0.10147799078E+02  0.14114082083E+02  0.51100000000E-03 0.  1.
         12    1    3    3    0    0 -0.22628148812E+02 -0.39626956605E+01 -0.11218139533E+02  0.25565264132E+02  0.00000000000E+00 0. -1.
</event>
<event>
 7    1  0.1857734E-013  0.7246158E+02  0.7816164E-02  0.1226708E+00
        -11   -1    0    0    0    0  0.00000000000E+00  0.00000000000E+00  0.45593999997E+02  0.45594000000E+02  0.51100000000E-03 0.  1.
         11   -1    0    0    0    0 -0.00000000000E+00 -0.00000000000E+00 -0.45593999997E+02  0.45594000000E+02  0.51100000000E-03 0. -1.
    9900012    2    1    2    0    0  0.12528853981E+02 -0.12032537006E+02 -0.69946305571E+01  0.72461575208E+02  0.70000006400E+02 0.  0.
        -12    1    1    2    0    0 -0.12528853981E+02  0.12032537006E+02  0.69946305571E+01  0.18726424792E+02  0.00000000000E+00 0.  1.
         11    1    3    3    0    0  0.36430447962E+02 -0.10256671131E+02 -0.10899452125E+02  0.39384957767E+02  0.51100000000E-03 0.  1.
        -11    1    3    3    0    0 -0.22687481186E+02  0.70952146519E+01  0.40929427987E+01  0.24120863470E+02  0.51100000000E-03 0. -1.
        -12    1    3    3    0    0 -0.12141127942E+01 -0.88710805264E+01 -0.18812123043E+00  0.89557539705E+01  0.00000000000E+00 0.  1.
</event>
<event>
 7    1  0.1857734E-013  0.7246151E+02  0.7816164E-02  0.1226708E+00
        -11   -1    0    0    0    0  0.00000000000E+00  0.00000000000E+00  0.45593999997E+02  0.45594000000E+02  0.51100000000E-03 0.  1.
         11   -1    0    0    0    0 -0.00000000000E+00 -0.00000000000E+00 -0.45593999997E+02  0.45594000000E+02  0.51100000000E-03 0. -1.
    9900012    2    1    2    0    0 -0.11652250653E+02 -0.38292305116E+01 -0.14150739323E+02  0.72461511408E+02  0.69999923290E+02 0.  0.
        -12    1    1    2    0    0  0.11652250653E+02  0.38292305116E+01  0.14150739323E+02  0.18726488592E+02  0.00000000000E+00 0.  1.
         11    1    3    3    0    0  0.14512868965E+01 -0.30942134896E+02 -0.11121408404E+02  0.32912120423E+02  0.51100000000E-03 0. -1.
        -11    1    3    3    0    0 -0.14591555139E+02  0.83620151286E+01  0.70191702117E+01  0.18223762759E+02  0.51100000000E-03 0.  1.
         12    1    3    3    0    0  0.14880175899E+01  0.18750889256E+02 -0.10048501131E+02  0.21325628226E+02  0.00000000000E+00 0. -1.
</event>
<event>
 7    1  0.1857734E-013  0.7246160E+02  0.7816164E-02  0.1226708E+00
        -11   -1    0    0    0    0  0.00000000000E+00  0.00000000000E+00  0.45593999997E+02  0.45594000000E+02  0.51100000000E-03 0. -1.
         11   -1    0    0    0    0 -0.00000000000E+00 -0.00000000000E+00 -0.45593999997E+02  0.45594000000E+02  0.51100000000E-03 0.  1.
    9900012    2    1    2    0    0 -0.17102934909E+01  0.11087041941E+02  0.14994351456E+02  0.72461596757E+02  0.70000034473E+02 0.  0.
        -12    1    1    2    0    0  0.17102934909E+01 -0.11087041941E+02 -0.14994351456E+02  0.18726403243E+02  0.00000000000E+00 0.  1.
         11    1    3    3    0    0  0.10806078415E+02  0.20011705883E+02  0.26853295488E+02  0.35190043789E+02  0.51100000000E-03 0. -1.
        -11    1    3    3    0    0 -0.16763059945E+02 -0.99334744468E+01  0.47855208089E+01  0.20064279279E+02  0.51100000000E-03 0.  1.
         12    1    3    3    0    0  0.42466880393E+01  0.10088105050E+01 -0.16644464842E+02  0.17207273689E+02  0.00000000000E+00 0. -1.
</event>
<event>
 7    1  0.1857734E-013  0.7246160E+02  0.7816164E-02  0.1226708E+00
        -11   -1    0    0    0    0  0.00000000000E+00  0.00000000000E+00  0.45593999997E+02  0.45594000000E+02  0.51100000000E-03 0.  1.
         11   -1    0    0    0    0 -0.00000000000E+00 -0.00000000000E+00 -0.45593999997E+02  0.45594000000E+02  0.51100000000E-03 0. -1.
    9900012    2    1    2    0    0  0.18083252311E+02 -0.55236649993E+00 -0.48341551398E+01  0.72461596746E+02  0.70000034459E+02 0.  0.
        -12    1    1    2    0    0 -0.18083252311E+02  0.55236649993E+00  0.48341551398E+01  0.18726403254E+02  0.00000000000E+00 0.  1.
         11    1    3    3    0    0 -0.36416977116E+01 -0.18031547417E+02  0.13576224971E+02  0.22862907716E+02  0.51100000000E-03 0.  1.
        -11    1    3    3    0    0  0.25778135148E+02  0.49091517005E+01 -0.23711367815E+02  0.35367230398E+02  0.51100000000E-03 0. -1.
         12    1    3    3    0    0 -0.40531851255E+01  0.12570029217E+02  0.53009877036E+01  0.14231458632E+02  0.00000000000E+00 0. -1.
</event>
<event>
 7    1  0.1857734E-013  0.7246139E+02  0.7816164E-02  0.1226709E+00
        -11   -1    0    0    0    0  0.00000000000E+00  0.00000000000E+00  0.45593999997E+02  0.45594000000E+02  0.51100000000E-03 0. -1.
         11   -1    0    0    0    0 -0.00000000000E+00 -0.00000000000E+00 -0.45593999997E+02  0.45594000000E+02  0.51100000000E-03 0.  1.
    9900012    2    1    2    0    0  0.12811045145E+02  0.80357626335E+01  0.11044895152E+02  0.72461386111E+02  0.69999760067E+02 0.  0.
        -12    1    1    2    0    0 -0.12811045145E+02 -0.80357626335E+01 -0.11044895152E+02  0.18726613889E+02  0.00000000000E+00 0.  1.
         11    1    3    3    0    0  0.59609651470E+01  0.97172103522E+01  0.13521509024E+02  0.17685827350E+02  0.51100000000E-03 0. -1.
        -11    1    3    3    0    0  0.21158094061E+02 -0.12203691857E+02 -0.18667991150E+02  0.30742298760E+02  0.51100000000E-03 0.  1.
        -12    1    3    3    0    0 -0.14308014063E+02  0.10522244138E+02  0.16191377278E+02  0.24033260001E+02  0.00000000000E+00 0.  1.
</event>
<event>
 7    1  0.1857734E-013  0.7246155E+02  0.7816164E-02  0.1226708E+00
        -11   -1    0    0    0    0  0.00000000000E+00  0.00000000000E+00  0.45593999997E+02  0.45594000000E+02  0.51100000000E-03 0.  1.
         11   -1    0    0    0    0 -0.00000000000E+00 -0.00000000000E+00 -0.45593999997E+02  0.45594000000E+02  0.51100000000E-03 0. -1.
    9900012    2    1    2    0    0  0.37723630510E+01 -0.47595169024E+01 -0.17714292018E+02  0.72461551703E+02  0.69999975781E+02 0.  0.
        -12    1    1    2    0    0 -0.37723630510E+01  0.47595169024E+01  0.17714292018E+02  0.18726448297E+02  0.00000000000E+00 0.  1.
         11    1    3    3    0    0 -0.31090741687E+02 -0.62246763813E+01 -0.43712645770E+01  0.32007636104E+02  0.51100000000E-03 0. -1.
        -11    1    3    3    0    0  0.28372746581E+02 -0.26713013087E+01 -0.15527017749E+02  0.32453611196E+02  0.51100000000E-03 0.  1.
         12    1    3    3    0    0  0.64903581572E+01  0.41364607875E+01  0.21839903084E+01  0.80003044019E+01  0.00000000000E+00 0. -1.
</event>
<event>
 7    1  0.1857734E-013  0.7246164E+02  0.7816164E-02  0.1226708E+00
        -11   -1    0    0    0    0  0.00000000000E+00  0.00000000000E+00  0.45593999997E+02  0.45594000000E+02  0.51100000000E-03 0.  1.
         11   -1    0    0    0    0 -0.00000000000E+00 -0.00000000000E+00 -0.45593999997E+02  0.45594000000E+02  0.51100000000E-03 0. -1.
    9900012    2    1    2    0    0  0.15566436016E+01  0.38176630466E+00 -0.18657648525E+02  0.72461635342E+02  0.70000084737E+02 0.  0.
        -12    1    1    2    0    0 -0.15566436016E+01 -0.38176630466E+00  0.18657648525E+02  0.18726364658E+02  0.00000000000E+00 0.  1.
         11    1    3    3    0    0  0.18352425672E+02 -0.26684812443E+02 -0.18080990642E+02  0.37091952848E+02  0.51100000000E-03 0. -1.
        -11    1    3    3    0    0 -0.71880634289E+01  0.17479134013E+01  0.31384015066E+01  0.80357340296E+01  0.51100000000E-03 0.  1.
         12    1    3    3    0    0 -0.96077186416E+01  0.25318665347E+02 -0.37150593896E+01  0.27333948465E+02  0.00000000000E+00 0. -1.
</event>
<event>
 7    1  0.1857734E-013  0.7246153E+02  0.7816164E-02  0.1226708E+00
        -11   -1    0    0    0    0  0.00000000000E+00  0.00000000000E+00  0.45593999997E+02  0.45594000000E+02  0.51100000000E-03 0. -1.
         11   -1    0    0    0    0 -0.00000000000E+00 -0.00000000000E+00 -0.45593999997E+02  0.45594000000E+02  0.51100000000E-03 0.  1.
    9900012    2    1    2    0    0 -0.83489375078E+01  0.42372277094E+01  0.16217948184E+02  0.72461529445E+02  0.69999946786E+02 0.  0.
        -12    1    1    2    0    0  0.83489375078E+01 -0.42372277094E+01 -0.16217948184E+02  0.18726470555E+02  0.00000000000E+00 0.  1.
         11    1    3    3    0    0  0.14108292480E+02  0.70922554666E+01 -0.33812872907E-02  0.15790630640E+02  0.51100000000E-03 0. -1.
        -11    1    3    3    0    0 -0.20123571873E+02  0.14716706991E+02 -0.84217973930E+01  0.26314754059E+02  0.51100000000E-03 0.  1.
        -12    1    3    3    0    0 -0.23336581147E+01 -0.17571734748E+02  0.24643126864E+02  0.30356144747E+02  0.00000000000E+00 0.  1.
</event>
<event>
 7    1  0.1857734E-013  0.7246155E+02  0.7816164E-02  0.1226708E+00
        -11   -1    0    0    0    0  0.00000000000E+00  0.00000000000E+00  0.45593999997E+02  0.45594000000E+02  0.51100000000E-03 0. -1.
         11   -1    0    0    0    0 -0.00000000000E+00 -0.00000000000E+00 -0.45593999997E+02  0.45594000000E+02  0.51100000000E-03 0.  1.
    9900012    2    1    2    0    0  0.12594359529E+02  0.28587694434E+01  0.13560586374E+02  0.72461549256E+02  0.69999972593E+02 0.  0.
        -12    1    1    2    0    0 -0.12594359529E+02 -0.28587694434E+01 -0.13560586374E+02  0.18726450744E+02  0.00000000000E+00 0.  1.
         11    1    3    3    0    0  0.21478395720E+02  0.95380120758E+01  0.32261328729E+02  0.39913512608E+02  0.51100000000E-03 0. -1.
        -11    1    3    3    0    0  0.57892899176E+01  0.51826703540E+01 -0.55783279253E+01  0.95652335283E+01  0.51100000000E-03 0.  1.
         12    1    3    3    0    0 -0.14673326109E+02 -0.11861912986E+02 -0.13122414429E+02  0.22982803120E+02  0.00000000000E+00 0. -1.
</event>
<event>
 7    1  0.1857734E-013  0.7246158E+02  0.7816164E-02  0.1226708E+00
        -11   -1    0    0    0    0  0.00000000000E+00  0.00000000000E+00  0.45593999997E+02  0.45594000000E+02  0.51100000000E-03 0. -1.
         11   -1    0    0    0    0 -0.00000000000E+00 -0.00000000000E+00 -0.45593999997E+02  0.45594000000E+02  0.51100000000E-03 0.  1.
    9900012    2    1    2    0    0  0.24435430585E+01  0.18471886158E+02  0.18701097642E+01  0.72461580389E+02  0.70000013150E+02 0.  0.
        -12    1    1    2    0    0 -0.24435430585E+01 -0.18471886158E+02 -0.18701097642E+01  0.18726419611E+02  0.00000000000E+00 0.  1.
         11    1    3    3    0    0 -0.16149997457E+02  0.11216147647E+02 -0.19452046251E+02  0.27658750686E+02  0.51100000000E-03 0.  1.
        -11    1    3    3    0    0  0.24756923289E+02 -0.48224759222E+01  0.17552597100E+02  0.30728735574E+02  0.51100000000E-03 0. -1.
         12    1    3    3    0    0 -0.61633827734E+01  0.12078214434E+02  0.37695589152E+01  0.14074094128E+02  0.00000000000E+00 0. -1.
</event>
<event>
 7    1  0.1857734E-013  0.7246154E+02  0.7816164E-02  0.1226708E+00
        -11   -1    0    0    0    0  0.00000000000E+00  0.00000000000E+00  0.45593999997E+02  0.45594000000E+02  0.51100000000E-03 0.  1.
         11   -1    0    0    0    0 -0.00000000000E+00 -0.00000000000E+00 -0.45593999997E+02  0.45594000000E+02  0.51100000000E-03 0. -1.
    9900012    2    1    2    0    0  0.10096909971E+02 -0.73651847733E+01 -0.13945846035E+02  0.72461543866E+02  0.69999965572E+02 0.  0.
        -12    1    1    2    0    0 -0.10096909971E+02  0.73651847733E+01  0.13945846035E+02  0.18726456134E+02  0.00000000000E+00 0.  1.
         11    1    3    3    0    0  0.15576343336E+02  0.28538062228E+02 -0.89230323258E+01  0.33714447550E+02  0.51100000000E-03 0. -1.
        -11    1    3    3    0    0 -0.31321709920E+01 -0.19843153204E+02 -0.90361454346E+01  0.22027554308E+02  0.51100000000E-03 0.  1.
         12    1    3    3    0    0 -0.23472623729E+01 -0.16060093797E+02  0.40133317252E+01  0.16719542008E+02  0.00000000000E+00 0. -1.
</event>
<event>
 7    1  0.1857734E-013  0.7246161E+02  0.7816164E-02  0.1226708E+00
        -11   -1    0    0    0    0  0.00000000000E+00  0.00000000000E+00  0.45593999997E+02  0.45594000000E+02  0.51100000000E-03 0.  1.
         11   -1    0    0    0    0 -0.00000000000E+00 -0.00000000000E+00 -0.45593999997E+02  0.45594000000E+02  0.51100000000E-03 0. -1.
    9900012    2    1    2    0    0  0.24906646039E+01  0.48682985567E+01 -0.17910159323E+02  0.72461613590E+02  0.70000056400E+02 0.  0.
        -12    1    1    2    0    0 -0.24906646039E+01 -0.48682985567E+01  0.17910159323E+02  0.18726386410E+02  0.00000000000E+00 0.  1.
         11    1    3    3    0    0  0.22342828642E+02  0.31487876215E+01 -0.12340098668E+02  0.25717598850E+02  0.51100000000E-03 0. -1.
        -11    1    3    3    0    0 -0.15880655218E+02  0.20498885205E+02  0.22269549779E+01  0.26026118296E+02  0.51100000000E-03 0.  1.
         12    1    3    3    0    0 -0.39715088200E+01 -0.18779374270E+02 -0.77970156331E+01  0.20717896444E+02  0.00000000000E+00 0. -1.
</event>
<event>
 7    1  0.1857734E-013  0.7246161E+02  0.7816164E-02  0.1226708E+00
        -11   -1    0    0    0    0  0.00000000000E+00  0.00000000000E+00  0.45593999997E+02  0.45594000000E+02  0.51100000000E-03 0.  1.
         11   -1    0    0    0    0 -0.00000000000E+00 -0.00000000000E+00 -0.45593999997E+02  0.45594000000E+02  0.51100000000E-03 0. -1.
    9900012    2    1    2    0    0  0.85385442043E+01  0.12132466097E+02 -0.11426901958E+02  0.72461613293E+02  0.70000056014E+02 0.  0.
        -12    1    1    2    0    0 -0.85385442043E+01 -0.12132466097E+02  0.11426901958E+02  0.18726386707E+02  0.00000000000E+00 0.  1.
         11    1    3    3    0    0 -0.23614945810E+02  0.10209653584E+02 -0.60266382018E+01  0.26423910766E+02  0.51100000000E-03 0.  1.
        -11    1    3    3    0    0  0.27056503564E+02  0.47185903668E+00 -0.17910743911E+02  0.32451067529E+02  0.51100000000E-03 0. -1.
        -12    1    3    3    0    0  0.50969864510E+01  0.14509534770E+01  0.12510480154E+02  0.13586634998E+02  0.00000000000E+00 0.  1.
</event>
<event>
 7    1  0.1857734E-013  0.7246154E+02  0.7816164E-02  0.1226708E+00
        -11   -1    0    0    0    0  0.00000000000E+00  0.00000000000E+00  0.45593999997E+02  0.45594000000E+02  0.51100000000E-03 0.  1.
         11   -1    0    0    0    0 -0.00000000000E+00 -0.00000000000E+00 -0.45593999997E+02  0.45594000000E+02  0.51100000000E-03 0. -1.
    9900012    2    1    2    0    0 -0.14320990902E+02 -0.76805570591E+01 -0.93058308475E+01  0.72461542115E+02  0.69999963291E+02 0.  0.
        -12    1    1    2    0    0  0.14320990902E+02  0.76805570591E+01  0.93058308475E+01  0.18726457885E+02  0.00000000000E+00 0.  1.
         11    1    3    3    0    0  0.13253306925E+02 -0.52397509234E+01  0.24416463852E+01  0.14459141452E+02  0.51100000000E-03 0. -1.
        -11    1    3    3    0    0 -0.40046334543E+02 -0.10274337969E+02 -0.12682045895E+02  0.43244713195E+02  0.51100000000E-03 0.  1.
        -12    1    3    3    0    0  0.12472036715E+02  0.78335318333E+01  0.93456866217E+00  0.14757687468E+02  0.00000000000E+00 0.  1.
</event>
<event>
 7    1  0.1857734E-013  0.7246161E+02  0.7816164E-02  0.1226708E+00
        -11   -1    0    0    0    0  0.00000000000E+00  0.00000000000E+00  0.45593999997E+02  0.45594000000E+02  0.51100000000E-03 0.  1.
         11   -1    0    0    0    0 -0.00000000000E+00 -0.00000000000E+00 -0.45593999997E+02  0.45594000000E+02  0.51100000000E-03 0. -1.
    9900012    2    1    2    0    0 -0.86263642619E+01  0.15887729594E+02 -0.48829988811E+01  0.72461607125E+02  0.70000047979E+02 0.  0.
        -12    1    1    2    0    0  0.86263642619E+01 -0.15887729594E+02  0.48829988811E+01  0.18726392875E+02  0.00000000000E+00 0.  1.
         11    1    3    3    0    0  0.21376760589E+02 -0.14478495396E+01  0.61203168572E+01  0.22282738617E+02  0.51100000000E-03 0. -1.
        -11    1    3    3    0    0 -0.15106183075E+02 -0.55884218318E+01 -0.15638334537E+02  0.22449604296E+02  0.51100000000E-03 0.  1.
         12    1    3    3    0    0 -0.14896941775E+02  0.22924000965E+02  0.46350187990E+01  0.27729264213E+02  0.00000000000E+00 0. -1.
</event>
<event>
 7    1  0.1857734E-013  0.7246160E+02  0.7816164E-02  0.1226708E+00
        -11   -1    0    0    0    0  0.00000000000E+00  0.00000000000E+00  0.45593999997E+02  0.45594000000E+02  0.51100000000E-03 0. -1.
         11   -1    0    0    0    0 -0.00000000000E+00 -0.00000000000E+00 -0.45593999997E+02  0.45594000000E+02  0.51100000000E-03 0.  1.
    9900012    2    1    2    0    0 -0.16135089424E+02 -0.95045648551E+01 -0.18141114851E-01  0.72461596370E+02  0.70000033969E+02 0.  0.
        -12    1    1    2    0    0  0.16135089424E+02  0.95045648551E+01  0.18141114851E-01  0.18726403630E+02  0.00000000000E+00 0.  1.
         11    1    3    3    0    0 -0.16256211016E+01  0.62075527821E+01  0.15578673118E+02  0.16848483964E+02  0.51100000000E-03 0. -1.
        -11    1    3    3    0    0 -0.20645459024E+02  0.23980921893E+01 -0.26439973861E+02  0.33631206379E+02  0.51100000000E-03 0.  1.
        -12    1    3    3    0    0  0.61359907020E+01 -0.18110209827E+02  0.10843159628E+02  0.21981906027E+02  0.00000000000E+00 0.  1.
</event>
<event>
 7    1  0.1857734E-013  0.7246153E+02  0.7816164E-02  0.1226708E+00
        -11   -1    0    0    0    0  0.00000000000E+00  0.00000000000E+00  0.45593999997E+02  0.45594000000E+02  0.51100000000E-03 0.  1.
         11   -1    0    0    0    0 -0.00000000000E+00 -0.00000000000E+00 -0.45593999997E+02  0.45594000000E+02  0.51100000000E-03 0. -1.
    9900012    2    1    2    0    0  0.82382662529E+01  0.15703519575E+02  0.60175674722E+01  0.72461530066E+02  0.69999947595E+02 0.  0.
        -12    1    1    2    0    0 -0.82382662529E+01 -0.15703519575E+02 -0.60175674722E+01  0.18726469934E+02  0.00000000000E+00 0.  1.
         11    1    3    3    0    0 -0.11538727994E+02 -0.99223040989E+01  0.33190176020E+01  0.15575950708E+02  0.51100000000E-03 0. -1.
        -11    1    3    3    0    0  0.25524262302E+02 -0.36165552676E+01  0.71518535195E+01  0.26752877361E+02  0.51100000000E-03 0.  1.
        -12    1    3    3    0    0 -0.57472680546E+01  0.29242378942E+02 -0.44533036493E+01  0.30132701997E+02  0.00000000000E+00 0.  1.
</event>
<event>
 7    1  0.1857734E-013  0.7246157E+02  0.7816164E-02  0.1226708E+00
        -11   -1    0    0    0    0  0.00000000000E+00  0.00000000000E+00  0.45593999997E+02  0.45594000000E+02  0.51100000000E-03 0.  1.
         11   -1    0    0    0    0 -0.00000000000E+00 -0.00000000000E+00 -0.45593999997E+02  0.45594000000E+02  0.51100000000E-03 0. -1.
    9900012    2    1    2    0    0  0.98562793491E+01  0.36817066533E+01 -0.15491222558E+02  0.72461569939E+02  0.69999999537E+02 0.  0.
        -12    1    1    2    0    0 -0.98562793491E+01 -0.36817066533E+01  0.15491222558E+02  0.18726430061E+02  0.00000000000E+00 0.  1.
         11    1    3    3    0    0  0.17068335750E+02  0.90515749970E+01 -0.24664878972E+02  0.31330741296E+02  0.51100000000E-03 0. -1.
        -11    1    3    3    0    0 -0.11816795413E+02  0.14122623084E+02  0.10246514000E+02  0.21073115243E+02  0.51100000000E-03 0.  1.
        -12    1    3    3    0    0  0.46047390123E+01 -0.19492491428E+02 -0.10728575863E+01  0.20057713400E+02  0.00000000000E+00 0.  1.
</event>
<event>
 7    1  0.1857734E-013  0.7246158E+02  0.7816164E-02  0.1226708E+00
        -11   -1    0    0    0    0  0.00000000000E+00  0.00000000000E+00  0.45593999997E+02  0.45594000000E+02  0.51100000000E-03 0.  1.
         11   -1    0    0    0    0 -0.00000000000E+00 -0.00000000000E+00 -0.45593999997E+02  0.45594000000E+02  0.51100000000E-03 0. -1.
    9900012    2    1    2    0    0 -0.16156233537E+02 -0.94583125925E+01  0.44190025909E+00  0.72461579225E+02  0.70000011633E+02 0.  0.
        -12    1    1    2    0    0  0.16156233537E+02  0.94583125925E+01 -0.44190025909E+00  0.18726420775E+02  0.00000000000E+00 0.  1.
         11    1    3    3    0    0 -0.91376294426E+01 -0.25947068422E+02 -0.10846981108E+02  0.29570316720E+02  0.51100000000E-03 0. -1.
        -11    1    3    3    0    0 -0.14802326028E+00 -0.30362396439E+01  0.20148344096E+02  0.20376369454E+02  0.51100000000E-03 0.  1.
         12    1    3    3    0    0 -0.68705808346E+01  0.19524995473E+02 -0.88594627285E+01  0.22514893051E+02  0.00000000000E+00 0. -1.
</event>
<event>
 7    1  0.1857734E-013  0.7246173E+02  0.7816164E-02  0.1226708E+00
        -11   -1    0    0    0    0  0.00000000000E+00  0.00000000000E+00  0.45593999997E+02  0.45594000000E+02  0.51100000000E-03 0. -1.
         11   -1    0    0    0    0 -0.00000000000E+00 -0.00000000000E+00 -0.45593999997E+02  0.45594000000E+02  0.51100000000E-03 0.  1.
    9900012    2    1    2    0    0 -0.89170388840E+01  0.13031218641E+02  0.10067120208E+02  0.72461730991E+02  0.70000209337E+02 0.  0.
        -12    1    1    2    0    0  0.89170388840E+01 -0.13031218641E+02 -0.10067120208E+02  0.18726269009E+02  0.00000000000E+00 0.  1.
         11    1    3    3    0    0  0.15040172706E+02  0.15602778408E+02  0.21876553383E+02  0.30793458351E+02  0.51100000000E-03 0. -1.
        -11    1    3    3    0    0 -0.88959843855E+01  0.87144436636E+01 -0.17971616901E+02  0.21864562215E+02  0.51100000000E-03 0.  1.
         12    1    3    3    0    0 -0.15061227204E+02 -0.11286003430E+02  0.61621837257E+01  0.19803710425E+02  0.00000000000E+00 0. -1.
</event>
<event>
 8    1  0.1857734E-013  0.7246092E+02  0.7816164E-02  0.1226710E+00
        -11   -1    0    0    0    0  0.00000000000E+00  0.00000000000E+00  0.45593999997E+02  0.45594000000E+02  0.51100000000E-03 0. -1.
         11   -1    0    0    0    0 -0.00000000000E+00 -0.00000000000E+00 -0.45593999997E+02  0.45594000000E+02  0.51100000000E-03 0.  1.
    9900012    2    1    2    0    0 -0.10317565091E+02  0.15596997613E+02 -0.99239894424E+00  0.72460924958E+02  0.69999159325E+02 0.  0.
        -24    2    3    3    0    0 -0.11542017503E+01  0.13174675778E+02  0.33933294161E+01  0.62017291285E+02  0.60495664888E+02 0.  0.
        -12    1    1    2    0    0  0.10317565091E+02 -0.15596997613E+02  0.99239894424E+00  0.18727075042E+02  0.00000000000E+00 0.  1.
         11    1    4    4    0    0  0.10350092991E+02  0.24906775167E+02  0.23693408738E+02  0.35900550025E+02  0.51100000000E-03 0. -1.
        -11    1    3    3    0    0 -0.91633633411E+01  0.24223218347E+01 -0.43857283603E+01  0.10443633673E+02  0.51100000000E-03 0.  1.
        -12    1    4    4    0    0 -0.11504294741E+02 -0.11732099389E+02 -0.20300079322E+02  0.26116741260E+02  0.00000000000E+00 0.  1.
</event>
<event>
 7    1  0.1857734E-013  0.7246158E+02  0.7816164E-02  0.1226708E+00
        -11   -1    0    0    0    0  0.00000000000E+00  0.00000000000E+00  0.45593999997E+02  0.45594000000E+02  0.51100000000E-03 0.  1.
         11   -1    0    0    0    0 -0.00000000000E+00 -0.00000000000E+00 -0.45593999997E+02  0.45594000000E+02  0.51100000000E-03 0. -1.
    9900012    2    1    2    0    0 -0.69942551489E+01  0.51539198251E+01 -0.16589039177E+02  0.72461582418E+02  0.70000015793E+02 0.  0.
        -12    1    1    2    0    0  0.69942551489E+01 -0.51539198251E+01  0.16589039177E+02  0.18726417582E+02  0.00000000000E+00 0.  1.
         11    1    3    3    0    0  0.26081828875E+02 -0.68427144266E+00 -0.16440956467E+02  0.30838856572E+02  0.51100000000E-03 0. -1.
        -11    1    3    3    0    0 -0.22140682022E+02  0.13115687201E+02 -0.71888736140E+01  0.26719112172E+02  0.51100000000E-03 0.  1.
        -12    1    3    3    0    0 -0.10935402002E+02 -0.72774959328E+01  0.70407909039E+01  0.14903613674E+02  0.00000000000E+00 0.  1.
</event>
<event>
 7    1  0.1857734E-013  0.7246162E+02  0.7816164E-02  0.1226708E+00
        -11   -1    0    0    0    0  0.00000000000E+00  0.00000000000E+00  0.45593999997E+02  0.45594000000E+02  0.51100000000E-03 0. -1.
         11   -1    0    0    0    0 -0.00000000000E+00 -0.00000000000E+00 -0.45593999997E+02  0.45594000000E+02  0.51100000000E-03 0.  1.
    9900012    2    1    2    0    0  0.15731946717E+02 -0.97162197648E+01 -0.29628100892E+01  0.72461619739E+02  0.70000064411E+02 0.  0.
        -12    1    1    2    0    0 -0.15731946717E+02  0.97162197648E+01  0.29628100892E+01  0.18726380261E+02  0.00000000000E+00 0.  1.
         11    1    3    3    0    0  0.13292865217E+02  0.15167486601E+02 -0.33572876267E+01  0.20445642468E+02  0.51100000000E-03 0.  1.
        -11    1    3    3    0    0 -0.15970483500E+02 -0.18076653231E+02  0.14226689192E+02  0.28003935810E+02  0.51100000000E-03 0. -1.
         12    1    3    3    0    0  0.18409565000E+02 -0.68070531352E+01 -0.13832211655E+02  0.24012041461E+02  0.00000000000E+00 0. -1.
</event>
<event>
 7    1  0.1857734E-013  0.7246160E+02  0.7816164E-02  0.1226708E+00
        -11   -1    0    0    0    0  0.00000000000E+00  0.00000000000E+00  0.45593999997E+02  0.45594000000E+02  0.51100000000E-03 0. -1.
         11   -1    0    0    0    0 -0.00000000000E+00 -0.00000000000E+00 -0.45593999997E+02  0.45594000000E+02  0.51100000000E-03 0.  1.
    9900012    2    1    2    0    0  0.15059777337E+02  0.94760387494E+01  0.58383081608E+01  0.72461600292E+02  0.70000039078E+02 0.  0.
        -12    1    1    2    0    0 -0.15059777337E+02 -0.94760387494E+01 -0.58383081608E+01  0.18726399708E+02  0.00000000000E+00 0.  1.
         11    1    3    3    0    0 -0.12359179055E+02 -0.85980528494E+00  0.89581515399E+01  0.15288461379E+02  0.51100000000E-03 0. -1.
        -11    1    3    3    0    0  0.18621946472E+01  0.15321931378E+02 -0.20651883191E+02  0.25782351127E+02  0.51100000000E-03 0.  1.
        -12    1    3    3    0    0  0.25556761745E+02 -0.49860873434E+01  0.17532039812E+02  0.31390787787E+02  0.00000000000E+00 0.  1.
</event>
<event>
 7    1  0.1857734E-013  0.7246158E+02  0.7816164E-02  0.1226708E+00
        -11   -1    0    0    0    0  0.00000000000E+00  0.00000000000E+00  0.45593999997E+02  0.45594000000E+02  0.51100000000E-03 0. -1.
         11   -1    0    0    0    0 -0.00000000000E+00 -0.00000000000E+00 -0.45593999997E+02  0.45594000000E+02  0.51100000000E-03 0.  1.
    9900012    2    1    2    0    0 -0.62309743384E+01  0.42172139412E+01  0.17148441404E+02  0.72461575429E+02  0.70000006689E+02 0.  0.
        -12    1    1    2    0    0  0.62309743384E+01 -0.42172139412E+01 -0.17148441404E+02  0.18726424571E+02  0.00000000000E+00 0.  1.
         11    1    3    3    0    0 -0.10865380526E+02 -0.28383069075E+02 -0.20826409605E+01  0.30462969286E+02  0.51100000000E-03 0.  1.
        -11    1    3    3    0    0  0.90565979574E+01  0.25343383913E+02  0.19904475886E+02  0.33473829110E+02  0.51100000000E-03 0. -1.
         12    1    3    3    0    0 -0.44221917695E+01  0.72568991025E+01 -0.67339352133E+00  0.85247770331E+01  0.00000000000E+00 0. -1.
</event>
<event>
 7    1  0.1857734E-013  0.7246137E+02  0.7816164E-02  0.1226709E+00
        -11   -1    0    0    0    0  0.00000000000E+00  0.00000000000E+00  0.45593999997E+02  0.45594000000E+02  0.51100000000E-03 0. -1.
         11   -1    0    0    0    0 -0.00000000000E+00 -0.00000000000E+00 -0.45593999997E+02  0.45594000000E+02  0.51100000000E-03 0.  1.
    9900012    2    1    2    0    0 -0.18173164191E+02 -0.99834537030E-01  0.45180653526E+01  0.72461367143E+02  0.69999735357E+02 0.  0.
        -12    1    1    2    0    0  0.18173164191E+02  0.99834537030E-01 -0.45180653526E+01  0.18726632857E+02  0.00000000000E+00 0.  1.
         11    1    3    3    0    0 -0.27544682738E+00  0.18934590247E+02  0.14163644557E+02  0.23647482026E+02  0.51100000000E-03 0. -1.
        -11    1    3    3    0    0 -0.62078816648E+00 -0.25237839584E+02  0.44944900738E+01  0.25642432921E+02  0.51100000000E-03 0.  1.
        -12    1    3    3    0    0 -0.17276929197E+02  0.62034147999E+01 -0.14140069279E+02  0.23171452196E+02  0.00000000000E+00 0.  1.
</event>
<event>
 8    1  0.1857734E-013  0.7246160E+02  0.7816164E-02  0.1226708E+00
        -11   -1    0    0    0    0  0.00000000000E+00  0.00000000000E+00  0.45593999997E+02  0.45594000000E+02  0.51100000000E-03 0.  1.
         11   -1    0    0    0    0 -0.00000000000E+00 -0.00000000000E+00 -0.45593999997E+02  0.45594000000E+02  0.51100000000E-03 0. -1.
    9900012    2    1    2    0    0  0.50955547683E+01 -0.24059623228E+01 -0.17858468726E+02  0.72461595158E+02  0.70000032389E+02 0.  0.
        -24    2    3    3    0    0 -0.33233369456E+01 -0.13214432561E+02 -0.25247607088E+02  0.56895602334E+02  0.49132495408E+02 0.  0.
        -12    1    1    2    0    0 -0.50955547683E+01  0.24059623228E+01  0.17858468726E+02  0.18726404842E+02  0.00000000000E+00 0.  1.
         11    1    4    4    0    0  0.91716451651E+01 -0.17999444794E+02 -0.34949866284E+02  0.40368208301E+02  0.51100000000E-03 0. -1.
        -11    1    3    3    0    0  0.84188917139E+01  0.10808470238E+02  0.73891383618E+01  0.15565992823E+02  0.51100000000E-03 0.  1.
        -12    1    4    4    0    0 -0.12494982111E+02  0.47850122332E+01  0.97022591961E+01  0.16527394033E+02  0.00000000000E+00 0.  1.
</event>
<event>
 7    1  0.1857734E-013  0.7246157E+02  0.7816164E-02  0.1226708E+00
        -11   -1    0    0    0    0  0.00000000000E+00  0.00000000000E+00  0.45593999997E+02  0.45594000000E+02  0.51100000000E-03 0.  1.
         11   -1    0    0    0    0 -0.00000000000E+00 -0.00000000000E+00 -0.45593999997E+02  0.45594000000E+02  0.51100000000E-03 0. -1.
    9900012    2    1    2    0    0  0.13626018720E+02  0.94057847475E+01  0.87488209988E+01  0.72461573706E+02  0.70000004444E+02 0.  0.
        -12    1    1    2    0    0 -0.13626018720E+02 -0.94057847475E+01 -0.87488209988E+01  0.18726426294E+02  0.00000000000E+00 0.  1.
         11    1    3    3    0    0  0.10041078013E+02  0.60330007905E+01  0.39284917742E+02  0.40994208231E+02  0.51100000000E-03 0.  1.
        -11    1    3    3    0    0  0.42356261137E+01  0.42980148408E+01 -0.20557138127E+02  0.21424504390E+02  0.51100000000E-03 0. -1.
        -12    1    3    3    0    0 -0.65068540621E+00 -0.92523088380E+00 -0.99789586169E+01  0.10042861085E+02  0.00000000000E+00 0.  1.
</event>
<event>
 7    1  0.1857734E-013  0.7246159E+02  0.7816164E-02  0.1226708E+00
        -11   -1    0    0    0    0  0.00000000000E+00  0.00000000000E+00  0.45593999997E+02  0.45594000000E+02  0.51100000000E-03 0.  1.
         11   -1    0    0    0    0 -0.00000000000E+00 -0.00000000000E+00 -0.45593999997E+02  0.45594000000E+02  0.51100000000E-03 0. -1.
    9900012    2    1    2    0    0  0.28784518821E+01  0.99296538140E+01 -0.15613933968E+02  0.72461589664E+02  0.70000025233E+02 0.  0.
        -12    1    1    2    0    0 -0.28784518821E+01 -0.99296538140E+01  0.15613933968E+02  0.18726410336E+02  0.00000000000E+00 0.  1.
         11    1    3    3    0    0 -0.66429829434E+01  0.29799397842E+02 -0.10985078004E+02  0.32446960923E+02  0.51100000000E-03 0.  1.
        -11    1    3    3    0    0 -0.12172188164E+02 -0.50880396403E+01 -0.38857916422E+01  0.13753170145E+02  0.51100000000E-03 0. -1.
         12    1    3    3    0    0  0.21693622989E+02 -0.14781704388E+02 -0.74306432176E+00  0.26261458596E+02  0.00000000000E+00 0. -1.
</event>
<event>
 7    1  0.1857734E-013  0.7246158E+02  0.7816164E-02  0.1226708E+00
        -11   -1    0    0    0    0  0.00000000000E+00  0.00000000000E+00  0.45593999997E+02  0.45594000000E+02  0.51100000000E-03 0.  1.
         11   -1    0    0    0    0 -0.00000000000E+00 -0.00000000000E+00 -0.45593999997E+02  0.45594000000E+02  0.51100000000E-03 0. -1.
    9900012    2    1    2    0    0 -0.18068468177E+02  0.34506275636E+01 -0.35074696447E+01  0.72461582399E+02  0.70000015769E+02 0.  0.
        -12    1    1    2    0    0  0.18068468177E+02 -0.34506275636E+01  0.35074696447E+01  0.18726417601E+02  0.00000000000E+00 0.  1.
         11    1    3    3    0    0  0.16269828068E+02 -0.13318377466E+02 -0.13114629387E+02  0.24780637359E+02  0.51100000000E-03 0. -1.
        -11    1    3    3    0    0 -0.32996893453E+02  0.64957133059E+01  0.11619755365E+00  0.33630384640E+02  0.51100000000E-03 0.  1.
         12    1    3    3    0    0 -0.13414027915E+01  0.10273291724E+02  0.94909621884E+01  0.14050560400E+02  0.00000000000E+00 0. -1.
</event>
<event>
 7    1  0.1857734E-013  0.7246155E+02  0.7816164E-02  0.1226708E+00
        -11   -1    0    0    0    0  0.00000000000E+00  0.00000000000E+00  0.45593999997E+02  0.45594000000E+02  0.51100000000E-03 0.  1.
         11   -1    0    0    0    0 -0.00000000000E+00 -0.00000000000E+00 -0.45593999997E+02  0.45594000000E+02  0.51100000000E-03 0. -1.
    9900012    2    1    2    0    0  0.23333825252E+01 -0.17262927457E+02 -0.68721732668E+01  0.72461545349E+02  0.69999967504E+02 0.  0.
        -12    1    1    2    0    0 -0.23333825252E+01  0.17262927457E+02  0.68721732668E+01  0.18726454651E+02  0.00000000000E+00 0.  1.
         11    1    3    3    0    0  0.11656458677E+00 -0.30266918668E+02 -0.83012273704E+01  0.31384874209E+02  0.51100000000E-03 0. -1.
        -11    1    3    3    0    0  0.58751669181E+01  0.15020811944E+02 -0.16259059157E+02  0.22901951504E+02  0.51100000000E-03 0.  1.
         12    1    3    3    0    0 -0.36583489797E+01 -0.20168207331E+01  0.17688113260E+02  0.18174719636E+02  0.00000000000E+00 0. -1.
</event>
<event>
 7    1  0.1857734E-013  0.7246083E+02  0.7816164E-02  0.1226710E+00
        -11   -1    0    0    0    0  0.00000000000E+00  0.00000000000E+00  0.45593999997E+02  0.45594000000E+02  0.51100000000E-03 0. -1.
         11   -1    0    0    0    0 -0.00000000000E+00 -0.00000000000E+00 -0.45593999997E+02  0.45594000000E+02  0.51100000000E-03 0.  1.
    9900012    2    1    2    0    0 -0.14892917702E+02  0.85374423081E+01 -0.74846482589E+01  0.72460830475E+02  0.69999036242E+02 0.  0.
        -12    1    1    2    0    0  0.14892917702E+02 -0.85374423081E+01  0.74846482589E+01  0.18727169525E+02  0.00000000000E+00 0.  1.
         11    1    3    3    0    0 -0.15894506199E+02 -0.98271750320E+01 -0.32320336066E+02  0.37333802647E+02  0.51100000000E-03 0.  1.
        -11    1    3    3    0    0 -0.31255661824E+01  0.16325881287E+02  0.25537326275E+02  0.30470618591E+02  0.51100000000E-03 0. -1.
        -12    1    3    3    0    0  0.41271546793E+01  0.20387360527E+01 -0.70163846827E+00  0.46564092367E+01  0.00000000000E+00 0.  1.
</event>
<event>
 7    1  0.1857734E-013  0.7246159E+02  0.7816164E-02  0.1226708E+00
        -11   -1    0    0    0    0  0.00000000000E+00  0.00000000000E+00  0.45593999997E+02  0.45594000000E+02  0.51100000000E-03 0.  1.
         11   -1    0    0    0    0 -0.00000000000E+00 -0.00000000000E+00 -0.45593999997E+02  0.45594000000E+02  0.51100000000E-03 0. -1.
    9900012    2    1    2    0    0  0.18444185550E+01 -0.78204038713E+01 -0.16915019814E+02  0.72461588389E+02  0.70000023572E+02 0.  0.
        -12    1    1    2    0    0 -0.18444185550E+01  0.78204038713E+01  0.16915019814E+02  0.18726411611E+02  0.00000000000E+00 0.  1.
         11    1    3    3    0    0 -0.10158589261E+02  0.47670307211E-01 -0.39781791684E+02  0.41058375005E+02  0.51100000000E-03 0. -1.
        -11    1    3    3    0    0  0.83485736455E+01  0.10497119819E+01  0.23510794766E+01  0.87365984300E+01  0.51100000000E-03 0.  1.
         12    1    3    3    0    0  0.36544341707E+01 -0.89177861603E+01  0.20515692393E+02  0.22666614954E+02  0.00000000000E+00 0. -1.
</event>
<event>
 7    1  0.1857734E-013  0.7246137E+02  0.7816164E-02  0.1226709E+00
        -11   -1    0    0    0    0  0.00000000000E+00  0.00000000000E+00  0.45593999997E+02  0.45594000000E+02  0.51100000000E-03 0. -1.
         11   -1    0    0    0    0 -0.00000000000E+00 -0.00000000000E+00 -0.45593999997E+02  0.45594000000E+02  0.51100000000E-03 0.  1.
    9900012    2    1    2    0    0  0.12723064153E+02 -0.79888207576E+01  0.11179847560E+02  0.72461371633E+02  0.69999741206E+02 0.  0.
        -12    1    1    2    0    0 -0.12723064153E+02  0.79888207576E+01 -0.11179847560E+02  0.18726628367E+02  0.00000000000E+00 0.  1.
         11    1    3    3    0    0  0.43143814050E+01 -0.30874602034E+02  0.13359940995E+02  0.33916706227E+02  0.51100000000E-03 0. -1.
        -11    1    3    3    0    0  0.16613829167E+02  0.17852278957E+02  0.68660538787E+01  0.25335072127E+02  0.51100000000E-03 0.  1.
         12    1    3    3    0    0 -0.82051464192E+01  0.50335023191E+01 -0.90461473140E+01  0.13209593278E+02  0.00000000000E+00 0. -1.
</event>
<event>
 7    1  0.1857734E-013  0.7246098E+02  0.7816164E-02  0.1226710E+00
        -11   -1    0    0    0    0  0.00000000000E+00  0.00000000000E+00  0.45593999997E+02  0.45594000000E+02  0.51100000000E-03 0. -1.
         11   -1    0    0    0    0 -0.00000000000E+00 -0.00000000000E+00 -0.45593999997E+02  0.45594000000E+02  0.51100000000E-03 0.  1.
    9900012    2    1    2    0    0 -0.73794518745E+01 -0.12398148867E+02  0.11938630146E+02  0.72460979547E+02  0.69999230438E+02 0.  0.
        -12    1    1    2    0    0  0.73794518745E+01  0.12398148867E+02 -0.11938630146E+02  0.18727020453E+02  0.00000000000E+00 0.  1.
         11    1    3    3    0    0  0.10478728104E+02 -0.22710402098E+02  0.19531642379E+02  0.31734069396E+02  0.51100000000E-03 0. -1.
        -11    1    3    3    0    0  0.55007623120E+01  0.12372095258E+02 -0.10450581553E+02  0.17103852845E+02  0.51100000000E-03 0.  1.
         12    1    3    3    0    0 -0.23358942290E+02 -0.20598420264E+01  0.28575693193E+01  0.23623057307E+02  0.00000000000E+00 0. -1.
</event>
<event>
 7    1  0.1857734E-013  0.7246155E+02  0.7816164E-02  0.1226708E+00
        -11   -1    0    0    0    0  0.00000000000E+00  0.00000000000E+00  0.45593999997E+02  0.45594000000E+02  0.51100000000E-03 0. -1.
         11   -1    0    0    0    0 -0.00000000000E+00 -0.00000000000E+00 -0.45593999997E+02  0.45594000000E+02  0.51100000000E-03 0.  1.
    9900012    2    1    2    0    0  0.14113632983E+02  0.10444319606E+02  0.65116541593E+01  0.72461545773E+02  0.69999968056E+02 0.  0.
        -12    1    1    2    0    0 -0.14113632983E+02 -0.10444319606E+02 -0.65116541593E+01  0.18726454227E+02  0.00000000000E+00 0.  1.
         11    1    3    3    0    0 -0.99329931223E+01  0.11888717939E+02 -0.13581902529E+02  0.20602767852E+02  0.51100000000E-03 0. -1.
        -11    1    3    3    0    0  0.22307192975E+02 -0.19524091196E+02  0.12446623686E+02  0.32151507537E+02  0.51100000000E-03 0.  1.
         12    1    3    3    0    0  0.17394331305E+01  0.18079692864E+02  0.76469330020E+01  0.19707270384E+02  0.00000000000E+00 0. -1.
</event>
<event>
 7    1  0.1857734E-013  0.7246155E+02  0.7816164E-02  0.1226708E+00
        -11   -1    0    0    0    0  0.00000000000E+00  0.00000000000E+00  0.45593999997E+02  0.45594000000E+02  0.51100000000E-03 0.  1.
         11   -1    0    0    0    0 -0.00000000000E+00 -0.00000000000E+00 -0.45593999997E+02  0.45594000000E+02  0.51100000000E-03 0. -1.
    9900012    2    1    2    0    0  0.12106690904E+02 -0.12304342271E+02 -0.72602531608E+01  0.72461546002E+02  0.69999968355E+02 0.  0.
        -12    1    1    2    0    0 -0.12106690904E+02  0.12304342271E+02  0.72602531608E+01  0.18726453998E+02  0.00000000000E+00 0.  1.
         11    1    3    3    0    0 -0.10883867652E+02 -0.49742337861E+01 -0.21511749003E+02  0.24616192278E+02  0.51100000000E-03 0. -1.
        -11    1    3    3    0    0  0.99732217080E+01  0.14813485853E+02  0.13073653206E+02  0.22131988676E+02  0.51100000000E-03 0.  1.
        -12    1    3    3    0    0  0.13017336848E+02 -0.22143594338E+02  0.11778426365E+01  0.25713365048E+02  0.00000000000E+00 0.  1.
</event>
<event>
 7    1  0.1857734E-013  0.7246158E+02  0.7816164E-02  0.1226708E+00
        -11   -1    0    0    0    0  0.00000000000E+00  0.00000000000E+00  0.45593999997E+02  0.45594000000E+02  0.51100000000E-03 0.  1.
         11   -1    0    0    0    0 -0.00000000000E+00 -0.00000000000E+00 -0.45593999997E+02  0.45594000000E+02  0.51100000000E-03 0. -1.
    9900012    2    1    2    0    0 -0.14285423574E+02 -0.11112490825E+02 -0.48081247937E+01  0.72461579011E+02  0.70000011355E+02 0.  0.
        -12    1    1    2    0    0  0.14285423574E+02  0.11112490825E+02  0.48081247937E+01  0.18726420989E+02  0.00000000000E+00 0.  1.
         11    1    3    3    0    0 -0.34429084554E+02  0.69882708730E+00 -0.23663912622E+02  0.41783142335E+02  0.51100000000E-03 0. -1.
        -11    1    3    3    0    0  0.73764396174E+01 -0.46693345381E+01  0.11096282018E+02  0.14118853400E+02  0.51100000000E-03 0.  1.
         12    1    3    3    0    0  0.12767221363E+02 -0.71419833742E+01  0.77595058104E+01  0.16559583276E+02  0.00000000000E+00 0. -1.
</event>
<event>
 7    1  0.1857734E-013  0.7246152E+02  0.7816164E-02  0.1226708E+00
        -11   -1    0    0    0    0  0.00000000000E+00  0.00000000000E+00  0.45593999997E+02  0.45594000000E+02  0.51100000000E-03 0.  1.
         11   -1    0    0    0    0 -0.00000000000E+00 -0.00000000000E+00 -0.45593999997E+02  0.45594000000E+02  0.51100000000E-03 0. -1.
    9900012    2    1    2    0    0  0.12425926436E+02 -0.13333302058E+02 -0.43012085571E+01  0.72461521777E+02  0.69999936798E+02 0.  0.
        -12    1    1    2    0    0 -0.12425926436E+02  0.13333302058E+02  0.43012085571E+01  0.18726478223E+02  0.00000000000E+00 0.  1.
         11    1    3    3    0    0  0.19432878111E+02  0.11203443499E+02  0.21198176445E+01  0.22531034708E+02  0.51100000000E-03 0. -1.
        -11    1    3    3    0    0 -0.37489411502E+01 -0.20669730299E+02 -0.23850306021E+02  0.31782533063E+02  0.51100000000E-03 0.  1.
        -12    1    3    3    0    0 -0.32580105251E+01 -0.38670152584E+01  0.17429279819E+02  0.18147954006E+02  0.00000000000E+00 0.  1.
</event>
<event>
 7    1  0.1857734E-013  0.7246156E+02  0.7816164E-02  0.1226708E+00
        -11   -1    0    0    0    0  0.00000000000E+00  0.00000000000E+00  0.45593999997E+02  0.45594000000E+02  0.51100000000E-03 0. -1.
         11   -1    0    0    0    0 -0.00000000000E+00 -0.00000000000E+00 -0.45593999997E+02  0.45594000000E+02  0.51100000000E-03 0.  1.
    9900012    2    1    2    0    0  0.10426400086E+02  0.40822697876E+01  0.15010160903E+02  0.72461556779E+02  0.69999982394E+02 0.  0.
        -12    1    1    2    0    0 -0.10426400086E+02 -0.40822697876E+01 -0.15010160903E+02  0.18726443221E+02  0.00000000000E+00 0.  1.
         11    1    3    3    0    0 -0.14605657990E+02  0.77842553207E+01  0.15138213146E+02  0.22429564724E+02  0.51100000000E-03 0. -1.
        -11    1    3    3    0    0  0.29649278413E+02  0.12566804815E+02 -0.46250393813E+01  0.32532987616E+02  0.51100000000E-03 0.  1.
        -12    1    3    3    0    0 -0.46172203375E+01 -0.16268790348E+02  0.44969871388E+01  0.17499004439E+02  0.00000000000E+00 0.  1.
</event>
<event>
 7    1  0.1857734E-013  0.7246158E+02  0.7816164E-02  0.1226708E+00
        -11   -1    0    0    0    0  0.00000000000E+00  0.00000000000E+00  0.45593999997E+02  0.45594000000E+02  0.51100000000E-03 0. -1.
         11   -1    0    0    0    0 -0.00000000000E+00 -0.00000000000E+00 -0.45593999997E+02  0.45594000000E+02  0.51100000000E-03 0.  1.
    9900012    2    1    2    0    0 -0.17301288265E+02  0.63910231273E+01 -0.32402496755E+01  0.72461575616E+02  0.70000006933E+02 0.  0.
        -12    1    1    2    0    0  0.17301288265E+02 -0.63910231273E+01  0.32402496755E+01  0.18726424384E+02  0.00000000000E+00 0.  1.
         11    1    3    3    0    0 -0.85876106314E+01  0.35456030489E+02  0.11552066465E+02  0.38266530993E+02  0.51100000000E-03 0. -1.
        -11    1    3    3    0    0 -0.39790842280E+01 -0.76093531501E+01 -0.21748074852E+01  0.88580559106E+01  0.51100000000E-03 0.  1.
         12    1    3    3    0    0 -0.47345934053E+01 -0.21455654211E+02 -0.12617508655E+02  0.25336988713E+02  0.00000000000E+00 0. -1.
</event>
<event>
 7    1  0.1857734E-013  0.7246155E+02  0.7816164E-02  0.1226708E+00
        -11   -1    0    0    0    0  0.00000000000E+00  0.00000000000E+00  0.45593999997E+02  0.45594000000E+02  0.51100000000E-03 0. -1.
         11   -1    0    0    0    0 -0.00000000000E+00 -0.00000000000E+00 -0.45593999997E+02  0.45594000000E+02  0.51100000000E-03 0.  1.
    9900012    2    1    2    0    0  0.15329594524E+02  0.92444289956E+01  0.54976473637E+01  0.72461546458E+02  0.69999968949E+02 0.  0.
        -12    1    1    2    0    0 -0.15329594524E+02 -0.92444289956E+01 -0.54976473637E+01  0.18726453542E+02  0.00000000000E+00 0.  1.
         11    1    3    3    0    0 -0.50185250000E+00  0.19651091091E+02 -0.36587598955E+01  0.19995093429E+02  0.51100000000E-03 0. -1.
        -11    1    3    3    0    0  0.23539083164E+02 -0.80205032027E+01  0.24639303048E+02  0.35007315847E+02  0.51100000000E-03 0.  1.
        -12    1    3    3    0    0 -0.77076361403E+01 -0.23861588927E+01 -0.15482895789E+02  0.17459137182E+02  0.00000000000E+00 0.  1.
</event>
<event>
 7    1  0.1857734E-013  0.7246154E+02  0.7816164E-02  0.1226708E+00
        -11   -1    0    0    0    0  0.00000000000E+00  0.00000000000E+00  0.45593999997E+02  0.45594000000E+02  0.51100000000E-03 0. -1.
         11   -1    0    0    0    0 -0.00000000000E+00 -0.00000000000E+00 -0.45593999997E+02  0.45594000000E+02  0.51100000000E-03 0.  1.
    9900012    2    1    2    0    0  0.12371009759E+02 -0.35413108324E+01  0.13605050725E+02  0.72461543579E+02  0.69999965198E+02 0.  0.
        -12    1    1    2    0    0 -0.12371009759E+02  0.35413108324E+01 -0.13605050725E+02  0.18726456421E+02  0.00000000000E+00 0.  1.
         11    1    3    3    0    0 -0.10187606143E+02  0.36578922980E+01  0.13738976666E+02  0.17490768282E+02  0.51100000000E-03 0. -1.
        -11    1    3    3    0    0  0.36894097964E+02 -0.28972157817E+00  0.69625667707E+01  0.37546447761E+02  0.51100000000E-03 0.  1.
        -12    1    3    3    0    0 -0.14335482062E+02 -0.69094815522E+01 -0.70964927117E+01  0.17424327536E+02  0.00000000000E+00 0.  1.
</event>
<event>
 7    1  0.1857734E-013  0.7246158E+02  0.7816164E-02  0.1226708E+00
        -11   -1    0    0    0    0  0.00000000000E+00  0.00000000000E+00  0.45593999997E+02  0.45594000000E+02  0.51100000000E-03 0.  1.
         11   -1    0    0    0    0 -0.00000000000E+00 -0.00000000000E+00 -0.45593999997E+02  0.45594000000E+02  0.51100000000E-03 0. -1.
    9900012    2    1    2    0    0 -0.13667426885E+02  0.25942357093E+00 -0.12798944296E+02  0.72461579270E+02  0.70000011693E+02 0.  0.
        -12    1    1    2    0    0  0.13667426885E+02 -0.25942357093E+00  0.12798944296E+02  0.18726420730E+02  0.00000000000E+00 0.  1.
         11    1    3    3    0    0  0.94462969629E+00 -0.28012949287E+02 -0.20097678264E+02  0.34489626337E+02  0.51100000000E-03 0. -1.
        -11    1    3    3    0    0 -0.97741827893E+01  0.26703909019E+02 -0.75539112288E+00  0.28446511598E+02  0.51100000000E-03 0.  1.
         12    1    3    3    0    0 -0.48378737921E+01  0.15684638389E+01  0.80541250909E+01  0.95254413347E+01  0.00000000000E+00 0. -1.
</event>
<event>
 7    1  0.1857734E-013  0.7246158E+02  0.7816164E-02  0.1226708E+00
        -11   -1    0    0    0    0  0.00000000000E+00  0.00000000000E+00  0.45593999997E+02  0.45594000000E+02  0.51100000000E-03 0. -1.
         11   -1    0    0    0    0 -0.00000000000E+00 -0.00000000000E+00 -0.45593999997E+02  0.45594000000E+02  0.51100000000E-03 0.  1.
    9900012    2    1    2    0    0  0.40950925510E+01 -0.17438755030E+02 -0.54588488236E+01  0.72461575075E+02  0.70000006227E+02 0.  0.
        -12    1    1    2    0    0 -0.40950925510E+01  0.17438755030E+02  0.54588488236E+01  0.18726424925E+02  0.00000000000E+00 0.  1.
         11    1    3    3    0    0 -0.48046144279E+01 -0.31674117473E+02 -0.30337077690E+01  0.32179767255E+02  0.51100000000E-03 0. -1.
        -11    1    3    3    0    0  0.82274245980E+01  0.25111480012E+02 -0.85598429526E+01  0.27776750269E+02  0.51100000000E-03 0.  1.
        -12    1    3    3    0    0  0.67228238088E+00 -0.10876117569E+02  0.61347018979E+01  0.12505057550E+02  0.00000000000E+00 0.  1.
</event>
<event>
 7    1  0.1857734E-013  0.7246157E+02  0.7816164E-02  0.1226708E+00
        -11   -1    0    0    0    0  0.00000000000E+00  0.00000000000E+00  0.45593999997E+02  0.45594000000E+02  0.51100000000E-03 0. -1.
         11   -1    0    0    0    0 -0.00000000000E+00 -0.00000000000E+00 -0.45593999997E+02  0.45594000000E+02  0.51100000000E-03 0.  1.
    9900012    2    1    2    0    0 -0.10365561538E+02 -0.12905786609E+02  0.87564211395E+01  0.72461572012E+02  0.70000002238E+02 0.  0.
        -12    1    1    2    0    0  0.10365561538E+02  0.12905786609E+02 -0.87564211395E+01  0.18726427988E+02  0.00000000000E+00 0.  1.
         11    1    3    3    0    0  0.26072040677E+01 -0.56550843457E+00  0.31127440937E+02  0.31241557138E+02  0.51100000000E-03 0. -1.
        -11    1    3    3    0    0 -0.11163342856E+02 -0.20516597030E+02 -0.81905213416E+01  0.24751477078E+02  0.51100000000E-03 0.  1.
         12    1    3    3    0    0 -0.18094227499E+01  0.81763188551E+01 -0.14180498456E+02  0.16468537797E+02  0.00000000000E+00 0. -1.
</event>
<event>
 7    1  0.1857734E-013  0.7246154E+02  0.7816164E-02  0.1226708E+00
        -11   -1    0    0    0    0  0.00000000000E+00  0.00000000000E+00  0.45593999997E+02  0.45594000000E+02  0.51100000000E-03 0.  1.
         11   -1    0    0    0    0 -0.00000000000E+00 -0.00000000000E+00 -0.45593999997E+02  0.45594000000E+02  0.51100000000E-03 0. -1.
    9900012    2    1    2    0    0  0.31034395194E+01  0.10108561725E+02 -0.15455291219E+02  0.72461537877E+02  0.69999957770E+02 0.  0.
        -12    1    1    2    0    0 -0.31034395194E+01 -0.10108561725E+02  0.15455291219E+02  0.18726462123E+02  0.00000000000E+00 0.  1.
         11    1    3    3    0    0 -0.60358462689E+01  0.34239334872E+02 -0.14951107744E+02  0.37845727839E+02  0.51100000000E-03 0. -1.
        -11    1    3    3    0    0  0.41043463226E+01 -0.22396267860E+02  0.83762177561E+01  0.24261069575E+02  0.51100000000E-03 0.  1.
         12    1    3    3    0    0  0.50349394658E+01 -0.17345052871E+01 -0.88804012312E+01  0.10354740462E+02  0.00000000000E+00 0. -1.
</event>
<event>
 7    1  0.1857734E-013  0.7246159E+02  0.7816164E-02  0.1226708E+00
        -11   -1    0    0    0    0  0.00000000000E+00  0.00000000000E+00  0.45593999997E+02  0.45594000000E+02  0.51100000000E-03 0. -1.
         11   -1    0    0    0    0 -0.00000000000E+00 -0.00000000000E+00 -0.45593999997E+02  0.45594000000E+02  0.51100000000E-03 0.  1.
    9900012    2    1    2    0    0  0.93312197238E+01 -0.12152599636E+01  0.16190423668E+02  0.72461592526E+02  0.70000028961E+02 0.  0.
        -12    1    1    2    0    0 -0.93312197238E+01  0.12152599636E+01 -0.16190423668E+02  0.18726407474E+02  0.00000000000E+00 0.  1.
         11    1    3    3    0    0 -0.14929288201E+01  0.12330189618E+02  0.20354715025E+02  0.23844849265E+02  0.51100000000E-03 0. -1.
        -11    1    3    3    0    0  0.11623066885E+02 -0.25991047856E+02 -0.14923663841E+02  0.32145699482E+02  0.51100000000E-03 0.  1.
        -12    1    3    3    0    0 -0.79891834133E+00  0.12445598275E+02  0.10759372484E+02  0.16471043779E+02  0.00000000000E+00 0.  1.
</event>
<event>
 7    1  0.1857734E-013  0.7246157E+02  0.7816164E-02  0.1226708E+00
        -11   -1    0    0    0    0  0.00000000000E+00  0.00000000000E+00  0.45593999997E+02  0.45594000000E+02  0.51100000000E-03 0. -1.
         11   -1    0    0    0    0 -0.00000000000E+00 -0.00000000000E+00 -0.45593999997E+02  0.45594000000E+02  0.51100000000E-03 0.  1.
    9900012    2    1    2    0    0  0.10845047876E+02 -0.85458914811E+01  0.12650365086E+02  0.72461573180E+02  0.70000003759E+02 0.  0.
        -12    1    1    2    0    0 -0.10845047876E+02  0.85458914811E+01 -0.12650365086E+02  0.18726426820E+02  0.00000000000E+00 0.  1.
         11    1    3    3    0    0 -0.10908187246E+02  0.14851619016E+02  0.14115097861E+02  0.23211960802E+02  0.51100000000E-03 0. -1.
        -11    1    3    3    0    0  0.19065592248E+02 -0.16536145029E+02  0.16281811520E+02  0.30033952235E+02  0.51100000000E-03 0.  1.
        -12    1    3    3    0    0  0.26876428737E+01 -0.68613654681E+01 -0.17746544295E+02  0.19215660143E+02  0.00000000000E+00 0.  1.
</event>
<event>
 7    1  0.1857734E-013  0.7246145E+02  0.7816164E-02  0.1226708E+00
        -11   -1    0    0    0    0  0.00000000000E+00  0.00000000000E+00  0.45593999997E+02  0.45594000000E+02  0.51100000000E-03 0. -1.
         11   -1    0    0    0    0 -0.00000000000E+00 -0.00000000000E+00 -0.45593999997E+02  0.45594000000E+02  0.51100000000E-03 0.  1.
    9900012    2    1    2    0    0  0.33559593674E+01  0.60089979032E+01  0.17415889194E+02  0.72461448916E+02  0.69999841882E+02 0.  0.
        -12    1    1    2    0    0 -0.33559593674E+01 -0.60089979032E+01 -0.17415889194E+02  0.18726551084E+02  0.00000000000E+00 0.  1.
         11    1    3    3    0    0 -0.12699883115E+01 -0.17817294955E+02  0.50635316896E+01  0.18566319594E+02  0.51100000000E-03 0. -1.
        -11    1    3    3    0    0  0.24149350237E+02  0.20189052140E+02  0.12926065163E+02  0.34027519804E+02  0.51100000000E-03 0.  1.
        -12    1    3    3    0    0 -0.19523402558E+02  0.36372407183E+01 -0.57370765864E+00  0.19867609518E+02  0.00000000000E+00 0.  1.
</event>
<event>
 7    1  0.1857734E-013  0.7246157E+02  0.7816164E-02  0.1226708E+00
        -11   -1    0    0    0    0  0.00000000000E+00  0.00000000000E+00  0.45593999997E+02  0.45594000000E+02  0.51100000000E-03 0.  1.
         11   -1    0    0    0    0 -0.00000000000E+00 -0.00000000000E+00 -0.45593999997E+02  0.45594000000E+02  0.51100000000E-03 0. -1.
    9900012    2    1    2    0    0  0.10206053819E+02  0.45321578885E+01 -0.15032475016E+02  0.72461566950E+02  0.69999995643E+02 0.  0.
        -12    1    1    2    0    0 -0.10206053819E+02 -0.45321578885E+01  0.15032475016E+02  0.18726433050E+02  0.00000000000E+00 0.  1.
         11    1    3    3    0    0  0.16902900250E+02 -0.90697739297E+00  0.77141407035E+01  0.18602113103E+02  0.51100000000E-03 0. -1.
        -11    1    3    3    0    0 -0.13039512813E+02  0.25031800406E+02 -0.13404343926E+02  0.31245741507E+02  0.51100000000E-03 0.  1.
         12    1    3    3    0    0  0.63426663824E+01 -0.19592665125E+02 -0.93422717932E+01  0.22613712340E+02  0.00000000000E+00 0. -1.
</event>
<event>
 7    1  0.1857734E-013  0.7246156E+02  0.7816164E-02  0.1226708E+00
        -11   -1    0    0    0    0  0.00000000000E+00  0.00000000000E+00  0.45593999997E+02  0.45594000000E+02  0.51100000000E-03 0. -1.
         11   -1    0    0    0    0 -0.00000000000E+00 -0.00000000000E+00 -0.45593999997E+02  0.45594000000E+02  0.51100000000E-03 0.  1.
    9900012    2    1    2    0    0  0.12660936341E+02  0.34853187553E+01  0.13350382187E+02  0.72461562528E+02  0.69999989883E+02 0.  0.
        -12    1    1    2    0    0 -0.12660936341E+02 -0.34853187553E+01 -0.13350382187E+02  0.18726437472E+02  0.00000000000E+00 0.  1.
         11    1    3    3    0    0 -0.35340664607E+00  0.13823134888E+02  0.29857957219E+02  0.32904430764E+02  0.51100000000E-03 0. -1.
        -11    1    3    3    0    0  0.14647126495E+02  0.71082828686E+01 -0.14711510783E+02  0.21942984065E+02  0.51100000000E-03 0.  1.
         12    1    3    3    0    0 -0.16327835078E+01 -0.17446099001E+02 -0.17960642489E+01  0.17614147698E+02  0.00000000000E+00 0. -1.
</event>
<event>
 7    1  0.1857734E-013  0.7246160E+02  0.7816164E-02  0.1226708E+00
        -11   -1    0    0    0    0  0.00000000000E+00  0.00000000000E+00  0.45593999997E+02  0.45594000000E+02  0.51100000000E-03 0.  1.
         11   -1    0    0    0    0 -0.00000000000E+00 -0.00000000000E+00 -0.45593999997E+02  0.45594000000E+02  0.51100000000E-03 0. -1.
    9900012    2    1    2    0    0 -0.48522921411E+01 -0.13861252756E+02  0.11618899068E+02  0.72461604657E+02  0.70000044764E+02 0.  0.
        -12    1    1    2    0    0  0.48522921411E+01  0.13861252756E+02 -0.11618899068E+02  0.18726395343E+02  0.00000000000E+00 0.  1.
         11    1    3    3    0    0  0.40185386232E+01 -0.25547296593E+02 -0.15084705852E+02  0.29939294694E+02  0.51100000000E-03 0. -1.
        -11    1    3    3    0    0 -0.59606117883E+00 -0.23123118632E+01  0.26142632405E+02  0.26251462900E+02  0.51100000000E-03 0.  1.
         12    1    3    3    0    0 -0.82747695854E+01  0.13998355700E+02  0.56097251452E+00  0.16270847063E+02  0.00000000000E+00 0. -1.
</event>
<event>
 7    1  0.1857734E-013  0.7246158E+02  0.7816164E-02  0.1226708E+00
        -11   -1    0    0    0    0  0.00000000000E+00  0.00000000000E+00  0.45593999997E+02  0.45594000000E+02  0.51100000000E-03 0. -1.
         11   -1    0    0    0    0 -0.00000000000E+00 -0.00000000000E+00 -0.45593999997E+02  0.45594000000E+02  0.51100000000E-03 0.  1.
    9900012    2    1    2    0    0  0.20704330603E+01  0.30395759095E+01  0.18361726058E+02  0.72461582868E+02  0.70000016379E+02 0.  0.
        -12    1    1    2    0    0 -0.20704330603E+01 -0.30395759095E+01 -0.18361726058E+02  0.18726417132E+02  0.00000000000E+00 0.  1.
         11    1    3    3    0    0 -0.11298912034E+02 -0.22646515987E+02  0.25180181319E+02  0.35701143273E+02  0.51100000000E-03 0. -1.
        -11    1    3    3    0    0  0.18308611461E+02  0.15080452760E+02 -0.79255127953E+01  0.25008779706E+02  0.51100000000E-03 0.  1.
        -12    1    3    3    0    0 -0.49392663662E+01  0.10605639137E+02  0.11070575349E+01  0.11751659888E+02  0.00000000000E+00 0.  1.
</event>
<event>
 7    1  0.1857734E-013  0.7246154E+02  0.7816164E-02  0.1226708E+00
        -11   -1    0    0    0    0  0.00000000000E+00  0.00000000000E+00  0.45593999997E+02  0.45594000000E+02  0.51100000000E-03 0.  1.
         11   -1    0    0    0    0 -0.00000000000E+00 -0.00000000000E+00 -0.45593999997E+02  0.45594000000E+02  0.51100000000E-03 0. -1.
    9900012    2    1    2    0    0  0.14500525948E+02 -0.15994585359E+01 -0.11741241193E+02  0.72461541041E+02  0.69999961892E+02 0.  0.
        -12    1    1    2    0    0 -0.14500525948E+02  0.15994585359E+01  0.11741241193E+02  0.18726458959E+02  0.00000000000E+00 0.  1.
         11    1    3    3    0    0 -0.16764900421E+02 -0.12641902121E+02 -0.14903660133E+02  0.25748760378E+02  0.51100000000E-03 0. -1.
        -11    1    3    3    0    0  0.25127175529E+02 -0.79635508922E+01 -0.70871467154E+00  0.26368454062E+02  0.51100000000E-03 0.  1.
         12    1    3    3    0    0  0.61382508401E+01  0.19005994477E+02  0.38711336115E+01  0.20344326602E+02  0.00000000000E+00 0. -1.
</event>
<event>
 7    1  0.1857734E-013  0.7246151E+02  0.7816164E-02  0.1226708E+00
        -11   -1    0    0    0    0  0.00000000000E+00  0.00000000000E+00  0.45593999997E+02  0.45594000000E+02  0.51100000000E-03 0. -1.
         11   -1    0    0    0    0 -0.00000000000E+00 -0.00000000000E+00 -0.45593999997E+02  0.45594000000E+02  0.51100000000E-03 0.  1.
    9900012    2    1    2    0    0  0.12136904989E+02  0.14002683194E+02  0.27021915245E+01  0.72461509715E+02  0.69999921084E+02 0.  0.
        -12    1    1    2    0    0 -0.12136904989E+02 -0.14002683194E+02 -0.27021915245E+01  0.18726490285E+02  0.00000000000E+00 0.  1.
         11    1    3    3    0    0 -0.48294979020E+01 -0.14812277301E+02  0.15426236545E+02  0.21924789236E+02  0.51100000000E-03 0. -1.
        -11    1    3    3    0    0  0.19690375417E+02  0.22801841413E+02  0.59687378952E+01  0.30712549360E+02  0.51100000000E-03 0.  1.
        -12    1    3    3    0    0 -0.27239725255E+01  0.60131190818E+01 -0.18692782916E+02  0.19824171119E+02  0.00000000000E+00 0.  1.
</event>
<event>
 7    1  0.1857734E-013  0.7246174E+02  0.7816164E-02  0.1226708E+00
        -11   -1    0    0    0    0  0.00000000000E+00  0.00000000000E+00  0.45593999997E+02  0.45594000000E+02  0.51100000000E-03 0.  1.
         11   -1    0    0    0    0 -0.00000000000E+00 -0.00000000000E+00 -0.45593999997E+02  0.45594000000E+02  0.51100000000E-03 0. -1.
    9900012    2    1    2    0    0  0.15462351903E+02  0.10329312086E+02 -0.22122082396E+01  0.72461738231E+02  0.70000218768E+02 0.  0.
        -12    1    1    2    0    0 -0.15462351903E+02 -0.10329312086E+02  0.22122082396E+01  0.18726261769E+02  0.00000000000E+00 0.  1.
         11    1    3    3    0    0 -0.23716442998E+01 -0.73535287591E+01 -0.33843081137E+01  0.84352014538E+01  0.51100000000E-03 0. -1.
        -11    1    3    3    0    0  0.35156491178E+02  0.24725338995E+02 -0.71285881002E+01  0.43567625927E+02  0.51100000000E-03 0.  1.
        -12    1    3    3    0    0 -0.17322494975E+02 -0.70424981489E+01  0.83006879743E+01  0.20458910851E+02  0.00000000000E+00 0.  1.
</event>
<event>
 7    1  0.1857734E-013  0.7246159E+02  0.7816164E-02  0.1226708E+00
        -11   -1    0    0    0    0  0.00000000000E+00  0.00000000000E+00  0.45593999997E+02  0.45594000000E+02  0.51100000000E-03 0.  1.
         11   -1    0    0    0    0 -0.00000000000E+00 -0.00000000000E+00 -0.45593999997E+02  0.45594000000E+02  0.51100000000E-03 0. -1.
    9900012    2    1    2    0    0  0.13342142903E+02 -0.10474655948E+02 -0.79339272154E+01  0.72461590960E+02  0.70000026921E+02 0.  0.
        -12    1    1    2    0    0 -0.13342142903E+02  0.10474655948E+02  0.79339272154E+01  0.18726409040E+02  0.00000000000E+00 0.  1.
         11    1    3    3    0    0 -0.34379524362E+01 -0.30542029085E+02 -0.89402405516E+01  0.32008795025E+02  0.51100000000E-03 0. -1.
        -11    1    3    3    0    0  0.22177779434E+02  0.90366543130E+01 -0.79720416108E+01  0.25240215322E+02  0.51100000000E-03 0.  1.
         12    1    3    3    0    0 -0.53976840949E+01  0.11030718824E+02  0.89783549470E+01  0.15212580613E+02  0.00000000000E+00 0. -1.
</event>
<event>
 7    1  0.1857734E-013  0.7246156E+02  0.7816164E-02  0.1226708E+00
        -11   -1    0    0    0    0  0.00000000000E+00  0.00000000000E+00  0.45593999997E+02  0.45594000000E+02  0.51100000000E-03 0. -1.
         11   -1    0    0    0    0 -0.00000000000E+00 -0.00000000000E+00 -0.45593999997E+02  0.45594000000E+02  0.51100000000E-03 0.  1.
    9900012    2    1    2    0    0 -0.84170709513E+01  0.10557813178E+02  0.12975555978E+02  0.72461559991E+02  0.69999986578E+02 0.  0.
        -12    1    1    2    0    0  0.84170709513E+01 -0.10557813178E+02 -0.12975555978E+02  0.18726440009E+02  0.00000000000E+00 0.  1.
         11    1    3    3    0    0  0.65878495455E+01 -0.26210636815E+02  0.15137939932E+02  0.30976676218E+02  0.51100000000E-03 0. -1.
        -11    1    3    3    0    0 -0.22451370905E+00  0.15406565112E+02  0.11378149560E+00  0.15408621010E+02  0.51100000000E-03 0.  1.
         12    1    3    3    0    0 -0.14780406788E+02  0.21361884881E+02 -0.22761654501E+01  0.26076262762E+02  0.00000000000E+00 0. -1.
</event>
<event>
 7    1  0.1857734E-013  0.7246153E+02  0.7816164E-02  0.1226708E+00
        -11   -1    0    0    0    0  0.00000000000E+00  0.00000000000E+00  0.45593999997E+02  0.45594000000E+02  0.51100000000E-03 0.  1.
         11   -1    0    0    0    0 -0.00000000000E+00 -0.00000000000E+00 -0.45593999997E+02  0.45594000000E+02  0.51100000000E-03 0. -1.
    9900012    2    1    2    0    0 -0.12732341628E+02  0.92690764637E+01 -0.10131755406E+02  0.72461527576E+02  0.69999944351E+02 0.  0.
        -12    1    1    2    0    0  0.12732341628E+02 -0.92690764637E+01  0.10131755406E+02  0.18726472424E+02  0.00000000000E+00 0.  1.
         11    1    3    3    0    0 -0.18351534359E+02  0.13936080877E+02 -0.25847204426E+01  0.23187797299E+02  0.51100000000E-03 0. -1.
        -11    1    3    3    0    0  0.18574647837E+02  0.80591010375E+01 -0.19030593658E+02  0.27787229928E+02  0.51100000000E-03 0.  1.
        -12    1    3    3    0    0 -0.12955455107E+02 -0.12726105451E+02  0.11483558694E+02  0.21486500349E+02  0.00000000000E+00 0.  1.
</event>
<event>
 8    1  0.1857734E-013  0.7246160E+02  0.7816164E-02  0.1226708E+00
        -11   -1    0    0    0    0  0.00000000000E+00  0.00000000000E+00  0.45593999997E+02  0.45594000000E+02  0.51100000000E-03 0.  1.
         11   -1    0    0    0    0 -0.00000000000E+00 -0.00000000000E+00 -0.45593999997E+02  0.45594000000E+02  0.51100000000E-03 0. -1.
    9900012    2    1    2    0    0  0.83765242025E+01 -0.32924456185E+00 -0.16745254622E+02  0.72461598529E+02  0.70000036781E+02 0.  0.
         24    2    3    3    0    0 -0.40190614898E+01  0.11508338860E+02 -0.16505576950E+02  0.55319942496E+02  0.51373799243E+02 0.  0.
        -12    1    1    2    0    0 -0.83765242025E+01  0.32924456185E+00  0.16745254622E+02  0.18726401471E+02  0.00000000000E+00 0.  1.
         11    1    3    3    0    0  0.12395585692E+02 -0.11837583421E+02 -0.23967767214E+00  0.17141656033E+02  0.51100000000E-03 0. -1.
        -11    1    4    4    0    0 -0.15878841117E+02  0.44651343776E+00  0.13738497130E+02  0.21001982600E+02  0.51100000000E-03 0.  1.
         12    1    4    4    0    0  0.11859779627E+02  0.11061825422E+02 -0.30244074080E+02  0.34317959896E+02  0.00000000000E+00 0. -1.
</event>
<event>
 7    1  0.1857734E-013  0.7246154E+02  0.7816164E-02  0.1226708E+00
        -11   -1    0    0    0    0  0.00000000000E+00  0.00000000000E+00  0.45593999997E+02  0.45594000000E+02  0.51100000000E-03 0.  1.
         11   -1    0    0    0    0 -0.00000000000E+00 -0.00000000000E+00 -0.45593999997E+02  0.45594000000E+02  0.51100000000E-03 0. -1.
    9900012    2    1    2    0    0  0.22615934480E+01 -0.10640935249E+02 -0.15242570505E+02  0.72461541085E+02  0.69999961949E+02 0.  0.
        -12    1    1    2    0    0 -0.22615934480E+01  0.10640935249E+02  0.15242570505E+02  0.18726458915E+02  0.00000000000E+00 0.  1.
         11    1    3    3    0    0  0.23714012152E+02 -0.12717981983E+02  0.33770050698E+01  0.27120206518E+02  0.51100000000E-03 0. -1.
        -11    1    3    3    0    0 -0.22600885631E+02 -0.95039667450E+01 -0.13999132273E+01  0.24557792500E+02  0.51100000000E-03 0.  1.
         12    1    3    3    0    0  0.11484669263E+01  0.11581013479E+02 -0.17219662347E+02  0.20783542067E+02  0.00000000000E+00 0. -1.
</event>
<event>
 7    1  0.1857734E-013  0.7246151E+02  0.7816164E-02  0.1226708E+00
        -11   -1    0    0    0    0  0.00000000000E+00  0.00000000000E+00  0.45593999997E+02  0.45594000000E+02  0.51100000000E-03 0.  1.
         11   -1    0    0    0    0 -0.00000000000E+00 -0.00000000000E+00 -0.45593999997E+02  0.45594000000E+02  0.51100000000E-03 0. -1.
    9900012    2    1    2    0    0  0.10999364591E+02  0.78091549275E+01 -0.12988937378E+02  0.72461510305E+02  0.69999921852E+02 0.  0.
        -12    1    1    2    0    0 -0.10999364591E+02 -0.78091549275E+01  0.12988937378E+02  0.18726489695E+02  0.00000000000E+00 0.  1.
         11    1    3    3    0    0 -0.14975793063E+02  0.13267391260E+02 -0.15379528750E+02  0.25235450334E+02  0.51100000000E-03 0. -1.
        -11    1    3    3    0    0  0.25545468775E+02 -0.48414433665E+01 -0.14868008534E+02  0.29951097256E+02  0.51100000000E-03 0.  1.
        -12    1    3    3    0    0  0.42968888001E+00 -0.61679296588E+00  0.17258599906E+02  0.17274962715E+02  0.00000000000E+00 0.  1.
</event>
<event>
 7    1  0.1857734E-013  0.7246162E+02  0.7816164E-02  0.1226708E+00
        -11   -1    0    0    0    0  0.00000000000E+00  0.00000000000E+00  0.45593999997E+02  0.45594000000E+02  0.51100000000E-03 0.  1.
         11   -1    0    0    0    0 -0.00000000000E+00 -0.00000000000E+00 -0.45593999997E+02  0.45594000000E+02  0.51100000000E-03 0. -1.
    9900012    2    1    2    0    0 -0.52717683991E+01 -0.94498680008E+01 -0.15283517053E+02  0.72461616452E+02  0.70000060129E+02 0.  0.
        -12    1    1    2    0    0  0.52717683991E+01  0.94498680008E+01  0.15283517053E+02  0.18726383548E+02  0.00000000000E+00 0.  1.
         11    1    3    3    0    0 -0.31083755141E+02 -0.12326058339E+01 -0.23434654347E+01  0.31196329613E+02  0.51100000000E-03 0. -1.
        -11    1    3    3    0    0  0.23518323771E+01  0.20019667430E+01  0.77597868679E+01  0.83518428426E+01  0.51100000000E-03 0.  1.
         12    1    3    3    0    0  0.23460154365E+02 -0.10219228910E+02 -0.20699838486E+02  0.32913443996E+02  0.00000000000E+00 0. -1.
</event>
<event>
 7    1  0.1857734E-013  0.7246159E+02  0.7816164E-02  0.1226708E+00
        -11   -1    0    0    0    0  0.00000000000E+00  0.00000000000E+00  0.45593999997E+02  0.45594000000E+02  0.51100000000E-03 0.  1.
         11   -1    0    0    0    0 -0.00000000000E+00 -0.00000000000E+00 -0.45593999997E+02  0.45594000000E+02  0.51100000000E-03 0. -1.
    9900012    2    1    2    0    0 -0.63372529132E+01  0.15329272801E+02 -0.86908610177E+01  0.72461589657E+02  0.70000025224E+02 0.  0.
        -12    1    1    2    0    0  0.63372529132E+01 -0.15329272801E+02  0.86908610177E+01  0.18726410343E+02  0.00000000000E+00 0.  1.
         11    1    3    3    0    0  0.10046934182E+01  0.27755304590E+02  0.95826778733E+01  0.29380164350E+02  0.51100000000E-03 0. -1.
        -11    1    3    3    0    0 -0.95262842498E+01 -0.23122290699E+02 -0.43418915335E+01  0.25381931391E+02  0.51100000000E-03 0.  1.
         12    1    3    3    0    0  0.21843379184E+01  0.10696258910E+02 -0.13931647357E+02  0.17699493916E+02  0.00000000000E+00 0. -1.
</event>
<event>
 7    1  0.1857734E-013  0.7246162E+02  0.7816164E-02  0.1226708E+00
        -11   -1    0    0    0    0  0.00000000000E+00  0.00000000000E+00  0.45593999997E+02  0.45594000000E+02  0.51100000000E-03 0. -1.
         11   -1    0    0    0    0 -0.00000000000E+00 -0.00000000000E+00 -0.45593999997E+02  0.45594000000E+02  0.51100000000E-03 0.  1.
    9900012    2    1    2    0    0  0.81206856202E+01  0.29954679651E+01  0.16605994623E+02  0.72461616988E+02  0.70000060828E+02 0.  0.
        -12    1    1    2    0    0 -0.81206856202E+01 -0.29954679651E+01 -0.16605994623E+02  0.18726383012E+02  0.00000000000E+00 0.  1.
         11    1    3    3    0    0 -0.31365979625E+01  0.63245362449E+01  0.22574075420E+02  0.23652206807E+02  0.51100000000E-03 0. -1.
        -11    1    3    3    0    0  0.67903093034E+00 -0.24636909770E+02 -0.26002344684E+01  0.24783051176E+02  0.51100000000E-03 0.  1.
         12    1    3    3    0    0  0.10578252652E+02  0.21307841491E+02 -0.33678463287E+01  0.24026359005E+02  0.00000000000E+00 0. -1.
</event>
<event>
 7    1  0.1857734E-013  0.7246161E+02  0.7816164E-02  0.1226708E+00
        -11   -1    0    0    0    0  0.00000000000E+00  0.00000000000E+00  0.45593999997E+02  0.45594000000E+02  0.51100000000E-03 0. -1.
         11   -1    0    0    0    0 -0.00000000000E+00 -0.00000000000E+00 -0.45593999997E+02  0.45594000000E+02  0.51100000000E-03 0.  1.
    9900012    2    1    2    0    0  0.24433873740E+01  0.18536497915E+02  0.10516138590E+01  0.72461607167E+02  0.70000048033E+02 0.  0.
        -12    1    1    2    0    0 -0.24433873740E+01 -0.18536497915E+02 -0.10516138590E+01  0.18726392833E+02  0.00000000000E+00 0.  1.
         11    1    3    3    0    0 -0.15168256283E+01  0.37969456164E+02  0.16067494443E+02  0.41257056843E+02  0.51100000000E-03 0. -1.
        -11    1    3    3    0    0  0.10221597549E+02 -0.89732017529E+01 -0.13063064536E+02  0.18858501041E+02  0.51100000000E-03 0.  1.
        -12    1    3    3    0    0 -0.62613845471E+01 -0.10459756496E+02 -0.19528160477E+01  0.12346049284E+02  0.00000000000E+00 0.  1.
</event>
<event>
 7    1  0.1857734E-013  0.7246158E+02  0.7816164E-02  0.1226708E+00
        -11   -1    0    0    0    0  0.00000000000E+00  0.00000000000E+00  0.45593999997E+02  0.45594000000E+02  0.51100000000E-03 0.  1.
         11   -1    0    0    0    0 -0.00000000000E+00 -0.00000000000E+00 -0.45593999997E+02  0.45594000000E+02  0.51100000000E-03 0. -1.
    9900012    2    1    2    0    0 -0.17715151263E+02  0.34691776349E+01  0.49816793147E+01  0.72461577316E+02  0.70000009147E+02 0.  0.
        -12    1    1    2    0    0  0.17715151263E+02 -0.34691776349E+01 -0.49816793147E+01  0.18726422684E+02  0.00000000000E+00 0.  1.
         11    1    3    3    0    0 -0.14181661753E+02 -0.10864593284E+02 -0.12467860739E+02  0.21785464626E+02  0.51100000000E-03 0. -1.
        -11    1    3    3    0    0  0.52733380698E+01 -0.11336193548E+02  0.19820183612E+02  0.23434100308E+02  0.51100000000E-03 0.  1.
        -12    1    3    3    0    0 -0.88068275800E+01  0.25669964467E+02 -0.23706435589E+01  0.27242012382E+02  0.00000000000E+00 0.  1.
</event>
<event>
 7    1  0.1857734E-013  0.7246158E+02  0.7816164E-02  0.1226708E+00
        -11   -1    0    0    0    0  0.00000000000E+00  0.00000000000E+00  0.45593999997E+02  0.45594000000E+02  0.51100000000E-03 0.  1.
         11   -1    0    0    0    0 -0.00000000000E+00 -0.00000000000E+00 -0.45593999997E+02  0.45594000000E+02  0.51100000000E-03 0. -1.
    9900012    2    1    2    0    0  0.15629324258E+02  0.27123503784E+01 -0.99521895255E+01  0.72461582893E+02  0.70000016411E+02 0.  0.
        -12    1    1    2    0    0 -0.15629324258E+02 -0.27123503784E+01  0.99521895255E+01  0.18726417107E+02  0.00000000000E+00 0.  1.
         11    1    3    3    0    0  0.47652699320E+01 -0.13093486641E+02  0.14565951730E+02  0.20157235426E+02  0.51100000000E-03 0.  1.
        -11    1    3    3    0    0 -0.57680862655E+01  0.24696598414E+02 -0.21411151429E+02  0.33190814967E+02  0.51100000000E-03 0. -1.
        -12    1    3    3    0    0  0.16632140591E+02 -0.88907613952E+01 -0.31069898265E+01  0.19113532500E+02  0.00000000000E+00 0.  1.
</event>
<event>
 7    1  0.1857734E-013  0.7246155E+02  0.7816164E-02  0.1226708E+00
        -11   -1    0    0    0    0  0.00000000000E+00  0.00000000000E+00  0.45593999997E+02  0.45594000000E+02  0.51100000000E-03 0.  1.
         11   -1    0    0    0    0 -0.00000000000E+00 -0.00000000000E+00 -0.45593999997E+02  0.45594000000E+02  0.51100000000E-03 0. -1.
    9900012    2    1    2    0    0 -0.13726396723E+02 -0.11099780940E-02 -0.12738362990E+02  0.72461551861E+02  0.69999975987E+02 0.  0.
        -12    1    1    2    0    0  0.13726396723E+02  0.11099780940E-02  0.12738362990E+02  0.18726448139E+02  0.00000000000E+00 0.  1.
         11    1    3    3    0    0 -0.22714833221E+02 -0.23823592897E+01 -0.20892114821E+02  0.30953509429E+02  0.51100000000E-03 0. -1.
        -11    1    3    3    0    0  0.70967898265E+01 -0.17844552720E+02  0.89309709966E+01  0.21179110719E+02  0.51100000000E-03 0.  1.
         12    1    3    3    0    0  0.18916466711E+01  0.20225802032E+02 -0.77721916532E+00  0.20328931713E+02  0.00000000000E+00 0. -1.
</event>
<event>
 7    1  0.1857734E-013  0.7246156E+02  0.7816164E-02  0.1226708E+00
        -11   -1    0    0    0    0  0.00000000000E+00  0.00000000000E+00  0.45593999997E+02  0.45594000000E+02  0.51100000000E-03 0.  1.
         11   -1    0    0    0    0 -0.00000000000E+00 -0.00000000000E+00 -0.45593999997E+02  0.45594000000E+02  0.51100000000E-03 0. -1.
    9900012    2    1    2    0    0  0.88375106055E+01  0.16418810020E+01 -0.16428090685E+02  0.72461560657E+02  0.69999987445E+02 0.  0.
        -12    1    1    2    0    0 -0.88375106055E+01 -0.16418810020E+01  0.16428090685E+02  0.18726439343E+02  0.00000000000E+00 0.  1.
         11    1    3    3    0    0  0.33124259672E+02  0.71096265905E+01  0.27543859113E+01  0.33990439996E+02  0.51100000000E-03 0. -1.
        -11    1    3    3    0    0 -0.14569555535E+02  0.77757084552E+01 -0.66206041026E+01  0.17792301409E+02  0.51100000000E-03 0.  1.
         12    1    3    3    0    0 -0.97171935316E+01 -0.13243454044E+02 -0.12561872493E+02  0.20678819253E+02  0.00000000000E+00 0. -1.
</event>
<event>
 7    1  0.1857734E-013  0.7246150E+02  0.7816164E-02  0.1226708E+00
        -11   -1    0    0    0    0  0.00000000000E+00  0.00000000000E+00  0.45593999997E+02  0.45594000000E+02  0.51100000000E-03 0.  1.
         11   -1    0    0    0    0 -0.00000000000E+00 -0.00000000000E+00 -0.45593999997E+02  0.45594000000E+02  0.51100000000E-03 0. -1.
    9900012    2    1    2    0    0  0.18281431517E+02  0.33073366347E+01 -0.23521242712E+01  0.72461502663E+02  0.69999911898E+02 0.  0.
        -12    1    1    2    0    0 -0.18281431517E+02 -0.33073366347E+01  0.23521242712E+01  0.18726497337E+02  0.00000000000E+00 0.  1.
         11    1    3    3    0    0  0.16567922315E+02  0.49501262185E+01  0.11225228034E+00  0.17291975024E+02  0.51100000000E-03 0. -1.
        -11    1    3    3    0    0 -0.12341191592E+02 -0.17724415731E+02  0.16046542560E+02  0.26906345930E+02  0.51100000000E-03 0.  1.
        -12    1    3    3    0    0  0.14054700794E+02  0.16081626147E+02 -0.18510919112E+02  0.28263181709E+02  0.00000000000E+00 0.  1.
</event>
<event>
 7    1  0.1857734E-013  0.7246158E+02  0.7816164E-02  0.1226708E+00
        -11   -1    0    0    0    0  0.00000000000E+00  0.00000000000E+00  0.45593999997E+02  0.45594000000E+02  0.51100000000E-03 0. -1.
         11   -1    0    0    0    0 -0.00000000000E+00 -0.00000000000E+00 -0.45593999997E+02  0.45594000000E+02  0.51100000000E-03 0.  1.
    9900012    2    1    2    0    0 -0.30248058724E+01  0.71210226388E+00  0.18466789226E+02  0.72461578972E+02  0.70000011304E+02 0.  0.
        -12    1    1    2    0    0  0.30248058724E+01 -0.71210226388E+00 -0.18466789226E+02  0.18726421028E+02  0.00000000000E+00 0.  1.
         11    1    3    3    0    0  0.13611509066E+02  0.18205543131E+02  0.27720647706E+02  0.35848978915E+02  0.51100000000E-03 0. -1.
        -11    1    3    3    0    0 -0.13948849562E+02 -0.23385286927E+02 -0.26413470180E+01  0.27357243339E+02  0.51100000000E-03 0.  1.
        -12    1    3    3    0    0 -0.26874653768E+01  0.58918460597E+01 -0.66125114616E+01  0.92553567178E+01  0.00000000000E+00 0.  1.
</event>
<event>
 7    1  0.1857734E-013  0.7246149E+02  0.7816164E-02  0.1226708E+00
        -11   -1    0    0    0    0  0.00000000000E+00  0.00000000000E+00  0.45593999997E+02  0.45594000000E+02  0.51100000000E-03 0.  1.
         11   -1    0    0    0    0 -0.00000000000E+00 -0.00000000000E+00 -0.45593999997E+02  0.45594000000E+02  0.51100000000E-03 0. -1.
    9900012    2    1    2    0    0  0.63281665166E+01 -0.17588122717E+02  0.11378026715E+01  0.72461485452E+02  0.69999889477E+02 0.  0.
        -12    1    1    2    0    0 -0.63281665166E+01  0.17588122717E+02 -0.11378026715E+01  0.18726514548E+02  0.00000000000E+00 0.  1.
         11    1    3    3    0    0  0.11349613737E+02 -0.20994552553E+02  0.85247504641E+00  0.23881199360E+02  0.51100000000E-03 0. -1.
        -11    1    3    3    0    0 -0.17378679136E+02  0.77711609562E+01 -0.17922645099E+02  0.26146331267E+02  0.51100000000E-03 0.  1.
         12    1    3    3    0    0  0.12357231915E+02 -0.43647311205E+01  0.18207972725E+02  0.22433954825E+02  0.00000000000E+00 0. -1.
</event>
<event>
 7    1  0.1857734E-013  0.7246156E+02  0.7816164E-02  0.1226708E+00
        -11   -1    0    0    0    0  0.00000000000E+00  0.00000000000E+00  0.45593999997E+02  0.45594000000E+02  0.51100000000E-03 0.  1.
         11   -1    0    0    0    0 -0.00000000000E+00 -0.00000000000E+00 -0.45593999997E+02  0.45594000000E+02  0.51100000000E-03 0. -1.
    9900012    2    1    2    0    0  0.82681617034E+01 -0.52495258977E+01 -0.15961192523E+02  0.72461556482E+02  0.69999982006E+02 0.  0.
        -12    1    1    2    0    0 -0.82681617034E+01  0.52495258977E+01  0.15961192523E+02  0.18726443518E+02  0.00000000000E+00 0.  1.
         11    1    3    3    0    0  0.33307759241E+02 -0.19367435592E+02 -0.58244826328E+01  0.38967024331E+02  0.51100000000E-03 0. -1.
        -11    1    3    3    0    0 -0.32564587721E+01  0.75198716975E+01  0.81717962663E+00  0.82353370839E+01  0.51100000000E-03 0.  1.
         12    1    3    3    0    0 -0.21783138765E+02  0.65980379966E+01 -0.10953889516E+02  0.25259195066E+02  0.00000000000E+00 0. -1.
</event>
<event>
 7    1  0.1857734E-013  0.7246156E+02  0.7816164E-02  0.1226708E+00
        -11   -1    0    0    0    0  0.00000000000E+00  0.00000000000E+00  0.45593999997E+02  0.45594000000E+02  0.51100000000E-03 0.  1.
         11   -1    0    0    0    0 -0.00000000000E+00 -0.00000000000E+00 -0.45593999997E+02  0.45594000000E+02  0.51100000000E-03 0. -1.
    9900012    2    1    2    0    0  0.64083743264E+01  0.35908920303E+01 -0.17225500069E+02  0.72461558274E+02  0.69999984342E+02 0.  0.
        -12    1    1    2    0    0 -0.64083743264E+01 -0.35908920303E+01  0.17225500069E+02  0.18726441726E+02  0.00000000000E+00 0.  1.
         11    1    3    3    0    0  0.10094069075E+02  0.57495642417E+01 -0.34955135661E+02  0.36834891459E+02  0.51100000000E-03 0. -1.
        -11    1    3    3    0    0 -0.58134008975E+01  0.12637651366E+02  0.14952048013E+02  0.20422281999E+02  0.51100000000E-03 0.  1.
        -12    1    3    3    0    0  0.21277061486E+01 -0.14796323577E+02  0.27775875797E+01  0.15204384815E+02  0.00000000000E+00 0.  1.
</event>
<event>
 7    1  0.1857734E-013  0.7246157E+02  0.7816164E-02  0.1226708E+00
        -11   -1    0    0    0    0  0.00000000000E+00  0.00000000000E+00  0.45593999997E+02  0.45594000000E+02  0.51100000000E-03 0.  1.
         11   -1    0    0    0    0 -0.00000000000E+00 -0.00000000000E+00 -0.45593999997E+02  0.45594000000E+02  0.51100000000E-03 0. -1.
    9900012    2    1    2    0    0 -0.43302039412E+01  0.56099711153E+01 -0.17333684587E+02  0.72461573127E+02  0.70000003690E+02 0.  0.
        -12    1    1    2    0    0  0.43302039412E+01 -0.56099711153E+01  0.17333684587E+02  0.18726426873E+02  0.00000000000E+00 0.  1.
         11    1    3    3    0    0 -0.23348643717E+02  0.84957116972E+00 -0.49839443003E+01  0.23889760059E+02  0.51100000000E-03 0. -1.
        -11    1    3    3    0    0  0.20523825234E+02  0.18593387617E+02 -0.18556163286E+02  0.33335756500E+02  0.51100000000E-03 0.  1.
        -12    1    3    3    0    0 -0.15053854577E+01 -0.13832987671E+02  0.62064229993E+01  0.15236056568E+02  0.00000000000E+00 0.  1.
</event>
<event>
 7    1  0.1857734E-013  0.7246157E+02  0.7816164E-02  0.1226708E+00
        -11   -1    0    0    0    0  0.00000000000E+00  0.00000000000E+00  0.45593999997E+02  0.45594000000E+02  0.51100000000E-03 0.  1.
         11   -1    0    0    0    0 -0.00000000000E+00 -0.00000000000E+00 -0.45593999997E+02  0.45594000000E+02  0.51100000000E-03 0. -1.
    9900012    2    1    2    0    0 -0.88083986539E+01  0.12988832934E+02 -0.10216727530E+02  0.72461569767E+02  0.69999999313E+02 0.  0.
        -12    1    1    2    0    0  0.88083986539E+01 -0.12988832934E+02  0.10216727530E+02  0.18726430233E+02  0.00000000000E+00 0.  1.
         11    1    3    3    0    0  0.73567562941E+01  0.65018550291E+01 -0.26973257554E+02  0.28704574641E+02  0.51100000000E-03 0. -1.
        -11    1    3    3    0    0 -0.24191246282E+02  0.14584976926E+02  0.15671861997E+02  0.32303950336E+02  0.51100000000E-03 0.  1.
         12    1    3    3    0    0  0.80260913339E+01 -0.80979990209E+01  0.10846680260E+01  0.11453044790E+02  0.00000000000E+00 0. -1.
</event>
<event>
 7    1  0.1857734E-013  0.7246156E+02  0.7816164E-02  0.1226708E+00
        -11   -1    0    0    0    0  0.00000000000E+00  0.00000000000E+00  0.45593999997E+02  0.45594000000E+02  0.51100000000E-03 0. -1.
         11   -1    0    0    0    0 -0.00000000000E+00 -0.00000000000E+00 -0.45593999997E+02  0.45594000000E+02  0.51100000000E-03 0.  1.
    9900012    2    1    2    0    0 -0.13307992388E+02 -0.13167031864E+02  0.45410634039E+00  0.72461558745E+02  0.69999984955E+02 0.  0.
        -12    1    1    2    0    0  0.13307992388E+02  0.13167031864E+02 -0.45410634039E+00  0.18726441255E+02  0.00000000000E+00 0.  1.
         11    1    3    3    0    0  0.11309607905E+02 -0.96937355407E+01 -0.97616925184E+01  0.17809165640E+02  0.51100000000E-03 0. -1.
        -11    1    3    3    0    0 -0.12731489742E+02  0.18552129516E+02  0.17590615882E+02  0.28560499085E+02  0.51100000000E-03 0.  1.
        -12    1    3    3    0    0 -0.11886110551E+02 -0.22025425839E+02 -0.73748170228E+01  0.26091894020E+02  0.00000000000E+00 0.  1.
</event>
<event>
 7    1  0.1857734E-013  0.7246158E+02  0.7816164E-02  0.1226708E+00
        -11   -1    0    0    0    0  0.00000000000E+00  0.00000000000E+00  0.45593999997E+02  0.45594000000E+02  0.51100000000E-03 0.  1.
         11   -1    0    0    0    0 -0.00000000000E+00 -0.00000000000E+00 -0.45593999997E+02  0.45594000000E+02  0.51100000000E-03 0. -1.
    9900012    2    1    2    0    0  0.94842696163E+01  0.16078996765E+02  0.14810276232E+01  0.72461576157E+02  0.70000007637E+02 0.  0.
        -12    1    1    2    0    0 -0.94842696163E+01 -0.16078996765E+02 -0.14810276232E+01  0.18726423843E+02  0.00000000000E+00 0.  1.
         11    1    3    3    0    0  0.94894262028E+01  0.20604069600E+02  0.82594122030E+01  0.24141142971E+02  0.51100000000E-03 0. -1.
        -11    1    3    3    0    0 -0.21209807886E+02  0.62850065777E+01 -0.10046647088E+02  0.24295933327E+02  0.51100000000E-03 0.  1.
        -12    1    3    3    0    0  0.21204651300E+02 -0.10810079413E+02  0.32682625081E+01  0.24024499859E+02  0.00000000000E+00 0.  1.
</event>
<event>
 7    1  0.1857734E-013  0.7246154E+02  0.7816164E-02  0.1226708E+00
        -11   -1    0    0    0    0  0.00000000000E+00  0.00000000000E+00  0.45593999997E+02  0.45594000000E+02  0.51100000000E-03 0.  1.
         11   -1    0    0    0    0 -0.00000000000E+00 -0.00000000000E+00 -0.45593999997E+02  0.45594000000E+02  0.51100000000E-03 0. -1.
    9900012    2    1    2    0    0  0.55054118775E+01 -0.15541544711E+02 -0.88786986013E+01  0.72461535817E+02  0.69999955087E+02 0.  0.
        -12    1    1    2    0    0 -0.55054118775E+01  0.15541544711E+02  0.88786986013E+01  0.18726464183E+02  0.00000000000E+00 0.  1.
         11    1    3    3    0    0 -0.44036502276E+01  0.68292844808E+01  0.48255087901E+00  0.81402774804E+01  0.51100000000E-03 0. -1.
        -11    1    3    3    0    0  0.10346622108E+02 -0.40456626490E+02 -0.16462198330E+02  0.44886470012E+02  0.51100000000E-03 0.  1.
        -12    1    3    3    0    0 -0.43756000249E+00  0.18085797298E+02  0.71009488494E+01  0.19434788325E+02  0.00000000000E+00 0.  1.
</event>
<event>
 7    1  0.1857734E-013  0.7246157E+02  0.7816164E-02  0.1226708E+00
        -11   -1    0    0    0    0  0.00000000000E+00  0.00000000000E+00  0.45593999997E+02  0.45594000000E+02  0.51100000000E-03 0. -1.
         11   -1    0    0    0    0 -0.00000000000E+00 -0.00000000000E+00 -0.45593999997E+02  0.45594000000E+02  0.51100000000E-03 0.  1.
    9900012    2    1    2    0    0  0.10479616205E+01 -0.13575232598E+01  0.18647738145E+02  0.72461568656E+02  0.69999997866E+02 0.  0.
        -12    1    1    2    0    0 -0.10479616205E+01  0.13575232598E+01 -0.18647738145E+02  0.18726431344E+02  0.00000000000E+00 0.  1.
         11    1    3    3    0    0  0.46909363245E+01  0.77278197499E+00  0.38074437839E+02  0.38370104151E+02  0.51100000000E-03 0. -1.
        -11    1    3    3    0    0 -0.10276892543E+02 -0.12200224443E+02 -0.11360174987E+02  0.19583502567E+02  0.51100000000E-03 0.  1.
        -12    1    3    3    0    0  0.66339178389E+01  0.10069919208E+02 -0.80665247068E+01  0.14507961938E+02  0.00000000000E+00 0.  1.
</event>
<event>
 7    1  0.1857734E-013  0.7246155E+02  0.7816164E-02  0.1226708E+00
        -11   -1    0    0    0    0  0.00000000000E+00  0.00000000000E+00  0.45593999997E+02  0.45594000000E+02  0.51100000000E-03 0. -1.
         11   -1    0    0    0    0 -0.00000000000E+00 -0.00000000000E+00 -0.45593999997E+02  0.45594000000E+02  0.51100000000E-03 0.  1.
    9900012    2    1    2    0    0  0.12101701870E+02  0.80413203714E-01  0.14290629381E+02  0.72461554995E+02  0.69999980069E+02 0.  0.
        -12    1    1    2    0    0 -0.12101701870E+02 -0.80413203714E-01 -0.14290629381E+02  0.18726445005E+02  0.00000000000E+00 0.  1.
         11    1    3    3    0    0 -0.17965538755E+02  0.65911558979E+01  0.44983416638E+01  0.19658051704E+02  0.51100000000E-03 0. -1.
        -11    1    3    3    0    0  0.30564304591E+02  0.98223162644E+00 -0.95646469099E+01  0.32040973220E+02  0.51100000000E-03 0.  1.
         12    1    3    3    0    0 -0.49706396685E+00 -0.74929743206E+01  0.19356934627E+02  0.20762530070E+02  0.00000000000E+00 0. -1.
</event>
<event>
 7    1  0.1857734E-013  0.7246158E+02  0.7816164E-02  0.1226708E+00
        -11   -1    0    0    0    0  0.00000000000E+00  0.00000000000E+00  0.45593999997E+02  0.45594000000E+02  0.51100000000E-03 0.  1.
         11   -1    0    0    0    0 -0.00000000000E+00 -0.00000000000E+00 -0.45593999997E+02  0.45594000000E+02  0.51100000000E-03 0. -1.
    9900012    2    1    2    0    0  0.10185417692E+02  0.57542777365E+01 -0.14622736971E+02  0.72461577961E+02  0.70000009988E+02 0.  0.
        -12    1    1    2    0    0 -0.10185417692E+02 -0.57542777365E+01  0.14622736971E+02  0.18726422039E+02  0.00000000000E+00 0.  1.
         11    1    3    3    0    0 -0.24140323312E+02  0.87846360179E+01 -0.10427036524E+02  0.27724504153E+02  0.51100000000E-03 0. -1.
        -11    1    3    3    0    0  0.26974402097E+02  0.99789125575E+01  0.13646682176E+01  0.28793391324E+02  0.51100000000E-03 0.  1.
        -12    1    3    3    0    0  0.73513389070E+01 -0.13009270839E+02 -0.55603686647E+01  0.15943682485E+02  0.00000000000E+00 0.  1.
</event>
<event>
 7    1  0.1857734E-013  0.7246152E+02  0.7816164E-02  0.1226708E+00
        -11   -1    0    0    0    0  0.00000000000E+00  0.00000000000E+00  0.45593999997E+02  0.45594000000E+02  0.51100000000E-03 0. -1.
         11   -1    0    0    0    0 -0.00000000000E+00 -0.00000000000E+00 -0.45593999997E+02  0.45594000000E+02  0.51100000000E-03 0.  1.
    9900012    2    1    2    0    0  0.11356373061E+02 -0.58597861707E+00  0.14878523891E+02  0.72461519999E+02  0.69999934481E+02 0.  0.
        -12    1    1    2    0    0 -0.11356373061E+02  0.58597861707E+00 -0.14878523891E+02  0.18726480001E+02  0.00000000000E+00 0.  1.
         11    1    3    3    0    0  0.16174809908E+02 -0.17004318588E+02  0.20698195347E+02  0.31291957707E+02  0.51100000000E-03 0. -1.
        -11    1    3    3    0    0 -0.14708071743E+02  0.23742991233E+02 -0.98382185898E+00  0.27946822947E+02  0.51100000000E-03 0.  1.
        -12    1    3    3    0    0  0.98896348963E+01 -0.73246512616E+01 -0.48358495973E+01  0.13222739346E+02  0.00000000000E+00 0.  1.
</event>
<event>
 7    1  0.1857734E-013  0.7246157E+02  0.7816164E-02  0.1226708E+00
        -11   -1    0    0    0    0  0.00000000000E+00  0.00000000000E+00  0.45593999997E+02  0.45594000000E+02  0.51100000000E-03 0. -1.
         11   -1    0    0    0    0 -0.00000000000E+00 -0.00000000000E+00 -0.45593999997E+02  0.45594000000E+02  0.51100000000E-03 0.  1.
    9900012    2    1    2    0    0 -0.12189446059E+02 -0.42313570401E+01  0.13571739721E+02  0.72461572239E+02  0.70000002534E+02 0.  0.
        -12    1    1    2    0    0  0.12189446059E+02  0.42313570401E+01 -0.13571739721E+02  0.18726427761E+02  0.00000000000E+00 0.  1.
         11    1    3    3    0    0 -0.31051501132E+02  0.14394897115E+02  0.98308793754E+01  0.35609759548E+02  0.51100000000E-03 0. -1.
        -11    1    3    3    0    0  0.17107690084E+02 -0.23239280551E+02  0.84100985536E+01  0.30057727433E+02  0.51100000000E-03 0.  1.
         12    1    3    3    0    0  0.17543649900E+01  0.46130263953E+01 -0.46692382080E+01  0.67940852574E+01  0.00000000000E+00 0. -1.
</event>
<event>
 7    1  0.1857734E-013  0.7246121E+02  0.7816164E-02  0.1226709E+00
        -11   -1    0    0    0    0  0.00000000000E+00  0.00000000000E+00  0.45593999997E+02  0.45594000000E+02  0.51100000000E-03 0. -1.
         11   -1    0    0    0    0 -0.00000000000E+00 -0.00000000000E+00 -0.45593999997E+02  0.45594000000E+02  0.51100000000E-03 0.  1.
    9900012    2    1    2    0    0  0.86546972201E+01  0.16367445707E+02  0.28098948331E+01  0.72461212450E+02  0.69999533840E+02 0.  0.
        -12    1    1    2    0    0 -0.86546972201E+01 -0.16367445707E+02 -0.28098948331E+01  0.18726787550E+02  0.00000000000E+00 0.  1.
         11    1    3    3    0    0  0.15054187549E+02 -0.16694159006E+02  0.11247734555E+02  0.25136329099E+02  0.51100000000E-03 0. -1.
        -11    1    3    3    0    0  0.45015005659E+01  0.27311570626E+02 -0.16847927896E+02  0.32404290951E+02  0.51100000000E-03 0.  1.
        -12    1    3    3    0    0 -0.10900990895E+02  0.57500340873E+01  0.84100881741E+01  0.14920592401E+02  0.00000000000E+00 0.  1.
</event>
<event>
 7    1  0.1857734E-013  0.7246160E+02  0.7816164E-02  0.1226708E+00
        -11   -1    0    0    0    0  0.00000000000E+00  0.00000000000E+00  0.45593999997E+02  0.45594000000E+02  0.51100000000E-03 0. -1.
         11   -1    0    0    0    0 -0.00000000000E+00 -0.00000000000E+00 -0.45593999997E+02  0.45594000000E+02  0.51100000000E-03 0.  1.
    9900012    2    1    2    0    0  0.98350593244E+01 -0.22727065546E+01  0.15772908932E+02  0.72461595028E+02  0.70000032221E+02 0.  0.
        -12    1    1    2    0    0 -0.98350593244E+01  0.22727065546E+01 -0.15772908932E+02  0.18726404972E+02  0.00000000000E+00 0.  1.
         11    1    3    3    0    0 -0.58954178870E+01 -0.31285834717E+02  0.74058649514E+01  0.32686484087E+02  0.51100000000E-03 0. -1.
        -11    1    3    3    0    0  0.18919514417E+02  0.20694646302E+02  0.11535396174E+02  0.30319659901E+02  0.51100000000E-03 0.  1.
        -12    1    3    3    0    0 -0.31890372054E+01  0.83184818603E+01 -0.31683521939E+01  0.94554510407E+01  0.00000000000E+00 0.  1.
</event>
<event>
 7    1  0.1857734E-013  0.7246158E+02  0.7816164E-02  0.1226708E+00
        -11   -1    0    0    0    0  0.00000000000E+00  0.00000000000E+00  0.45593999997E+02  0.45594000000E+02  0.51100000000E-03 0.  1.
         11   -1    0    0    0    0 -0.00000000000E+00 -0.00000000000E+00 -0.45593999997E+02  0.45594000000E+02  0.51100000000E-03 0. -1.
    9900012    2    1    2    0    0  0.82877368215E+01 -0.16040262766E+02 -0.49701209641E+01  0.72461582467E+02  0.70000015857E+02 0.  0.
        -12    1    1    2    0    0 -0.82877368215E+01  0.16040262766E+02  0.49701209641E+01  0.18726417533E+02  0.00000000000E+00 0.  1.
         11    1    3    3    0    0  0.15712191286E+02  0.47350351435E+01 -0.17577847462E+02  0.24047333209E+02  0.51100000000E-03 0. -1.
        -11    1    3    3    0    0 -0.23764958808E+02 -0.79269280070E+01  0.21477932482E+01  0.25144034499E+02  0.51100000000E-03 0.  1.
        -12    1    3    3    0    0  0.16340504344E+02 -0.12848369902E+02  0.10459933250E+02  0.23270214759E+02  0.00000000000E+00 0.  1.
</event>
<event>
 7    1  0.1857734E-013  0.7246147E+02  0.7816164E-02  0.1226708E+00
        -11   -1    0    0    0    0  0.00000000000E+00  0.00000000000E+00  0.45593999997E+02  0.45594000000E+02  0.51100000000E-03 0.  1.
         11   -1    0    0    0    0 -0.00000000000E+00 -0.00000000000E+00 -0.45593999997E+02  0.45594000000E+02  0.51100000000E-03 0. -1.
    9900012    2    1    2    0    0 -0.33549307268E+01  0.15707165735E+01 -0.18356475927E+02  0.72461470177E+02  0.69999869579E+02 0.  0.
        -12    1    1    2    0    0  0.33549307268E+01 -0.15707165735E+01  0.18356475927E+02  0.18726529823E+02  0.00000000000E+00 0.  1.
         11    1    3    3    0    0  0.20638384722E+00 -0.11188413536E+01 -0.30426223921E+02  0.30447487625E+02  0.51100000000E-03 0. -1.
        -11    1    3    3    0    0  0.46665227316E+01 -0.10637119605E+02  0.20990139110E+02  0.23989803835E+02  0.51100000000E-03 0.  1.
        -12    1    3    3    0    0 -0.82278373056E+01  0.13326677533E+02 -0.89203911162E+01  0.18024178718E+02  0.00000000000E+00 0.  1.
</event>
<event>
 7    1  0.1857734E-013  0.7246157E+02  0.7816164E-02  0.1226708E+00
        -11   -1    0    0    0    0  0.00000000000E+00  0.00000000000E+00  0.45593999997E+02  0.45594000000E+02  0.51100000000E-03 0.  1.
         11   -1    0    0    0    0 -0.00000000000E+00 -0.00000000000E+00 -0.45593999997E+02  0.45594000000E+02  0.51100000000E-03 0. -1.
    9900012    2    1    2    0    0 -0.17170526182E+02 -0.57676009005E+01 -0.47525593988E+01  0.72461574544E+02  0.70000005536E+02 0.  0.
        -12    1    1    2    0    0  0.17170526182E+02  0.57676009005E+01  0.47525593988E+01  0.18726425456E+02  0.00000000000E+00 0.  1.
         11    1    3    3    0    0 -0.13624598943E+02 -0.16569715951E+02 -0.28530412000E+02  0.35695512214E+02  0.51100000000E-03 0. -1.
        -11    1    3    3    0    0 -0.10085327227E+02  0.40769066925E+01  0.25040250680E+02  0.27301083272E+02  0.51100000000E-03 0.  1.
        -12    1    3    3    0    0  0.65393999874E+01  0.67252083580E+01 -0.12623980788E+01  0.94649790577E+01  0.00000000000E+00 0.  1.
</event>
<event>
 7    1  0.1857734E-013  0.7246162E+02  0.7816164E-02  0.1226708E+00
        -11   -1    0    0    0    0  0.00000000000E+00  0.00000000000E+00  0.45593999997E+02  0.45594000000E+02  0.51100000000E-03 0.  1.
         11   -1    0    0    0    0 -0.00000000000E+00 -0.00000000000E+00 -0.45593999997E+02  0.45594000000E+02  0.51100000000E-03 0. -1.
    9900012    2    1    2    0    0  0.23459997435E+01 -0.30518094850E+01 -0.18326481015E+02  0.72461623887E+02  0.70000069814E+02 0.  0.
        -12    1    1    2    0    0 -0.23459997435E+01  0.30518094850E+01  0.18326481015E+02  0.18726376113E+02  0.00000000000E+00 0.  1.
         11    1    3    3    0    0 -0.48717703675E+01 -0.14958272189E+02 -0.11950473165E+02  0.19755957646E+02  0.51100000000E-03 0. -1.
        -11    1    3    3    0    0  0.26758440813E+02  0.28063966502E+01 -0.13369485305E+02  0.30043853855E+02  0.51100000000E-03 0.  1.
        -12    1    3    3    0    0 -0.19540670702E+02  0.91000660541E+01  0.69934774543E+01  0.22661812385E+02  0.00000000000E+00 0.  1.
</event>
<event>
 7    1  0.1857734E-013  0.7246155E+02  0.7816164E-02  0.1226708E+00
        -11   -1    0    0    0    0  0.00000000000E+00  0.00000000000E+00  0.45593999997E+02  0.45594000000E+02  0.51100000000E-03 0.  1.
         11   -1    0    0    0    0 -0.00000000000E+00 -0.00000000000E+00 -0.45593999997E+02  0.45594000000E+02  0.51100000000E-03 0. -1.
    9900012    2    1    2    0    0 -0.55193766696E+01 -0.17379111938E+02 -0.42641552095E+01  0.72461546245E+02  0.69999968672E+02 0.  0.
        -12    1    1    2    0    0  0.55193766696E+01  0.17379111938E+02  0.42641552095E+01  0.18726453755E+02  0.00000000000E+00 0.  1.
         11    1    3    3    0    0  0.13851176602E+02  0.12605113642E+02  0.17639230378E+02  0.25727153589E+02  0.51100000000E-03 0.  1.
        -11    1    3    3    0    0 -0.14581151338E+02 -0.12408907615E+02 -0.21111992944E+02  0.28501003646E+02  0.51100000000E-03 0. -1.
         12    1    3    3    0    0 -0.47894019334E+01 -0.17575317966E+02 -0.79139264390E+00  0.18233389010E+02  0.00000000000E+00 0. -1.
</event>
<event>
 7    1  0.1857734E-013  0.7246154E+02  0.7816164E-02  0.1226708E+00
        -11   -1    0    0    0    0  0.00000000000E+00  0.00000000000E+00  0.45593999997E+02  0.45594000000E+02  0.51100000000E-03 0. -1.
         11   -1    0    0    0    0 -0.00000000000E+00 -0.00000000000E+00 -0.45593999997E+02  0.45594000000E+02  0.51100000000E-03 0.  1.
    9900012    2    1    2    0    0  0.45371408618E+01  0.15145462699E+02  0.10035414773E+02  0.72461541786E+02  0.69999962863E+02 0.  0.
        -12    1    1    2    0    0 -0.45371408618E+01 -0.15145462699E+02 -0.10035414773E+02  0.18726458214E+02  0.00000000000E+00 0.  1.
         11    1    3    3    0    0  0.10772839279E+02  0.25447509849E+01 -0.18873257468E+02  0.21879891943E+02  0.51100000000E-03 0.  1.
        -11    1    3    3    0    0  0.63822686441E+01  0.11305130789E+02  0.34393633906E+02  0.36762227744E+02  0.51100000000E-03 0. -1.
         12    1    3    3    0    0 -0.12617967061E+02  0.12955809256E+01 -0.54849616653E+01  0.13819422099E+02  0.00000000000E+00 0. -1.
</event>
<event>
 7    1  0.1857734E-013  0.7246165E+02  0.7816164E-02  0.1226708E+00
        -11   -1    0    0    0    0  0.00000000000E+00  0.00000000000E+00  0.45593999997E+02  0.45594000000E+02  0.51100000000E-03 0.  1.
         11   -1    0    0    0    0 -0.00000000000E+00 -0.00000000000E+00 -0.45593999997E+02  0.45594000000E+02  0.51100000000E-03 0. -1.
    9900012    2    1    2    0    0  0.15397291860E+02 -0.62417560043E+01 -0.86394404781E+01  0.72461653683E+02  0.70000108629E+02 0.  0.
        -12    1    1    2    0    0 -0.15397291860E+02  0.62417560043E+01  0.86394404781E+01  0.18726346317E+02  0.00000000000E+00 0.  1.
         11    1    3    3    0    0 -0.33416039306E+01  0.12272020421E+02 -0.12630211384E+02  0.17924593214E+02  0.51100000000E-03 0. -1.
        -11    1    3    3    0    0  0.19938247519E+02  0.87139118002E+01  0.13575351542E+02  0.25646756963E+02  0.51100000000E-03 0.  1.
        -12    1    3    3    0    0 -0.11993517284E+01 -0.27227688225E+02 -0.95845806367E+01  0.28890303505E+02  0.00000000000E+00 0.  1.
</event>
<event>
 7    1  0.1857734E-013  0.7246158E+02  0.7816164E-02  0.1226708E+00
        -11   -1    0    0    0    0  0.00000000000E+00  0.00000000000E+00  0.45593999997E+02  0.45594000000E+02  0.51100000000E-03 0.  1.
         11   -1    0    0    0    0 -0.00000000000E+00 -0.00000000000E+00 -0.45593999997E+02  0.45594000000E+02  0.51100000000E-03 0. -1.
    9900012    2    1    2    0    0  0.50350900396E+01 -0.55801919778E+01 -0.17151909562E+02  0.72461583476E+02  0.70000017171E+02 0.  0.
        -12    1    1    2    0    0 -0.50350900396E+01  0.55801919778E+01  0.17151909562E+02  0.18726416524E+02  0.00000000000E+00 0.  1.
         11    1    3    3    0    0 -0.65522701657E+01 -0.21206051049E+02 -0.25621226311E+02  0.33898024771E+02  0.51100000000E-03 0. -1.
        -11    1    3    3    0    0  0.14904938885E+02 -0.18040919111E+01  0.13426107599E+02  0.20141308704E+02  0.51100000000E-03 0.  1.
         12    1    3    3    0    0 -0.33175786800E+01  0.17429950983E+02 -0.49567908500E+01  0.18422250001E+02  0.00000000000E+00 0. -1.
</event>
<event>
 7    1  0.1857734E-013  0.7246156E+02  0.7816164E-02  0.1226708E+00
        -11   -1    0    0    0    0  0.00000000000E+00  0.00000000000E+00  0.45593999997E+02  0.45594000000E+02  0.51100000000E-03 0.  1.
         11   -1    0    0    0    0 -0.00000000000E+00 -0.00000000000E+00 -0.45593999997E+02  0.45594000000E+02  0.51100000000E-03 0. -1.
    9900012    2    1    2    0    0 -0.18713930021E+01 -0.17658617643E+02 -0.59456306247E+01  0.72461563811E+02  0.69999991554E+02 0.  0.
        -12    1    1    2    0    0  0.18713930021E+01  0.17658617643E+02  0.59456306247E+01  0.18726436189E+02  0.00000000000E+00 0.  1.
         11    1    3    3    0    0  0.14443832538E+02  0.52854322417E+01  0.54682511127E+01  0.16323659604E+02  0.51100000000E-03 0. -1.
        -11    1    3    3    0    0 -0.13055868014E+02 -0.44511734724E+01 -0.27916875048E+02  0.31138730667E+02  0.51100000000E-03 0.  1.
        -12    1    3    3    0    0 -0.32593575266E+01 -0.18492876412E+02  0.16502993310E+02  0.24999173540E+02  0.00000000000E+00 0.  1.
</event>
<event>
 7    1  0.1857734E-013  0.7246159E+02  0.7816164E-02  0.1226708E+00
        -11   -1    0    0    0    0  0.00000000000E+00  0.00000000000E+00  0.45593999997E+02  0.45594000000E+02  0.51100000000E-03 0. -1.
         11   -1    0    0    0    0 -0.00000000000E+00 -0.00000000000E+00 -0.45593999997E+02  0.45594000000E+02  0.51100000000E-03 0.  1.
    9900012    2    1    2    0    0 -0.74359157385E+01  0.14999101735E+02  0.83912094966E+01  0.72461593710E+02  0.70000030503E+02 0.  0.
        -12    1    1    2    0    0  0.74359157385E+01 -0.14999101735E+02 -0.83912094966E+01  0.18726406290E+02  0.00000000000E+00 0.  1.
         11    1    3    3    0    0 -0.20841445496E+02  0.18338901641E+02  0.12324117328E+02  0.30373755644E+02  0.51100000000E-03 0. -1.
        -11    1    3    3    0    0  0.15544811096E+02 -0.31647006423E+01 -0.20197293995E+02  0.25682429151E+02  0.51100000000E-03 0.  1.
         12    1    3    3    0    0 -0.21392813385E+01 -0.17509926366E+00  0.16264386163E+02  0.16405408915E+02  0.00000000000E+00 0. -1.
</event>
<event>
 7    1  0.1857734E-013  0.7246154E+02  0.7816164E-02  0.1226708E+00
        -11   -1    0    0    0    0  0.00000000000E+00  0.00000000000E+00  0.45593999997E+02  0.45594000000E+02  0.51100000000E-03 0. -1.
         11   -1    0    0    0    0 -0.00000000000E+00 -0.00000000000E+00 -0.45593999997E+02  0.45594000000E+02  0.51100000000E-03 0.  1.
    9900012    2    1    2    0    0 -0.46787669275E+01  0.17470425662E+02  0.48552825590E+01  0.72461537400E+02  0.69999957150E+02 0.  0.
        -12    1    1    2    0    0  0.46787669275E+01 -0.17470425662E+02 -0.48552825590E+01  0.18726462600E+02  0.00000000000E+00 0.  1.
         11    1    3    3    0    0  0.14138817692E+02  0.87790671372E+01  0.18350543927E+02  0.24773385885E+02  0.51100000000E-03 0.  1.
        -11    1    3    3    0    0 -0.12011965458E+01 -0.15574592538E+02 -0.63513325722E+01  0.16862687555E+02  0.51100000000E-03 0. -1.
        -12    1    3    3    0    0 -0.17616388074E+02  0.24265951063E+02 -0.71439287956E+01  0.30825463961E+02  0.00000000000E+00 0.  1.
</event>
<event>
 8    1  0.1857734E-013  0.7246188E+02  0.7816164E-02  0.1226707E+00
        -11   -1    0    0    0    0  0.00000000000E+00  0.00000000000E+00  0.45593999997E+02  0.45594000000E+02  0.51100000000E-03 0. -1.
         11   -1    0    0    0    0 -0.00000000000E+00 -0.00000000000E+00 -0.45593999997E+02  0.45594000000E+02  0.51100000000E-03 0.  1.
    9900012    2    1    2    0    0 -0.18135630335E+02  0.23933663783E+01  0.40047594558E+01  0.72461884851E+02  0.70000409767E+02 0.  0.
        -24    2    3    3    0    0  0.34246115034E+01  0.29224561757E+00  0.15497284910E+01  0.50660831805E+02  0.50520340946E+02 0.  0.
        -12    1    1    2    0    0  0.18135630335E+02 -0.23933663783E+01 -0.40047594558E+01  0.18726115149E+02  0.00000000000E+00 0.  1.
         11    1    4    4    0    0  0.13331889640E+02 -0.16505423572E+02 -0.14253117951E+02  0.25560118549E+02  0.51100000000E-03 0.  1.
        -11    1    3    3    0    0 -0.21560241839E+02  0.21011207608E+01  0.24550309648E+01  0.21801053046E+02  0.51100000000E-03 0. -1.
        -12    1    4    4    0    0 -0.99072781370E+01  0.16797669189E+02  0.15802846442E+02  0.25100713256E+02  0.00000000000E+00 0.  1.
</event>
<event>
 7    1  0.1857734E-013  0.7246157E+02  0.7816164E-02  0.1226708E+00
        -11   -1    0    0    0    0  0.00000000000E+00  0.00000000000E+00  0.45593999997E+02  0.45594000000E+02  0.51100000000E-03 0. -1.
         11   -1    0    0    0    0 -0.00000000000E+00 -0.00000000000E+00 -0.45593999997E+02  0.45594000000E+02  0.51100000000E-03 0.  1.
    9900012    2    1    2    0    0 -0.95270315383E+01  0.16025819868E+02  0.17573016073E+01  0.72461565708E+02  0.69999994025E+02 0.  0.
        -12    1    1    2    0    0  0.95270315383E+01 -0.16025819868E+02 -0.17573016073E+01  0.18726434292E+02  0.00000000000E+00 0.  1.
         11    1    3    3    0    0 -0.14520686717E+01 -0.16779005627E+02 -0.11999855976E+02  0.20679460268E+02  0.51100000000E-03 0. -1.
        -11    1    3    3    0    0 -0.22522059909E+02  0.23637512984E+02  0.70336551871E+01  0.33398315948E+02  0.51100000000E-03 0.  1.
         12    1    3    3    0    0  0.14447097042E+02  0.91673125103E+01  0.67235023967E+01  0.18383789492E+02  0.00000000000E+00 0. -1.
</event>
<event>
 7    1  0.1857734E-013  0.7246163E+02  0.7816164E-02  0.1226708E+00
        -11   -1    0    0    0    0  0.00000000000E+00  0.00000000000E+00  0.45593999997E+02  0.45594000000E+02  0.51100000000E-03 0. -1.
         11   -1    0    0    0    0 -0.00000000000E+00 -0.00000000000E+00 -0.45593999997E+02  0.45594000000E+02  0.51100000000E-03 0.  1.
    9900012    2    1    2    0    0  0.51694789901E+01  0.73774964993E+01 -0.16417247101E+02  0.72461629023E+02  0.70000076504E+02 0.  0.
        -12    1    1    2    0    0 -0.51694789901E+01 -0.73774964993E+01  0.16417247101E+02  0.18726370977E+02  0.00000000000E+00 0.  1.
         11    1    3    3    0    0 -0.84510664524E+01 -0.67589863300E+00  0.23139654024E+02  0.24643882643E+02  0.51100000000E-03 0. -1.
        -11    1    3    3    0    0  0.98935104563E+01 -0.38005454650E+01 -0.30917194680E+02  0.32683308005E+02  0.51100000000E-03 0.  1.
         12    1    3    3    0    0  0.37270349862E+01  0.11853940597E+02 -0.86397064436E+01  0.15134438374E+02  0.00000000000E+00 0. -1.
</event>
<event>
 7    1  0.1857734E-013  0.7246145E+02  0.7816164E-02  0.1226708E+00
        -11   -1    0    0    0    0  0.00000000000E+00  0.00000000000E+00  0.45593999997E+02  0.45594000000E+02  0.51100000000E-03 0. -1.
         11   -1    0    0    0    0 -0.00000000000E+00 -0.00000000000E+00 -0.45593999997E+02  0.45594000000E+02  0.51100000000E-03 0.  1.
    9900012    2    1    2    0    0  0.11651740473E+02  0.49218112697E+01  0.13809289021E+02  0.72461448115E+02  0.69999840838E+02 0.  0.
        -12    1    1    2    0    0 -0.11651740473E+02 -0.49218112697E+01 -0.13809289021E+02  0.18726551885E+02  0.00000000000E+00 0.  1.
         11    1    3    3    0    0  0.18954562395E+02  0.11003212811E+02  0.92220092087E+01  0.23777964208E+02  0.51100000000E-03 0. -1.
        -11    1    3    3    0    0 -0.25552049574E+02  0.35243204277E+01 -0.44365879892E+01  0.26172722158E+02  0.51100000000E-03 0.  1.
        -12    1    3    3    0    0  0.18249227652E+02 -0.96057219687E+01  0.90238678018E+01  0.22510761749E+02  0.00000000000E+00 0.  1.
</event>
<event>
 7    1  0.1857734E-013  0.7246137E+02  0.7816164E-02  0.1226709E+00
        -11   -1    0    0    0    0  0.00000000000E+00  0.00000000000E+00  0.45593999997E+02  0.45594000000E+02  0.51100000000E-03 0.  1.
         11   -1    0    0    0    0 -0.00000000000E+00 -0.00000000000E+00 -0.45593999997E+02  0.45594000000E+02  0.51100000000E-03 0. -1.
    9900012    2    1    2    0    0  0.50280659209E+01  0.12453202748E+02  0.13050790121E+02  0.72461365802E+02  0.69999733611E+02 0.  0.
        -12    1    1    2    0    0 -0.50280659209E+01 -0.12453202748E+02 -0.13050790121E+02  0.18726634198E+02  0.00000000000E+00 0.  1.
         11    1    3    3    0    0  0.95457582650E+01  0.11464332088E+02 -0.26456007297E+02  0.30372236227E+02  0.51100000000E-03 0. -1.
        -11    1    3    3    0    0 -0.86493709530E+01  0.14466331077E+01  0.16264828806E+02  0.18478339254E+02  0.51100000000E-03 0.  1.
         12    1    3    3    0    0  0.41316786088E+01 -0.45776244794E+00  0.23241968613E+02  0.23610790321E+02  0.00000000000E+00 0. -1.
</event>
<event>
 7    1  0.1857734E-013  0.7246153E+02  0.7816164E-02  0.1226708E+00
        -11   -1    0    0    0    0  0.00000000000E+00  0.00000000000E+00  0.45593999997E+02  0.45594000000E+02  0.51100000000E-03 0. -1.
         11   -1    0    0    0    0 -0.00000000000E+00 -0.00000000000E+00 -0.45593999997E+02  0.45594000000E+02  0.51100000000E-03 0.  1.
    9900012    2    1    2    0    0  0.16732163991E+02 -0.31289721478E+01 -0.78054417644E+01  0.72461529439E+02  0.69999946778E+02 0.  0.
        -12    1    1    2    0    0 -0.16732163991E+02  0.31289721478E+01  0.78054417644E+01  0.18726470561E+02  0.00000000000E+00 0.  1.
         11    1    3    3    0    0 -0.14490865774E+02  0.90619190667E+01  0.10840256148E+02  0.20238940725E+02  0.51100000000E-03 0. -1.
        -11    1    3    3    0    0  0.16119786099E+02 -0.11530779373E+02 -0.28104292355E+02  0.34389789558E+02  0.51100000000E-03 0.  1.
         12    1    3    3    0    0  0.15103243667E+02 -0.66011184132E+00  0.94585944424E+01  0.17832799156E+02  0.00000000000E+00 0. -1.
</event>
<event>
 7    1  0.1857734E-013  0.7246167E+02  0.7816164E-02  0.1226708E+00
        -11   -1    0    0    0    0  0.00000000000E+00  0.00000000000E+00  0.45593999997E+02  0.45594000000E+02  0.51100000000E-03 0. -1.
         11   -1    0    0    0    0 -0.00000000000E+00 -0.00000000000E+00 -0.45593999997E+02  0.45594000000E+02  0.51100000000E-03 0.  1.
    9900012    2    1    2    0    0  0.47169544461E+01  0.17774803098E+02  0.35330322092E+01  0.72461665575E+02  0.70000124120E+02 0.  0.
        -12    1    1    2    0    0 -0.47169544461E+01 -0.17774803098E+02 -0.35330322092E+01  0.18726334425E+02  0.00000000000E+00 0.  1.
         11    1    3    3    0    0 -0.79395517079E+01  0.35656949253E+02  0.16071101409E+02  0.39909081825E+02  0.51100000000E-03 0. -1.
        -11    1    3    3    0    0  0.10430341918E+02 -0.77911486301E+00  0.11653514997E+01  0.10524119767E+02  0.51100000000E-03 0.  1.
         12    1    3    3    0    0  0.22261642363E+01 -0.17103031292E+02 -0.13703420700E+02  0.22028463983E+02  0.00000000000E+00 0. -1.
</event>
<event>
 7    1  0.1857734E-013  0.7246154E+02  0.7816164E-02  0.1226708E+00
        -11   -1    0    0    0    0  0.00000000000E+00  0.00000000000E+00  0.45593999997E+02  0.45594000000E+02  0.51100000000E-03 0. -1.
         11   -1    0    0    0    0 -0.00000000000E+00 -0.00000000000E+00 -0.45593999997E+02  0.45594000000E+02  0.51100000000E-03 0.  1.
    9900012    2    1    2    0    0 -0.17078625645E+02  0.68588480156E+01 -0.34578745094E+01  0.72461544218E+02  0.69999966031E+02 0.  0.
        -12    1    1    2    0    0  0.17078625645E+02 -0.68588480156E+01  0.34578745094E+01  0.18726455782E+02  0.00000000000E+00 0.  1.
         11    1    3    3    0    0 -0.33901608103E+01  0.13777044374E+02  0.19517817368E+02  0.24129760403E+02  0.51100000000E-03 0. -1.
        -11    1    3    3    0    0 -0.25497963645E+02 -0.13422241511E+02 -0.17921237577E+02  0.33933368147E+02  0.51100000000E-03 0.  1.
        -12    1    3    3    0    0  0.11809498810E+02  0.65040451528E+01 -0.50544543004E+01  0.14398415668E+02  0.00000000000E+00 0.  1.
</event>
<event>
 7    1  0.1857734E-013  0.7246159E+02  0.7816164E-02  0.1226708E+00
        -11   -1    0    0    0    0  0.00000000000E+00  0.00000000000E+00  0.45593999997E+02  0.45594000000E+02  0.51100000000E-03 0. -1.
         11   -1    0    0    0    0 -0.00000000000E+00 -0.00000000000E+00 -0.45593999997E+02  0.45594000000E+02  0.51100000000E-03 0.  1.
    9900012    2    1    2    0    0 -0.12035469778E+02 -0.12333979006E+02  0.73279545522E+01  0.72461588469E+02  0.70000023676E+02 0.  0.
        -12    1    1    2    0    0  0.12035469778E+02  0.12333979006E+02 -0.73279545522E+01  0.18726411531E+02  0.00000000000E+00 0.  1.
         11    1    3    3    0    0  0.10731247224E+02 -0.13622153262E+02 -0.25842543404E+01  0.17532857646E+02  0.51100000000E-03 0. -1.
        -11    1    3    3    0    0 -0.19106443921E+02  0.24049939731E+02  0.30066804624E+01  0.30862532755E+02  0.51100000000E-03 0.  1.
        -12    1    3    3    0    0 -0.36602730802E+01 -0.22761765476E+02  0.69055284302E+01  0.24066198069E+02  0.00000000000E+00 0.  1.
</event>
<event>
 7    1  0.1857734E-013  0.7246159E+02  0.7816164E-02  0.1226708E+00
        -11   -1    0    0    0    0  0.00000000000E+00  0.00000000000E+00  0.45593999997E+02  0.45594000000E+02  0.51100000000E-03 0.  1.
         11   -1    0    0    0    0 -0.00000000000E+00 -0.00000000000E+00 -0.45593999997E+02  0.45594000000E+02  0.51100000000E-03 0. -1.
    9900012    2    1    2    0    0  0.41259338099E+01  0.18056954079E+02 -0.27570852876E+01  0.72461589781E+02  0.70000025385E+02 0.  0.
        -12    1    1    2    0    0 -0.41259338099E+01 -0.18056954079E+02  0.27570852876E+01  0.18726410219E+02  0.00000000000E+00 0.  1.
         11    1    3    3    0    0  0.16483539250E+02  0.36600011040E+02 -0.14943312302E+02  0.42831885986E+02  0.51100000000E-03 0. -1.
        -11    1    3    3    0    0 -0.51845047466E+01  0.10709601730E+01  0.56583690835E+01  0.77487538421E+01  0.51100000000E-03 0.  1.
         12    1    3    3    0    0 -0.71731006936E+01 -0.19614017133E+02  0.65278579304E+01  0.21880949953E+02  0.00000000000E+00 0. -1.
</event>
<event>
 8    1  0.1857734E-013  0.7246158E+02  0.7816164E-02  0.1226708E+00
        -11   -1    0    0    0    0  0.00000000000E+00  0.00000000000E+00  0.45593999997E+02  0.45594000000E+02  0.51100000000E-03 0.  1.
         11   -1    0    0    0    0 -0.00000000000E+00 -0.00000000000E+00 -0.45593999997E+02  0.45594000000E+02  0.51100000000E-03 0. -1.
    9900012    2    1    2    0    0 -0.37929116212E+00  0.93116511505E+00 -0.18699408698E+02  0.72461579736E+02  0.70000012300E+02 0.  0.
        -24    2    3    3    0    0 -0.27509094698E+01  0.12827127195E+02 -0.66445508801E+00  0.50726860066E+02  0.48996633931E+02 0.  0.
        -12    1    1    2    0    0  0.37929116212E+00 -0.93116511505E+00  0.18699408698E+02  0.18726420264E+02  0.00000000000E+00 0.  1.
         11    1    4    4    0    0  0.22921534235E+01  0.20311073474E+02  0.19739956339E+02  0.28415832726E+02  0.51100000000E-03 0.  1.
        -11    1    3    3    0    0  0.23716183077E+01 -0.11895962080E+02 -0.18034953610E+02  0.21734719671E+02  0.51100000000E-03 0. -1.
        -12    1    4    4    0    0 -0.50430628933E+01 -0.74839462795E+01 -0.20404411427E+02  0.22311027339E+02  0.00000000000E+00 0.  1.
</event>
<event>
 7    1  0.1857734E-013  0.7246159E+02  0.7816164E-02  0.1226708E+00
        -11   -1    0    0    0    0  0.00000000000E+00  0.00000000000E+00  0.45593999997E+02  0.45594000000E+02  0.51100000000E-03 0. -1.
         11   -1    0    0    0    0 -0.00000000000E+00 -0.00000000000E+00 -0.45593999997E+02  0.45594000000E+02  0.51100000000E-03 0.  1.
    9900012    2    1    2    0    0  0.71839205872E+01 -0.13169806110E+02  0.11208298683E+02  0.72461589042E+02  0.70000024423E+02 0.  0.
        -12    1    1    2    0    0 -0.71839205872E+01  0.13169806110E+02 -0.11208298683E+02  0.18726410958E+02  0.00000000000E+00 0.  1.
         11    1    3    3    0    0 -0.34203590159E+01 -0.10502307431E+02  0.18135852280E+02  0.21234558044E+02  0.51100000000E-03 0. -1.
        -11    1    3    3    0    0  0.11783905872E+02 -0.10668827077E+01 -0.27824467616E+02  0.30235735061E+02  0.51100000000E-03 0.  1.
        -12    1    3    3    0    0 -0.11796262688E+01 -0.16006159719E+01  0.20896914019E+02  0.20991295937E+02  0.00000000000E+00 0.  1.
</event>
<event>
 7    1  0.1857734E-013  0.7246159E+02  0.7816164E-02  0.1226708E+00
        -11   -1    0    0    0    0  0.00000000000E+00  0.00000000000E+00  0.45593999997E+02  0.45594000000E+02  0.51100000000E-03 0. -1.
         11   -1    0    0    0    0 -0.00000000000E+00 -0.00000000000E+00 -0.45593999997E+02  0.45594000000E+02  0.51100000000E-03 0.  1.
    9900012    2    1    2    0    0 -0.17772666909E+02 -0.52847666305E+01  0.26233537958E+01  0.72461589972E+02  0.70000025634E+02 0.  0.
        -12    1    1    2    0    0  0.17772666909E+02  0.52847666305E+01 -0.26233537958E+01  0.18726410028E+02  0.00000000000E+00 0.  1.
         11    1    3    3    0    0 -0.15192084078E+02 -0.24721156364E+02  0.73454385369E+01  0.29931429271E+02  0.51100000000E-03 0. -1.
        -11    1    3    3    0    0  0.74628252994E+01  0.27944602025E+02 -0.14164222712E+01  0.28958604872E+02  0.51100000000E-03 0.  1.
        -12    1    3    3    0    0 -0.10043408130E+02 -0.85082122918E+01 -0.33056624699E+01  0.13571555830E+02  0.00000000000E+00 0.  1.
</event>
<event>
 7    1  0.1857734E-013  0.7246160E+02  0.7816164E-02  0.1226708E+00
        -11   -1    0    0    0    0  0.00000000000E+00  0.00000000000E+00  0.45593999997E+02  0.45594000000E+02  0.51100000000E-03 0. -1.
         11   -1    0    0    0    0 -0.00000000000E+00 -0.00000000000E+00 -0.45593999997E+02  0.45594000000E+02  0.51100000000E-03 0.  1.
    9900012    2    1    2    0    0 -0.16972666276E+02  0.74464802291E+01  0.26751566047E+01  0.72461603358E+02  0.70000043072E+02 0.  0.
        -12    1    1    2    0    0  0.16972666276E+02 -0.74464802291E+01 -0.26751566047E+01  0.18726396642E+02  0.00000000000E+00 0.  1.
         11    1    3    3    0    0 -0.65410047934E+01 -0.51995651215E+00  0.19665940945E+02  0.20731722842E+02  0.51100000000E-03 0. -1.
        -11    1    3    3    0    0 -0.15395682890E+02 -0.19009150840E+01 -0.30536931877E+02  0.34251200541E+02  0.51100000000E-03 0.  1.
        -12    1    3    3    0    0  0.49640214072E+01  0.98673518252E+01  0.13546147537E+02  0.17478679975E+02  0.00000000000E+00 0.  1.
</event>
<event>
 7    1  0.1857734E-013  0.7246156E+02  0.7816164E-02  0.1226708E+00
        -11   -1    0    0    0    0  0.00000000000E+00  0.00000000000E+00  0.45593999997E+02  0.45594000000E+02  0.51100000000E-03 0.  1.
         11   -1    0    0    0    0 -0.00000000000E+00 -0.00000000000E+00 -0.45593999997E+02  0.45594000000E+02  0.51100000000E-03 0. -1.
    9900012    2    1    2    0    0  0.16130634465E+02  0.41146757986E+01 -0.85762351416E+01  0.72461555213E+02  0.69999980354E+02 0.  0.
        -12    1    1    2    0    0 -0.16130634465E+02 -0.41146757986E+01  0.85762351416E+01  0.18726444787E+02  0.00000000000E+00 0.  1.
         11    1    3    3    0    0 -0.96863598702E+01  0.14249919861E+02 -0.19628401236E+02  0.26118191341E+02  0.51100000000E-03 0. -1.
        -11    1    3    3    0    0  0.19366831561E+02 -0.23153809885E+02  0.99053814003E+01  0.31769319443E+02  0.51100000000E-03 0.  1.
         12    1    3    3    0    0  0.64501627742E+01  0.13018565823E+02  0.11467846938E+01  0.14574044430E+02  0.00000000000E+00 0. -1.
</event>
<event>
 7    1  0.1857734E-013  0.7246179E+02  0.7816164E-02  0.1226707E+00
        -11   -1    0    0    0    0  0.00000000000E+00  0.00000000000E+00  0.45593999997E+02  0.45594000000E+02  0.51100000000E-03 0.  1.
         11   -1    0    0    0    0 -0.00000000000E+00 -0.00000000000E+00 -0.45593999997E+02  0.45594000000E+02  0.51100000000E-03 0. -1.
    9900012    2    1    2    0    0 -0.14912484993E+02  0.66776691669E+01 -0.91486317997E+01  0.72461790080E+02  0.70000286311E+02 0.  0.
        -12    1    1    2    0    0  0.14912484993E+02 -0.66776691669E+01  0.91486317997E+01  0.18726209920E+02  0.00000000000E+00 0.  1.
         11    1    3    3    0    0 -0.16927105138E+02 -0.62350446214E+01 -0.17205675602E+02  0.24928657063E+02  0.51100000000E-03 0. -1.
        -11    1    3    3    0    0 -0.51521414510E+01  0.28006772570E+02 -0.10641642567E+01  0.28496601853E+02  0.51100000000E-03 0.  1.
        -12    1    3    3    0    0  0.71667615958E+01 -0.15094058782E+02  0.91212080592E+01  0.19036531164E+02  0.00000000000E+00 0.  1.
</event>
<event>
 7    1  0.1857734E-013  0.7246146E+02  0.7816164E-02  0.1226708E+00
        -11   -1    0    0    0    0  0.00000000000E+00  0.00000000000E+00  0.45593999997E+02  0.45594000000E+02  0.51100000000E-03 0.  1.
         11   -1    0    0    0    0 -0.00000000000E+00 -0.00000000000E+00 -0.45593999997E+02  0.45594000000E+02  0.51100000000E-03 0. -1.
    9900012    2    1    2    0    0  0.16622949405E+02  0.62691432334E+01 -0.59210292440E+01  0.72461462917E+02  0.69999860121E+02 0.  0.
        -12    1    1    2    0    0 -0.16622949405E+02 -0.62691432334E+01  0.59210292440E+01  0.18726537083E+02  0.00000000000E+00 0.  1.
         11    1    3    3    0    0  0.15609483410E+02  0.21935397059E+02  0.18460679257E+02  0.32643748182E+02  0.51100000000E-03 0. -1.
        -11    1    3    3    0    0  0.38492522398E+01 -0.14598770905E+02  0.15112712209E+00  0.15098466625E+02  0.51100000000E-03 0.  1.
         12    1    3    3    0    0 -0.28357862450E+01 -0.10674829208E+01 -0.24532835623E+02  0.24719248110E+02  0.00000000000E+00 0. -1.
</event>
<event>
 7    1  0.1857734E-013  0.7246162E+02  0.7816164E-02  0.1226708E+00
        -11   -1    0    0    0    0  0.00000000000E+00  0.00000000000E+00  0.45593999997E+02  0.45594000000E+02  0.51100000000E-03 0.  1.
         11   -1    0    0    0    0 -0.00000000000E+00 -0.00000000000E+00 -0.45593999997E+02  0.45594000000E+02  0.51100000000E-03 0. -1.
    9900012    2    1    2    0    0  0.17963508940E+02 -0.23640545635E+01  0.47329555227E+01  0.72461620868E+02  0.70000065881E+02 0.  0.
        -12    1    1    2    0    0 -0.17963508940E+02  0.23640545635E+01 -0.47329555227E+01  0.18726379132E+02  0.00000000000E+00 0.  1.
         11    1    3    3    0    0  0.19518604233E+02 -0.26025972176E+02 -0.38940657853E+01  0.32764170790E+02  0.51100000000E-03 0. -1.
        -11    1    3    3    0    0  0.12923531654E+02  0.13719055414E+02  0.11233292898E+02  0.21941217410E+02  0.51100000000E-03 0.  1.
         12    1    3    3    0    0 -0.14478626946E+02  0.99428621989E+01 -0.26062715898E+01  0.17756232668E+02  0.00000000000E+00 0. -1.
</event>
<event>
 7    1  0.1857734E-013  0.7246155E+02  0.7816164E-02  0.1226708E+00
        -11   -1    0    0    0    0  0.00000000000E+00  0.00000000000E+00  0.45593999997E+02  0.45594000000E+02  0.51100000000E-03 0.  1.
         11   -1    0    0    0    0 -0.00000000000E+00 -0.00000000000E+00 -0.45593999997E+02  0.45594000000E+02  0.51100000000E-03 0. -1.
    9900012    2    1    2    0    0  0.10394992128E+02  0.15515347398E+02  0.13777398006E+01  0.72461547234E+02  0.69999969960E+02 0.  0.
        -12    1    1    2    0    0 -0.10394992128E+02 -0.15515347398E+02 -0.13777398006E+01  0.18726452766E+02  0.00000000000E+00 0.  1.
         11    1    3    3    0    0  0.12900160962E+02  0.21716901160E+02 -0.63113471577E+01  0.26035956907E+02  0.51100000000E-03 0. -1.
        -11    1    3    3    0    0 -0.19423454536E+02 -0.14216235249E+01  0.17594890355E+02  0.26246366728E+02  0.51100000000E-03 0.  1.
         12    1    3    3    0    0  0.16918285702E+02 -0.47799302371E+01 -0.99058033966E+01  0.20179223600E+02  0.00000000000E+00 0. -1.
</event>
<event>
 7    1  0.1857734E-013  0.7246154E+02  0.7816164E-02  0.1226708E+00
        -11   -1    0    0    0    0  0.00000000000E+00  0.00000000000E+00  0.45593999997E+02  0.45594000000E+02  0.51100000000E-03 0.  1.
         11   -1    0    0    0    0 -0.00000000000E+00 -0.00000000000E+00 -0.45593999997E+02  0.45594000000E+02  0.51100000000E-03 0. -1.
    9900012    2    1    2    0    0 -0.17658343155E+02 -0.56749796995E+01 -0.25802551114E+01  0.72461542940E+02  0.69999964367E+02 0.  0.
        -12    1    1    2    0    0  0.17658343155E+02  0.56749796995E+01  0.25802551114E+01  0.18726457060E+02  0.00000000000E+00 0.  1.
         11    1    3    3    0    0  0.56218857038E+01 -0.22604527788E+02  0.17760314391E+02  0.29291620695E+02  0.51100000000E-03 0. -1.
        -11    1    3    3    0    0 -0.11921322860E+02  0.16109131253E+02 -0.21047392113E+00  0.20041615404E+02  0.51100000000E-03 0.  1.
         12    1    3    3    0    0 -0.11358905999E+02  0.82041683547E+00 -0.20130095581E+02  0.23128306842E+02  0.00000000000E+00 0. -1.
</event>
<event>
 7    1  0.1857734E-013  0.7246132E+02  0.7816164E-02  0.1226709E+00
        -11   -1    0    0    0    0  0.00000000000E+00  0.00000000000E+00  0.45593999997E+02  0.45594000000E+02  0.51100000000E-03 0.  1.
         11   -1    0    0    0    0 -0.00000000000E+00 -0.00000000000E+00 -0.45593999997E+02  0.45594000000E+02  0.51100000000E-03 0. -1.
    9900012    2    1    2    0    0 -0.85138615844E+01  0.15565191857E+01 -0.16606621505E+02  0.72461322001E+02  0.69999676552E+02 0.  0.
        -12    1    1    2    0    0  0.85138615844E+01 -0.15565191857E+01  0.16606621505E+02  0.18726677999E+02  0.00000000000E+00 0.  1.
         11    1    3    3    0    0 -0.34789753223E+01  0.64313834602E+01 -0.42912264081E+02  0.43530774992E+02  0.51100000000E-03 0. -1.
        -11    1    3    3    0    0 -0.70616134361E+01 -0.26639411123E+01  0.11041451418E+02  0.13374476298E+02  0.51100000000E-03 0.  1.
         12    1    3    3    0    0  0.20267271740E+01 -0.22109231622E+01  0.15264191159E+02  0.15556070712E+02  0.00000000000E+00 0. -1.
</event>
<event>
 7    1  0.1857734E-013  0.7246154E+02  0.7816164E-02  0.1226708E+00
        -11   -1    0    0    0    0  0.00000000000E+00  0.00000000000E+00  0.45593999997E+02  0.45594000000E+02  0.51100000000E-03 0.  1.
         11   -1    0    0    0    0 -0.00000000000E+00 -0.00000000000E+00 -0.45593999997E+02  0.45594000000E+02  0.51100000000E-03 0. -1.
    9900012    2    1    2    0    0  0.46447515019E+01 -0.11765135650E+02 -0.13808993860E+02  0.72461536244E+02  0.69999955643E+02 0.  0.
        -12    1    1    2    0    0 -0.46447515019E+01  0.11765135650E+02  0.13808993860E+02  0.18726463756E+02  0.00000000000E+00 0.  1.
         11    1    3    3    0    0 -0.22256678659E+01 -0.21461917967E+02 -0.19267181420E+02  0.28927353844E+02  0.51100000000E-03 0. -1.
        -11    1    3    3    0    0  0.21362731695E+02  0.14569307438E+02  0.97800121009E+01  0.27645608361E+02  0.51100000000E-03 0.  1.
         12    1    3    3    0    0 -0.14492312327E+02 -0.48725251216E+01 -0.43218245402E+01  0.15888574039E+02  0.00000000000E+00 0. -1.
</event>
<event>
 7    1  0.1857734E-013  0.7246159E+02  0.7816164E-02  0.1226708E+00
        -11   -1    0    0    0    0  0.00000000000E+00  0.00000000000E+00  0.45593999997E+02  0.45594000000E+02  0.51100000000E-03 0. -1.
         11   -1    0    0    0    0 -0.00000000000E+00 -0.00000000000E+00 -0.45593999997E+02  0.45594000000E+02  0.51100000000E-03 0.  1.
    9900012    2    1    2    0    0 -0.99240625553E+01  0.15358949394E+02  0.40366008410E+01  0.72461588426E+02  0.70000023620E+02 0.  0.
        -12    1    1    2    0    0  0.99240625553E+01 -0.15358949394E+02 -0.40366008410E+01  0.18726411574E+02  0.00000000000E+00 0.  1.
         11    1    3    3    0    0  0.13169215390E+02  0.23207553602E+02  0.20108865696E+02  0.33412351878E+02  0.51100000000E-03 0. -1.
        -11    1    3    3    0    0 -0.10018772306E+01 -0.10146757265E+02 -0.13161212794E+02  0.16648662513E+02  0.51100000000E-03 0.  1.
        -12    1    3    3    0    0 -0.22091400715E+02  0.22981530567E+01 -0.29110520605E+01  0.22400574035E+02  0.00000000000E+00 0.  1.
</event>
<event>
 7    1  0.1857734E-013  0.7246156E+02  0.7816164E-02  0.1226708E+00
        -11   -1    0    0    0    0  0.00000000000E+00  0.00000000000E+00  0.45593999997E+02  0.45594000000E+02  0.51100000000E-03 0. -1.
         11   -1    0    0    0    0 -0.00000000000E+00 -0.00000000000E+00 -0.45593999997E+02  0.45594000000E+02  0.51100000000E-03 0.  1.
    9900012    2    1    2    0    0  0.12412318613E+02  0.13290468286E+02 -0.44695837088E+01  0.72461564697E+02  0.69999992709E+02 0.  0.
        -12    1    1    2    0    0 -0.12412318613E+02 -0.13290468286E+02  0.44695837088E+01  0.18726435303E+02  0.00000000000E+00 0.  1.
         11    1    3    3    0    0  0.12214920674E+02  0.65235436971E+01  0.24218781216E+02  0.27898212725E+02  0.51100000000E-03 0. -1.
        -11    1    3    3    0    0 -0.15407626869E+02  0.64038171859E+00 -0.64540345792E+01  0.16717045705E+02  0.51100000000E-03 0.  1.
        -12    1    3    3    0    0  0.15605024809E+02  0.61265428707E+01 -0.22234330345E+02  0.27846306267E+02  0.00000000000E+00 0.  1.
</event>
<event>
 7    1  0.1857734E-013  0.7246160E+02  0.7816164E-02  0.1226708E+00
        -11   -1    0    0    0    0  0.00000000000E+00  0.00000000000E+00  0.45593999997E+02  0.45594000000E+02  0.51100000000E-03 0. -1.
         11   -1    0    0    0    0 -0.00000000000E+00 -0.00000000000E+00 -0.45593999997E+02  0.45594000000E+02  0.51100000000E-03 0.  1.
    9900012    2    1    2    0    0  0.49655955001E+01  0.13863127928E+02 -0.11568687152E+02  0.72461602134E+02  0.70000041477E+02 0.  0.
        -12    1    1    2    0    0 -0.49655955001E+01 -0.13863127928E+02  0.11568687152E+02  0.18726397866E+02  0.00000000000E+00 0.  1.
         11    1    3    3    0    0  0.23272070712E+01  0.34104563359E+02 -0.27082681903E+01  0.34290987905E+02  0.51100000000E-03 0. -1.
        -11    1    3    3    0    0 -0.14197375576E+01 -0.18261441332E+02 -0.19414504922E+02  0.26691176367E+02  0.51100000000E-03 0.  1.
         12    1    3    3    0    0  0.40581259866E+01 -0.19799940997E+01  0.10554085961E+02  0.11479437862E+02  0.00000000000E+00 0. -1.
</event>
<event>
 7    1  0.1857734E-013  0.7246158E+02  0.7816164E-02  0.1226708E+00
        -11   -1    0    0    0    0  0.00000000000E+00  0.00000000000E+00  0.45593999997E+02  0.45594000000E+02  0.51100000000E-03 0. -1.
         11   -1    0    0    0    0 -0.00000000000E+00 -0.00000000000E+00 -0.45593999997E+02  0.45594000000E+02  0.51100000000E-03 0.  1.
    9900012    2    1    2    0    0  0.56773405922E+01 -0.15951664169E+02  0.79994442895E+01  0.72461577627E+02  0.70000009552E+02 0.  0.
        -12    1    1    2    0    0 -0.56773405922E+01  0.15951664169E+02 -0.79994442895E+01  0.18726422373E+02  0.00000000000E+00 0.  1.
         11    1    3    3    0    0 -0.25117697370E+02 -0.12288332826E+02  0.10339113486E+02  0.29812734070E+02  0.51100000000E-03 0. -1.
        -11    1    3    3    0    0  0.14246085114E+02  0.97163397211E+01 -0.10115081724E+02  0.19991825259E+02  0.51100000000E-03 0.  1.
         12    1    3    3    0    0  0.16548952848E+02 -0.13379671064E+02  0.77754125280E+01  0.22657018297E+02  0.00000000000E+00 0. -1.
</event>
<event>
 7    1  0.1857734E-013  0.7246177E+02  0.7816164E-02  0.1226707E+00
        -11   -1    0    0    0    0  0.00000000000E+00  0.00000000000E+00  0.45593999997E+02  0.45594000000E+02  0.51100000000E-03 0.  1.
         11   -1    0    0    0    0 -0.00000000000E+00 -0.00000000000E+00 -0.45593999997E+02  0.45594000000E+02  0.51100000000E-03 0. -1.
    9900012    2    1    2    0    0  0.11491797011E+02 -0.89611813533E+01 -0.11760418745E+02  0.72461771900E+02  0.70000262629E+02 0.  0.
        -12    1    1    2    0    0 -0.11491797011E+02  0.89611813533E+01  0.11760418745E+02  0.18726228100E+02  0.00000000000E+00 0.  1.
         11    1    3    3    0    0 -0.41724487614E+01 -0.95463874847E+01 -0.68336188549E+01  0.12459582240E+02  0.51100000000E-03 0. -1.
        -11    1    3    3    0    0 -0.47038630977E+01  0.20690705789E+02  0.14242833967E+02  0.25555624699E+02  0.51100000000E-03 0.  1.
        -12    1    3    3    0    0  0.20368108870E+02 -0.20105499657E+02 -0.19169633857E+02  0.34446564961E+02  0.00000000000E+00 0.  1.
</event>
<event>
 7    1  0.1857734E-013  0.7246164E+02  0.7816164E-02  0.1226708E+00
        -11   -1    0    0    0    0  0.00000000000E+00  0.00000000000E+00  0.45593999997E+02  0.45594000000E+02  0.51100000000E-03 0. -1.
         11   -1    0    0    0    0 -0.00000000000E+00 -0.00000000000E+00 -0.45593999997E+02  0.45594000000E+02  0.51100000000E-03 0.  1.
    9900012    2    1    2    0    0 -0.11733463464E+02 -0.41508916819E+01  0.13991872306E+02  0.72461640043E+02  0.70000090860E+02 0.  0.
        -12    1    1    2    0    0  0.11733463464E+02  0.41508916819E+01 -0.13991872306E+02  0.18726359957E+02  0.00000000000E+00 0.  1.
         11    1    3    3    0    0  0.22532230612E+01 -0.17652012810E+01  0.17933807409E+02  0.18160792884E+02  0.51100000000E-03 0. -1.
        -11    1    3    3    0    0 -0.16768793024E+02  0.18014172636E+02 -0.17007959102E+02  0.29916107840E+02  0.51100000000E-03 0.  1.
        -12    1    3    3    0    0  0.27821064984E+01 -0.20399863037E+02  0.13066024000E+02  0.24384739319E+02  0.00000000000E+00 0.  1.
</event>
<event>
 7    1  0.1857734E-013  0.7246155E+02  0.7816164E-02  0.1226708E+00
        -11   -1    0    0    0    0  0.00000000000E+00  0.00000000000E+00  0.45593999997E+02  0.45594000000E+02  0.51100000000E-03 0.  1.
         11   -1    0    0    0    0 -0.00000000000E+00 -0.00000000000E+00 -0.45593999997E+02  0.45594000000E+02  0.51100000000E-03 0. -1.
    9900012    2    1    2    0    0  0.49982961943E+01  0.15645260658E+01 -0.17979132562E+02  0.72461550408E+02  0.69999974094E+02 0.  0.
        -12    1    1    2    0    0 -0.49982961943E+01 -0.15645260658E+01  0.17979132562E+02  0.18726449592E+02  0.00000000000E+00 0.  1.
         11    1    3    3    0    0 -0.26890656190E+01  0.82713369109E+00 -0.13175368076E+02  0.13472399498E+02  0.51100000000E-03 0. -1.
        -11    1    3    3    0    0  0.18193119595E+02 -0.23308673817E+02  0.67313647184E+01  0.30324827237E+02  0.51100000000E-03 0.  1.
        -12    1    3    3    0    0 -0.10505757782E+02  0.24046066192E+02 -0.11535129204E+02  0.28664323673E+02  0.00000000000E+00 0.  1.
</event>
<event>
 7    1  0.1857734E-013  0.7246156E+02  0.7816164E-02  0.1226708E+00
        -11   -1    0    0    0    0  0.00000000000E+00  0.00000000000E+00  0.45593999997E+02  0.45594000000E+02  0.51100000000E-03 0. -1.
         11   -1    0    0    0    0 -0.00000000000E+00 -0.00000000000E+00 -0.45593999997E+02  0.45594000000E+02  0.51100000000E-03 0.  1.
    9900012    2    1    2    0    0  0.13881848857E+00  0.17862899040E+02 -0.56193531819E+01  0.72461559792E+02  0.69999986319E+02 0.  0.
        -12    1    1    2    0    0 -0.13881848857E+00 -0.17862899040E+02  0.56193531819E+01  0.18726440208E+02  0.00000000000E+00 0.  1.
         11    1    3    3    0    0 -0.39477367788E+01  0.80913254342E+01  0.13106323547E+02  0.15900625464E+02  0.51100000000E-03 0. -1.
        -11    1    3    3    0    0  0.73689449610E+01 -0.20753617529E+02 -0.35270525545E+01  0.22303678853E+02  0.51100000000E-03 0.  1.
        -12    1    3    3    0    0 -0.32823896936E+01  0.30525191135E+02 -0.15198624174E+02  0.34257255476E+02  0.00000000000E+00 0.  1.
</event>
<event>
 7    1  0.1857734E-013  0.7246157E+02  0.7816164E-02  0.1226708E+00
        -11   -1    0    0    0    0  0.00000000000E+00  0.00000000000E+00  0.45593999997E+02  0.45594000000E+02  0.51100000000E-03 0.  1.
         11   -1    0    0    0    0 -0.00000000000E+00 -0.00000000000E+00 -0.45593999997E+02  0.45594000000E+02  0.51100000000E-03 0. -1.
    9900012    2    1    2    0    0  0.17389106486E+02  0.61306549032E+01 -0.32730866665E+01  0.72461573479E+02  0.70000004149E+02 0.  0.
        -12    1    1    2    0    0 -0.17389106486E+02 -0.61306549032E+01  0.32730866665E+01  0.18726426521E+02  0.00000000000E+00 0.  1.
         11    1    3    3    0    0  0.53949264268E+01  0.26883185700E+02 -0.83892408607E+01  0.28673860344E+02  0.51100000000E-03 0. -1.
        -11    1    3    3    0    0  0.23597018404E+02 -0.60629963066E+01  0.58432707177E+01  0.25054401104E+02  0.51100000000E-03 0.  1.
        -12    1    3    3    0    0 -0.11602838345E+02 -0.14689534491E+02 -0.72711652353E+00  0.18733312031E+02  0.00000000000E+00 0.  1.
</event>
<event>
 7    1  0.1857734E-013  0.7246155E+02  0.7816164E-02  0.1226708E+00
        -11   -1    0    0    0    0  0.00000000000E+00  0.00000000000E+00  0.45593999997E+02  0.45594000000E+02  0.51100000000E-03 0. -1.
         11   -1    0    0    0    0 -0.00000000000E+00 -0.00000000000E+00 -0.45593999997E+02  0.45594000000E+02  0.51100000000E-03 0.  1.
    9900012    2    1    2    0    0  0.95570965455E+01 -0.51584545372E+01 -0.15255565759E+02  0.72461547207E+02  0.69999969924E+02 0.  0.
        -12    1    1    2    0    0 -0.95570965455E+01  0.51584545372E+01  0.15255565759E+02  0.18726452793E+02  0.00000000000E+00 0.  1.
         11    1    3    3    0    0  0.29178842448E+02  0.58459597562E+01 -0.17112178744E+01  0.29807857336E+02  0.51100000000E-03 0. -1.
        -11    1    3    3    0    0 -0.22900473257E+02  0.36236371898E+01 -0.11694585230E+01  0.23214867119E+02  0.51100000000E-03 0.  1.
        -12    1    3    3    0    0  0.32787273544E+01 -0.14628051483E+02 -0.12374889362E+02  0.19438822752E+02  0.00000000000E+00 0.  1.
</event>
<event>
 7    1  0.1857734E-013  0.7246158E+02  0.7816164E-02  0.1226708E+00
        -11   -1    0    0    0    0  0.00000000000E+00  0.00000000000E+00  0.45593999997E+02  0.45594000000E+02  0.51100000000E-03 0.  1.
         11   -1    0    0    0    0 -0.00000000000E+00 -0.00000000000E+00 -0.45593999997E+02  0.45594000000E+02  0.51100000000E-03 0. -1.
    9900012    2    1    2    0    0 -0.28232807417E+01  0.71339843338E+01 -0.17082569473E+02  0.72461579455E+02  0.70000011933E+02 0.  0.
        -12    1    1    2    0    0  0.28232807417E+01 -0.71339843338E+01  0.17082569473E+02  0.18726420545E+02  0.00000000000E+00 0.  1.
         11    1    3    3    0    0  0.27049630068E+02 -0.11456809048E+02 -0.14013557487E+02  0.32547208084E+02  0.51100000000E-03 0. -1.
        -11    1    3    3    0    0 -0.10426279870E+02  0.17378570649E+02 -0.25190556426E+01  0.20422234729E+02  0.51100000000E-03 0.  1.
        -12    1    3    3    0    0 -0.19446630940E+02  0.12122227321E+01 -0.54995634415E+00  0.19492136642E+02  0.00000000000E+00 0.  1.
</event>
<event>
 7    1  0.1857734E-013  0.7246158E+02  0.7816164E-02  0.1226708E+00
        -11   -1    0    0    0    0  0.00000000000E+00  0.00000000000E+00  0.45593999997E+02  0.45594000000E+02  0.51100000000E-03 0. -1.
         11   -1    0    0    0    0 -0.00000000000E+00 -0.00000000000E+00 -0.45593999997E+02  0.45594000000E+02  0.51100000000E-03 0.  1.
    9900012    2    1    2    0    0  0.17411321323E+02 -0.58393045067E+01  0.36643045024E+01  0.72461582435E+02  0.70000015815E+02 0.  0.
        -12    1    1    2    0    0 -0.17411321323E+02  0.58393045067E+01 -0.36643045024E+01  0.18726417565E+02  0.00000000000E+00 0.  1.
         11    1    3    3    0    0 -0.89849200394E+01  0.17288519735E+02 -0.16800767531E+02  0.25727174206E+02  0.51100000000E-03 0. -1.
        -11    1    3    3    0    0  0.12475890744E+02 -0.22328790808E+02  0.52766531984E+01  0.26116389836E+02  0.51100000000E-03 0.  1.
         12    1    3    3    0    0  0.13920350618E+02 -0.79903343351E+00  0.15188418835E+02  0.20618018393E+02  0.00000000000E+00 0. -1.
</event>
<event>
 7    1  0.1857734E-013  0.7246155E+02  0.7816164E-02  0.1226708E+00
        -11   -1    0    0    0    0  0.00000000000E+00  0.00000000000E+00  0.45593999997E+02  0.45594000000E+02  0.51100000000E-03 0. -1.
         11   -1    0    0    0    0 -0.00000000000E+00 -0.00000000000E+00 -0.45593999997E+02  0.45594000000E+02  0.51100000000E-03 0.  1.
    9900012    2    1    2    0    0  0.17839998534E+02 -0.46618934046E+01  0.32682249559E+01  0.72461545659E+02  0.69999967908E+02 0.  0.
        -12    1    1    2    0    0 -0.17839998534E+02  0.46618934046E+01 -0.32682249559E+01  0.18726454341E+02  0.00000000000E+00 0.  1.
         11    1    3    3    0    0  0.11904371307E+02 -0.24244800132E+02  0.13368727438E+02  0.30137140927E+02  0.51100000000E-03 0. -1.
        -11    1    3    3    0    0 -0.10533689638E+02  0.17619515499E+02  0.35631761591E+01  0.20835118632E+02  0.51100000000E-03 0.  1.
         12    1    3    3    0    0  0.16469316865E+02  0.19633912285E+01 -0.13663678641E+02  0.21489286101E+02  0.00000000000E+00 0. -1.
</event>
<event>
 7    1  0.1857734E-013  0.7246153E+02  0.7816164E-02  0.1226708E+00
        -11   -1    0    0    0    0  0.00000000000E+00  0.00000000000E+00  0.45593999997E+02  0.45594000000E+02  0.51100000000E-03 0.  1.
         11   -1    0    0    0    0 -0.00000000000E+00 -0.00000000000E+00 -0.45593999997E+02  0.45594000000E+02  0.51100000000E-03 0. -1.
    9900012    2    1    2    0    0  0.13050857589E+02 -0.48800692578E+01 -0.12511625998E+02  0.72461528232E+02  0.69999945206E+02 0.  0.
        -12    1    1    2    0    0 -0.13050857589E+02  0.48800692578E+01  0.12511625998E+02  0.18726471768E+02  0.00000000000E+00 0.  1.
         11    1    3    3    0    0  0.34328573364E+02 -0.21948203820E+02 -0.13716696781E+02  0.42992119870E+02  0.51100000000E-03 0. -1.
        -11    1    3    3    0    0 -0.11767507950E+02  0.87975661640E+01  0.61537950705E+01  0.15929237515E+02  0.51100000000E-03 0.  1.
        -12    1    3    3    0    0 -0.95102078243E+01  0.82705683978E+01 -0.49487242874E+01  0.13540170847E+02  0.00000000000E+00 0.  1.
</event>
<event>
 7    1  0.1857734E-013  0.7246157E+02  0.7816164E-02  0.1226708E+00
        -11   -1    0    0    0    0  0.00000000000E+00  0.00000000000E+00  0.45593999997E+02  0.45594000000E+02  0.51100000000E-03 0.  1.
         11   -1    0    0    0    0 -0.00000000000E+00 -0.00000000000E+00 -0.45593999997E+02  0.45594000000E+02  0.51100000000E-03 0. -1.
    9900012    2    1    2    0    0 -0.23667361976E+01  0.12928472748E+01 -0.18531229051E+02  0.72461565623E+02  0.69999993915E+02 0.  0.
        -12    1    1    2    0    0  0.23667361976E+01 -0.12928472748E+01  0.18531229051E+02  0.18726434377E+02  0.00000000000E+00 0.  1.
         11    1    3    3    0    0 -0.60397672387E+01  0.12381586432E+02 -0.17280111910E+02  0.22099428471E+02  0.51100000000E-03 0.  1.
        -11    1    3    3    0    0 -0.14690600505E+02 -0.23804711130E+02 -0.16584788481E+01  0.28021930118E+02  0.51100000000E-03 0. -1.
        -12    1    3    3    0    0  0.18363631546E+02  0.12715971972E+02  0.40736170675E+00  0.22340207034E+02  0.00000000000E+00 0.  1.
</event>
<event>
 7    1  0.1857734E-013  0.7246156E+02  0.7816164E-02  0.1226708E+00
        -11   -1    0    0    0    0  0.00000000000E+00  0.00000000000E+00  0.45593999997E+02  0.45594000000E+02  0.51100000000E-03 0.  1.
         11   -1    0    0    0    0 -0.00000000000E+00 -0.00000000000E+00 -0.45593999997E+02  0.45594000000E+02  0.51100000000E-03 0. -1.
    9900012    2    1    2    0    0 -0.53856861782E+00 -0.18177345629E+02  0.44691841905E+01  0.72461559932E+02  0.69999986501E+02 0.  0.
        -12    1    1    2    0    0  0.53856861782E+00  0.18177345629E+02 -0.44691841905E+01  0.18726440068E+02  0.00000000000E+00 0.  1.
         11    1    3    3    0    0  0.64812510775E+01  0.16104930803E+01  0.23762679118E+02  0.24683298455E+02  0.51100000000E-03 0.  1.
        -11    1    3    3    0    0 -0.12154579084E+01 -0.31025845365E+02 -0.13211236981E+02  0.33743402338E+02  0.51100000000E-03 0. -1.
         12    1    3    3    0    0 -0.58043617868E+01  0.11238006655E+02 -0.60822579465E+01  0.14034859139E+02  0.00000000000E+00 0. -1.
</event>
<event>
 7    1  0.1857734E-013  0.7246157E+02  0.7816164E-02  0.1226708E+00
        -11   -1    0    0    0    0  0.00000000000E+00  0.00000000000E+00  0.45593999997E+02  0.45594000000E+02  0.51100000000E-03 0. -1.
         11   -1    0    0    0    0 -0.00000000000E+00 -0.00000000000E+00 -0.45593999997E+02  0.45594000000E+02  0.51100000000E-03 0.  1.
    9900012    2    1    2    0    0  0.18677449074E+02 -0.12782745767E+01 -0.44501466148E+00  0.72461571407E+02  0.70000001449E+02 0.  0.
        -12    1    1    2    0    0 -0.18677449074E+02  0.12782745767E+01  0.44501466148E+00  0.18726428593E+02  0.00000000000E+00 0.  1.
         11    1    3    3    0    0 -0.97667908189E+01  0.55861936443E+01 -0.28566944451E+02  0.30702867584E+02  0.51100000000E-03 0.  1.
        -11    1    3    3    0    0  0.22667205326E+02 -0.64904804473E+01  0.27028232710E+02  0.35867170189E+02  0.51100000000E-03 0. -1.
        -12    1    3    3    0    0  0.57770345676E+01 -0.37398777365E+00  0.10936970801E+01  0.58915336333E+01  0.00000000000E+00 0.  1.
</event>
<event>
 7    1  0.1857734E-013  0.7246157E+02  0.7816164E-02  0.1226708E+00
        -11   -1    0    0    0    0  0.00000000000E+00  0.00000000000E+00  0.45593999997E+02  0.45594000000E+02  0.51100000000E-03 0.  1.
         11   -1    0    0    0    0 -0.00000000000E+00 -0.00000000000E+00 -0.45593999997E+02  0.45594000000E+02  0.51100000000E-03 0. -1.
    9900012    2    1    2    0    0  0.18404609610E+02  0.31494236101E+00  0.34424427853E+01  0.72461567987E+02  0.69999996995E+02 0.  0.
        -12    1    1    2    0    0 -0.18404609610E+02 -0.31494236101E+00 -0.34424427853E+01  0.18726432013E+02  0.00000000000E+00 0.  1.
         11    1    3    3    0    0 -0.24692231497E+01  0.27505060349E+02 -0.34877603360E+01  0.27835047695E+02  0.51100000000E-03 0. -1.
        -11    1    3    3    0    0  0.36520587768E+01 -0.12364012163E+02 -0.99775332225E+01  0.16302070407E+02  0.51100000000E-03 0.  1.
         12    1    3    3    0    0  0.17221773983E+02 -0.14826105825E+02  0.16907736344E+02  0.28324449886E+02  0.00000000000E+00 0. -1.
</event>
<event>
 7    1  0.1857734E-013  0.7246157E+02  0.7816164E-02  0.1226708E+00
        -11   -1    0    0    0    0  0.00000000000E+00  0.00000000000E+00  0.45593999997E+02  0.45594000000E+02  0.51100000000E-03 0. -1.
         11   -1    0    0    0    0 -0.00000000000E+00 -0.00000000000E+00 -0.45593999997E+02  0.45594000000E+02  0.51100000000E-03 0.  1.
    9900012    2    1    2    0    0  0.10494567522E+02  0.35276802622E+01  0.15102938442E+02  0.72461568811E+02  0.69999998068E+02 0.  0.
        -12    1    1    2    0    0 -0.10494567522E+02 -0.35276802622E+01 -0.15102938442E+02  0.18726431189E+02  0.00000000000E+00 0.  1.
         11    1    3    3    0    0  0.18781519352E+02 -0.21617129469E+02  0.51526034769E+01  0.29096306956E+02  0.51100000000E-03 0. -1.
        -11    1    3    3    0    0  0.65552792464E+01  0.25810839192E+02  0.10170890802E+02  0.28506457615E+02  0.51100000000E-03 0.  1.
        -12    1    3    3    0    0 -0.14842231076E+02 -0.66602946082E+00 -0.22055583687E+00  0.14858804240E+02  0.00000000000E+00 0.  1.
</event>
<event>
 7    1  0.1857734E-013  0.7246157E+02  0.7816164E-02  0.1226708E+00
        -11   -1    0    0    0    0  0.00000000000E+00  0.00000000000E+00  0.45593999997E+02  0.45594000000E+02  0.51100000000E-03 0. -1.
         11   -1    0    0    0    0 -0.00000000000E+00 -0.00000000000E+00 -0.45593999997E+02  0.45594000000E+02  0.51100000000E-03 0.  1.
    9900012    2    1    2    0    0 -0.23908561250E+01  0.95836563888E+01  0.15909640798E+02  0.72461565927E+02  0.69999994310E+02 0.  0.
        -12    1    1    2    0    0  0.23908561250E+01 -0.95836563888E+01 -0.15909640798E+02  0.18726434073E+02  0.00000000000E+00 0.  1.
         11    1    3    3    0    0  0.10345825760E+02 -0.14702262065E+02  0.27063325841E+02  0.32490248173E+02  0.51100000000E-03 0. -1.
        -11    1    3    3    0    0 -0.18918100969E+01  0.15921161280E+02 -0.18458126359E+02  0.24449228023E+02  0.51100000000E-03 0.  1.
         12    1    3    3    0    0 -0.10844871789E+02  0.83647571736E+01  0.73044413157E+01  0.15522089731E+02  0.00000000000E+00 0. -1.
</event>
<event>
 7    1  0.1857734E-013  0.7246156E+02  0.7816164E-02  0.1226708E+00
        -11   -1    0    0    0    0  0.00000000000E+00  0.00000000000E+00  0.45593999997E+02  0.45594000000E+02  0.51100000000E-03 0.  1.
         11   -1    0    0    0    0 -0.00000000000E+00 -0.00000000000E+00 -0.45593999997E+02  0.45594000000E+02  0.51100000000E-03 0. -1.
    9900012    2    1    2    0    0  0.60258132947E+01  0.15297634028E+02 -0.89639018658E+01  0.72461559618E+02  0.69999986092E+02 0.  0.
        -12    1    1    2    0    0 -0.60258132947E+01 -0.15297634028E+02  0.89639018658E+01  0.18726440382E+02  0.00000000000E+00 0.  1.
         11    1    3    3    0    0  0.10227544565E+02  0.24820973121E+02  0.19726107784E+02  0.33313701432E+02  0.51100000000E-03 0. -1.
        -11    1    3    3    0    0 -0.89316755674E+00 -0.17729310757E+02 -0.20087867571E+02  0.26807622647E+02  0.51100000000E-03 0.  1.
         12    1    3    3    0    0 -0.33085637136E+01  0.82059716639E+01 -0.86021420792E+01  0.12340235539E+02  0.00000000000E+00 0. -1.
</event>
<event>
 7    1  0.1857734E-013  0.7246158E+02  0.7816164E-02  0.1226708E+00
        -11   -1    0    0    0    0  0.00000000000E+00  0.00000000000E+00  0.45593999997E+02  0.45594000000E+02  0.51100000000E-03 0.  1.
         11   -1    0    0    0    0 -0.00000000000E+00 -0.00000000000E+00 -0.45593999997E+02  0.45594000000E+02  0.51100000000E-03 0. -1.
    9900012    2    1    2    0    0  0.10481163332E+02  0.15403930452E+02 -0.18822576227E+01  0.72461581445E+02  0.70000014526E+02 0.  0.
        -12    1    1    2    0    0 -0.10481163332E+02 -0.15403930452E+02  0.18822576227E+01  0.18726418555E+02  0.00000000000E+00 0.  1.
         11    1    3    3    0    0  0.33857594501E+02 -0.16569614119E+01  0.13676217249E+02  0.36552990918E+02  0.51100000000E-03 0. -1.
        -11    1    3    3    0    0 -0.11919038948E+02  0.16111507738E+01 -0.15790615414E+01  0.12130652574E+02  0.51100000000E-03 0.  1.
         12    1    3    3    0    0 -0.11457392222E+02  0.15449741090E+02 -0.13979413330E+02  0.23777937953E+02  0.00000000000E+00 0. -1.
</event>
<event>
 7    1  0.1857734E-013  0.7246155E+02  0.7816164E-02  0.1226708E+00
        -11   -1    0    0    0    0  0.00000000000E+00  0.00000000000E+00  0.45593999997E+02  0.45594000000E+02  0.51100000000E-03 0. -1.
         11   -1    0    0    0    0 -0.00000000000E+00 -0.00000000000E+00 -0.45593999997E+02  0.45594000000E+02  0.51100000000E-03 0.  1.
    9900012    2    1    2    0    0  0.13556680606E+02  0.39644426208E+01  0.12295510958E+02  0.72461548546E+02  0.69999971669E+02 0.  0.
        -12    1    1    2    0    0 -0.13556680606E+02 -0.39644426208E+01 -0.12295510958E+02  0.18726451454E+02  0.00000000000E+00 0.  1.
         11    1    3    3    0    0  0.20512177397E+02  0.26182046956E+02  0.27193273309E+02  0.42961879823E+02  0.51100000000E-03 0. -1.
        -11    1    3    3    0    0 -0.34185114508E+01 -0.17563488442E+02 -0.60363614610E+01  0.18883855717E+02  0.51100000000E-03 0.  1.
         12    1    3    3    0    0 -0.35369853400E+01 -0.46541158927E+01 -0.88614008904E+01  0.10615813006E+02  0.00000000000E+00 0. -1.
</event>
<event>
 7    1  0.1857734E-013  0.7246171E+02  0.7816164E-02  0.1226708E+00
        -11   -1    0    0    0    0  0.00000000000E+00  0.00000000000E+00  0.45593999997E+02  0.45594000000E+02  0.51100000000E-03 0. -1.
         11   -1    0    0    0    0 -0.00000000000E+00 -0.00000000000E+00 -0.45593999997E+02  0.45594000000E+02  0.51100000000E-03 0.  1.
    9900012    2    1    2    0    0  0.79204995929E+01 -0.16931825749E+02  0.11193507623E+01  0.72461708773E+02  0.70000180394E+02 0.  0.
        -12    1    1    2    0    0 -0.79204995929E+01  0.16931825749E+02 -0.11193507623E+01  0.18726291227E+02  0.00000000000E+00 0.  1.
         11    1    3    3    0    0  0.22350634684E+02  0.15417532851E+02  0.13289382982E+02  0.30230099078E+02  0.51100000000E-03 0. -1.
        -11    1    3    3    0    0  0.26317270072E+01 -0.12470805242E+02 -0.95056525725E+01  0.15899823946E+02  0.51100000000E-03 0.  1.
         12    1    3    3    0    0 -0.17061862098E+02 -0.19878553358E+02 -0.26643796472E+01  0.26331785749E+02  0.00000000000E+00 0. -1.
</event>
<event>
 7    1  0.1857734E-013  0.7246165E+02  0.7816164E-02  0.1226708E+00
        -11   -1    0    0    0    0  0.00000000000E+00  0.00000000000E+00  0.45593999997E+02  0.45594000000E+02  0.51100000000E-03 0. -1.
         11   -1    0    0    0    0 -0.00000000000E+00 -0.00000000000E+00 -0.45593999997E+02  0.45594000000E+02  0.51100000000E-03 0.  1.
    9900012    2    1    2    0    0  0.10705147256E+02 -0.12360856578E+02  0.91260804936E+01  0.72461646957E+02  0.70000099868E+02 0.  0.
        -12    1    1    2    0    0 -0.10705147256E+02  0.12360856578E+02 -0.91260804936E+01  0.18726353043E+02  0.00000000000E+00 0.  1.
         11    1    3    3    0    0  0.36716305867E+00 -0.35585007842E+02  0.18130983922E+02  0.39939456306E+02  0.51100000000E-03 0. -1.
        -11    1    3    3    0    0  0.10372962604E+02  0.26901246486E+01 -0.30004477040E+01  0.11128243819E+02  0.51100000000E-03 0.  1.
         12    1    3    3    0    0 -0.34978406324E-01  0.20534026615E+02 -0.60044557246E+01  0.21393946833E+02  0.00000000000E+00 0. -1.
</event>
<event>
 7    1  0.1857734E-013  0.7246153E+02  0.7816164E-02  0.1226708E+00
        -11   -1    0    0    0    0  0.00000000000E+00  0.00000000000E+00  0.45593999997E+02  0.45594000000E+02  0.51100000000E-03 0.  1.
         11   -1    0    0    0    0 -0.00000000000E+00 -0.00000000000E+00 -0.45593999997E+02  0.45594000000E+02  0.51100000000E-03 0. -1.
    9900012    2    1    2    0    0  0.76511339012E+01 -0.60195227269E+01 -0.15997063327E+02  0.72461533731E+02  0.69999952369E+02 0.  0.
        -12    1    1    2    0    0 -0.76511339012E+01  0.60195227269E+01  0.15997063327E+02  0.18726466269E+02  0.00000000000E+00 0.  1.
         11    1    3    3    0    0 -0.10214580502E+01 -0.15431533730E+02  0.17802124915E+02  0.23581587341E+02  0.51100000000E-03 0. -1.
        -11    1    3    3    0    0  0.13894047824E+02  0.16076452390E+02 -0.97397062203E+01  0.23374318469E+02  0.51100000000E-03 0.  1.
         12    1    3    3    0    0 -0.52214558726E+01 -0.66644413875E+01 -0.24059482022E+02  0.25505627920E+02  0.00000000000E+00 0. -1.
</event>
<event>
 8    1  0.1857734E-013  0.7246155E+02  0.7816164E-02  0.1226708E+00
        -11   -1    0    0    0    0  0.00000000000E+00  0.00000000000E+00  0.45593999997E+02  0.45594000000E+02  0.51100000000E-03 0.  1.
         11   -1    0    0    0    0 -0.00000000000E+00 -0.00000000000E+00 -0.45593999997E+02  0.45594000000E+02  0.51100000000E-03 0. -1.
    9900012    2    1    2    0    0 -0.24521116962E+01 -0.18489678941E+02 -0.16729607375E+01  0.72461551411E+02  0.69999975401E+02 0.  0.
         24    2    3    3    0    0  0.55144057857E-01 -0.21289437140E+02  0.82920870443E+01  0.61811332871E+02  0.57433779165E+02 0.  0.
        -12    1    1    2    0    0  0.24521116962E+01  0.18489678941E+02  0.16729607375E+01  0.18726448589E+02  0.00000000000E+00 0.  1.
         11    1    3    3    0    0 -0.25072557541E+01  0.27997581990E+01 -0.99650477817E+01  0.10650218540E+02  0.51100000000E-03 0. -1.
        -11    1    4    4    0    0  0.15193021554E+01 -0.64624021616E+01  0.32617230358E+02  0.33285952551E+02  0.51100000000E-03 0.  1.
         12    1    4    4    0    0 -0.14641580975E+01 -0.14827034979E+02 -0.24325143314E+02  0.28525380320E+02  0.00000000000E+00 0. -1.
</event>
<event>
 7    1  0.1857734E-013  0.7246159E+02  0.7816164E-02  0.1226708E+00
        -11   -1    0    0    0    0  0.00000000000E+00  0.00000000000E+00  0.45593999997E+02  0.45594000000E+02  0.51100000000E-03 0.  1.
         11   -1    0    0    0    0 -0.00000000000E+00 -0.00000000000E+00 -0.45593999997E+02  0.45594000000E+02  0.51100000000E-03 0. -1.
    9900012    2    1    2    0    0  0.17044801478E+02  0.59088274487E+00 -0.77333012837E+01  0.72461592214E+02  0.70000028554E+02 0.  0.
        -12    1    1    2    0    0 -0.17044801478E+02 -0.59088274487E+00  0.77333012837E+01  0.18726407786E+02  0.00000000000E+00 0.  1.
         11    1    3    3    0    0  0.96438065578E+01  0.23751918736E+02  0.63214693076E+01  0.26402985116E+02  0.51100000000E-03 0. -1.
        -11    1    3    3    0    0 -0.78516947017E+01 -0.88943837418E+01 -0.20940425279E+02  0.24067832951E+02  0.51100000000E-03 0.  1.
        -12    1    3    3    0    0  0.15252689622E+02 -0.14266652249E+02  0.68856546878E+01  0.21990774147E+02  0.00000000000E+00 0.  1.
</event>
<event>
 7    1  0.1857734E-013  0.7246160E+02  0.7816164E-02  0.1226708E+00
        -11   -1    0    0    0    0  0.00000000000E+00  0.00000000000E+00  0.45593999997E+02  0.45594000000E+02  0.51100000000E-03 0.  1.
         11   -1    0    0    0    0 -0.00000000000E+00 -0.00000000000E+00 -0.45593999997E+02  0.45594000000E+02  0.51100000000E-03 0. -1.
    9900012    2    1    2    0    0 -0.11448871452E+02 -0.28789602999E+01 -0.14536602114E+02  0.72461604966E+02  0.70000045167E+02 0.  0.
        -12    1    1    2    0    0  0.11448871452E+02  0.28789602999E+01  0.14536602114E+02  0.18726395034E+02  0.00000000000E+00 0.  1.
         11    1    3    3    0    0 -0.67111319684E+00  0.31128937073E+02  0.11734870292E+00  0.31136391686E+02  0.51100000000E-03 0. -1.
        -11    1    3    3    0    0  0.19226581910E+01 -0.15920650572E+02 -0.29112949840E+01  0.16298446794E+02  0.51100000000E-03 0.  1.
         12    1    3    3    0    0 -0.12700416447E+02 -0.18087246801E+02 -0.11742655833E+02  0.25026766486E+02  0.00000000000E+00 0. -1.
</event>
<event>
 7    1  0.1857734E-013  0.7246159E+02  0.7816164E-02  0.1226708E+00
        -11   -1    0    0    0    0  0.00000000000E+00  0.00000000000E+00  0.45593999997E+02  0.45594000000E+02  0.51100000000E-03 0.  1.
         11   -1    0    0    0    0 -0.00000000000E+00 -0.00000000000E+00 -0.45593999997E+02  0.45594000000E+02  0.51100000000E-03 0. -1.
    9900012    2    1    2    0    0  0.68371324214E+01 -0.10871361765E+02 -0.13628851263E+02  0.72461588888E+02  0.70000024222E+02 0.  0.
        -12    1    1    2    0    0 -0.68371324214E+01  0.10871361765E+02  0.13628851263E+02  0.18726411112E+02  0.00000000000E+00 0.  1.
         11    1    3    3    0    0 -0.25731566029E+02 -0.11172626499E+02  0.23969963903E+01  0.28154691708E+02  0.51100000000E-03 0. -1.
        -11    1    3    3    0    0  0.94334681336E+01 -0.49112505075E+01  0.57677535354E+01  0.12098664541E+02  0.51100000000E-03 0.  1.
         12    1    3    3    0    0  0.23135230317E+02  0.52125152416E+01 -0.21793601189E+02  0.32208232639E+02  0.00000000000E+00 0. -1.
</event>
<event>
 7    1  0.1857734E-013  0.7246155E+02  0.7816164E-02  0.1226708E+00
        -11   -1    0    0    0    0  0.00000000000E+00  0.00000000000E+00  0.45593999997E+02  0.45594000000E+02  0.51100000000E-03 0.  1.
         11   -1    0    0    0    0 -0.00000000000E+00 -0.00000000000E+00 -0.45593999997E+02  0.45594000000E+02  0.51100000000E-03 0. -1.
    9900012    2    1    2    0    0 -0.32739671511E+01  0.13550123209E+02 -0.12504209784E+02  0.72461549129E+02  0.69999972428E+02 0.  0.
        -12    1    1    2    0    0  0.32739671511E+01 -0.13550123209E+02  0.12504209784E+02  0.18726450871E+02  0.00000000000E+00 0.  1.
         11    1    3    3    0    0 -0.21509194305E+02  0.18705132548E+02  0.15950658415E+02  0.32664214783E+02  0.51100000000E-03 0.  1.
        -11    1    3    3    0    0  0.69048790668E+01 -0.12503860956E+02 -0.15621463709E+02  0.21167286609E+02  0.51100000000E-03 0. -1.
        -12    1    3    3    0    0  0.11330348087E+02  0.73488516171E+01 -0.12833404490E+02  0.18630047737E+02  0.00000000000E+00 0.  1.
</event>
<event>
 7    1  0.1857734E-013  0.7246159E+02  0.7816164E-02  0.1226708E+00
        -11   -1    0    0    0    0  0.00000000000E+00  0.00000000000E+00  0.45593999997E+02  0.45594000000E+02  0.51100000000E-03 0.  1.
         11   -1    0    0    0    0 -0.00000000000E+00 -0.00000000000E+00 -0.45593999997E+02  0.45594000000E+02  0.51100000000E-03 0. -1.
    9900012    2    1    2    0    0  0.42814413698E+01  0.17041596954E+02  0.64754719083E+01  0.72461588080E+02  0.70000023170E+02 0.  0.
        -12    1    1    2    0    0 -0.42814413698E+01 -0.17041596954E+02 -0.64754719083E+01  0.18726411920E+02  0.00000000000E+00 0.  1.
         11    1    3    3    0    0  0.97683483413E+01  0.10883464639E+02  0.13887528462E+01  0.14690100973E+02  0.51100000000E-03 0. -1.
        -11    1    3    3    0    0 -0.14131899011E+02 -0.19040793443E+02  0.16397190038E+02  0.28829329268E+02  0.51100000000E-03 0.  1.
        -12    1    3    3    0    0  0.86449920399E+01  0.25198925758E+02 -0.11310470976E+02  0.28942157840E+02  0.00000000000E+00 0.  1.
</event>
<event>
 7    1  0.1857734E-013  0.7246164E+02  0.7816164E-02  0.1226708E+00
        -11   -1    0    0    0    0  0.00000000000E+00  0.00000000000E+00  0.45593999997E+02  0.45594000000E+02  0.51100000000E-03 0.  1.
         11   -1    0    0    0    0 -0.00000000000E+00 -0.00000000000E+00 -0.45593999997E+02  0.45594000000E+02  0.51100000000E-03 0. -1.
    9900012    2    1    2    0    0  0.62434007964E+01 -0.41023368037E+01 -0.17171698348E+02  0.72461643042E+02  0.70000094768E+02 0.  0.
        -12    1    1    2    0    0 -0.62434007964E+01  0.41023368037E+01  0.17171698348E+02  0.18726356958E+02  0.00000000000E+00 0.  1.
         11    1    3    3    0    0  0.28852837787E+02 -0.26885225162E+01 -0.19298466205E+02  0.34815875687E+02  0.51100000000E-03 0. -1.
        -11    1    3    3    0    0 -0.93976038958E+01  0.47305207361E+01  0.14919513904E+02  0.18256086130E+02  0.51100000000E-03 0.  1.
        -12    1    3    3    0    0 -0.13211833095E+02 -0.61443350236E+01 -0.12792746046E+02  0.19389681225E+02  0.00000000000E+00 0.  1.
</event>
<event>
 7    1  0.1857734E-013  0.7246173E+02  0.7816164E-02  0.1226708E+00
        -11   -1    0    0    0    0  0.00000000000E+00  0.00000000000E+00  0.45593999997E+02  0.45594000000E+02  0.51100000000E-03 0.  1.
         11   -1    0    0    0    0 -0.00000000000E+00 -0.00000000000E+00 -0.45593999997E+02  0.45594000000E+02  0.51100000000E-03 0. -1.
    9900012    2    1    2    0    0 -0.15542589606E+02 -0.80788868525E+01  0.66206249878E+01  0.72461730226E+02  0.70000208340E+02 0.  0.
        -12    1    1    2    0    0  0.15542589606E+02  0.80788868525E+01 -0.66206249878E+01  0.18726269774E+02  0.00000000000E+00 0.  1.
         11    1    3    3    0    0  0.41162318640E+01  0.22942687890E+02  0.18767153663E+01  0.23384446823E+02  0.51100000000E-03 0. -1.
        -11    1    3    3    0    0  0.80589015003E+01 -0.83601254353E+01 -0.38941794398E+01  0.12247539527E+02  0.51100000000E-03 0.  1.
         12    1    3    3    0    0 -0.27717722970E+02 -0.22661449307E+02  0.86380890613E+01  0.36829743876E+02  0.00000000000E+00 0. -1.
</event>
<event>
 7    1  0.1857734E-013  0.7246159E+02  0.7816164E-02  0.1226708E+00
        -11   -1    0    0    0    0  0.00000000000E+00  0.00000000000E+00  0.45593999997E+02  0.45594000000E+02  0.51100000000E-03 0.  1.
         11   -1    0    0    0    0 -0.00000000000E+00 -0.00000000000E+00 -0.45593999997E+02  0.45594000000E+02  0.51100000000E-03 0. -1.
    9900012    2    1    2    0    0  0.22430883270E+01 -0.18583186053E+02  0.55857041739E+00  0.72461594845E+02  0.70000031981E+02 0.  0.
        -12    1    1    2    0    0 -0.22430883270E+01  0.18583186053E+02 -0.55857041739E+00  0.18726405155E+02  0.00000000000E+00 0.  1.
         11    1    3    3    0    0 -0.30346212237E+02 -0.11208162258E+02 -0.41761105834E+01  0.32618329176E+02  0.51100000000E-03 0. -1.
        -11    1    3    3    0    0  0.13700228805E+02 -0.10549551287E+02  0.10005290524E+02  0.19977365703E+02  0.51100000000E-03 0.  1.
         12    1    3    3    0    0  0.18889071759E+02  0.31745274923E+01 -0.52706095234E+01  0.19865899966E+02  0.00000000000E+00 0. -1.
</event>
<event>
 7    1  0.1857734E-013  0.7246157E+02  0.7816164E-02  0.1226708E+00
        -11   -1    0    0    0    0  0.00000000000E+00  0.00000000000E+00  0.45593999997E+02  0.45594000000E+02  0.51100000000E-03 0.  1.
         11   -1    0    0    0    0 -0.00000000000E+00 -0.00000000000E+00 -0.45593999997E+02  0.45594000000E+02  0.51100000000E-03 0. -1.
    9900012    2    1    2    0    0 -0.40325686063E+01  0.81278959396E+01 -0.16381540824E+02  0.72461569968E+02  0.69999999575E+02 0.  0.
        -12    1    1    2    0    0  0.40325686063E+01 -0.81278959396E+01  0.16381540824E+02  0.18726430032E+02  0.00000000000E+00 0.  1.
         11    1    3    3    0    0 -0.96728205886E+00 -0.12930053992E+02 -0.19383929039E+01  0.13110274525E+02  0.51100000000E-03 0. -1.
        -11    1    3    3    0    0 -0.28063224838E+02  0.11871981235E+02 -0.39486231331E+01  0.30725887320E+02  0.51100000000E-03 0.  1.
        -12    1    3    3    0    0  0.24997938290E+02  0.91859686969E+01 -0.10494524787E+02  0.28625408122E+02  0.00000000000E+00 0.  1.
</event>
<event>
 8    1  0.1857734E-013  0.7246156E+02  0.7816164E-02  0.1226708E+00
        -11   -1    0    0    0    0  0.00000000000E+00  0.00000000000E+00  0.45593999997E+02  0.45594000000E+02  0.51100000000E-03 0.  1.
         11   -1    0    0    0    0 -0.00000000000E+00 -0.00000000000E+00 -0.45593999997E+02  0.45594000000E+02  0.51100000000E-03 0. -1.
    9900012    2    1    2    0    0  0.12404005690E+02 -0.11944960066E+02 -0.73578549924E+01  0.72461562586E+02  0.69999989958E+02 0.  0.
        -24    2    3    3    0    0  0.19055012394E+02 -0.64325442764E+01 -0.19717317841E+02  0.57382473085E+02  0.49995044467E+02 0.  0.
        -12    1    1    2    0    0 -0.12404005690E+02  0.11944960066E+02  0.73578549924E+01  0.18726437414E+02  0.00000000000E+00 0.  1.
         11    1    4    4    0    0  0.34378686299E+02 -0.10662075531E+02 -0.20580478009E+02  0.41462392618E+02  0.51100000000E-03 0. -1.
        -11    1    3    3    0    0 -0.66510067037E+01 -0.55124157895E+01  0.12359462849E+02  0.15079089501E+02  0.51100000000E-03 0.  1.
        -12    1    4    4    0    0 -0.15323673905E+02  0.42295312547E+01  0.86316016753E+00  0.15920080467E+02  0.00000000000E+00 0.  1.
</event>
<event>
 7    1  0.1857734E-013  0.7246165E+02  0.7816164E-02  0.1226708E+00
        -11   -1    0    0    0    0  0.00000000000E+00  0.00000000000E+00  0.45593999997E+02  0.45594000000E+02  0.51100000000E-03 0.  1.
         11   -1    0    0    0    0 -0.00000000000E+00 -0.00000000000E+00 -0.45593999997E+02  0.45594000000E+02  0.51100000000E-03 0. -1.
    9900012    2    1    2    0    0 -0.51926400451E+01  0.16218453831E+02  0.77893689663E+01  0.72461654275E+02  0.70000109401E+02 0.  0.
        -12    1    1    2    0    0  0.51926400451E+01 -0.16218453831E+02 -0.77893689663E+01  0.18726345725E+02  0.00000000000E+00 0.  1.
         11    1    3    3    0    0 -0.15284146809E+02 -0.85828883077E+01 -0.13578922030E+02  0.22173367790E+02  0.51100000000E-03 0. -1.
        -11    1    3    3    0    0 -0.39540714635E+01  0.17077794157E+02  0.27924155267E+02  0.32970353077E+02  0.51100000000E-03 0.  1.
        -12    1    3    3    0    0  0.14045578228E+02  0.77235479821E+01 -0.65558642703E+01  0.17317933408E+02  0.00000000000E+00 0.  1.
</event>
<event>
 7    1  0.1857734E-013  0.7246174E+02  0.7816164E-02  0.1226708E+00
        -11   -1    0    0    0    0  0.00000000000E+00  0.00000000000E+00  0.45593999997E+02  0.45594000000E+02  0.51100000000E-03 0.  1.
         11   -1    0    0    0    0 -0.00000000000E+00 -0.00000000000E+00 -0.45593999997E+02  0.45594000000E+02  0.51100000000E-03 0. -1.
    9900012    2    1    2    0    0  0.16518514391E+02  0.55124610868E+01 -0.68865170170E+01  0.72461744060E+02  0.70000226361E+02 0.  0.
        -12    1    1    2    0    0 -0.16518514391E+02 -0.55124610868E+01  0.68865170170E+01  0.18726255940E+02  0.00000000000E+00 0.  1.
         11    1    3    3    0    0  0.14694309572E+01 -0.16734033085E+02 -0.28278367204E+01  0.17034780639E+02  0.51100000000E-03 0. -1.
        -11    1    3    3    0    0 -0.15056088737E+02  0.13943378802E+02 -0.11219034588E+02  0.23387397415E+02  0.51100000000E-03 0.  1.
        -12    1    3    3    0    0  0.30105172171E+02  0.83031153699E+01  0.71603542911E+01  0.32039566006E+02  0.00000000000E+00 0.  1.
</event>
<event>
 7    1  0.1857734E-013  0.7246148E+02  0.7816164E-02  0.1226708E+00
        -11   -1    0    0    0    0  0.00000000000E+00  0.00000000000E+00  0.45593999997E+02  0.45594000000E+02  0.51100000000E-03 0.  1.
         11   -1    0    0    0    0 -0.00000000000E+00 -0.00000000000E+00 -0.45593999997E+02  0.45594000000E+02  0.51100000000E-03 0. -1.
    9900012    2    1    2    0    0 -0.35833531963E+01  0.12213860983E+02 -0.13735492216E+02  0.72461479591E+02  0.69999881841E+02 0.  0.
        -12    1    1    2    0    0  0.35833531963E+01 -0.12213860983E+02  0.13735492216E+02  0.18726520409E+02  0.00000000000E+00 0.  1.
         11    1    3    3    0    0 -0.17034134037E+02  0.15401172002E+02 -0.15381715103E+02  0.27639735549E+02  0.51100000000E-03 0. -1.
        -11    1    3    3    0    0  0.95667513826E+01  0.14437187108E+02  0.14563018782E+02  0.22628226177E+02  0.51100000000E-03 0.  1.
        -12    1    3    3    0    0  0.38840294585E+01 -0.17624498127E+02 -0.12916795894E+02  0.22193517865E+02  0.00000000000E+00 0.  1.
</event>
<event>
 7    1  0.1857734E-013  0.7246168E+02  0.7816164E-02  0.1226708E+00
        -11   -1    0    0    0    0  0.00000000000E+00  0.00000000000E+00  0.45593999997E+02  0.45594000000E+02  0.51100000000E-03 0. -1.
         11   -1    0    0    0    0 -0.00000000000E+00 -0.00000000000E+00 -0.45593999997E+02  0.45594000000E+02  0.51100000000E-03 0.  1.
    9900012    2    1    2    0    0  0.58955166434E+01 -0.10302337864E+02  0.14483780378E+02  0.72461676923E+02  0.70000138903E+02 0.  0.
        -12    1    1    2    0    0 -0.58955166434E+01  0.10302337864E+02 -0.14483780378E+02  0.18726323077E+02  0.00000000000E+00 0.  1.
         11    1    3    3    0    0 -0.16038345914E+02 -0.21292397193E+02  0.20574741573E+02  0.33673650068E+02  0.51100000000E-03 0. -1.
        -11    1    3    3    0    0  0.10149737089E+02  0.20688926974E+02 -0.37159854125E+01  0.23342180921E+02  0.51100000000E-03 0.  1.
         12    1    3    3    0    0  0.11784125468E+02 -0.96988676449E+01 -0.23749757827E+01  0.15445845934E+02  0.00000000000E+00 0. -1.
</event>
<event>
 7    1  0.1857734E-013  0.7246150E+02  0.7816164E-02  0.1226708E+00
        -11   -1    0    0    0    0  0.00000000000E+00  0.00000000000E+00  0.45593999997E+02  0.45594000000E+02  0.51100000000E-03 0.  1.
         11   -1    0    0    0    0 -0.00000000000E+00 -0.00000000000E+00 -0.45593999997E+02  0.45594000000E+02  0.51100000000E-03 0. -1.
    9900012    2    1    2    0    0 -0.13756077909E+02 -0.11610712425E+02 -0.51617225051E+01  0.72461502686E+02  0.69999911927E+02 0.  0.
        -12    1    1    2    0    0  0.13756077909E+02  0.11610712425E+02  0.51617225051E+01  0.18726497314E+02  0.00000000000E+00 0.  1.
         11    1    3    3    0    0  0.13558411914E+02 -0.86231354207E+01 -0.70518876790E+01  0.17547595796E+02  0.51100000000E-03 0. -1.
        -11    1    3    3    0    0 -0.39661560772E+02 -0.25438109201E+00 -0.58436213316E+01  0.40090547803E+02  0.51100000000E-03 0.  1.
        -12    1    3    3    0    0  0.12347070949E+02 -0.27331959119E+01  0.77337865055E+01  0.14823359087E+02  0.00000000000E+00 0.  1.
</event>
<event>
 7    1  0.1857734E-013  0.7246154E+02  0.7816164E-02  0.1226708E+00
        -11   -1    0    0    0    0  0.00000000000E+00  0.00000000000E+00  0.45593999997E+02  0.45594000000E+02  0.51100000000E-03 0.  1.
         11   -1    0    0    0    0 -0.00000000000E+00 -0.00000000000E+00 -0.45593999997E+02  0.45594000000E+02  0.51100000000E-03 0. -1.
    9900012    2    1    2    0    0 -0.78115879285E+01  0.13406310587E+02 -0.10484770046E+02  0.72461535506E+02  0.69999954681E+02 0.  0.
        -12    1    1    2    0    0  0.78115879285E+01 -0.13406310587E+02  0.10484770046E+02  0.18726464494E+02  0.00000000000E+00 0.  1.
         11    1    3    3    0    0  0.38925301191E+01  0.37038621144E+02 -0.91077921907E+01  0.38340098146E+02  0.51100000000E-03 0. -1.
        -11    1    3    3    0    0 -0.18184946921E+01 -0.15927900317E+02  0.85171563903E+01  0.18153426252E+02  0.51100000000E-03 0.  1.
         12    1    3    3    0    0 -0.98856233555E+01 -0.77044102395E+01 -0.98941342459E+01  0.15968011108E+02  0.00000000000E+00 0. -1.
</event>
<event>
 7    1  0.1857734E-013  0.7246163E+02  0.7816164E-02  0.1226708E+00
        -11   -1    0    0    0    0  0.00000000000E+00  0.00000000000E+00  0.45593999997E+02  0.45594000000E+02  0.51100000000E-03 0.  1.
         11   -1    0    0    0    0 -0.00000000000E+00 -0.00000000000E+00 -0.45593999997E+02  0.45594000000E+02  0.51100000000E-03 0. -1.
    9900012    2    1    2    0    0 -0.79411312233E+01  0.16112964695E+02 -0.52903513402E+01  0.72461627856E+02  0.70000074984E+02 0.  0.
        -12    1    1    2    0    0  0.79411312233E+01 -0.16112964695E+02  0.52903513402E+01  0.18726372144E+02  0.00000000000E+00 0.  1.
         11    1    3    3    0    0  0.22921117435E+02  0.15348356598E+02 -0.12970625396E+02  0.30482565479E+02  0.51100000000E-03 0. -1.
        -11    1    3    3    0    0 -0.15866032059E+02  0.61728270533E+01  0.16543999596E+02  0.23738969860E+02  0.51100000000E-03 0.  1.
         12    1    3    3    0    0 -0.14996216599E+02 -0.54082189562E+01 -0.88637255403E+01  0.18240092517E+02  0.00000000000E+00 0. -1.
</event>
<event>
 7    1  0.1857734E-013  0.7246116E+02  0.7816164E-02  0.1226709E+00
        -11   -1    0    0    0    0  0.00000000000E+00  0.00000000000E+00  0.45593999997E+02  0.45594000000E+02  0.51100000000E-03 0. -1.
         11   -1    0    0    0    0 -0.00000000000E+00 -0.00000000000E+00 -0.45593999997E+02  0.45594000000E+02  0.51100000000E-03 0.  1.
    9900012    2    1    2    0    0  0.71871685460E+01  0.90886582129E+00  0.17268849054E+02  0.72461158930E+02  0.69999464120E+02 0.  0.
        -12    1    1    2    0    0 -0.71871685460E+01 -0.90886582129E+00 -0.17268849054E+02  0.18726841070E+02  0.00000000000E+00 0.  1.
         11    1    3    3    0    0 -0.14645295722E+01  0.31683153345E+01  0.34286755626E+01  0.48927380168E+01  0.51100000000E-03 0. -1.
        -11    1    3    3    0    0  0.27796552457E+02  0.36065128411E+01 -0.15513061223E+02  0.32036078601E+02  0.51100000000E-03 0.  1.
        -12    1    3    3    0    0 -0.19144854339E+02 -0.58659623543E+01  0.29353234714E+02  0.35532342312E+02  0.00000000000E+00 0.  1.
</event>
<event>
 7    1  0.1857734E-013  0.7246157E+02  0.7816164E-02  0.1226708E+00
        -11   -1    0    0    0    0  0.00000000000E+00  0.00000000000E+00  0.45593999997E+02  0.45594000000E+02  0.51100000000E-03 0.  1.
         11   -1    0    0    0    0 -0.00000000000E+00 -0.00000000000E+00 -0.45593999997E+02  0.45594000000E+02  0.51100000000E-03 0. -1.
    9900012    2    1    2    0    0 -0.99321717289E+01 -0.14731661089E+02  0.59168559231E+01  0.72461573280E+02  0.70000003889E+02 0.  0.
        -12    1    1    2    0    0  0.99321717289E+01  0.14731661089E+02 -0.59168559231E+01  0.18726426720E+02  0.00000000000E+00 0.  1.
         11    1    3    3    0    0  0.23003274829E+02  0.78085392768E+00 -0.17507759040E+02  0.28918540983E+02  0.51100000000E-03 0. -1.
        -11    1    3    3    0    0 -0.32365633460E+01 -0.17699669662E+01  0.41981360272E+01  0.55886019467E+01  0.51100000000E-03 0.  1.
         12    1    3    3    0    0 -0.29698883212E+02 -0.13742548050E+02  0.19226478935E+02  0.37954430350E+02  0.00000000000E+00 0. -1.
</event>
<event>
 7    1  0.1857734E-013  0.7246158E+02  0.7816164E-02  0.1226708E+00
        -11   -1    0    0    0    0  0.00000000000E+00  0.00000000000E+00  0.45593999997E+02  0.45594000000E+02  0.51100000000E-03 0. -1.
         11   -1    0    0    0    0 -0.00000000000E+00 -0.00000000000E+00 -0.45593999997E+02  0.45594000000E+02  0.51100000000E-03 0.  1.
    9900012    2    1    2    0    0 -0.17695291401E+02  0.19686476302E+01 -0.58034382323E+01  0.72461579986E+02  0.70000012625E+02 0.  0.
        -12    1    1    2    0    0  0.17695291401E+02 -0.19686476302E+01  0.58034382323E+01  0.18726420014E+02  0.00000000000E+00 0.  1.
         11    1    3    3    0    0  0.45151744281E+01 -0.12760379258E+02 -0.21774449084E+02  0.25638656597E+02  0.51100000000E-03 0. -1.
        -11    1    3    3    0    0 -0.27202311532E+02  0.10596672961E+02 -0.42099414733E+00  0.29196446134E+02  0.51100000000E-03 0.  1.
         12    1    3    3    0    0  0.49918457032E+01  0.41323539272E+01  0.16392004999E+02  0.17626477255E+02  0.00000000000E+00 0. -1.
</event>
<event>
 7    1  0.1857734E-013  0.7246157E+02  0.7816164E-02  0.1226708E+00
        -11   -1    0    0    0    0  0.00000000000E+00  0.00000000000E+00  0.45593999997E+02  0.45594000000E+02  0.51100000000E-03 0.  1.
         11   -1    0    0    0    0 -0.00000000000E+00 -0.00000000000E+00 -0.45593999997E+02  0.45594000000E+02  0.51100000000E-03 0. -1.
    9900012    2    1    2    0    0  0.34465671008E+01 -0.10191122503E+01 -0.18378299489E+02  0.72461566632E+02  0.69999995229E+02 0.  0.
        -12    1    1    2    0    0 -0.34465671008E+01  0.10191122503E+01  0.18378299489E+02  0.18726433368E+02  0.00000000000E+00 0.  1.
         11    1    3    3    0    0 -0.54594061968E+01 -0.22032525343E+02 -0.25557790002E+02  0.34182421200E+02  0.51100000000E-03 0. -1.
        -11    1    3    3    0    0  0.15363396128E+02  0.27984114478E+01  0.10294362395E+02  0.18703982052E+02  0.51100000000E-03 0.  1.
        -12    1    3    3    0    0 -0.64574228305E+01  0.18215001645E+02 -0.31148718816E+01  0.19575163381E+02  0.00000000000E+00 0.  1.
</event>
<event>
 7    1  0.1857734E-013  0.7246160E+02  0.7816164E-02  0.1226708E+00
        -11   -1    0    0    0    0  0.00000000000E+00  0.00000000000E+00  0.45593999997E+02  0.45594000000E+02  0.51100000000E-03 0. -1.
         11   -1    0    0    0    0 -0.00000000000E+00 -0.00000000000E+00 -0.45593999997E+02  0.45594000000E+02  0.51100000000E-03 0.  1.
    9900012    2    1    2    0    0  0.43488697394E+01  0.51162667773E+01  0.17481105108E+02  0.72461604470E+02  0.70000044520E+02 0.  0.
        -12    1    1    2    0    0 -0.43488697394E+01 -0.51162667773E+01 -0.17481105108E+02  0.18726395530E+02  0.00000000000E+00 0.  1.
         11    1    3    3    0    0  0.10419142010E+02  0.14753343975E+01  0.35362433911E+02  0.36894943613E+02  0.51100000000E-03 0. -1.
        -11    1    3    3    0    0  0.95837883665E+01 -0.64072142680E+00 -0.16736987555E+02  0.19297312664E+02  0.51100000000E-03 0.  1.
        -12    1    3    3    0    0 -0.15654060637E+02  0.42816538067E+01 -0.11443412486E+01  0.16269348193E+02  0.00000000000E+00 0.  1.
</event>
<event>
 7    1  0.1857734E-013  0.7246148E+02  0.7816164E-02  0.1226708E+00
        -11   -1    0    0    0    0  0.00000000000E+00  0.00000000000E+00  0.45593999997E+02  0.45594000000E+02  0.51100000000E-03 0.  1.
         11   -1    0    0    0    0 -0.00000000000E+00 -0.00000000000E+00 -0.45593999997E+02  0.45594000000E+02  0.51100000000E-03 0. -1.
    9900012    2    1    2    0    0  0.72285494837E+01  0.14534789332E+02 -0.93365240994E+01  0.72461475741E+02  0.69999876827E+02 0.  0.
        -12    1    1    2    0    0 -0.72285494837E+01 -0.14534789332E+02  0.93365240994E+01  0.18726524259E+02  0.00000000000E+00 0.  1.
         11    1    3    3    0    0  0.17873286562E+02  0.24130103866E+02 -0.11388678625E+02  0.32115701552E+02  0.51100000000E-03 0. -1.
        -11    1    3    3    0    0 -0.80445337033E+01 -0.36583845928E+01  0.19675142417E+02  0.21568716460E+02  0.51100000000E-03 0.  1.
        -12    1    3    3    0    0 -0.26002033751E+01 -0.59369299415E+01 -0.17622987892E+02  0.18777057729E+02  0.00000000000E+00 0.  1.
</event>
<event>
 7    1  0.1857734E-013  0.7246154E+02  0.7816164E-02  0.1226708E+00
        -11   -1    0    0    0    0  0.00000000000E+00  0.00000000000E+00  0.45593999997E+02  0.45594000000E+02  0.51100000000E-03 0. -1.
         11   -1    0    0    0    0 -0.00000000000E+00 -0.00000000000E+00 -0.45593999997E+02  0.45594000000E+02  0.51100000000E-03 0.  1.
    9900012    2    1    2    0    0 -0.33464922851E+01  0.16626763559E+02 -0.79392693202E+01  0.72461540794E+02  0.69999961570E+02 0.  0.
        -12    1    1    2    0    0  0.33464922851E+01 -0.16626763559E+02  0.79392693202E+01  0.18726459206E+02  0.00000000000E+00 0.  1.
         11    1    3    3    0    0  0.16553821575E+02  0.25772841965E+02  0.10752671504E+02  0.32463646383E+02  0.51100000000E-03 0. -1.
        -11    1    3    3    0    0  0.45160070852E+01 -0.99342527992E+01 -0.63973190623E+01  0.12649481812E+02  0.51100000000E-03 0.  1.
         12    1    3    3    0    0 -0.24416320946E+02  0.78817439324E+00 -0.12294621762E+02  0.27348412599E+02  0.00000000000E+00 0. -1.
</event>
<event>
 7    1  0.1857734E-013  0.7246157E+02  0.7816164E-02  0.1226708E+00
        -11   -1    0    0    0    0  0.00000000000E+00  0.00000000000E+00  0.45593999997E+02  0.45594000000E+02  0.51100000000E-03 0.  1.
         11   -1    0    0    0    0 -0.00000000000E+00 -0.00000000000E+00 -0.45593999997E+02  0.45594000000E+02  0.51100000000E-03 0. -1.
    9900012    2    1    2    0    0 -0.73623097828E+00  0.39149632015E+01 -0.18297821092E+02  0.72461568689E+02  0.69999997909E+02 0.  0.
        -12    1    1    2    0    0  0.73623097828E+00 -0.39149632015E+01  0.18297821092E+02  0.18726431311E+02  0.00000000000E+00 0.  1.
         11    1    3    3    0    0  0.47383234133E+01 -0.12050016210E+02 -0.35776543912E+02  0.38047545177E+02  0.51100000000E-03 0. -1.
        -11    1    3    3    0    0 -0.77764295819E+01  0.25246561785E+00  0.16805860045E+02  0.18519544488E+02  0.51100000000E-03 0.  1.
        -12    1    3    3    0    0  0.23018751903E+01  0.15712513794E+02  0.67286277443E+00  0.15894479024E+02  0.00000000000E+00 0.  1.
</event>
<event>
 7    1  0.1857734E-013  0.7246154E+02  0.7816164E-02  0.1226708E+00
        -11   -1    0    0    0    0  0.00000000000E+00  0.00000000000E+00  0.45593999997E+02  0.45594000000E+02  0.51100000000E-03 0.  1.
         11   -1    0    0    0    0 -0.00000000000E+00 -0.00000000000E+00 -0.45593999997E+02  0.45594000000E+02  0.51100000000E-03 0. -1.
    9900012    2    1    2    0    0  0.18580756045E+02 -0.23291101249E+01  0.10515903894E+00  0.72461539907E+02  0.69999960415E+02 0.  0.
        -12    1    1    2    0    0 -0.18580756045E+02  0.23291101249E+01 -0.10515903894E+00  0.18726460093E+02  0.00000000000E+00 0.  1.
         11    1    3    3    0    0 -0.23251808173E+02  0.10335591556E+02 -0.10427270545E+02  0.27499072846E+02  0.51100000000E-03 0. -1.
        -11    1    3    3    0    0  0.19029290009E+02 -0.54930381721E+01  0.46392533223E+01  0.20342320867E+02  0.51100000000E-03 0.  1.
         12    1    3    3    0    0  0.22803274209E+02 -0.71716635084E+01  0.58931762621E+01  0.24620146194E+02  0.00000000000E+00 0. -1.
</event>
<event>
 7    1  0.1857734E-013  0.7246150E+02  0.7816164E-02  0.1226708E+00
        -11   -1    0    0    0    0  0.00000000000E+00  0.00000000000E+00  0.45593999997E+02  0.45594000000E+02  0.51100000000E-03 0.  1.
         11   -1    0    0    0    0 -0.00000000000E+00 -0.00000000000E+00 -0.45593999997E+02  0.45594000000E+02  0.51100000000E-03 0. -1.
    9900012    2    1    2    0    0  0.94430414888E+01  0.39642549210E+01 -0.15677870684E+02  0.72461495286E+02  0.69999902287E+02 0.  0.
        -12    1    1    2    0    0 -0.94430414888E+01 -0.39642549210E+01  0.15677870684E+02  0.18726504714E+02  0.00000000000E+00 0.  1.
         11    1    3    3    0    0  0.86295410449E+01  0.13905252638E+01 -0.31122563886E+02  0.32326715302E+02  0.51100000000E-03 0. -1.
        -11    1    3    3    0    0 -0.81107428399E+01 -0.14983071198E+02  0.45816034393E+01  0.17642779324E+02  0.51100000000E-03 0.  1.
        -12    1    3    3    0    0  0.89242432839E+01  0.17556800855E+02  0.10863089763E+02  0.22492000659E+02  0.00000000000E+00 0.  1.
</event>
<event>
 7    1  0.1857734E-013  0.7246161E+02  0.7816164E-02  0.1226708E+00
        -11   -1    0    0    0    0  0.00000000000E+00  0.00000000000E+00  0.45593999997E+02  0.45594000000E+02  0.51100000000E-03 0.  1.
         11   -1    0    0    0    0 -0.00000000000E+00 -0.00000000000E+00 -0.45593999997E+02  0.45594000000E+02  0.51100000000E-03 0. -1.
    9900012    2    1    2    0    0  0.14015878003E+01  0.62796536311E+01 -0.17586335417E+02  0.72461609759E+02  0.70000051410E+02 0.  0.
        -12    1    1    2    0    0 -0.14015878003E+01 -0.62796536311E+01  0.17586335417E+02  0.18726390241E+02  0.00000000000E+00 0.  1.
         11    1    3    3    0    0 -0.91969718717E+01  0.22752130682E+02 -0.18876431750E+02  0.30960675349E+02  0.51100000000E-03 0. -1.
        -11    1    3    3    0    0  0.18598473963E+02 -0.23612971030E+02 -0.24175228184E+01  0.30154934114E+02  0.51100000000E-03 0.  1.
        -12    1    3    3    0    0 -0.79999142906E+01  0.71404939785E+01  0.37076191523E+01  0.11346000295E+02  0.00000000000E+00 0.  1.
</event>
<event>
 7    1  0.1857734E-013  0.7246160E+02  0.7816164E-02  0.1226708E+00
        -11   -1    0    0    0    0  0.00000000000E+00  0.00000000000E+00  0.45593999997E+02  0.45594000000E+02  0.51100000000E-03 0. -1.
         11   -1    0    0    0    0 -0.00000000000E+00 -0.00000000000E+00 -0.45593999997E+02  0.45594000000E+02  0.51100000000E-03 0.  1.
    9900012    2    1    2    0    0 -0.71905962637E+01  0.16529860173E+02 -0.50731852264E+01  0.72461597241E+02  0.70000035103E+02 0.  0.
        -12    1    1    2    0    0  0.71905962637E+01 -0.16529860173E+02  0.50731852264E+01  0.18726402759E+02  0.00000000000E+00 0.  1.
         11    1    3    3    0    0 -0.97772844748E+01  0.16342338058E+02  0.10736787810E+02  0.21861974239E+02  0.51100000000E-03 0. -1.
        -11    1    3    3    0    0  0.11413325692E+02  0.21111923590E+02 -0.14077763234E+02  0.27823744158E+02  0.51100000000E-03 0.  1.
        -12    1    3    3    0    0 -0.88266374807E+01 -0.20924401475E+02 -0.17322098020E+01  0.22775878844E+02  0.00000000000E+00 0.  1.
</event>
<event>
 7    1  0.1857734E-013  0.7246163E+02  0.7816164E-02  0.1226708E+00
        -11   -1    0    0    0    0  0.00000000000E+00  0.00000000000E+00  0.45593999997E+02  0.45594000000E+02  0.51100000000E-03 0. -1.
         11   -1    0    0    0    0 -0.00000000000E+00 -0.00000000000E+00 -0.45593999997E+02  0.45594000000E+02  0.51100000000E-03 0.  1.
    9900012    2    1    2    0    0 -0.12126824386E+02  0.80595531620E+01  0.11775432111E+02  0.72461626398E+02  0.70000073086E+02 0.  0.
        -12    1    1    2    0    0  0.12126824386E+02 -0.80595531620E+01 -0.11775432111E+02  0.18726373602E+02  0.00000000000E+00 0.  1.
         11    1    3    3    0    0 -0.20863983411E+02  0.12575587570E+02 -0.53768641207E+00  0.24366787097E+02  0.51100000000E-03 0. -1.
        -11    1    3    3    0    0  0.17678695128E+02 -0.89945462066E+01 -0.11032833228E+02  0.22697170136E+02  0.51100000000E-03 0.  1.
         12    1    3    3    0    0 -0.89415361029E+01  0.44785117989E+01  0.23345951752E+02  0.25397669165E+02  0.00000000000E+00 0. -1.
</event>
<event>
 7    1  0.1857734E-013  0.7246152E+02  0.7816164E-02  0.1226708E+00
        -11   -1    0    0    0    0  0.00000000000E+00  0.00000000000E+00  0.45593999997E+02  0.45594000000E+02  0.51100000000E-03 0. -1.
         11   -1    0    0    0    0 -0.00000000000E+00 -0.00000000000E+00 -0.45593999997E+02  0.45594000000E+02  0.51100000000E-03 0.  1.
    9900012    2    1    2    0    0 -0.10429312950E+02  0.10843026087E+02  0.11150753641E+02  0.72461519015E+02  0.69999933199E+02 0.  0.
        -12    1    1    2    0    0  0.10429312950E+02 -0.10843026087E+02 -0.11150753641E+02  0.18726480985E+02  0.00000000000E+00 0.  1.
         11    1    3    3    0    0  0.15721479933E+02  0.50276646757E+01  0.32992288184E+02  0.36890831155E+02  0.51100000000E-03 0. -1.
        -11    1    3    3    0    0 -0.18522840794E+02  0.40805234511E+01 -0.19940326945E+02  0.27520227863E+02  0.51100000000E-03 0.  1.
         12    1    3    3    0    0 -0.76279520896E+01  0.17348379601E+01 -0.19012075985E+01  0.80504599969E+01  0.00000000000E+00 0. -1.
</event>
<event>
 7    1  0.1857734E-013  0.7246077E+02  0.7816164E-02  0.1226710E+00
        -11   -1    0    0    0    0  0.00000000000E+00  0.00000000000E+00  0.45593999997E+02  0.45594000000E+02  0.51100000000E-03 0.  1.
         11   -1    0    0    0    0 -0.00000000000E+00 -0.00000000000E+00 -0.45593999997E+02  0.45594000000E+02  0.51100000000E-03 0. -1.
    9900012    2    1    2    0    0 -0.26290244580E+01 -0.13302635881E+02 -0.12916551321E+02  0.72460768784E+02  0.69998955876E+02 0.  0.
        -12    1    1    2    0    0  0.26290244580E+01  0.13302635881E+02  0.12916551321E+02  0.18727231216E+02  0.00000000000E+00 0.  1.
         11    1    3    3    0    0  0.22259765460E+02 -0.87699117255E+01 -0.20783216471E+02  0.31691490927E+02  0.51100000000E-03 0. -1.
        -11    1    3    3    0    0 -0.96633532304E+01 -0.76196991331E+01  0.18302024756E+02  0.22054575964E+02  0.51100000000E-03 0.  1.
         12    1    3    3    0    0 -0.15225436688E+02  0.30869749775E+01 -0.10435359606E+02  0.18714701893E+02  0.00000000000E+00 0. -1.
</event>
<event>
 7    1  0.1857734E-013  0.7246153E+02  0.7816164E-02  0.1226708E+00
        -11   -1    0    0    0    0  0.00000000000E+00  0.00000000000E+00  0.45593999997E+02  0.45594000000E+02  0.51100000000E-03 0.  1.
         11   -1    0    0    0    0 -0.00000000000E+00 -0.00000000000E+00 -0.45593999997E+02  0.45594000000E+02  0.51100000000E-03 0. -1.
    9900012    2    1    2    0    0  0.63610978456E+00 -0.17836699104E+02  0.56681759467E+01  0.72461529720E+02  0.69999947145E+02 0.  0.
        -12    1    1    2    0    0 -0.63610978456E+00  0.17836699104E+02 -0.56681759467E+01  0.18726470280E+02  0.00000000000E+00 0.  1.
         11    1    3    3    0    0  0.49446391679E+01  0.10712540247E+02  0.26736416290E+02  0.29224030032E+02  0.51100000000E-03 0. -1.
        -11    1    3    3    0    0 -0.10247594419E+02 -0.21028647323E+02 -0.40985802573E+01  0.23749011769E+02  0.51100000000E-03 0.  1.
         12    1    3    3    0    0  0.59390650357E+01 -0.75205920277E+01 -0.16969660086E+02  0.19488487919E+02  0.00000000000E+00 0. -1.
</event>
<event>
 7    1  0.1857734E-013  0.7246164E+02  0.7816164E-02  0.1226708E+00
        -11   -1    0    0    0    0  0.00000000000E+00  0.00000000000E+00  0.45593999997E+02  0.45594000000E+02  0.51100000000E-03 0.  1.
         11   -1    0    0    0    0 -0.00000000000E+00 -0.00000000000E+00 -0.45593999997E+02  0.45594000000E+02  0.51100000000E-03 0. -1.
    9900012    2    1    2    0    0  0.95551250561E+01 -0.15692635120E+02 -0.36218028783E+01  0.72461637088E+02  0.70000087011E+02 0.  0.
        -12    1    1    2    0    0 -0.95551250561E+01  0.15692635120E+02  0.36218028783E+01  0.18726362912E+02  0.00000000000E+00 0.  1.
         11    1    3    3    0    0  0.15274442035E+02 -0.37222978562E+02  0.23988131561E+01  0.40306488527E+02  0.51100000000E-03 0. -1.
        -11    1    3    3    0    0 -0.11038298202E+02  0.16259149398E+02 -0.11596788368E+02  0.22818621059E+02  0.51100000000E-03 0.  1.
        -12    1    3    3    0    0  0.53189812224E+01  0.52711940453E+01  0.55761723332E+01  0.93365275021E+01  0.00000000000E+00 0.  1.
</event>
<event>
 7    1  0.1857734E-013  0.7246159E+02  0.7816164E-02  0.1226708E+00
        -11   -1    0    0    0    0  0.00000000000E+00  0.00000000000E+00  0.45593999997E+02  0.45594000000E+02  0.51100000000E-03 0.  1.
         11   -1    0    0    0    0 -0.00000000000E+00 -0.00000000000E+00 -0.45593999997E+02  0.45594000000E+02  0.51100000000E-03 0. -1.
    9900012    2    1    2    0    0  0.79131831225E+01 -0.12108975440E+02  0.11892550891E+02  0.72461587636E+02  0.70000022590E+02 0.  0.
        -12    1    1    2    0    0 -0.79131831225E+01  0.12108975440E+02 -0.11892550891E+02  0.18726412364E+02  0.00000000000E+00 0.  1.
         11    1    3    3    0    0  0.14473842235E+02  0.21651734468E+01  0.31168812794E+02  0.34433631472E+02  0.51100000000E-03 0.  1.
        -11    1    3    3    0    0 -0.11995411374E+02  0.22422218900E+01 -0.18383325786E+00  0.12204558491E+02  0.51100000000E-03 0. -1.
         12    1    3    3    0    0  0.54347522613E+01 -0.16516370777E+02 -0.19092428645E+02  0.25823397673E+02  0.00000000000E+00 0. -1.
</event>
<event>
 7    1  0.1857734E-013  0.7246154E+02  0.7816164E-02  0.1226708E+00
        -11   -1    0    0    0    0  0.00000000000E+00  0.00000000000E+00  0.45593999997E+02  0.45594000000E+02  0.51100000000E-03 0.  1.
         11   -1    0    0    0    0 -0.00000000000E+00 -0.00000000000E+00 -0.45593999997E+02  0.45594000000E+02  0.51100000000E-03 0. -1.
    9900012    2    1    2    0    0 -0.23617799694E+01 -0.73695962715E+01 -0.17052600392E+02  0.72461544544E+02  0.69999966455E+02 0.  0.
        -12    1    1    2    0    0  0.23617799694E+01  0.73695962715E+01  0.17052600392E+02  0.18726455456E+02  0.00000000000E+00 0.  1.
         11    1    3    3    0    0  0.11158381044E+02 -0.15644525948E+02 -0.73993442328E+01  0.20591526291E+02  0.51100000000E-03 0. -1.
        -11    1    3    3    0    0 -0.20563360714E+02 -0.65334713821E+01  0.12015173259E+02  0.24696202964E+02  0.51100000000E-03 0.  1.
        -12    1    3    3    0    0  0.70431997007E+01  0.14808401058E+02 -0.21668429418E+02  0.27173815289E+02  0.00000000000E+00 0.  1.
</event>
<event>
 7    1  0.1857734E-013  0.7246156E+02  0.7816164E-02  0.1226708E+00
        -11   -1    0    0    0    0  0.00000000000E+00  0.00000000000E+00  0.45593999997E+02  0.45594000000E+02  0.51100000000E-03 0. -1.
         11   -1    0    0    0    0 -0.00000000000E+00 -0.00000000000E+00 -0.45593999997E+02  0.45594000000E+02  0.51100000000E-03 0.  1.
    9900012    2    1    2    0    0  0.47097143490E+00 -0.29529326497E+01  0.18486150681E+02  0.72461564345E+02  0.69999992250E+02 0.  0.
        -12    1    1    2    0    0 -0.47097143490E+00  0.29529326497E+01 -0.18486150681E+02  0.18726435655E+02  0.00000000000E+00 0.  1.
         11    1    3    3    0    0 -0.18108379754E+02  0.77160923117E+01  0.27081209090E+02  0.33478999148E+02  0.51100000000E-03 0. -1.
        -11    1    3    3    0    0  0.24089588052E+02 -0.16983785359E+02 -0.51498552597E+01  0.29921200295E+02  0.51100000000E-03 0.  1.
        -12    1    3    3    0    0 -0.55102368626E+01  0.63147603972E+01 -0.34452031490E+01  0.90613649024E+01  0.00000000000E+00 0.  1.
</event>
<event>
 7    1  0.1857734E-013  0.7246156E+02  0.7816164E-02  0.1226708E+00
        -11   -1    0    0    0    0  0.00000000000E+00  0.00000000000E+00  0.45593999997E+02  0.45594000000E+02  0.51100000000E-03 0. -1.
         11   -1    0    0    0    0 -0.00000000000E+00 -0.00000000000E+00 -0.45593999997E+02  0.45594000000E+02  0.51100000000E-03 0.  1.
    9900012    2    1    2    0    0 -0.54755579091E+01  0.17235031600E+02 -0.48632741073E+01  0.72461561905E+02  0.69999989071E+02 0.  0.
        -12    1    1    2    0    0  0.54755579091E+01 -0.17235031600E+02  0.48632741073E+01  0.18726438095E+02  0.00000000000E+00 0.  1.
         11    1    3    3    0    0  0.11976942226E+01  0.36896616083E+01  0.25164760646E+02  0.25461996247E+02  0.51100000000E-03 0. -1.
        -11    1    3    3    0    0 -0.45626003256E+01  0.23635606546E+02 -0.27174955964E+02  0.36303408248E+02  0.51100000000E-03 0.  1.
        -12    1    3    3    0    0 -0.21106518062E+01 -0.10090236554E+02 -0.28530787897E+01  0.10696157410E+02  0.00000000000E+00 0.  1.
</event>
<event>
 7    1  0.1857734E-013  0.7246128E+02  0.7816164E-02  0.1226709E+00
        -11   -1    0    0    0    0  0.00000000000E+00  0.00000000000E+00  0.45593999997E+02  0.45594000000E+02  0.51100000000E-03 0.  1.
         11   -1    0    0    0    0 -0.00000000000E+00 -0.00000000000E+00 -0.45593999997E+02  0.45594000000E+02  0.51100000000E-03 0. -1.
    9900012    2    1    2    0    0  0.90935629105E+01 -0.13567857508E+02 -0.91602627806E+01  0.72461279573E+02  0.69999621280E+02 0.  0.
        -12    1    1    2    0    0 -0.90935629105E+01  0.13567857508E+02  0.91602627806E+01  0.18726720427E+02  0.00000000000E+00 0.  1.
         11    1    3    3    0    0 -0.17692330457E+02  0.11153019622E+02 -0.21927926103E+02  0.30302513875E+02  0.51100000000E-03 0. -1.
        -11    1    3    3    0    0  0.14268597755E+02 -0.22404900787E+02  0.12667740554E+02  0.29428627426E+02  0.51100000000E-03 0.  1.
         12    1    3    3    0    0  0.12517295612E+02 -0.23159763426E+01  0.99922768505E-01  0.12730138272E+02  0.00000000000E+00 0. -1.
</event>
<event>
 8    1  0.1857734E-013  0.7246156E+02  0.7816164E-02  0.1226708E+00
        -11   -1    0    0    0    0  0.00000000000E+00  0.00000000000E+00  0.45593999997E+02  0.45594000000E+02  0.51100000000E-03 0.  1.
         11   -1    0    0    0    0 -0.00000000000E+00 -0.00000000000E+00 -0.45593999997E+02  0.45594000000E+02  0.51100000000E-03 0. -1.
    9900012    2    1    2    0    0 -0.92562380222E+01  0.60276057597E+00  0.16267712532E+02  0.72461555232E+02  0.69999980378E+02 0.  0.
         24    2    3    3    0    0 -0.55910989340E+01  0.16812693255E+02  0.10702369402E+02  0.54935340398E+02  0.50886381990E+02 0.  0.
        -12    1    1    2    0    0  0.92562380222E+01 -0.60276057597E+00 -0.16267712532E+02  0.18726444768E+02  0.00000000000E+00 0.  1.
         11    1    3    3    0    0 -0.36651390882E+01 -0.16209932679E+02  0.55653431303E+01  0.17526214834E+02  0.51100000000E-03 0. -1.
        -11    1    4    4    0    0 -0.22820433884E+02  0.24642007252E+02  0.12697174478E+02  0.35905695426E+02  0.51100000000E-03 0.  1.
         12    1    4    4    0    0  0.17229334950E+02 -0.78293139966E+01 -0.19948050760E+01  0.19029644972E+02  0.00000000000E+00 0. -1.
</event>
<event>
 7    1  0.1857734E-013  0.7246160E+02  0.7816164E-02  0.1226708E+00
        -11   -1    0    0    0    0  0.00000000000E+00  0.00000000000E+00  0.45593999997E+02  0.45594000000E+02  0.51100000000E-03 0.  1.
         11   -1    0    0    0    0 -0.00000000000E+00 -0.00000000000E+00 -0.45593999997E+02  0.45594000000E+02  0.51100000000E-03 0. -1.
    9900012    2    1    2    0    0  0.78233638983E+01  0.55305923699E+00  0.17004910742E+02  0.72461604550E+02  0.70000044625E+02 0.  0.
        -12    1    1    2    0    0 -0.78233638983E+01 -0.55305923699E+00 -0.17004910742E+02  0.18726395450E+02  0.00000000000E+00 0.  1.
         11    1    3    3    0    0  0.32370898253E+02  0.51878411416E+01  0.22753572613E+02  0.39906312989E+02  0.51100000000E-03 0. -1.
        -11    1    3    3    0    0 -0.18267616386E+02  0.18359365631E+01  0.45014894793E+01  0.18903435648E+02  0.51100000000E-03 0.  1.
        -12    1    3    3    0    0 -0.62799179689E+01 -0.64707184676E+01 -0.10250151350E+02  0.13651855914E+02  0.00000000000E+00 0.  1.
</event>
<event>
 7    1  0.1857734E-013  0.7246163E+02  0.7816164E-02  0.1226708E+00
        -11   -1    0    0    0    0  0.00000000000E+00  0.00000000000E+00  0.45593999997E+02  0.45594000000E+02  0.51100000000E-03 0.  1.
         11   -1    0    0    0    0 -0.00000000000E+00 -0.00000000000E+00 -0.45593999997E+02  0.45594000000E+02  0.51100000000E-03 0. -1.
    9900012    2    1    2    0    0 -0.23178399080E+01  0.51342293190E+01 -0.17859008152E+02  0.72461631834E+02  0.70000080166E+02 0.  0.
        -12    1    1    2    0    0  0.23178399080E+01 -0.51342293190E+01  0.17859008152E+02  0.18726368166E+02  0.00000000000E+00 0.  1.
         11    1    3    3    0    0  0.15885930818E+02  0.12291704536E+02 -0.10803679751E+02  0.22807198311E+02  0.51100000000E-03 0.  1.
        -11    1    3    3    0    0 -0.21611761486E+02 -0.88396719086E+01  0.14685504769E+02  0.27583909885E+02  0.51100000000E-03 0. -1.
         12    1    3    3    0    0  0.34079907597E+01  0.16821966915E+01 -0.21740833169E+02  0.22070523637E+02  0.00000000000E+00 0. -1.
</event>
<event>
 7    1  0.1857734E-013  0.7246214E+02  0.7816164E-02  0.1226706E+00
        -11   -1    0    0    0    0  0.00000000000E+00  0.00000000000E+00  0.45593999997E+02  0.45594000000E+02  0.51100000000E-03 0.  1.
         11   -1    0    0    0    0 -0.00000000000E+00 -0.00000000000E+00 -0.45593999997E+02  0.45594000000E+02  0.51100000000E-03 0. -1.
    9900012    2    1    2    0    0 -0.16371130764E+02  0.32230142875E+01 -0.85003576744E+01  0.72462140229E+02  0.70000742441E+02 0.  0.
        -12    1    1    2    0    0  0.16371130764E+02 -0.32230142875E+01  0.85003576744E+01  0.18725859771E+02  0.00000000000E+00 0.  1.
         11    1    3    3    0    0 -0.35367413678E+02  0.15731538556E+02 -0.14763442543E+02  0.41428184749E+02  0.51100000000E-03 0. -1.
        -11    1    3    3    0    0  0.24829985766E+01 -0.13209327755E+02  0.24078340196E+00  0.13442827031E+02  0.51100000000E-03 0.  1.
         12    1    3    3    0    0  0.16513284338E+02  0.70080348645E+00  0.60223014670E+01  0.17591128449E+02  0.00000000000E+00 0. -1.
</event>
<event>
 7    1  0.1857734E-013  0.7246152E+02  0.7816164E-02  0.1226708E+00
        -11   -1    0    0    0    0  0.00000000000E+00  0.00000000000E+00  0.45593999997E+02  0.45594000000E+02  0.51100000000E-03 0.  1.
         11   -1    0    0    0    0 -0.00000000000E+00 -0.00000000000E+00 -0.45593999997E+02  0.45594000000E+02  0.51100000000E-03 0. -1.
    9900012    2    1    2    0    0  0.22169272701E+01 -0.12331484943E+02 -0.13917638232E+02  0.72461522986E+02  0.69999938372E+02 0.  0.
        -12    1    1    2    0    0 -0.22169272701E+01  0.12331484943E+02  0.13917638232E+02  0.18726477014E+02  0.00000000000E+00 0.  1.
         11    1    3    3    0    0 -0.74388803334E+01  0.14599302659E+02  0.15617271292E+01  0.16459513074E+02  0.51100000000E-03 0. -1.
        -11    1    3    3    0    0  0.17327248703E+02 -0.33849015083E+02 -0.77793478119E+00  0.38034123528E+02  0.51100000000E-03 0.  1.
         12    1    3    3    0    0 -0.76714410996E+01  0.69182274819E+01 -0.14701430580E+02  0.17967886384E+02  0.00000000000E+00 0. -1.
</event>
<event>
 7    1  0.1857734E-013  0.7246157E+02  0.7816164E-02  0.1226708E+00
        -11   -1    0    0    0    0  0.00000000000E+00  0.00000000000E+00  0.45593999997E+02  0.45594000000E+02  0.51100000000E-03 0. -1.
         11   -1    0    0    0    0 -0.00000000000E+00 -0.00000000000E+00 -0.45593999997E+02  0.45594000000E+02  0.51100000000E-03 0.  1.
    9900012    2    1    2    0    0  0.10326827542E+02 -0.85219554753E+01  0.13092446617E+02  0.72461568129E+02  0.69999997179E+02 0.  0.
        -12    1    1    2    0    0 -0.10326827542E+02  0.85219554753E+01 -0.13092446617E+02  0.18726431871E+02  0.00000000000E+00 0.  1.
         11    1    3    3    0    0  0.30073419024E+02  0.90517078534E+00  0.89602772156E+01  0.31392936053E+02  0.51100000000E-03 0. -1.
        -11    1    3    3    0    0 -0.28280452427E+01 -0.59553753486E+01 -0.14338274106E+02  0.15781332011E+02  0.51100000000E-03 0.  1.
         12    1    3    3    0    0 -0.16918546240E+02 -0.34717509120E+01  0.18470443507E+02  0.25287300066E+02  0.00000000000E+00 0. -1.
</event>
<event>
 7    1  0.1857734E-013  0.7246158E+02  0.7816164E-02  0.1226708E+00
        -11   -1    0    0    0    0  0.00000000000E+00  0.00000000000E+00  0.45593999997E+02  0.45594000000E+02  0.51100000000E-03 0.  1.
         11   -1    0    0    0    0 -0.00000000000E+00 -0.00000000000E+00 -0.45593999997E+02  0.45594000000E+02  0.51100000000E-03 0. -1.
    9900012    2    1    2    0    0 -0.28877633616E+01 -0.80581017601E+00 -0.18484866858E+02  0.72461579893E+02  0.70000012504E+02 0.  0.
        -12    1    1    2    0    0  0.28877633616E+01  0.80581017601E+00  0.18484866858E+02  0.18726420107E+02  0.00000000000E+00 0.  1.
         11    1    3    3    0    0  0.62031375517E+01  0.11213135317E+02 -0.42209868220E+02  0.44112201198E+02  0.51100000000E-03 0. -1.
        -11    1    3    3    0    0 -0.39241853756E+01 -0.56031309383E+01  0.14162376967E+02  0.15727912411E+02  0.51100000000E-03 0.  1.
         12    1    3    3    0    0 -0.51667155377E+01 -0.64158145549E+01  0.95626243953E+01  0.12621466285E+02  0.00000000000E+00 0. -1.
</event>
<event>
 7    1  0.1857734E-013  0.7246158E+02  0.7816164E-02  0.1226708E+00
        -11   -1    0    0    0    0  0.00000000000E+00  0.00000000000E+00  0.45593999997E+02  0.45594000000E+02  0.51100000000E-03 0.  1.
         11   -1    0    0    0    0 -0.00000000000E+00 -0.00000000000E+00 -0.45593999997E+02  0.45594000000E+02  0.51100000000E-03 0. -1.
    9900012    2    1    2    0    0  0.85643046030E+01  0.16603848659E+02  0.12821089559E+01  0.72461577303E+02  0.70000009131E+02 0.  0.
        -12    1    1    2    0    0 -0.85643046030E+01 -0.16603848659E+02 -0.12821089559E+01  0.18726422697E+02  0.00000000000E+00 0.  1.
         11    1    3    3    0    0 -0.75780888863E+01  0.26448044810E+02  0.16040298724E+02  0.31846784592E+02  0.51100000000E-03 0. -1.
        -11    1    3    3    0    0  0.22440583295E+02 -0.12107855632E+02 -0.12378258200E+01  0.25528653698E+02  0.51100000000E-03 0.  1.
         12    1    3    3    0    0 -0.62981898054E+01  0.22636594814E+01 -0.13520363948E+02  0.15086139014E+02  0.00000000000E+00 0. -1.
</event>
<event>
 7    1  0.1857734E-013  0.7246164E+02  0.7816164E-02  0.1226708E+00
        -11   -1    0    0    0    0  0.00000000000E+00  0.00000000000E+00  0.45593999997E+02  0.45594000000E+02  0.51100000000E-03 0. -1.
         11   -1    0    0    0    0 -0.00000000000E+00 -0.00000000000E+00 -0.45593999997E+02  0.45594000000E+02  0.51100000000E-03 0.  1.
    9900012    2    1    2    0    0  0.41046144823E+01 -0.21824193180E+01  0.18140173635E+02  0.72461635867E+02  0.70000085421E+02 0.  0.
        -12    1    1    2    0    0 -0.41046144823E+01  0.21824193180E+01 -0.18140173635E+02  0.18726364133E+02  0.00000000000E+00 0.  1.
         11    1    3    3    0    0 -0.15722889886E+02 -0.14787457693E+02 -0.11779583288E+02  0.24589362620E+02  0.51100000000E-03 0.  1.
        -11    1    3    3    0    0  0.10404982061E+02 -0.75787614092E+01  0.19291112053E+02  0.23191556237E+02  0.51100000000E-03 0. -1.
        -12    1    3    3    0    0  0.94225223068E+01  0.20183799784E+02  0.10628644870E+02  0.24680717010E+02  0.00000000000E+00 0.  1.
</event>
<event>
 7    1  0.1857734E-013  0.7246178E+02  0.7816164E-02  0.1226707E+00
        -11   -1    0    0    0    0  0.00000000000E+00  0.00000000000E+00  0.45593999997E+02  0.45594000000E+02  0.51100000000E-03 0. -1.
         11   -1    0    0    0    0 -0.00000000000E+00 -0.00000000000E+00 -0.45593999997E+02  0.45594000000E+02  0.51100000000E-03 0.  1.
    9900012    2    1    2    0    0 -0.91564366554E+01  0.12682345946E+02 -0.10295107907E+02  0.72461775668E+02  0.70000267536E+02 0.  0.
        -12    1    1    2    0    0  0.91564366554E+01 -0.12682345946E+02  0.10295107907E+02  0.18726224332E+02  0.00000000000E+00 0.  1.
         11    1    3    3    0    0 -0.32712709820E+02  0.49765244651E+01 -0.95628642140E+01  0.34443222146E+02  0.51100000000E-03 0.  1.
        -11    1    3    3    0    0  0.22626530024E+02 -0.43109568798E+01  0.65372894760E+01  0.23943273881E+02  0.51100000000E-03 0. -1.
        -12    1    3    3    0    0  0.92974314058E+00  0.12016778361E+02 -0.72695331693E+01  0.14075279641E+02  0.00000000000E+00 0.  1.
</event>
<event>
 7    1  0.1857734E-013  0.7246155E+02  0.7816164E-02  0.1226708E+00
        -11   -1    0    0    0    0  0.00000000000E+00  0.00000000000E+00  0.45593999997E+02  0.45594000000E+02  0.51100000000E-03 0.  1.
         11   -1    0    0    0    0 -0.00000000000E+00 -0.00000000000E+00 -0.45593999997E+02  0.45594000000E+02  0.51100000000E-03 0. -1.
    9900012    2    1    2    0    0  0.16700765801E+02  0.74005540913E+01 -0.41226545478E+01  0.72461546526E+02  0.69999969038E+02 0.  0.
        -12    1    1    2    0    0 -0.16700765801E+02 -0.74005540913E+01  0.41226545478E+01  0.18726453474E+02  0.00000000000E+00 0.  1.
         11    1    3    3    0    0  0.69849397168E+01  0.14368306416E+02 -0.10421533672E+02  0.19074747087E+02  0.51100000000E-03 0. -1.
        -11    1    3    3    0    0  0.53907958826E+01 -0.34947058414E+01  0.29161563117E+02  0.29860850840E+02  0.51100000000E-03 0.  1.
        -12    1    3    3    0    0  0.43250302012E+01 -0.34730464829E+01 -0.22862683994E+02  0.23525948599E+02  0.00000000000E+00 0.  1.
</event>
<event>
 7    1  0.1857734E-013  0.7246158E+02  0.7816164E-02  0.1226708E+00
        -11   -1    0    0    0    0  0.00000000000E+00  0.00000000000E+00  0.45593999997E+02  0.45594000000E+02  0.51100000000E-03 0.  1.
         11   -1    0    0    0    0 -0.00000000000E+00 -0.00000000000E+00 -0.45593999997E+02  0.45594000000E+02  0.51100000000E-03 0. -1.
    9900012    2    1    2    0    0  0.10182187544E+02 -0.15631538566E+02  0.16299400806E+01  0.72461584278E+02  0.70000018217E+02 0.  0.
        -12    1    1    2    0    0 -0.10182187544E+02  0.15631538566E+02 -0.16299400806E+01  0.18726415722E+02  0.00000000000E+00 0.  1.
         11    1    3    3    0    0  0.11117654019E+02  0.97011954908E+00 -0.17098464815E+02  0.20418150311E+02  0.51100000000E-03 0. -1.
        -11    1    3    3    0    0  0.18692386506E+02 -0.21048219048E+02  0.13661931885E+02  0.31290273592E+02  0.51100000000E-03 0.  1.
        -12    1    3    3    0    0 -0.19627852982E+02  0.44465609326E+01  0.50664730107E+01  0.20753160375E+02  0.00000000000E+00 0.  1.
</event>
<event>
 7    1  0.1857734E-013  0.7246162E+02  0.7816164E-02  0.1226708E+00
        -11   -1    0    0    0    0  0.00000000000E+00  0.00000000000E+00  0.45593999997E+02  0.45594000000E+02  0.51100000000E-03 0.  1.
         11   -1    0    0    0    0 -0.00000000000E+00 -0.00000000000E+00 -0.45593999997E+02  0.45594000000E+02  0.51100000000E-03 0. -1.
    9900012    2    1    2    0    0  0.13865893048E+02  0.11347836116E+02  0.54443373970E+01  0.72461623302E+02  0.70000069053E+02 0.  0.
        -12    1    1    2    0    0 -0.13865893048E+02 -0.11347836116E+02 -0.54443373970E+01  0.18726376698E+02  0.00000000000E+00 0.  1.
         11    1    3    3    0    0 -0.44606009609E+01 -0.12353594508E+02 -0.64248867936E+01  0.14621471498E+02  0.51100000000E-03 0. -1.
        -11    1    3    3    0    0  0.16789835957E+02  0.93023572186E+00  0.26024039392E+02  0.30984101673E+02  0.51100000000E-03 0.  1.
        -12    1    3    3    0    0  0.15366580517E+01  0.22771194902E+02 -0.14154815201E+02  0.26856050131E+02  0.00000000000E+00 0.  1.
</event>
<event>
 7    1  0.1857734E-013  0.7246157E+02  0.7816164E-02  0.1226708E+00
        -11   -1    0    0    0    0  0.00000000000E+00  0.00000000000E+00  0.45593999997E+02  0.45594000000E+02  0.51100000000E-03 0. -1.
         11   -1    0    0    0    0 -0.00000000000E+00 -0.00000000000E+00 -0.45593999997E+02  0.45594000000E+02  0.51100000000E-03 0.  1.
    9900012    2    1    2    0    0 -0.98556044105E+01  0.63925606237E+01 -0.14583606867E+02  0.72461565238E+02  0.69999993414E+02 0.  0.
        -12    1    1    2    0    0  0.98556044105E+01 -0.63925606237E+01  0.14583606867E+02  0.18726434762E+02  0.00000000000E+00 0.  1.
         11    1    3    3    0    0  0.74061540831E+01 -0.17318150176E+02 -0.15072729534E+02  0.24123777061E+02  0.51100000000E-03 0. -1.
        -11    1    3    3    0    0 -0.26010350044E+02  0.87459947726E+01  0.91938006087E+01  0.28940571934E+02  0.51100000000E-03 0.  1.
         12    1    3    3    0    0  0.87485915507E+01  0.14964716027E+02 -0.87046779420E+01  0.19397216243E+02  0.00000000000E+00 0. -1.
</event>
<event>
 7    1  0.1857734E-013  0.7246154E+02  0.7816164E-02  0.1226708E+00
        -11   -1    0    0    0    0  0.00000000000E+00  0.00000000000E+00  0.45593999997E+02  0.45594000000E+02  0.51100000000E-03 0.  1.
         11   -1    0    0    0    0 -0.00000000000E+00 -0.00000000000E+00 -0.45593999997E+02  0.45594000000E+02  0.51100000000E-03 0. -1.
    9900012    2    1    2    0    0  0.73151290195E+01  0.31772689684E+01  0.16943266246E+02  0.72461536859E+02  0.69999956444E+02 0.  0.
        -12    1    1    2    0    0 -0.73151290195E+01 -0.31772689684E+01 -0.16943266246E+02  0.18726463141E+02  0.00000000000E+00 0.  1.
         11    1    3    3    0    0  0.25162217247E+02  0.18013166828E+02 -0.52042569334E+01  0.31379860523E+02  0.51100000000E-03 0. -1.
        -11    1    3    3    0    0 -0.15060349553E+02 -0.10454997553E+02 -0.84180014869E-04  0.18333605831E+02  0.51100000000E-03 0.  1.
        -12    1    3    3    0    0 -0.27867386739E+01 -0.43809003069E+01  0.22147607360E+02  0.22748070505E+02  0.00000000000E+00 0.  1.
</event>
<event>
 7    1  0.1857734E-013  0.7246157E+02  0.7816164E-02  0.1226708E+00
        -11   -1    0    0    0    0  0.00000000000E+00  0.00000000000E+00  0.45593999997E+02  0.45594000000E+02  0.51100000000E-03 0.  1.
         11   -1    0    0    0    0 -0.00000000000E+00 -0.00000000000E+00 -0.45593999997E+02  0.45594000000E+02  0.51100000000E-03 0. -1.
    9900012    2    1    2    0    0  0.61185348802E+01 -0.15601706113E+02 -0.83563945044E+01  0.72461573971E+02  0.70000004789E+02 0.  0.
        -12    1    1    2    0    0 -0.61185348802E+01  0.15601706113E+02  0.83563945044E+01  0.18726426029E+02  0.00000000000E+00 0.  1.
         11    1    3    3    0    0  0.14458056616E+02  0.45999775549E+01 -0.31897848066E+02  0.35322342874E+02  0.51100000000E-03 0. -1.
        -11    1    3    3    0    0  0.37348641323E+01  0.93253256534E+00  0.60311039299E+01  0.71549313027E+01  0.51100000000E-03 0.  1.
         12    1    3    3    0    0 -0.12074385868E+02 -0.21134216233E+02  0.17510349632E+02  0.29984299794E+02  0.00000000000E+00 0. -1.
</event>
<event>
 7    1  0.1857734E-013  0.7246156E+02  0.7816164E-02  0.1226708E+00
        -11   -1    0    0    0    0  0.00000000000E+00  0.00000000000E+00  0.45593999997E+02  0.45594000000E+02  0.51100000000E-03 0. -1.
         11   -1    0    0    0    0 -0.00000000000E+00 -0.00000000000E+00 -0.45593999997E+02  0.45594000000E+02  0.51100000000E-03 0.  1.
    9900012    2    1    2    0    0  0.19036965572E+01 -0.17319332211E+02  0.68626793875E+01  0.72461556206E+02  0.69999981647E+02 0.  0.
        -12    1    1    2    0    0 -0.19036965572E+01  0.17319332211E+02 -0.68626793875E+01  0.18726443794E+02  0.00000000000E+00 0.  1.
         11    1    3    3    0    0  0.10128439412E+02  0.12415282357E+02  0.94012727112E+00  0.16050182569E+02  0.51100000000E-03 0. -1.
        -11    1    3    3    0    0 -0.99353767231E+01 -0.43884305538E+01  0.23249281416E+02  0.25661237694E+02  0.51100000000E-03 0.  1.
        -12    1    3    3    0    0  0.17106338680E+01 -0.25346184014E+02 -0.17326729299E+02  0.30750135943E+02  0.00000000000E+00 0.  1.
</event>
<event>
 7    1  0.1857734E-013  0.7246156E+02  0.7816164E-02  0.1226708E+00
        -11   -1    0    0    0    0  0.00000000000E+00  0.00000000000E+00  0.45593999997E+02  0.45594000000E+02  0.51100000000E-03 0.  1.
         11   -1    0    0    0    0 -0.00000000000E+00 -0.00000000000E+00 -0.45593999997E+02  0.45594000000E+02  0.51100000000E-03 0. -1.
    9900012    2    1    2    0    0 -0.15933460284E+02  0.92053108290E+01 -0.34737022466E+01  0.72461561167E+02  0.69999988110E+02 0.  0.
        -12    1    1    2    0    0  0.15933460284E+02 -0.92053108290E+01  0.34737022466E+01  0.18726438833E+02  0.00000000000E+00 0.  1.
         11    1    3    3    0    0 -0.15851321700E+01 -0.48775867821E+01  0.24134805676E+02  0.24673717638E+02  0.51100000000E-03 0. -1.
        -11    1    3    3    0    0 -0.10903553585E+02  0.22811703165E+02 -0.88051457212E+01  0.26772969083E+02  0.51100000000E-03 0.  1.
         12    1    3    3    0    0 -0.34447745285E+01 -0.87288055534E+01 -0.18803362201E+02  0.21014874446E+02  0.00000000000E+00 0. -1.
</event>
<event>
 7    1  0.1857734E-013  0.7246154E+02  0.7816164E-02  0.1226708E+00
        -11   -1    0    0    0    0  0.00000000000E+00  0.00000000000E+00  0.45593999997E+02  0.45594000000E+02  0.51100000000E-03 0. -1.
         11   -1    0    0    0    0 -0.00000000000E+00 -0.00000000000E+00 -0.45593999997E+02  0.45594000000E+02  0.51100000000E-03 0.  1.
    9900012    2    1    2    0    0  0.82907312593E+01  0.11956900497E+02  0.11788835122E+02  0.72461539367E+02  0.69999959711E+02 0.  0.
        -12    1    1    2    0    0 -0.82907312593E+01 -0.11956900497E+02 -0.11788835122E+02  0.18726460633E+02  0.00000000000E+00 0.  1.
         11    1    3    3    0    0 -0.15023295720E+02  0.24031706559E+02 -0.14183140011E+02  0.31692014692E+02  0.51100000000E-03 0. -1.
        -11    1    3    3    0    0  0.88622391478E+01  0.25152144850E+01  0.24259656591E+01  0.95263264829E+01  0.51100000000E-03 0.  1.
         12    1    3    3    0    0  0.14451787832E+02 -0.14590020547E+02  0.23546009474E+02  0.31243198191E+02  0.00000000000E+00 0. -1.
</event>
<event>
 7    1  0.1857734E-013  0.7246170E+02  0.7816164E-02  0.1226708E+00
        -11   -1    0    0    0    0  0.00000000000E+00  0.00000000000E+00  0.45593999997E+02  0.45594000000E+02  0.51100000000E-03 0.  1.
         11   -1    0    0    0    0 -0.00000000000E+00 -0.00000000000E+00 -0.45593999997E+02  0.45594000000E+02  0.51100000000E-03 0. -1.
    9900012    2    1    2    0    0 -0.32698742190E+01  0.18314407301E+02 -0.21364888467E+01  0.72461703602E+02  0.70000173657E+02 0.  0.
        -12    1    1    2    0    0  0.32698742190E+01 -0.18314407301E+02  0.21364888467E+01  0.18726296398E+02  0.00000000000E+00 0.  1.
         11    1    3    3    0    0  0.20205515987E+02  0.16739385327E+01  0.13126093998E+02  0.24152831933E+02  0.51100000000E-03 0. -1.
        -11    1    3    3    0    0 -0.29252524256E+02  0.18650238531E+01 -0.59397749309E+01  0.29907681552E+02  0.51100000000E-03 0.  1.
         12    1    3    3    0    0  0.57771340508E+01  0.14775444915E+02 -0.93228079139E+01  0.18401190116E+02  0.00000000000E+00 0. -1.
</event>
<event>
 7    1  0.1857734E-013  0.7246157E+02  0.7816164E-02  0.1226708E+00
        -11   -1    0    0    0    0  0.00000000000E+00  0.00000000000E+00  0.45593999997E+02  0.45594000000E+02  0.51100000000E-03 0.  1.
         11   -1    0    0    0    0 -0.00000000000E+00 -0.00000000000E+00 -0.45593999997E+02  0.45594000000E+02  0.51100000000E-03 0. -1.
    9900012    2    1    2    0    0 -0.24648694287E+01 -0.96152250991E+01 -0.15879268546E+02  0.72461566688E+02  0.69999995303E+02 0.  0.
        -12    1    1    2    0    0  0.24648694287E+01  0.96152250991E+01  0.15879268546E+02  0.18726433312E+02  0.00000000000E+00 0.  1.
         11    1    3    3    0    0 -0.20797458363E+02  0.21834699142E+00 -0.20215315651E+02  0.29004153787E+02  0.51100000000E-03 0. -1.
        -11    1    3    3    0    0  0.11678516381E+02 -0.24272778717E+02  0.55875697198E+01  0.27509570464E+02  0.51100000000E-03 0.  1.
        -12    1    3    3    0    0  0.66540725534E+01  0.14439206626E+02 -0.12515226149E+01  0.15947842437E+02  0.00000000000E+00 0.  1.
</event>
<event>
 7    1  0.1857734E-013  0.7246157E+02  0.7816164E-02  0.1226708E+00
        -11   -1    0    0    0    0  0.00000000000E+00  0.00000000000E+00  0.45593999997E+02  0.45594000000E+02  0.51100000000E-03 0.  1.
         11   -1    0    0    0    0 -0.00000000000E+00 -0.00000000000E+00 -0.45593999997E+02  0.45594000000E+02  0.51100000000E-03 0. -1.
    9900012    2    1    2    0    0  0.93685696166E+01 -0.14126930109E+02 -0.79585766782E+01  0.72461569648E+02  0.69999999158E+02 0.  0.
        -12    1    1    2    0    0 -0.93685696166E+01  0.14126930109E+02  0.79585766782E+01  0.18726430352E+02  0.00000000000E+00 0.  1.
         11    1    3    3    0    0  0.59797674492E+01  0.19213152140E+02 -0.16281102917E+02  0.25883916751E+02  0.51100000000E-03 0. -1.
        -11    1    3    3    0    0  0.27618413611E+01 -0.21546506099E+02 -0.10678312500E+02  0.24205496295E+02  0.51100000000E-03 0.  1.
         12    1    3    3    0    0  0.62696080626E+00 -0.11793576151E+02  0.19000838739E+02  0.22372156603E+02  0.00000000000E+00 0. -1.
</event>
<event>
 7    1  0.1857734E-013  0.7246156E+02  0.7816164E-02  0.1226708E+00
        -11   -1    0    0    0    0  0.00000000000E+00  0.00000000000E+00  0.45593999997E+02  0.45594000000E+02  0.51100000000E-03 0. -1.
         11   -1    0    0    0    0 -0.00000000000E+00 -0.00000000000E+00 -0.45593999997E+02  0.45594000000E+02  0.51100000000E-03 0.  1.
    9900012    2    1    2    0    0  0.17172883577E+02 -0.65682868473E+01  0.35537841359E+01  0.72461556020E+02  0.69999981405E+02 0.  0.
        -12    1    1    2    0    0 -0.17172883577E+02  0.65682868473E+01 -0.35537841359E+01  0.18726443980E+02  0.00000000000E+00 0.  1.
         11    1    3    3    0    0  0.91354985838E+01 -0.27515577132E+02  0.26148703554E+02  0.39042528314E+02  0.51100000000E-03 0. -1.
        -11    1    3    3    0    0  0.17794726471E+01  0.11085920547E+02 -0.49771729314E+01  0.12281547456E+02  0.51100000000E-03 0.  1.
         12    1    3    3    0    0  0.62579123462E+01  0.98613697383E+01 -0.17617746487E+02  0.21137480250E+02  0.00000000000E+00 0. -1.
</event>
<event>
 7    1  0.1857734E-013  0.7246165E+02  0.7816164E-02  0.1226708E+00
        -11   -1    0    0    0    0  0.00000000000E+00  0.00000000000E+00  0.45593999997E+02  0.45594000000E+02  0.51100000000E-03 0.  1.
         11   -1    0    0    0    0 -0.00000000000E+00 -0.00000000000E+00 -0.45593999997E+02  0.45594000000E+02  0.51100000000E-03 0. -1.
    9900012    2    1    2    0    0 -0.14162940057E+02 -0.15104835333E+01 -0.12157533591E+02  0.72461653465E+02  0.70000108345E+02 0.  0.
        -12    1    1    2    0    0  0.14162940057E+02  0.15104835333E+01  0.12157533591E+02  0.18726346535E+02  0.00000000000E+00 0.  1.
         11    1    3    3    0    0 -0.14047882331E+02  0.35860043221E+01 -0.37271044607E+02  0.39991664023E+02  0.51100000000E-03 0. -1.
        -11    1    3    3    0    0  0.12686449970E+01 -0.12145357403E+02  0.10178322290E+02  0.15897088144E+02  0.51100000000E-03 0.  1.
         12    1    3    3    0    0 -0.13837027222E+01  0.70488695475E+01  0.14935188726E+02  0.16572901298E+02  0.00000000000E+00 0. -1.
</event>
<event>
 7    1  0.1857734E-013  0.7246156E+02  0.7816164E-02  0.1226708E+00
        -11   -1    0    0    0    0  0.00000000000E+00  0.00000000000E+00  0.45593999997E+02  0.45594000000E+02  0.51100000000E-03 0. -1.
         11   -1    0    0    0    0 -0.00000000000E+00 -0.00000000000E+00 -0.45593999997E+02  0.45594000000E+02  0.51100000000E-03 0.  1.
    9900012    2    1    2    0    0 -0.18100411829E+02 -0.37442143711E+01 -0.30059288464E+01  0.72461557256E+02  0.69999983015E+02 0.  0.
        -12    1    1    2    0    0  0.18100411829E+02  0.37442143711E+01  0.30059288464E+01  0.18726442744E+02  0.00000000000E+00 0.  1.
         11    1    3    3    0    0  0.45556747556E+01 -0.28692391056E+01  0.12856053029E+02  0.13937890990E+02  0.51100000000E-03 0. -1.
        -11    1    3    3    0    0 -0.82291890832E+01  0.22158523915E+02 -0.20085928265E+02  0.31018772535E+02  0.51100000000E-03 0.  1.
        -12    1    3    3    0    0 -0.14426897501E+02 -0.23033499181E+02  0.42239463898E+01  0.27504893730E+02  0.00000000000E+00 0.  1.
</event>
<event>
 7    1  0.1857734E-013  0.7246158E+02  0.7816164E-02  0.1226708E+00
        -11   -1    0    0    0    0  0.00000000000E+00  0.00000000000E+00  0.45593999997E+02  0.45594000000E+02  0.51100000000E-03 0.  1.
         11   -1    0    0    0    0 -0.00000000000E+00 -0.00000000000E+00 -0.45593999997E+02  0.45594000000E+02  0.51100000000E-03 0. -1.
    9900012    2    1    2    0    0 -0.16000511198E+02  0.89147879606E+01 -0.38972922881E+01  0.72461583093E+02  0.70000016673E+02 0.  0.
        -12    1    1    2    0    0  0.16000511198E+02 -0.89147879606E+01  0.38972922881E+01  0.18726416907E+02  0.00000000000E+00 0.  1.
         11    1    3    3    0    0  0.14423684118E+02 -0.76766402117E+01 -0.17240762091E+02  0.23753259697E+02  0.51100000000E-03 0. -1.
        -11    1    3    3    0    0 -0.32107861105E+02  0.20102564391E+02  0.34052845623E+01  0.38034508056E+02  0.51100000000E-03 0.  1.
        -12    1    3    3    0    0  0.16836657890E+01 -0.35111362189E+01  0.99381852408E+01  0.10673815340E+02  0.00000000000E+00 0.  1.
</event>
<event>
 7    1  0.1857734E-013  0.7246156E+02  0.7816164E-02  0.1226708E+00
        -11   -1    0    0    0    0  0.00000000000E+00  0.00000000000E+00  0.45593999997E+02  0.45594000000E+02  0.51100000000E-03 0.  1.
         11   -1    0    0    0    0 -0.00000000000E+00 -0.00000000000E+00 -0.45593999997E+02  0.45594000000E+02  0.51100000000E-03 0. -1.
    9900012    2    1    2    0    0 -0.14926658315E+02 -0.66424037333E+01 -0.91516647668E+01  0.72461558165E+02  0.69999984199E+02 0.  0.
        -12    1    1    2    0    0  0.14926658315E+02  0.66424037333E+01  0.91516647668E+01  0.18726441835E+02  0.00000000000E+00 0.  1.
         11    1    3    3    0    0  0.25498824314E+01  0.23940808086E+02 -0.46192670958E+01  0.24515338484E+02  0.51100000000E-03 0.  1.
        -11    1    3    3    0    0 -0.23367818709E+02 -0.28273188874E+02  0.44602486842E+01  0.36950263583E+02  0.51100000000E-03 0. -1.
         12    1    3    3    0    0  0.58912779627E+01 -0.23100229449E+01 -0.89926463551E+01  0.10995956098E+02  0.00000000000E+00 0. -1.
</event>
<event>
 7    1  0.1857734E-013  0.7246156E+02  0.7816164E-02  0.1226708E+00
        -11   -1    0    0    0    0  0.00000000000E+00  0.00000000000E+00  0.45593999997E+02  0.45594000000E+02  0.51100000000E-03 0.  1.
         11   -1    0    0    0    0 -0.00000000000E+00 -0.00000000000E+00 -0.45593999997E+02  0.45594000000E+02  0.51100000000E-03 0. -1.
    9900012    2    1    2    0    0  0.10416351823E+02  0.99309948740E+01 -0.11981418186E+02  0.72461563440E+02  0.69999991071E+02 0.  0.
        -12    1    1    2    0    0 -0.10416351823E+02 -0.99309948740E+01  0.11981418186E+02  0.18726436560E+02  0.00000000000E+00 0.  1.
         11    1    3    3    0    0  0.11484637985E+02 -0.99576390555E+01 -0.32105359833E+02  0.35521903320E+02  0.51100000000E-03 0. -1.
        -11    1    3    3    0    0 -0.37415611792E+01 -0.39443844102E+01  0.89730429561E+01  0.10491565593E+02  0.51100000000E-03 0.  1.
         12    1    3    3    0    0  0.26732750173E+01  0.23833018340E+02  0.11150898691E+02  0.26448094527E+02  0.00000000000E+00 0. -1.
</event>
<event>
 7    1  0.1857734E-013  0.7246158E+02  0.7816164E-02  0.1226708E+00
        -11   -1    0    0    0    0  0.00000000000E+00  0.00000000000E+00  0.45593999997E+02  0.45594000000E+02  0.51100000000E-03 0. -1.
         11   -1    0    0    0    0 -0.00000000000E+00 -0.00000000000E+00 -0.45593999997E+02  0.45594000000E+02  0.51100000000E-03 0.  1.
    9900012    2    1    2    0    0 -0.13701081318E+02 -0.92649652024E-01 -0.12765216670E+02  0.72461575625E+02  0.70000006944E+02 0.  0.
        -12    1    1    2    0    0  0.13701081318E+02  0.92649652024E-01  0.12765216670E+02  0.18726424375E+02  0.00000000000E+00 0.  1.
         11    1    3    3    0    0 -0.67918628465E+01 -0.28452936551E+01  0.57785581438E+01  0.93603862843E+01  0.51100000000E-03 0. -1.
        -11    1    3    3    0    0  0.23025575898E+02  0.12722687389E+02 -0.17377677298E+02  0.31528203063E+02  0.51100000000E-03 0.  1.
        -12    1    3    3    0    0 -0.29934794369E+02 -0.99700433862E+01 -0.11660975162E+01  0.31572986278E+02  0.00000000000E+00 0.  1.
</event>
<event>
 7    1  0.1857734E-013  0.7246158E+02  0.7816164E-02  0.1226708E+00
        -11   -1    0    0    0    0  0.00000000000E+00  0.00000000000E+00  0.45593999997E+02  0.45594000000E+02  0.51100000000E-03 0.  1.
         11   -1    0    0    0    0 -0.00000000000E+00 -0.00000000000E+00 -0.45593999997E+02  0.45594000000E+02  0.51100000000E-03 0. -1.
    9900012    2    1    2    0    0  0.10990758800E+02  0.10433711730E+02 -0.11000895747E+02  0.72461579448E+02  0.70000011925E+02 0.  0.
        -12    1    1    2    0    0 -0.10990758800E+02 -0.10433711730E+02  0.11000895747E+02  0.18726420552E+02  0.00000000000E+00 0.  1.
         11    1    3    3    0    0  0.11228283926E+02  0.22287925525E+02 -0.22689166541E+02  0.33728686051E+02  0.51100000000E-03 0. -1.
        -11    1    3    3    0    0 -0.15912655040E+02 -0.13790337294E+02  0.79065764060E+01  0.22492219629E+02  0.51100000000E-03 0.  1.
        -12    1    3    3    0    0  0.15675129913E+02  0.19361234996E+01  0.37816943881E+01  0.16240673768E+02  0.00000000000E+00 0.  1.
</event>
<event>
 7    1  0.1857734E-013  0.7246163E+02  0.7816164E-02  0.1226708E+00
        -11   -1    0    0    0    0  0.00000000000E+00  0.00000000000E+00  0.45593999997E+02  0.45594000000E+02  0.51100000000E-03 0. -1.
         11   -1    0    0    0    0 -0.00000000000E+00 -0.00000000000E+00 -0.45593999997E+02  0.45594000000E+02  0.51100000000E-03 0.  1.
    9900012    2    1    2    0    0  0.38618157872E+01  0.36372317964E+01  0.17959226676E+02  0.72461630915E+02  0.70000078970E+02 0.  0.
        -12    1    1    2    0    0 -0.38618157872E+01 -0.36372317964E+01 -0.17959226676E+02  0.18726369085E+02  0.00000000000E+00 0.  1.
         11    1    3    3    0    0  0.35466983731E+02  0.33326129987E+01  0.82542324918E+01  0.36567001500E+02  0.51100000000E-03 0. -1.
        -11    1    3    3    0    0 -0.91767297502E+01 -0.33109954698E+01 -0.25478834617E+01  0.10082994114E+02  0.51100000000E-03 0.  1.
         12    1    3    3    0    0 -0.22428438194E+02  0.36156142675E+01  0.12252877645E+02  0.25811635302E+02  0.00000000000E+00 0. -1.
</event>
<event>
 7    1  0.1857734E-013  0.7246158E+02  0.7816164E-02  0.1226708E+00
        -11   -1    0    0    0    0  0.00000000000E+00  0.00000000000E+00  0.45593999997E+02  0.45594000000E+02  0.51100000000E-03 0.  1.
         11   -1    0    0    0    0 -0.00000000000E+00 -0.00000000000E+00 -0.45593999997E+02  0.45594000000E+02  0.51100000000E-03 0. -1.
    9900012    2    1    2    0    0 -0.84884517986E+00 -0.16482513488E+01 -0.18634416438E+02  0.72461581585E+02  0.70000014708E+02 0.  0.
        -12    1    1    2    0    0  0.84884517986E+00  0.16482513488E+01  0.18634416438E+02  0.18726418415E+02  0.00000000000E+00 0.  1.
         11    1    3    3    0    0 -0.15562721992E+02  0.31472592041E+01 -0.15593635351E+02  0.22254550546E+02  0.51100000000E-03 0. -1.
        -11    1    3    3    0    0  0.21561655260E+02 -0.17255345504E+02 -0.15178997623E+02  0.31512757656E+02  0.51100000000E-03 0.  1.
        -12    1    3    3    0    0 -0.68477784478E+01  0.12459834951E+02  0.12138216535E+02  0.18694273383E+02  0.00000000000E+00 0.  1.
</event>
<event>
 7    1  0.1857734E-013  0.7246155E+02  0.7816164E-02  0.1226708E+00
        -11   -1    0    0    0    0  0.00000000000E+00  0.00000000000E+00  0.45593999997E+02  0.45594000000E+02  0.51100000000E-03 0.  1.
         11   -1    0    0    0    0 -0.00000000000E+00 -0.00000000000E+00 -0.45593999997E+02  0.45594000000E+02  0.51100000000E-03 0. -1.
    9900012    2    1    2    0    0 -0.16095729866E+02  0.26856911245E+00  0.95674076139E+01  0.72461549782E+02  0.69999973279E+02 0.  0.
        -12    1    1    2    0    0  0.16095729866E+02 -0.26856911245E+00 -0.95674076139E+01  0.18726450218E+02  0.00000000000E+00 0.  1.
         11    1    3    3    0    0 -0.41287742917E+01  0.23955365473E+02  0.62731616052E+01  0.25104957058E+02  0.51100000000E-03 0.  1.
        -11    1    3    3    0    0 -0.83552716047E+01 -0.21762949691E+02 -0.15583300286E+02  0.28040609674E+02  0.51100000000E-03 0. -1.
        -12    1    3    3    0    0 -0.36116839700E+01 -0.19238466692E+01  0.18877546294E+02  0.19315983050E+02  0.00000000000E+00 0.  1.
</event>
<event>
 7    1  0.1857734E-013  0.7246156E+02  0.7816164E-02  0.1226708E+00
        -11   -1    0    0    0    0  0.00000000000E+00  0.00000000000E+00  0.45593999997E+02  0.45594000000E+02  0.51100000000E-03 0. -1.
         11   -1    0    0    0    0 -0.00000000000E+00 -0.00000000000E+00 -0.45593999997E+02  0.45594000000E+02  0.51100000000E-03 0.  1.
    9900012    2    1    2    0    0  0.11301548780E+02  0.14827593295E+02  0.17598327202E+01  0.72461560430E+02  0.69999987150E+02 0.  0.
        -12    1    1    2    0    0 -0.11301548780E+02 -0.14827593295E+02 -0.17598327202E+01  0.18726439570E+02  0.00000000000E+00 0.  1.
         11    1    3    3    0    0  0.22937521823E+02  0.95978848511E+01  0.86110778390E+01  0.26313493930E+02  0.51100000000E-03 0. -1.
        -11    1    3    3    0    0 -0.63869874994E+01 -0.70240441347E+01 -0.23191766916E+02  0.25059705869E+02  0.51100000000E-03 0.  1.
         12    1    3    3    0    0 -0.52489855437E+01  0.12253752579E+02  0.16340521797E+02  0.21088360631E+02  0.00000000000E+00 0. -1.
</event>
<event>
 7    1  0.1857734E-013  0.7246161E+02  0.7816164E-02  0.1226708E+00
        -11   -1    0    0    0    0  0.00000000000E+00  0.00000000000E+00  0.45593999997E+02  0.45594000000E+02  0.51100000000E-03 0.  1.
         11   -1    0    0    0    0 -0.00000000000E+00 -0.00000000000E+00 -0.45593999997E+02  0.45594000000E+02  0.51100000000E-03 0. -1.
    9900012    2    1    2    0    0  0.16563123258E+02  0.66947139819E+01 -0.56143933528E+01  0.72461610597E+02  0.70000052501E+02 0.  0.
        -12    1    1    2    0    0 -0.16563123258E+02 -0.66947139819E+01  0.56143933528E+01  0.18726389403E+02  0.00000000000E+00 0.  1.
         11    1    3    3    0    0 -0.30233532793E+01 -0.28573494426E+01 -0.49030231929E+01  0.64299881477E+01  0.51100000000E-03 0. -1.
        -11    1    3    3    0    0  0.40610537290E+02  0.51072727818E+01  0.98333569120E+01  0.42095069577E+02  0.51100000000E-03 0.  1.
        -12    1    3    3    0    0 -0.21024060752E+02  0.44447906426E+01 -0.10544727072E+02  0.23936552872E+02  0.00000000000E+00 0.  1.
</event>
<event>
 7    1  0.1857734E-013  0.7246153E+02  0.7816164E-02  0.1226708E+00
        -11   -1    0    0    0    0  0.00000000000E+00  0.00000000000E+00  0.45593999997E+02  0.45594000000E+02  0.51100000000E-03 0.  1.
         11   -1    0    0    0    0 -0.00000000000E+00 -0.00000000000E+00 -0.45593999997E+02  0.45594000000E+02  0.51100000000E-03 0. -1.
    9900012    2    1    2    0    0 -0.83200315357E+01  0.45965142411E+01 -0.16134742934E+02  0.72461526827E+02  0.69999943376E+02 0.  0.
        -12    1    1    2    0    0  0.83200315357E+01 -0.45965142411E+01  0.16134742934E+02  0.18726473173E+02  0.00000000000E+00 0.  1.
         11    1    3    3    0    0 -0.23384402228E+02  0.18092995229E+02 -0.25579436603E+02  0.39095962977E+02  0.51100000000E-03 0. -1.
        -11    1    3    3    0    0  0.12049732356E+02 -0.14637301642E+02 -0.41382109809E+01  0.19405448709E+02  0.51100000000E-03 0.  1.
        -12    1    3    3    0    0  0.30146383360E+01  0.11408206534E+01  0.13582904649E+02  0.13960115142E+02  0.00000000000E+00 0.  1.
</event>
<event>
 8    1  0.1857734E-013  0.7246154E+02  0.7816164E-02  0.1226708E+00
        -11   -1    0    0    0    0  0.00000000000E+00  0.00000000000E+00  0.45593999997E+02  0.45594000000E+02  0.51100000000E-03 0.  1.
         11   -1    0    0    0    0 -0.00000000000E+00 -0.00000000000E+00 -0.45593999997E+02  0.45594000000E+02  0.51100000000E-03 0. -1.
    9900012    2    1    2    0    0 -0.59039543422E+01 -0.96069207187E+00 -0.17745437841E+02  0.72461543573E+02  0.69999965191E+02 0.  0.
        -24    2    3    3    0    0 -0.83312497298E+01  0.16561204513E+02 -0.14474502796E+02  0.54472445787E+02  0.49133012343E+02 0.  0.
        -12    1    1    2    0    0  0.59039543422E+01  0.96069207187E+00  0.17745437841E+02  0.18726456427E+02  0.00000000000E+00 0.  1.
         11    1    4    4    0    0  0.13391663172E+02  0.23915666038E+02 -0.15549404971E+02  0.31513167403E+02  0.51100000000E-03 0. -1.
        -11    1    3    3    0    0  0.24272953876E+01 -0.17521896585E+02 -0.32709350449E+01  0.17989097786E+02  0.51100000000E-03 0.  1.
        -12    1    4    4    0    0 -0.21722912902E+02 -0.73544615250E+01  0.10749021748E+01  0.22959278385E+02  0.00000000000E+00 0.  1.
</event>
<event>
 7    1  0.1857734E-013  0.7246156E+02  0.7816164E-02  0.1226708E+00
        -11   -1    0    0    0    0  0.00000000000E+00  0.00000000000E+00  0.45593999997E+02  0.45594000000E+02  0.51100000000E-03 0.  1.
         11   -1    0    0    0    0 -0.00000000000E+00 -0.00000000000E+00 -0.45593999997E+02  0.45594000000E+02  0.51100000000E-03 0. -1.
    9900012    2    1    2    0    0  0.17730782749E+02  0.59265044839E+01  0.10841474605E+01  0.72461561791E+02  0.69999988922E+02 0.  0.
        -12    1    1    2    0    0 -0.17730782749E+02 -0.59265044839E+01 -0.10841474605E+01  0.18726438209E+02  0.00000000000E+00 0.  1.
         11    1    3    3    0    0 -0.26572243118E+01  0.44866067619E+01 -0.14499169010E+02  0.15408321892E+02  0.51100000000E-03 0. -1.
        -11    1    3    3    0    0 -0.97841435323E+01 -0.61757076981E+01  0.22386634244E+02  0.25199806017E+02  0.51100000000E-03 0.  1.
        -12    1    3    3    0    0  0.30172150593E+02  0.76156054201E+01 -0.68033177738E+01  0.31853433882E+02  0.00000000000E+00 0.  1.
</event>
<event>
 7    1  0.1857734E-013  0.7246156E+02  0.7816164E-02  0.1226708E+00
        -11   -1    0    0    0    0  0.00000000000E+00  0.00000000000E+00  0.45593999997E+02  0.45594000000E+02  0.51100000000E-03 0.  1.
         11   -1    0    0    0    0 -0.00000000000E+00 -0.00000000000E+00 -0.45593999997E+02  0.45594000000E+02  0.51100000000E-03 0. -1.
    9900012    2    1    2    0    0  0.22537847353E+01  0.18583502956E+02  0.50357572946E+00  0.72461555696E+02  0.69999980983E+02 0.  0.
        -12    1    1    2    0    0 -0.22537847353E+01 -0.18583502956E+02 -0.50357572946E+00  0.18726444304E+02  0.00000000000E+00 0.  1.
         11    1    3    3    0    0  0.17957472183E+01 -0.17022091818E+02  0.21880529229E+02  0.27780098588E+02  0.51100000000E-03 0.  1.
        -11    1    3    3    0    0 -0.60708632364E+01  0.24553679865E+02 -0.89904230348E+01  0.26843365697E+02  0.51100000000E-03 0. -1.
        -12    1    3    3    0    0  0.65289007534E+01  0.11051914909E+02 -0.12386530465E+02  0.17838091411E+02  0.00000000000E+00 0.  1.
</event>
<event>
 7    1  0.1857734E-013  0.7246229E+02  0.7816164E-02  0.1226706E+00
        -11   -1    0    0    0    0  0.00000000000E+00  0.00000000000E+00  0.45593999997E+02  0.45594000000E+02  0.51100000000E-03 0.  1.
         11   -1    0    0    0    0 -0.00000000000E+00 -0.00000000000E+00 -0.45593999997E+02  0.45594000000E+02  0.51100000000E-03 0. -1.
    9900012    2    1    2    0    0 -0.44548413070E+01 -0.18188060230E+02 -0.33804688923E-01  0.72462288030E+02  0.70000934978E+02 0.  0.
        -12    1    1    2    0    0  0.44548413070E+01  0.18188060230E+02  0.33804688923E-01  0.18725711970E+02  0.00000000000E+00 0.  1.
         11    1    3    3    0    0  0.14148326311E+02  0.26708442193E+01  0.24772880144E+02  0.28653169757E+02  0.51100000000E-03 0.  1.
        -11    1    3    3    0    0 -0.21189736243E+02 -0.19098604075E+02 -0.27542556541E+02  0.39652919449E+02  0.51100000000E-03 0. -1.
         12    1    3    3    0    0  0.25865686257E+01 -0.17603003745E+01  0.27358717087E+01  0.41561988247E+01  0.00000000000E+00 0. -1.
</event>
<event>
 7    1  0.1857734E-013  0.7246157E+02  0.7816164E-02  0.1226708E+00
        -11   -1    0    0    0    0  0.00000000000E+00  0.00000000000E+00  0.45593999997E+02  0.45594000000E+02  0.51100000000E-03 0.  1.
         11   -1    0    0    0    0 -0.00000000000E+00 -0.00000000000E+00 -0.45593999997E+02  0.45594000000E+02  0.51100000000E-03 0. -1.
    9900012    2    1    2    0    0 -0.83397830710E+01  0.11310277646E+02  0.12377600438E+02  0.72461565350E+02  0.69999993559E+02 0.  0.
        -12    1    1    2    0    0  0.83397830710E+01 -0.11310277646E+02 -0.12377600438E+02  0.18726434650E+02  0.00000000000E+00 0.  1.
         11    1    3    3    0    0 -0.51919190899E+01  0.28059131473E+02 -0.17778845918E+02  0.33620800783E+02  0.51100000000E-03 0. -1.
        -11    1    3    3    0    0  0.71669198945E+01 -0.92525774483E+01  0.13578833691E+02  0.17926507046E+02  0.51100000000E-03 0.  1.
         12    1    3    3    0    0 -0.10314783876E+02 -0.74962763784E+01  0.16577612665E+02  0.20914257520E+02  0.00000000000E+00 0. -1.
</event>
<event>
 7    1  0.1857734E-013  0.7246160E+02  0.7816164E-02  0.1226708E+00
        -11   -1    0    0    0    0  0.00000000000E+00  0.00000000000E+00  0.45593999997E+02  0.45594000000E+02  0.51100000000E-03 0. -1.
         11   -1    0    0    0    0 -0.00000000000E+00 -0.00000000000E+00 -0.45593999997E+02  0.45594000000E+02  0.51100000000E-03 0.  1.
    9900012    2    1    2    0    0 -0.78473374103E+01 -0.70275643592E+01  0.15482598802E+02  0.72461595355E+02  0.70000032646E+02 0.  0.
        -12    1    1    2    0    0  0.78473374103E+01  0.70275643592E+01 -0.15482598802E+02  0.18726404645E+02  0.00000000000E+00 0.  1.
         11    1    3    3    0    0  0.67043491834E+01 -0.74319817681E+01  0.46088441412E+01  0.11019260209E+02  0.51100000000E-03 0. -1.
        -11    1    3    3    0    0 -0.31080643716E+02  0.92942481657E+01  0.22395306516E+02  0.39420035730E+02  0.51100000000E-03 0.  1.
        -12    1    3    3    0    0  0.16528957122E+02 -0.88898307569E+01 -0.11521551855E+02  0.22022299416E+02  0.00000000000E+00 0.  1.
</event>
<event>
 7    1  0.1857734E-013  0.7246148E+02  0.7816164E-02  0.1226708E+00
        -11   -1    0    0    0    0  0.00000000000E+00  0.00000000000E+00  0.45593999997E+02  0.45594000000E+02  0.51100000000E-03 0. -1.
         11   -1    0    0    0    0 -0.00000000000E+00 -0.00000000000E+00 -0.45593999997E+02  0.45594000000E+02  0.51100000000E-03 0.  1.
    9900012    2    1    2    0    0  0.56719891059E+01  0.16335130631E+02  0.71885056652E+01  0.72461479585E+02  0.69999881834E+02 0.  0.
        -12    1    1    2    0    0 -0.56719891059E+01 -0.16335130631E+02 -0.71885056652E+01  0.18726520415E+02  0.00000000000E+00 0.  1.
         11    1    3    3    0    0  0.28695357782E+01 -0.89550270090E+01  0.18473520162E+02  0.20729150772E+02  0.51100000000E-03 0. -1.
        -11    1    3    3    0    0 -0.25482629771E+00  0.33814715359E+02  0.39123354542E+01  0.34041243811E+02  0.51100000000E-03 0.  1.
         12    1    3    3    0    0  0.30572796254E+01 -0.85245577190E+01 -0.15197349951E+02  0.17691085002E+02  0.00000000000E+00 0. -1.
</event>
<event>
 7    1  0.1857734E-013  0.7246165E+02  0.7816164E-02  0.1226708E+00
        -11   -1    0    0    0    0  0.00000000000E+00  0.00000000000E+00  0.45593999997E+02  0.45594000000E+02  0.51100000000E-03 0. -1.
         11   -1    0    0    0    0 -0.00000000000E+00 -0.00000000000E+00 -0.45593999997E+02  0.45594000000E+02  0.51100000000E-03 0.  1.
    9900012    2    1    2    0    0  0.12621115249E+02 -0.13828813927E+02 -0.38418346902E+00  0.72461648468E+02  0.70000101836E+02 0.  0.
        -12    1    1    2    0    0 -0.12621115249E+02  0.13828813927E+02  0.38418346902E+00  0.18726351532E+02  0.00000000000E+00 0.  1.
         11    1    3    3    0    0  0.14726818771E+02  0.56800906976E+01  0.53186395629E+01  0.16656246532E+02  0.51100000000E-03 0. -1.
        -11    1    3    3    0    0 -0.13369255119E+02 -0.10948899099E+02 -0.25906532958E+02  0.31141031198E+02  0.51100000000E-03 0.  1.
        -12    1    3    3    0    0  0.11263551597E+02 -0.85600055259E+01  0.20203709926E+02  0.24664370739E+02  0.00000000000E+00 0.  1.
</event>
<event>
 7    1  0.1857734E-013  0.7246174E+02  0.7816164E-02  0.1226708E+00
        -11   -1    0    0    0    0  0.00000000000E+00  0.00000000000E+00  0.45593999997E+02  0.45594000000E+02  0.51100000000E-03 0.  1.
         11   -1    0    0    0    0 -0.00000000000E+00 -0.00000000000E+00 -0.45593999997E+02  0.45594000000E+02  0.51100000000E-03 0. -1.
    9900012    2    1    2    0    0 -0.13898171363E+02  0.12440107275E+02 -0.16605334986E+01  0.72461740156E+02  0.70000221276E+02 0.  0.
        -12    1    1    2    0    0  0.13898171363E+02 -0.12440107275E+02  0.16605334986E+01  0.18726259844E+02  0.00000000000E+00 0.  1.
         11    1    3    3    0    0  0.18346660612E+02  0.38526671378E+01  0.12552591399E+02  0.22561262172E+02  0.51100000000E-03 0. -1.
        -11    1    3    3    0    0 -0.30705433651E+02  0.24442373914E+01  0.35837462899E+01  0.31010340048E+02  0.51100000000E-03 0.  1.
        -12    1    3    3    0    0 -0.15393983242E+01  0.61432027460E+01 -0.17796871187E+02  0.18890137936E+02  0.00000000000E+00 0.  1.
</event>
<event>
 7    1  0.1857734E-013  0.7246160E+02  0.7816164E-02  0.1226708E+00
        -11   -1    0    0    0    0  0.00000000000E+00  0.00000000000E+00  0.45593999997E+02  0.45594000000E+02  0.51100000000E-03 0.  1.
         11   -1    0    0    0    0 -0.00000000000E+00 -0.00000000000E+00 -0.45593999997E+02  0.45594000000E+02  0.51100000000E-03 0. -1.
    9900012    2    1    2    0    0 -0.49330238418E+01  0.14820218353E+02  0.10329788569E+02  0.72461598099E+02  0.70000036221E+02 0.  0.
        -12    1    1    2    0    0  0.49330238418E+01 -0.14820218353E+02 -0.10329788569E+02  0.18726401901E+02  0.00000000000E+00 0.  1.
         11    1    3    3    0    0  0.25207373283E+02  0.63702379911E+00  0.18286010080E+01  0.25281638575E+02  0.51100000000E-03 0. -1.
        -11    1    3    3    0    0 -0.12649579556E+02 -0.16500418198E+01  0.17733429719E+02  0.21845114575E+02  0.51100000000E-03 0.  1.
         12    1    3    3    0    0 -0.17490817569E+02  0.15833236374E+02 -0.92322421583E+01  0.25334844949E+02  0.00000000000E+00 0. -1.
</event>
<event>
 7    1  0.1857734E-013  0.7246152E+02  0.7816164E-02  0.1226708E+00
        -11   -1    0    0    0    0  0.00000000000E+00  0.00000000000E+00  0.45593999997E+02  0.45594000000E+02  0.51100000000E-03 0. -1.
         11   -1    0    0    0    0 -0.00000000000E+00 -0.00000000000E+00 -0.45593999997E+02  0.45594000000E+02  0.51100000000E-03 0.  1.
    9900012    2    1    2    0    0 -0.92019410482E+01 -0.10191218037E+02 -0.12733588752E+02  0.72461523379E+02  0.69999938884E+02 0.  0.
        -12    1    1    2    0    0  0.92019410482E+01  0.10191218037E+02  0.12733588752E+02  0.18726476621E+02  0.00000000000E+00 0.  1.
         11    1    3    3    0    0  0.90017721356E+01  0.11645863273E+02 -0.18124724512E+02  0.23348740262E+02  0.51100000000E-03 0. -1.
        -11    1    3    3    0    0 -0.19180864105E+02 -0.26416324173E+02 -0.90949742830E+01  0.33888733941E+02  0.51100000000E-03 0.  1.
         12    1    3    3    0    0  0.97715092169E+00  0.45792428634E+01  0.14486110043E+02  0.15224049176E+02  0.00000000000E+00 0. -1.
</event>
<event>
 7    1  0.1857734E-013  0.7246158E+02  0.7816164E-02  0.1226708E+00
        -11   -1    0    0    0    0  0.00000000000E+00  0.00000000000E+00  0.45593999997E+02  0.45594000000E+02  0.51100000000E-03 0.  1.
         11   -1    0    0    0    0 -0.00000000000E+00 -0.00000000000E+00 -0.45593999997E+02  0.45594000000E+02  0.51100000000E-03 0. -1.
    9900012    2    1    2    0    0 -0.16797247520E+02 -0.80702361323E+01  0.18446414308E+01  0.72461576490E+02  0.70000008071E+02 0.  0.
        -12    1    1    2    0    0  0.16797247520E+02  0.80702361323E+01 -0.18446414308E+01  0.18726423510E+02  0.00000000000E+00 0.  1.
         11    1    3    3    0    0 -0.57968493765E-01  0.29324326864E+01 -0.43556621517E+01  0.52511251030E+01  0.51100000000E-03 0. -1.
        -11    1    3    3    0    0 -0.39688612221E+02 -0.11735244209E+02 -0.49554505334E+01  0.41682830841E+02  0.51100000000E-03 0.  1.
        -12    1    3    3    0    0  0.22949333196E+02  0.73257539040E+00  0.11155754116E+02  0.25527620546E+02  0.00000000000E+00 0.  1.
</event>
<event>
 7    1  0.1857734E-013  0.7246155E+02  0.7816164E-02  0.1226708E+00
        -11   -1    0    0    0    0  0.00000000000E+00  0.00000000000E+00  0.45593999997E+02  0.45594000000E+02  0.51100000000E-03 0. -1.
         11   -1    0    0    0    0 -0.00000000000E+00 -0.00000000000E+00 -0.45593999997E+02  0.45594000000E+02  0.51100000000E-03 0.  1.
    9900012    2    1    2    0    0 -0.10967390385E+02  0.13020959126E+02  0.78006897124E+01  0.72461553770E+02  0.69999978474E+02 0.  0.
        -12    1    1    2    0    0  0.10967390385E+02 -0.13020959126E+02 -0.78006897124E+01  0.18726446230E+02  0.00000000000E+00 0.  1.
         11    1    3    3    0    0 -0.17465782193E+02 -0.20683082013E+02 -0.97179111163E+01  0.28762496865E+02  0.51100000000E-03 0. -1.
        -11    1    3    3    0    0  0.12507290705E+02  0.14478000513E+02  0.43110430578E+01  0.19611983891E+02  0.51100000000E-03 0.  1.
         12    1    3    3    0    0 -0.60088988983E+01  0.19226040626E+02  0.13207557771E+02  0.24087073014E+02  0.00000000000E+00 0. -1.
</event>
<event>
 7    1  0.1857734E-013  0.7246159E+02  0.7816164E-02  0.1226708E+00
        -11   -1    0    0    0    0  0.00000000000E+00  0.00000000000E+00  0.45593999997E+02  0.45594000000E+02  0.51100000000E-03 0. -1.
         11   -1    0    0    0    0 -0.00000000000E+00 -0.00000000000E+00 -0.45593999997E+02  0.45594000000E+02  0.51100000000E-03 0.  1.
    9900012    2    1    2    0    0 -0.70584908469E+00 -0.99941641080E+01  0.15820779801E+02  0.72461585163E+02  0.70000019369E+02 0.  0.
        -12    1    1    2    0    0  0.70584908469E+00  0.99941641080E+01 -0.15820779801E+02  0.18726414837E+02  0.00000000000E+00 0.  1.
         11    1    3    3    0    0  0.20878995985E+01 -0.36938819418E+02  0.84271473726E+01  0.37945388624E+02  0.51100000000E-03 0. -1.
        -11    1    3    3    0    0  0.57676586324E+01  0.12760088525E+02 -0.38143063483E+01  0.14513258712E+02  0.51100000000E-03 0.  1.
         12    1    3    3    0    0 -0.85614073156E+01  0.14184566785E+02  0.11207938777E+02  0.20002937827E+02  0.00000000000E+00 0. -1.
</event>
<event>
 7    1  0.1857734E-013  0.7246148E+02  0.7816164E-02  0.1226708E+00
        -11   -1    0    0    0    0  0.00000000000E+00  0.00000000000E+00  0.45593999997E+02  0.45594000000E+02  0.51100000000E-03 0. -1.
         11   -1    0    0    0    0 -0.00000000000E+00 -0.00000000000E+00 -0.45593999997E+02  0.45594000000E+02  0.51100000000E-03 0.  1.
    9900012    2    1    2    0    0 -0.16486862424E+02  0.42257358643E+01  0.78108305974E+01  0.72461480014E+02  0.69999882393E+02 0.  0.
        -12    1    1    2    0    0  0.16486862424E+02 -0.42257358643E+01 -0.78108305974E+01  0.18726519986E+02  0.00000000000E+00 0.  1.
         11    1    3    3    0    0 -0.33345249646E+02 -0.14973440598E+01  0.82645209225E+01  0.34386770996E+02  0.51100000000E-03 0.  1.
        -11    1    3    3    0    0  0.20314473350E+02  0.92701364552E+01 -0.12115648951E+02  0.25404767410E+02  0.51100000000E-03 0. -1.
         12    1    3    3    0    0 -0.34560861275E+01 -0.35470565312E+01  0.11661958625E+02  0.12669941607E+02  0.00000000000E+00 0. -1.
</event>
<event>
 7    1  0.1857734E-013  0.7246162E+02  0.7816164E-02  0.1226708E+00
        -11   -1    0    0    0    0  0.00000000000E+00  0.00000000000E+00  0.45593999997E+02  0.45594000000E+02  0.51100000000E-03 0. -1.
         11   -1    0    0    0    0 -0.00000000000E+00 -0.00000000000E+00 -0.45593999997E+02  0.45594000000E+02  0.51100000000E-03 0.  1.
    9900012    2    1    2    0    0  0.49746439905E+00  0.15739875020E+02  0.10133424668E+02  0.72461616688E+02  0.70000060436E+02 0.  0.
        -12    1    1    2    0    0 -0.49746439905E+00 -0.15739875020E+02 -0.10133424668E+02  0.18726383312E+02  0.00000000000E+00 0.  1.
         11    1    3    3    0    0  0.16678196260E+02  0.21776072053E+02  0.25104196429E+02  0.37183063660E+02  0.51100000000E-03 0. -1.
        -11    1    3    3    0    0 -0.18691048794E+02  0.12254109590E+01 -0.31834725005E+00  0.18733880598E+02  0.51100000000E-03 0.  1.
        -12    1    3    3    0    0  0.25103169331E+01 -0.72616079923E+01 -0.14652424511E+02  0.16544672429E+02  0.00000000000E+00 0.  1.
</event>
<event>
 7    1  0.1857734E-013  0.7246149E+02  0.7816164E-02  0.1226708E+00
        -11   -1    0    0    0    0  0.00000000000E+00  0.00000000000E+00  0.45593999997E+02  0.45594000000E+02  0.51100000000E-03 0.  1.
         11   -1    0    0    0    0 -0.00000000000E+00 -0.00000000000E+00 -0.45593999997E+02  0.45594000000E+02  0.51100000000E-03 0. -1.
    9900012    2    1    2    0    0 -0.74559267492E+01  0.17155725637E+02 -0.87883169126E+00  0.72461491758E+02  0.69999897691E+02 0.  0.
        -12    1    1    2    0    0  0.74559267492E+01 -0.17155725637E+02  0.87883169126E+00  0.18726508242E+02  0.00000000000E+00 0.  1.
         11    1    3    3    0    0 -0.12188989272E+02  0.36885278289E+02 -0.13956719709E+02  0.41278144813E+02  0.51100000000E-03 0. -1.
        -11    1    3    3    0    0 -0.53260976833E+01 -0.50599782168E+01  0.11066251235E+02  0.13282793860E+02  0.51100000000E-03 0.  1.
         12    1    3    3    0    0  0.10059160206E+02 -0.14669574436E+02  0.20116367829E+01  0.17900553084E+02  0.00000000000E+00 0. -1.
</event>
<event>
 7    1  0.1857734E-013  0.7246159E+02  0.7816164E-02  0.1226708E+00
        -11   -1    0    0    0    0  0.00000000000E+00  0.00000000000E+00  0.45593999997E+02  0.45594000000E+02  0.51100000000E-03 0. -1.
         11   -1    0    0    0    0 -0.00000000000E+00 -0.00000000000E+00 -0.45593999997E+02  0.45594000000E+02  0.51100000000E-03 0.  1.
    9900012    2    1    2    0    0 -0.12513987254E+02  0.98725054463E+01 -0.98291517238E+01  0.72461589121E+02  0.70000024526E+02 0.  0.
        -12    1    1    2    0    0  0.12513987254E+02 -0.98725054463E+01  0.98291517238E+01  0.18726410879E+02  0.00000000000E+00 0.  1.
         11    1    3    3    0    0 -0.34472555936E+02  0.12404179371E+02 -0.37047731130E+00  0.36638204546E+02  0.51100000000E-03 0. -1.
        -11    1    3    3    0    0  0.56450830368E+01  0.87443070671E+01 -0.11937618165E+02  0.15837821703E+02  0.51100000000E-03 0.  1.
         12    1    3    3    0    0  0.16313485645E+02 -0.11275980992E+02  0.24789437526E+01  0.19985562873E+02  0.00000000000E+00 0. -1.
</event>
<event>
 7    1  0.1857734E-013  0.7246155E+02  0.7816164E-02  0.1226708E+00
        -11   -1    0    0    0    0  0.00000000000E+00  0.00000000000E+00  0.45593999997E+02  0.45594000000E+02  0.51100000000E-03 0. -1.
         11   -1    0    0    0    0 -0.00000000000E+00 -0.00000000000E+00 -0.45593999997E+02  0.45594000000E+02  0.51100000000E-03 0.  1.
    9900012    2    1    2    0    0  0.51748017205E+01  0.17660808015E+02 -0.34636803820E+01  0.72461553611E+02  0.69999978267E+02 0.  0.
        -12    1    1    2    0    0 -0.51748017205E+01 -0.17660808015E+02  0.34636803820E+01  0.18726446389E+02  0.00000000000E+00 0.  1.
         11    1    3    3    0    0  0.48737006198E+01 -0.14250719282E+02  0.69648473282E+01  0.16593524531E+02  0.51100000000E-03 0.  1.
        -11    1    3    3    0    0  0.65512079763E+01  0.31629243674E+02 -0.24452090879E+02  0.40512123247E+02  0.51100000000E-03 0. -1.
         12    1    3    3    0    0 -0.62501068755E+01  0.28228362217E+00  0.14023563169E+02  0.15355905833E+02  0.00000000000E+00 0. -1.
</event>
<event>
 7    1  0.1857734E-013  0.7246157E+02  0.7816164E-02  0.1226708E+00
        -11   -1    0    0    0    0  0.00000000000E+00  0.00000000000E+00  0.45593999997E+02  0.45594000000E+02  0.51100000000E-03 0. -1.
         11   -1    0    0    0    0 -0.00000000000E+00 -0.00000000000E+00 -0.45593999997E+02  0.45594000000E+02  0.51100000000E-03 0.  1.
    9900012    2    1    2    0    0  0.18573147831E+02 -0.19909830875E+01  0.13240997909E+01  0.72461572838E+02  0.70000003314E+02 0.  0.
        -12    1    1    2    0    0 -0.18573147831E+02  0.19909830875E+01 -0.13240997909E+01  0.18726427162E+02  0.00000000000E+00 0.  1.
         11    1    3    3    0    0 -0.73219227721E+01 -0.98752693882E+01 -0.45906019551E+01  0.13122695041E+02  0.51100000000E-03 0. -1.
        -11    1    3    3    0    0  0.35286489735E+02  0.33859715988E+01  0.20854611186E+02  0.41128043589E+02  0.51100000000E-03 0.  1.
        -12    1    3    3    0    0 -0.93914191320E+01  0.44983147019E+01 -0.14939909440E+02  0.18210834208E+02  0.00000000000E+00 0.  1.
</event>
<event>
 7    1  0.1857734E-013  0.7246166E+02  0.7816164E-02  0.1226708E+00
        -11   -1    0    0    0    0  0.00000000000E+00  0.00000000000E+00  0.45593999997E+02  0.45594000000E+02  0.51100000000E-03 0.  1.
         11   -1    0    0    0    0 -0.00000000000E+00 -0.00000000000E+00 -0.45593999997E+02  0.45594000000E+02  0.51100000000E-03 0. -1.
    9900012    2    1    2    0    0 -0.92257164588E+01 -0.15885489784E+02 -0.36349804018E+01  0.72461662601E+02  0.70000120246E+02 0.  0.
        -12    1    1    2    0    0  0.92257164588E+01  0.15885489784E+02  0.36349804018E+01  0.18726337399E+02  0.00000000000E+00 0.  1.
         11    1    3    3    0    0 -0.18233123454E+02 -0.77884215111E+01 -0.14238573607E+02  0.24409901252E+02  0.51100000000E-03 0. -1.
        -11    1    3    3    0    0  0.11110570004E+02 -0.13191697331E+02  0.26280298582E+02  0.31434371922E+02  0.51100000000E-03 0.  1.
         12    1    3    3    0    0 -0.21031630082E+01  0.50946290582E+01 -0.15676705377E+02  0.16617389427E+02  0.00000000000E+00 0. -1.
</event>
<event>
 7    1  0.1857734E-013  0.7246133E+02  0.7816164E-02  0.1226709E+00
        -11   -1    0    0    0    0  0.00000000000E+00  0.00000000000E+00  0.45593999997E+02  0.45594000000E+02  0.51100000000E-03 0. -1.
         11   -1    0    0    0    0 -0.00000000000E+00 -0.00000000000E+00 -0.45593999997E+02  0.45594000000E+02  0.51100000000E-03 0.  1.
    9900012    2    1    2    0    0  0.15207960187E+02 -0.64186071434E+01  0.88435139628E+01  0.72461326245E+02  0.69999682080E+02 0.  0.
        -12    1    1    2    0    0 -0.15207960187E+02  0.64186071434E+01 -0.88435139628E+01  0.18726673755E+02  0.00000000000E+00 0.  1.
         11    1    3    3    0    0  0.82763064265E+01  0.52175089024E+01 -0.35868633291E+01  0.10420423984E+02  0.51100000000E-03 0. -1.
        -11    1    3    3    0    0 -0.29816729027E+01  0.17112716628E+02  0.23894963918E+02  0.29541576542E+02  0.51100000000E-03 0.  1.
        -12    1    3    3    0    0  0.99133266635E+01 -0.28748832674E+02 -0.11464586626E+02  0.32499325718E+02  0.00000000000E+00 0.  1.
</event>
<event>
 7    1  0.1857734E-013  0.7246136E+02  0.7816164E-02  0.1226709E+00
        -11   -1    0    0    0    0  0.00000000000E+00  0.00000000000E+00  0.45593999997E+02  0.45594000000E+02  0.51100000000E-03 0. -1.
         11   -1    0    0    0    0 -0.00000000000E+00 -0.00000000000E+00 -0.45593999997E+02  0.45594000000E+02  0.51100000000E-03 0.  1.
    9900012    2    1    2    0    0 -0.15285180786E+02  0.88996703694E+01  0.61519250663E+01  0.72461359448E+02  0.69999725333E+02 0.  0.
        -12    1    1    2    0    0  0.15285180786E+02 -0.88996703694E+01 -0.61519250663E+01  0.18726640552E+02  0.00000000000E+00 0.  1.
         11    1    3    3    0    0  0.15267713910E+02 -0.91833570910E+00  0.63456140334E+01  0.16559385443E+02  0.51100000000E-03 0. -1.
        -11    1    3    3    0    0 -0.39073239002E+02  0.67084032975E+01  0.11334584579E+02  0.41233402585E+02  0.51100000000E-03 0.  1.
        -12    1    3    3    0    0  0.85203443062E+01  0.31096027810E+01 -0.11528273546E+02  0.14668571420E+02  0.00000000000E+00 0.  1.
</event>
<event>
 7    1  0.1857734E-013  0.7246153E+02  0.7816164E-02  0.1226708E+00
        -11   -1    0    0    0    0  0.00000000000E+00  0.00000000000E+00  0.45593999997E+02  0.45594000000E+02  0.51100000000E-03 0. -1.
         11   -1    0    0    0    0 -0.00000000000E+00 -0.00000000000E+00 -0.45593999997E+02  0.45594000000E+02  0.51100000000E-03 0.  1.
    9900012    2    1    2    0    0  0.19709310985E+01  0.12622165657E+02  0.13692223059E+02  0.72461531899E+02  0.69999949982E+02 0.  0.
        -12    1    1    2    0    0 -0.19709310985E+01 -0.12622165657E+02 -0.13692223059E+02  0.18726468101E+02  0.00000000000E+00 0.  1.
         11    1    3    3    0    0 -0.18798547091E+02 -0.73065048821E+01  0.32199637104E+02  0.37994565615E+02  0.51100000000E-03 0. -1.
        -11    1    3    3    0    0  0.82085236938E+01  0.92093697608E+01 -0.58084712691E+01  0.13635640483E+02  0.51100000000E-03 0.  1.
         12    1    3    3    0    0  0.12560954496E+02  0.10719300778E+02 -0.12698942776E+02  0.20831325801E+02  0.00000000000E+00 0. -1.
</event>
<event>
 7    1  0.1857734E-013  0.7246153E+02  0.7816164E-02  0.1226708E+00
        -11   -1    0    0    0    0  0.00000000000E+00  0.00000000000E+00  0.45593999997E+02  0.45594000000E+02  0.51100000000E-03 0. -1.
         11   -1    0    0    0    0 -0.00000000000E+00 -0.00000000000E+00 -0.45593999997E+02  0.45594000000E+02  0.51100000000E-03 0.  1.
    9900012    2    1    2    0    0 -0.96112025434E+00 -0.13665676089E+02  0.12767390094E+02  0.72461529298E+02  0.69999946595E+02 0.  0.
        -12    1    1    2    0    0  0.96112025434E+00  0.13665676089E+02 -0.12767390094E+02  0.18726470702E+02  0.00000000000E+00 0.  1.
         11    1    3    3    0    0  0.23480384116E+02 -0.85152964161E+01 -0.15758020320E+01  0.25026423308E+02  0.51100000000E-03 0. -1.
        -11    1    3    3    0    0 -0.21000006334E+02 -0.20521163056E+02  0.10839622227E+02  0.31298814826E+02  0.51100000000E-03 0.  1.
        -12    1    3    3    0    0 -0.34414980360E+01  0.15370783383E+02  0.35035698988E+01  0.16136291165E+02  0.00000000000E+00 0.  1.
</event>
<event>
 7    1  0.1857734E-013  0.7246157E+02  0.7816164E-02  0.1226708E+00
        -11   -1    0    0    0    0  0.00000000000E+00  0.00000000000E+00  0.45593999997E+02  0.45594000000E+02  0.51100000000E-03 0.  1.
         11   -1    0    0    0    0 -0.00000000000E+00 -0.00000000000E+00 -0.45593999997E+02  0.45594000000E+02  0.51100000000E-03 0. -1.
    9900012    2    1    2    0    0  0.14119523423E+02 -0.80062276548E+01  0.93390926184E+01  0.72461567508E+02  0.69999996370E+02 0.  0.
        -12    1    1    2    0    0 -0.14119523423E+02  0.80062276548E+01 -0.93390926184E+01  0.18726432492E+02  0.00000000000E+00 0.  1.
         11    1    3    3    0    0  0.32968113886E-02  0.22303417059E+02 -0.38674281379E+00  0.22306770131E+02  0.51100000000E-03 0. -1.
        -11    1    3    3    0    0 -0.33795874921E+01 -0.31221591917E+02  0.36679450182E+01  0.31617451421E+02  0.51100000000E-03 0.  1.
        -12    1    3    3    0    0  0.17495814103E+02  0.91194720289E+00  0.60578904140E+01  0.18537345956E+02  0.00000000000E+00 0.  1.
</event>
<event>
 7    1  0.1857734E-013  0.7246156E+02  0.7816164E-02  0.1226708E+00
        -11   -1    0    0    0    0  0.00000000000E+00  0.00000000000E+00  0.45593999997E+02  0.45594000000E+02  0.51100000000E-03 0. -1.
         11   -1    0    0    0    0 -0.00000000000E+00 -0.00000000000E+00 -0.45593999997E+02  0.45594000000E+02  0.51100000000E-03 0.  1.
    9900012    2    1    2    0    0 -0.32109310854E+01 -0.10724213219E+02  0.15012021376E+02  0.72461558443E+02  0.69999984562E+02 0.  0.
        -12    1    1    2    0    0  0.32109310854E+01  0.10724213219E+02 -0.15012021376E+02  0.18726441557E+02  0.00000000000E+00 0.  1.
         11    1    3    3    0    0  0.11130196057E+02 -0.53311549290E+01  0.24511223260E+01  0.12582149183E+02  0.51100000000E-03 0. -1.
        -11    1    3    3    0    0 -0.28812416290E+02 -0.20774123099E+02  0.15122882316E+02  0.38605972243E+02  0.51100000000E-03 0.  1.
        -12    1    3    3    0    0  0.14471289148E+02  0.15381064809E+02 -0.25619832666E+01  0.21273437017E+02  0.00000000000E+00 0.  1.
</event>
<event>
 7    1  0.1857734E-013  0.7246158E+02  0.7816164E-02  0.1226708E+00
        -11   -1    0    0    0    0  0.00000000000E+00  0.00000000000E+00  0.45593999997E+02  0.45594000000E+02  0.51100000000E-03 0. -1.
         11   -1    0    0    0    0 -0.00000000000E+00 -0.00000000000E+00 -0.45593999997E+02  0.45594000000E+02  0.51100000000E-03 0.  1.
    9900012    2    1    2    0    0  0.29770862187E+01 -0.18200850230E+02  0.32472960237E+01  0.72461576879E+02  0.70000008577E+02 0.  0.
        -12    1    1    2    0    0 -0.29770862187E+01  0.18200850230E+02 -0.32472960237E+01  0.18726423121E+02  0.00000000000E+00 0.  1.
         11    1    3    3    0    0  0.12464799769E+02 -0.37033594755E+02 -0.64545499925E+01  0.39604540013E+02  0.51100000000E-03 0. -1.
        -11    1    3    3    0    0  0.21431253521E+01  0.19056813931E+02  0.29383292530E+01  0.19400745411E+02  0.51100000000E-03 0.  1.
         12    1    3    3    0    0 -0.11630838903E+02 -0.22406940555E+00  0.67635167633E+01  0.13456291454E+02  0.00000000000E+00 0. -1.
</event>
<event>
 7    1  0.1857734E-013  0.7246155E+02  0.7816164E-02  0.1226708E+00
        -11   -1    0    0    0    0  0.00000000000E+00  0.00000000000E+00  0.45593999997E+02  0.45594000000E+02  0.51100000000E-03 0. -1.
         11   -1    0    0    0    0 -0.00000000000E+00 -0.00000000000E+00 -0.45593999997E+02  0.45594000000E+02  0.51100000000E-03 0.  1.
    9900012    2    1    2    0    0 -0.10286389787E+02 -0.11542816014E+02  0.10565667810E+02  0.72461554724E+02  0.69999979717E+02 0.  0.
        -12    1    1    2    0    0  0.10286389787E+02  0.11542816014E+02 -0.10565667810E+02  0.18726445276E+02  0.00000000000E+00 0.  1.
         11    1    3    3    0    0  0.20438918522E+02 -0.17278426749E+02  0.11609081584E+02  0.29173004589E+02  0.51100000000E-03 0. -1.
        -11    1    3    3    0    0 -0.22961285359E+02 -0.10451745214E+02 -0.20207977069E+01  0.25308955470E+02  0.51100000000E-03 0.  1.
         12    1    3    3    0    0 -0.77640229500E+01  0.16187355948E+02  0.97738393340E+00  0.17979594665E+02  0.00000000000E+00 0. -1.
</event>
<event>
 7    1  0.1857734E-013  0.7246124E+02  0.7816164E-02  0.1226709E+00
        -11   -1    0    0    0    0  0.00000000000E+00  0.00000000000E+00  0.45593999997E+02  0.45594000000E+02  0.51100000000E-03 0.  1.
         11   -1    0    0    0    0 -0.00000000000E+00 -0.00000000000E+00 -0.45593999997E+02  0.45594000000E+02  0.51100000000E-03 0. -1.
    9900012    2    1    2    0    0 -0.39812301037E+01  0.18091824034E+02  0.27435777069E+01  0.72461240839E+02  0.69999570823E+02 0.  0.
        -12    1    1    2    0    0  0.39812301037E+01 -0.18091824034E+02 -0.27435777069E+01  0.18726759161E+02  0.00000000000E+00 0.  1.
         11    1    3    3    0    0 -0.14191349193E+02 -0.10060270725E+02 -0.13322704507E+02  0.21911136316E+02  0.51100000000E-03 0. -1.
        -11    1    3    3    0    0  0.24078080561E+02  0.18966247596E+02  0.64023605947E+01  0.31312341542E+02  0.51100000000E-03 0.  1.
        -12    1    3    3    0    0 -0.13867961472E+02  0.91858471634E+01  0.96639216194E+01  0.19237762982E+02  0.00000000000E+00 0.  1.
</event>
<event>
 7    1  0.1857734E-013  0.7246153E+02  0.7816164E-02  0.1226708E+00
        -11   -1    0    0    0    0  0.00000000000E+00  0.00000000000E+00  0.45593999997E+02  0.45594000000E+02  0.51100000000E-03 0.  1.
         11   -1    0    0    0    0 -0.00000000000E+00 -0.00000000000E+00 -0.45593999997E+02  0.45594000000E+02  0.51100000000E-03 0. -1.
    9900012    2    1    2    0    0 -0.13709305693E+02  0.45636110908E+01 -0.11912565146E+02  0.72461526303E+02  0.69999942693E+02 0.  0.
        -12    1    1    2    0    0  0.13709305693E+02 -0.45636110908E+01  0.11912565146E+02  0.18726473697E+02  0.00000000000E+00 0.  1.
         11    1    3    3    0    0 -0.19072915143E+02 -0.67176913731E+01 -0.50696794840E+01  0.20847184936E+02  0.51100000000E-03 0. -1.
        -11    1    3    3    0    0  0.21666649438E+02  0.18935574611E+02  0.61267522977E+01  0.29420006419E+02  0.51100000000E-03 0.  1.
        -12    1    3    3    0    0 -0.16303039989E+02 -0.76542721468E+01 -0.12969637959E+02  0.22194334948E+02  0.00000000000E+00 0.  1.
</event>
<event>
 7    1  0.1857734E-013  0.7246148E+02  0.7816164E-02  0.1226708E+00
        -11   -1    0    0    0    0  0.00000000000E+00  0.00000000000E+00  0.45593999997E+02  0.45594000000E+02  0.51100000000E-03 0. -1.
         11   -1    0    0    0    0 -0.00000000000E+00 -0.00000000000E+00 -0.45593999997E+02  0.45594000000E+02  0.51100000000E-03 0.  1.
    9900012    2    1    2    0    0  0.65232409171E+01  0.48878082948E+01  0.16859390596E+02  0.72461484220E+02  0.69999887872E+02 0.  0.
        -12    1    1    2    0    0 -0.65232409171E+01 -0.48878082948E+01 -0.16859390596E+02  0.18726515780E+02  0.00000000000E+00 0.  1.
         11    1    3    3    0    0 -0.16207861714E+02  0.20054554321E+02 -0.13184777925E+01  0.25818952619E+02  0.51100000000E-03 0.  1.
        -11    1    3    3    0    0  0.25077177879E+02 -0.16181475443E+02  0.25268641114E+02  0.39105104806E+02  0.51100000000E-03 0. -1.
         12    1    3    3    0    0 -0.23460752470E+01  0.10147294166E+01 -0.70907727252E+01  0.75374267953E+01  0.00000000000E+00 0. -1.
</event>
<event>
 7    1  0.1857734E-013  0.7246163E+02  0.7816164E-02  0.1226708E+00
        -11   -1    0    0    0    0  0.00000000000E+00  0.00000000000E+00  0.45593999997E+02  0.45594000000E+02  0.51100000000E-03 0. -1.
         11   -1    0    0    0    0 -0.00000000000E+00 -0.00000000000E+00 -0.45593999997E+02  0.45594000000E+02  0.51100000000E-03 0.  1.
    9900012    2    1    2    0    0  0.67832336760E+01  0.15476953198E+02 -0.80702284398E+01  0.72461630184E+02  0.70000078018E+02 0.  0.
        -12    1    1    2    0    0 -0.67832336760E+01 -0.15476953198E+02  0.80702284398E+01  0.18726369816E+02  0.00000000000E+00 0.  1.
         11    1    3    3    0    0  0.70732006104E+01  0.37430032782E+02 -0.41587959071E+01  0.38318834854E+02  0.51100000000E-03 0. -1.
        -11    1    3    3    0    0  0.95910714643E+01 -0.58500824939E+01 -0.92032265459E+01  0.14522792298E+02  0.51100000000E-03 0.  1.
         12    1    3    3    0    0 -0.98810383987E+01 -0.16102997089E+02  0.52917940132E+01  0.19620003032E+02  0.00000000000E+00 0. -1.
</event>
<event>
 7    1  0.1857734E-013  0.7246156E+02  0.7816164E-02  0.1226708E+00
        -11   -1    0    0    0    0  0.00000000000E+00  0.00000000000E+00  0.45593999997E+02  0.45594000000E+02  0.51100000000E-03 0.  1.
         11   -1    0    0    0    0 -0.00000000000E+00 -0.00000000000E+00 -0.45593999997E+02  0.45594000000E+02  0.51100000000E-03 0. -1.
    9900012    2    1    2    0    0  0.18649840557E+01 -0.53774632359E+01 -0.17840521662E+02  0.72461561749E+02  0.69999988868E+02 0.  0.
        -12    1    1    2    0    0 -0.18649840557E+01  0.53774632359E+01  0.17840521662E+02  0.18726438251E+02  0.00000000000E+00 0.  1.
         11    1    3    3    0    0  0.79918982258E+01  0.71255470309E+00 -0.32613432403E+01  0.86610929708E+01  0.51100000000E-03 0. -1.
        -11    1    3    3    0    0 -0.31077426307E+02 -0.39699050163E+01 -0.21286622084E+02  0.37877260351E+02  0.51100000000E-03 0.  1.
        -12    1    3    3    0    0  0.24950512137E+02 -0.21201129227E+01  0.67074436620E+01  0.25923208427E+02  0.00000000000E+00 0.  1.
</event>
<event>
 7    1  0.1857734E-013  0.7246155E+02  0.7816164E-02  0.1226708E+00
        -11   -1    0    0    0    0  0.00000000000E+00  0.00000000000E+00  0.45593999997E+02  0.45594000000E+02  0.51100000000E-03 0.  1.
         11   -1    0    0    0    0 -0.00000000000E+00 -0.00000000000E+00 -0.45593999997E+02  0.45594000000E+02  0.51100000000E-03 0. -1.
    9900012    2    1    2    0    0 -0.90650441545E+01 -0.15348909237E+02  0.57372378002E+01  0.72461549779E+02  0.69999973275E+02 0.  0.
        -12    1    1    2    0    0  0.90650441545E+01  0.15348909237E+02 -0.57372378002E+01  0.18726450221E+02  0.00000000000E+00 0.  1.
         11    1    3    3    0    0  0.10927346325E+02 -0.28878122487E+02  0.12202042939E+02  0.33200040786E+02  0.51100000000E-03 0. -1.
        -11    1    3    3    0    0 -0.26397568787E+01  0.19986836139E+02 -0.23738037348E+01  0.20299676836E+02  0.51100000000E-03 0.  1.
        -12    1    3    3    0    0 -0.17352633601E+02 -0.64576228892E+01 -0.40910014042E+01  0.18961832157E+02  0.00000000000E+00 0.  1.
</event>
<event>
 7    1  0.1857734E-013  0.7246160E+02  0.7816164E-02  0.1226708E+00
        -11   -1    0    0    0    0  0.00000000000E+00  0.00000000000E+00  0.45593999997E+02  0.45594000000E+02  0.51100000000E-03 0. -1.
         11   -1    0    0    0    0 -0.00000000000E+00 -0.00000000000E+00 -0.45593999997E+02  0.45594000000E+02  0.51100000000E-03 0.  1.
    9900012    2    1    2    0    0 -0.54612653134E+01 -0.10334613856E+02  0.14630391282E+02  0.72461601215E+02  0.70000040280E+02 0.  0.
        -12    1    1    2    0    0  0.54612653134E+01  0.10334613856E+02 -0.14630391282E+02  0.18726398785E+02  0.00000000000E+00 0.  1.
         11    1    3    3    0    0 -0.36169685929E+01  0.27792140616E+01  0.76025927846E+01  0.88659974008E+01  0.51100000000E-03 0. -1.
        -11    1    3    3    0    0  0.27215443563E+02 -0.15842073433E+02  0.12533980910E+02  0.33893249132E+02  0.51100000000E-03 0.  1.
        -12    1    3    3    0    0 -0.29059740283E+02  0.27282455152E+01 -0.55061824124E+01  0.29702354683E+02  0.00000000000E+00 0.  1.
</event>
<event>
 7    1  0.1857734E-013  0.7246154E+02  0.7816164E-02  0.1226708E+00
        -11   -1    0    0    0    0  0.00000000000E+00  0.00000000000E+00  0.45593999997E+02  0.45594000000E+02  0.51100000000E-03 0. -1.
         11   -1    0    0    0    0 -0.00000000000E+00 -0.00000000000E+00 -0.45593999997E+02  0.45594000000E+02  0.51100000000E-03 0.  1.
    9900012    2    1    2    0    0 -0.20777804585E+01 -0.73042858464E+01  0.17117552579E+02  0.72461538251E+02  0.69999958257E+02 0.  0.
        -12    1    1    2    0    0  0.20777804585E+01  0.73042858464E+01 -0.17117552579E+02  0.18726461749E+02  0.00000000000E+00 0.  1.
         11    1    3    3    0    0  0.20886501736E+01 -0.21063747756E+01 -0.22648599524E+02  0.22842030008E+02  0.51100000000E-03 0. -1.
        -11    1    3    3    0    0 -0.81116172475E+01  0.96879861487E+01  0.10030609479E+02  0.16132840320E+02  0.51100000000E-03 0.  1.
         12    1    3    3    0    0  0.39451866155E+01 -0.14885897219E+02  0.29735542624E+02  0.33486667923E+02  0.00000000000E+00 0. -1.
</event>
<event>
 7    1  0.1857734E-013  0.7246200E+02  0.7816164E-02  0.1226707E+00
        -11   -1    0    0    0    0  0.00000000000E+00  0.00000000000E+00  0.45593999997E+02  0.45594000000E+02  0.51100000000E-03 0.  1.
         11   -1    0    0    0    0 -0.00000000000E+00 -0.00000000000E+00 -0.45593999997E+02  0.45594000000E+02  0.51100000000E-03 0. -1.
    9900012    2    1    2    0    0  0.12095487843E+02  0.13568366209E+02 -0.45012896992E+01  0.72462002117E+02  0.70000562527E+02 0.  0.
        -12    1    1    2    0    0 -0.12095487843E+02 -0.13568366209E+02  0.45012896992E+01  0.18725997883E+02  0.00000000000E+00 0.  1.
         11    1    3    3    0    0  0.10158909000E+02  0.18979216470E+02 -0.32401780083E+02  0.38901021101E+02  0.51100000000E-03 0. -1.
        -11    1    3    3    0    0 -0.52735865661E+01 -0.31292377517E+01  0.24523759978E+02  0.25278798387E+02  0.51100000000E-03 0.  1.
        -12    1    3    3    0    0  0.72101654093E+01 -0.22816125095E+01  0.33767304058E+01  0.82821826294E+01  0.00000000000E+00 0.  1.
</event>
<event>
 7    1  0.1857734E-013  0.7246160E+02  0.7816164E-02  0.1226708E+00
        -11   -1    0    0    0    0  0.00000000000E+00  0.00000000000E+00  0.45593999997E+02  0.45594000000E+02  0.51100000000E-03 0. -1.
         11   -1    0    0    0    0 -0.00000000000E+00 -0.00000000000E+00 -0.45593999997E+02  0.45594000000E+02  0.51100000000E-03 0.  1.
    9900012    2    1    2    0    0 -0.60701754709E+01  0.73908104669E+01  0.16099909557E+02  0.72461596251E+02  0.70000033814E+02 0.  0.
        -12    1    1    2    0    0  0.60701754709E+01 -0.73908104669E+01 -0.16099909557E+02  0.18726403749E+02  0.00000000000E+00 0.  1.
         11    1    3    3    0    0 -0.21672590312E+02  0.19072148443E+02 -0.14716699850E+02  0.32404155163E+02  0.51100000000E-03 0. -1.
        -11    1    3    3    0    0  0.39171361498E+01 -0.12942682433E+02  0.19591046761E+02  0.23804749476E+02  0.51100000000E-03 0.  1.
         12    1    3    3    0    0  0.11685278691E+02  0.12613444568E+01  0.11225562646E+02  0.16252691613E+02  0.00000000000E+00 0. -1.
</event>
<event>
 7    1  0.1857734E-013  0.7246157E+02  0.7816164E-02  0.1226708E+00
        -11   -1    0    0    0    0  0.00000000000E+00  0.00000000000E+00  0.45593999997E+02  0.45594000000E+02  0.51100000000E-03 0.  1.
         11   -1    0    0    0    0 -0.00000000000E+00 -0.00000000000E+00 -0.45593999997E+02  0.45594000000E+02  0.51100000000E-03 0. -1.
    9900012    2    1    2    0    0  0.26880122847E+01  0.18422841248E+02  0.20131209588E+01  0.72461570931E+02  0.70000000829E+02 0.  0.
        -12    1    1    2    0    0 -0.26880122847E+01 -0.18422841248E+02 -0.20131209588E+01  0.18726429069E+02  0.00000000000E+00 0.  1.
         11    1    3    3    0    0 -0.77757375991E+01  0.25516905734E+01 -0.50143114628E+01  0.95977361757E+01  0.51100000000E-03 0. -1.
        -11    1    3    3    0    0  0.19205696880E+02  0.32073376949E+02 -0.90028232610E+01  0.38452712889E+02  0.51100000000E-03 0.  1.
        -12    1    3    3    0    0 -0.87419469961E+01 -0.16202226274E+02  0.16030255683E+02  0.24411121867E+02  0.00000000000E+00 0.  1.
</event>
<event>
 7    1  0.1857734E-013  0.7246158E+02  0.7816164E-02  0.1226708E+00
        -11   -1    0    0    0    0  0.00000000000E+00  0.00000000000E+00  0.45593999997E+02  0.45594000000E+02  0.51100000000E-03 0.  1.
         11   -1    0    0    0    0 -0.00000000000E+00 -0.00000000000E+00 -0.45593999997E+02  0.45594000000E+02  0.51100000000E-03 0. -1.
    9900012    2    1    2    0    0 -0.13400096681E+02 -0.12642230981E+02 -0.33601009849E+01  0.72461578188E+02  0.70000010283E+02 0.  0.
        -12    1    1    2    0    0  0.13400096681E+02  0.12642230981E+02  0.33601009849E+01  0.18726421812E+02  0.00000000000E+00 0.  1.
         11    1    3    3    0    0 -0.24476230288E+01 -0.23682474335E+02 -0.21715460753E+02  0.32224395806E+02  0.51100000000E-03 0. -1.
        -11    1    3    3    0    0 -0.19492530893E+02  0.19863023257E+00  0.32260623694E+01  0.19758686526E+02  0.51100000000E-03 0.  1.
         12    1    3    3    0    0  0.85400572407E+01  0.10841613121E+02  0.15129297398E+02  0.20478495856E+02  0.00000000000E+00 0. -1.
</event>
<event>
 7    1  0.1857734E-013  0.7246153E+02  0.7816164E-02  0.1226708E+00
        -11   -1    0    0    0    0  0.00000000000E+00  0.00000000000E+00  0.45593999997E+02  0.45594000000E+02  0.51100000000E-03 0.  1.
         11   -1    0    0    0    0 -0.00000000000E+00 -0.00000000000E+00 -0.45593999997E+02  0.45594000000E+02  0.51100000000E-03 0. -1.
    9900012    2    1    2    0    0 -0.37272940831E+01 -0.73934027837E+00 -0.18336879775E+02  0.72461534634E+02  0.69999953545E+02 0.  0.
        -12    1    1    2    0    0  0.37272940831E+01  0.73934027837E+00  0.18336879775E+02  0.18726465366E+02  0.00000000000E+00 0.  1.
         11    1    3    3    0    0 -0.21505262490E+02  0.18590442707E+01 -0.18488654164E+02  0.28421166292E+02  0.51100000000E-03 0. -1.
        -11    1    3    3    0    0  0.25205153976E+02 -0.30344192898E+00  0.13499316890E+02  0.28594115141E+02  0.51100000000E-03 0.  1.
         12    1    3    3    0    0 -0.74271855690E+01 -0.22949426201E+01 -0.13347542501E+02  0.15446253200E+02  0.00000000000E+00 0. -1.
</event>
<event>
 7    1  0.1857734E-013  0.7246161E+02  0.7816164E-02  0.1226708E+00
        -11   -1    0    0    0    0  0.00000000000E+00  0.00000000000E+00  0.45593999997E+02  0.45594000000E+02  0.51100000000E-03 0.  1.
         11   -1    0    0    0    0 -0.00000000000E+00 -0.00000000000E+00 -0.45593999997E+02  0.45594000000E+02  0.51100000000E-03 0. -1.
    9900012    2    1    2    0    0 -0.20096351285E+01 -0.57798605947E+01 -0.17698368573E+02  0.72461610279E+02  0.70000052088E+02 0.  0.
        -12    1    1    2    0    0  0.20096351285E+01  0.57798605947E+01  0.17698368573E+02  0.18726389721E+02  0.00000000000E+00 0.  1.
         11    1    3    3    0    0 -0.23431282454E+01  0.65287838999E+01 -0.27199708246E+02  0.28070258248E+02  0.51100000000E-03 0. -1.
        -11    1    3    3    0    0 -0.25572118994E+01 -0.91515490968E+01  0.25824015246E+02  0.27516721230E+02  0.51100000000E-03 0.  1.
        -12    1    3    3    0    0  0.28907050163E+01 -0.31570953978E+01 -0.16322675572E+02  0.16874630801E+02  0.00000000000E+00 0.  1.
</event>
<event>
 7    1  0.1857734E-013  0.7246156E+02  0.7816164E-02  0.1226708E+00
        -11   -1    0    0    0    0  0.00000000000E+00  0.00000000000E+00  0.45593999997E+02  0.45594000000E+02  0.51100000000E-03 0.  1.
         11   -1    0    0    0    0 -0.00000000000E+00 -0.00000000000E+00 -0.45593999997E+02  0.45594000000E+02  0.51100000000E-03 0. -1.
    9900012    2    1    2    0    0 -0.11963662814E+02 -0.75948032854E+01 -0.12242115666E+02  0.72461557176E+02  0.69999982910E+02 0.  0.
        -12    1    1    2    0    0  0.11963662814E+02  0.75948032854E+01  0.12242115666E+02  0.18726442824E+02  0.00000000000E+00 0.  1.
         11    1    3    3    0    0 -0.79993090235E+01 -0.32906830376E+02 -0.15677937620E+01  0.33901421914E+02  0.51100000000E-03 0. -1.
        -11    1    3    3    0    0 -0.14141857428E+01  0.13919378019E+02  0.83103875595E+01  0.16273031291E+02  0.51100000000E-03 0.  1.
        -12    1    3    3    0    0 -0.25501680474E+01  0.11392649072E+02 -0.18984709464E+02  0.22287103970E+02  0.00000000000E+00 0.  1.
</event>
<event>
 7    1  0.1857734E-013  0.7246148E+02  0.7816164E-02  0.1226708E+00
        -11   -1    0    0    0    0  0.00000000000E+00  0.00000000000E+00  0.45593999997E+02  0.45594000000E+02  0.51100000000E-03 0.  1.
         11   -1    0    0    0    0 -0.00000000000E+00 -0.00000000000E+00 -0.45593999997E+02  0.45594000000E+02  0.51100000000E-03 0. -1.
    9900012    2    1    2    0    0  0.78397872100E+01 -0.16487644634E+02  0.41686986496E+01  0.72461475029E+02  0.69999875899E+02 0.  0.
        -12    1    1    2    0    0 -0.78397872100E+01  0.16487644634E+02 -0.41686986496E+01  0.18726524971E+02  0.00000000000E+00 0.  1.
         11    1    3    3    0    0  0.25450750747E+01 -0.23408623300E+02 -0.96003535364E+01  0.25428484820E+02  0.51100000000E-03 0. -1.
        -11    1    3    3    0    0 -0.76313225354E+01  0.17375568149E+02 -0.71787366787E+01  0.20289941170E+02  0.51100000000E-03 0.  1.
        -12    1    3    3    0    0  0.12926034671E+02 -0.10454589483E+02  0.20947788865E+02  0.26743049039E+02  0.00000000000E+00 0.  1.
</event>
<event>
 7    1  0.1857734E-013  0.7246155E+02  0.7816164E-02  0.1226708E+00
        -11   -1    0    0    0    0  0.00000000000E+00  0.00000000000E+00  0.45593999997E+02  0.45594000000E+02  0.51100000000E-03 0. -1.
         11   -1    0    0    0    0 -0.00000000000E+00 -0.00000000000E+00 -0.45593999997E+02  0.45594000000E+02  0.51100000000E-03 0.  1.
    9900012    2    1    2    0    0 -0.14010565517E+02  0.17796006363E+01  0.12297026145E+02  0.72461554087E+02  0.69999978887E+02 0.  0.
        -12    1    1    2    0    0  0.14010565517E+02 -0.17796006363E+01 -0.12297026145E+02  0.18726445913E+02  0.00000000000E+00 0.  1.
         11    1    3    3    0    0 -0.11268593308E+02  0.24912579661E+01  0.19892054428E+02  0.22997421399E+02  0.51100000000E-03 0. -1.
        -11    1    3    3    0    0 -0.13125507748E+02 -0.19640078429E+01 -0.25489361554E+02  0.28737498728E+02  0.51100000000E-03 0.  1.
        -12    1    3    3    0    0  0.10383535539E+02  0.12523505131E+01  0.17894333271E+02  0.20726633960E+02  0.00000000000E+00 0.  1.
</event>
<event>
 7    1  0.1857734E-013  0.7246162E+02  0.7816164E-02  0.1226708E+00
        -11   -1    0    0    0    0  0.00000000000E+00  0.00000000000E+00  0.45593999997E+02  0.45594000000E+02  0.51100000000E-03 0.  1.
         11   -1    0    0    0    0 -0.00000000000E+00 -0.00000000000E+00 -0.45593999997E+02  0.45594000000E+02  0.51100000000E-03 0. -1.
    9900012    2    1    2    0    0 -0.18474973928E+02  0.12898630766E+01 -0.27728938865E+01  0.72461618905E+02  0.70000063324E+02 0.  0.
        -12    1    1    2    0    0  0.18474973928E+02 -0.12898630766E+01  0.27728938865E+01  0.18726381095E+02  0.00000000000E+00 0.  1.
         11    1    3    3    0    0 -0.19599155315E+02  0.70588021469E+00  0.18116488933E+02  0.26698919968E+02  0.51100000000E-03 0.  1.
        -11    1    3    3    0    0  0.18972582829E+02  0.75203493420E+01 -0.16177168285E+02  0.26042567604E+02  0.51100000000E-03 0. -1.
         12    1    3    3    0    0 -0.17848401442E+02 -0.69363664801E+01 -0.47122145339E+01  0.19720131333E+02  0.00000000000E+00 0. -1.
</event>
<event>
 7    1  0.1857734E-013  0.7246133E+02  0.7816164E-02  0.1226709E+00
        -11   -1    0    0    0    0  0.00000000000E+00  0.00000000000E+00  0.45593999997E+02  0.45594000000E+02  0.51100000000E-03 0. -1.
         11   -1    0    0    0    0 -0.00000000000E+00 -0.00000000000E+00 -0.45593999997E+02  0.45594000000E+02  0.51100000000E-03 0.  1.
    9900012    2    1    2    0    0  0.70055952795E+01  0.13935194491E+02 -0.10364369482E+02  0.72461330102E+02  0.69999687104E+02 0.  0.
        -12    1    1    2    0    0 -0.70055952795E+01 -0.13935194491E+02  0.10364369482E+02  0.18726669898E+02  0.00000000000E+00 0.  1.
         11    1    3    3    0    0  0.20963733443E+02  0.18657179213E+02 -0.55966555249E+01  0.28616271759E+02  0.51100000000E-03 0.  1.
        -11    1    3    3    0    0 -0.22084621267E+02 -0.12208993462E+02  0.84547934975E+01  0.26613409237E+02  0.51100000000E-03 0. -1.
         12    1    3    3    0    0  0.81264831039E+01  0.74870087395E+01 -0.13222507454E+02  0.17231649105E+02  0.00000000000E+00 0. -1.
</event>
<event>
 7    1  0.1857734E-013  0.7246158E+02  0.7816164E-02  0.1226708E+00
        -11   -1    0    0    0    0  0.00000000000E+00  0.00000000000E+00  0.45593999997E+02  0.45594000000E+02  0.51100000000E-03 0.  1.
         11   -1    0    0    0    0 -0.00000000000E+00 -0.00000000000E+00 -0.45593999997E+02  0.45594000000E+02  0.51100000000E-03 0. -1.
    9900012    2    1    2    0    0 -0.12681543638E+02 -0.58293629717E+01 -0.12485028661E+02  0.72461575825E+02  0.70000007205E+02 0.  0.
        -12    1    1    2    0    0  0.12681543638E+02  0.58293629717E+01  0.12485028661E+02  0.18726424175E+02  0.00000000000E+00 0.  1.
         11    1    3    3    0    0 -0.16157547767E+02 -0.20703780732E+02 -0.19671040260E+02  0.32812538939E+02  0.51100000000E-03 0. -1.
        -11    1    3    3    0    0 -0.82422926900E+01  0.21354989978E+02 -0.26366721821E+01  0.23041766994E+02  0.51100000000E-03 0.  1.
         12    1    3    3    0    0  0.11718296819E+02 -0.64805722183E+01  0.98226837805E+01  0.16607269892E+02  0.00000000000E+00 0. -1.
</event>
<event>
 7    1  0.1857734E-013  0.7246163E+02  0.7816164E-02  0.1226708E+00
        -11   -1    0    0    0    0  0.00000000000E+00  0.00000000000E+00  0.45593999997E+02  0.45594000000E+02  0.51100000000E-03 0. -1.
         11   -1    0    0    0    0 -0.00000000000E+00 -0.00000000000E+00 -0.45593999997E+02  0.45594000000E+02  0.51100000000E-03 0.  1.
    9900012    2    1    2    0    0  0.44306633059E+01 -0.38733219274E+01  0.17777615781E+02  0.72461627608E+02  0.70000074662E+02 0.  0.
        -12    1    1    2    0    0 -0.44306633059E+01  0.38733219274E+01 -0.17777615781E+02  0.18726372392E+02  0.00000000000E+00 0.  1.
         11    1    3    3    0    0 -0.19584038249E+02 -0.16125599470E+02 -0.91380537275E+01  0.26964301189E+02  0.51100000000E-03 0. -1.
        -11    1    3    3    0    0  0.11575346130E+01  0.81345876083E+01 -0.19534818572E+01  0.84455605832E+01  0.51100000000E-03 0.  1.
         12    1    3    3    0    0  0.22857166942E+02  0.41176899347E+01  0.28869151366E+02  0.37051765836E+02  0.00000000000E+00 0. -1.
</event>
<event>
 7    1  0.1857734E-013  0.7246157E+02  0.7816164E-02  0.1226708E+00
        -11   -1    0    0    0    0  0.00000000000E+00  0.00000000000E+00  0.45593999997E+02  0.45594000000E+02  0.51100000000E-03 0.  1.
         11   -1    0    0    0    0 -0.00000000000E+00 -0.00000000000E+00 -0.45593999997E+02  0.45594000000E+02  0.51100000000E-03 0. -1.
    9900012    2    1    2    0    0 -0.12266599795E+02  0.83878407008E+01 -0.11395339097E+02  0.72461572277E+02  0.70000002582E+02 0.  0.
        -12    1    1    2    0    0  0.12266599795E+02 -0.83878407008E+01  0.11395339097E+02  0.18726427723E+02  0.00000000000E+00 0.  1.
         11    1    3    3    0    0 -0.72649011879E+01  0.11630185514E+02 -0.33063506523E+02  0.35794349669E+02  0.51100000000E-03 0. -1.
        -11    1    3    3    0    0 -0.89092467898E+01  0.71773172114E+01  0.22771986771E+02  0.25484347009E+02  0.51100000000E-03 0.  1.
         12    1    3    3    0    0  0.39075481831E+01 -0.10419662024E+02 -0.11038193454E+01  0.11182875598E+02  0.00000000000E+00 0. -1.
</event>
<event>
 7    1  0.1857734E-013  0.7246156E+02  0.7816164E-02  0.1226708E+00
        -11   -1    0    0    0    0  0.00000000000E+00  0.00000000000E+00  0.45593999997E+02  0.45594000000E+02  0.51100000000E-03 0. -1.
         11   -1    0    0    0    0 -0.00000000000E+00 -0.00000000000E+00 -0.45593999997E+02  0.45594000000E+02  0.51100000000E-03 0.  1.
    9900012    2    1    2    0    0  0.17478758449E+02 -0.54651940486E+01 -0.39120418307E+01  0.72461563762E+02  0.69999991490E+02 0.  0.
        -12    1    1    2    0    0 -0.17478758449E+02  0.54651940486E+01  0.39120418307E+01  0.18726436238E+02  0.00000000000E+00 0.  1.
         11    1    3    3    0    0  0.34658128429E+02  0.12433137944E+01  0.12038325529E+02  0.36710393313E+02  0.51100000000E-03 0. -1.
        -11    1    3    3    0    0 -0.12099443928E+02  0.39538355403E+01 -0.19616569547E+02  0.23384592361E+02  0.51100000000E-03 0.  1.
         12    1    3    3    0    0 -0.50799260526E+01 -0.10662343383E+02  0.36662021878E+01  0.12366578088E+02  0.00000000000E+00 0. -1.
</event>
<event>
 7    1  0.1857734E-013  0.7246148E+02  0.7816164E-02  0.1226708E+00
        -11   -1    0    0    0    0  0.00000000000E+00  0.00000000000E+00  0.45593999997E+02  0.45594000000E+02  0.51100000000E-03 0. -1.
         11   -1    0    0    0    0 -0.00000000000E+00 -0.00000000000E+00 -0.45593999997E+02  0.45594000000E+02  0.51100000000E-03 0.  1.
    9900012    2    1    2    0    0  0.55485542436E+01 -0.58956441962E+01  0.16886010870E+02  0.72461483032E+02  0.69999886324E+02 0.  0.
        -12    1    1    2    0    0 -0.55485542436E+01  0.58956441962E+01 -0.16886010870E+02  0.18726516968E+02  0.00000000000E+00 0.  1.
         11    1    3    3    0    0  0.17658565273E+02 -0.25064600558E+02 -0.80971470699E+00  0.30671073780E+02  0.51100000000E-03 0.  1.
        -11    1    3    3    0    0 -0.21959051669E+02  0.10953646563E+02  0.83503995668E+01  0.25921255688E+02  0.51100000000E-03 0. -1.
         12    1    3    3    0    0  0.98490406398E+01  0.82153097987E+01  0.93453260098E+01  0.15869153564E+02  0.00000000000E+00 0. -1.
</event>
<event>
 7    1  0.1857734E-013  0.7246161E+02  0.7816164E-02  0.1226708E+00
        -11   -1    0    0    0    0  0.00000000000E+00  0.00000000000E+00  0.45593999997E+02  0.45594000000E+02  0.51100000000E-03 0. -1.
         11   -1    0    0    0    0 -0.00000000000E+00 -0.00000000000E+00 -0.45593999997E+02  0.45594000000E+02  0.51100000000E-03 0.  1.
    9900012    2    1    2    0    0  0.77833682073E+01  0.15299848689E+02 -0.74840916744E+01  0.72461606360E+02  0.70000046982E+02 0.  0.
        -12    1    1    2    0    0 -0.77833682073E+01 -0.15299848689E+02  0.74840916744E+01  0.18726393640E+02  0.00000000000E+00 0.  1.
         11    1    3    3    0    0  0.18590103179E+02  0.14221430379E+02 -0.60284353848E+00  0.23413766011E+02  0.51100000000E-03 0. -1.
        -11    1    3    3    0    0 -0.18216590379E+02 -0.18694495631E+02  0.19167572218E+01  0.26172548413E+02  0.51100000000E-03 0.  1.
        -12    1    3    3    0    0  0.74098554066E+01  0.19772913941E+02 -0.87980053577E+01  0.22875291936E+02  0.00000000000E+00 0.  1.
</event>
<event>
 7    1  0.1857734E-013  0.7246168E+02  0.7816164E-02  0.1226708E+00
        -11   -1    0    0    0    0  0.00000000000E+00  0.00000000000E+00  0.45593999997E+02  0.45594000000E+02  0.51100000000E-03 0. -1.
         11   -1    0    0    0    0 -0.00000000000E+00 -0.00000000000E+00 -0.45593999997E+02  0.45594000000E+02  0.51100000000E-03 0.  1.
    9900012    2    1    2    0    0  0.28847054768E+01 -0.64169536697E+01  0.17354426451E+02  0.72461683290E+02  0.70000147198E+02 0.  0.
        -12    1    1    2    0    0 -0.28847054768E+01  0.64169536697E+01 -0.17354426451E+02  0.18726316710E+02  0.00000000000E+00 0.  1.
         11    1    3    3    0    0  0.47462813966E+01 -0.21914571776E+02  0.34642296822E+02  0.41265777257E+02  0.51100000000E-03 0. -1.
        -11    1    3    3    0    0 -0.41185896623E+01  0.20265754920E+02 -0.13384696954E+02  0.24633589184E+02  0.51100000000E-03 0.  1.
         12    1    3    3    0    0  0.22570137425E+01 -0.47681368135E+01 -0.39031734168E+01  0.65623168491E+01  0.00000000000E+00 0. -1.
</event>
<event>
 7    1  0.1857734E-013  0.7246155E+02  0.7816164E-02  0.1226708E+00
        -11   -1    0    0    0    0  0.00000000000E+00  0.00000000000E+00  0.45593999997E+02  0.45594000000E+02  0.51100000000E-03 0.  1.
         11   -1    0    0    0    0 -0.00000000000E+00 -0.00000000000E+00 -0.45593999997E+02  0.45594000000E+02  0.51100000000E-03 0. -1.
    9900012    2    1    2    0    0  0.81167621689E+01 -0.11278059461E+02 -0.12554019197E+02  0.72461552090E+02  0.69999976286E+02 0.  0.
        -12    1    1    2    0    0 -0.81167621689E+01  0.11278059461E+02  0.12554019197E+02  0.18726447910E+02  0.00000000000E+00 0.  1.
         11    1    3    3    0    0 -0.52125157073E+01  0.41944481402E+00 -0.20655491373E+02  0.21307171987E+02  0.51100000000E-03 0. -1.
        -11    1    3    3    0    0 -0.88192594823E+01 -0.86072257109E+01  0.21718940363E+02  0.24971504621E+02  0.51100000000E-03 0.  1.
         12    1    3    3    0    0  0.22148537358E+02 -0.30902785645E+01 -0.13617468187E+02  0.26182875483E+02  0.00000000000E+00 0. -1.
</event>
<event>
 7    1  0.1857734E-013  0.7246169E+02  0.7816164E-02  0.1226708E+00
        -11   -1    0    0    0    0  0.00000000000E+00  0.00000000000E+00  0.45593999997E+02  0.45594000000E+02  0.51100000000E-03 0.  1.
         11   -1    0    0    0    0 -0.00000000000E+00 -0.00000000000E+00 -0.45593999997E+02  0.45594000000E+02  0.51100000000E-03 0. -1.
    9900012    2    1    2    0    0  0.14086923319E+02  0.12337033077E+02  0.17619869652E+00  0.72461685901E+02  0.70000150599E+02 0.  0.
        -12    1    1    2    0    0 -0.14086923319E+02 -0.12337033077E+02 -0.17619869652E+00  0.18726314099E+02  0.00000000000E+00 0.  1.
         11    1    3    3    0    0 -0.24339104509E+02  0.35986020727E+01 -0.81185950646E+01  0.25908560965E+02  0.51100000000E-03 0.  1.
        -11    1    3    3    0    0  0.30419660350E+02  0.15263527937E+02  0.12621641129E+01  0.34057658161E+02  0.51100000000E-03 0. -1.
        -12    1    3    3    0    0  0.80063674783E+01 -0.65250969321E+01  0.70326296482E+01  0.12495466776E+02  0.00000000000E+00 0.  1.
</event>
<event>
 7    1  0.1857734E-013  0.7246154E+02  0.7816164E-02  0.1226708E+00
        -11   -1    0    0    0    0  0.00000000000E+00  0.00000000000E+00  0.45593999997E+02  0.45594000000E+02  0.51100000000E-03 0.  1.
         11   -1    0    0    0    0 -0.00000000000E+00 -0.00000000000E+00 -0.45593999997E+02  0.45594000000E+02  0.51100000000E-03 0. -1.
    9900012    2    1    2    0    0  0.11008229833E+02  0.26126167841E+01 -0.14922244092E+02  0.72461541198E+02  0.69999962096E+02 0.  0.
        -12    1    1    2    0    0 -0.11008229833E+02 -0.26126167841E+01  0.14922244092E+02  0.18726458802E+02  0.00000000000E+00 0.  1.
         11    1    3    3    0    0 -0.12049648786E+02  0.44323945183E+00 -0.25820993396E+02  0.28497617397E+02  0.51100000000E-03 0. -1.
        -11    1    3    3    0    0  0.19115224129E+01  0.14838076207E+01  0.20562182182E+02  0.20704080258E+02  0.51100000000E-03 0.  1.
         12    1    3    3    0    0  0.21146356206E+02  0.68556971160E+00 -0.96634328782E+01  0.23259843543E+02  0.00000000000E+00 0. -1.
</event>
<event>
 7    1  0.1857734E-013  0.7246161E+02  0.7816164E-02  0.1226708E+00
        -11   -1    0    0    0    0  0.00000000000E+00  0.00000000000E+00  0.45593999997E+02  0.45594000000E+02  0.51100000000E-03 0.  1.
         11   -1    0    0    0    0 -0.00000000000E+00 -0.00000000000E+00 -0.45593999997E+02  0.45594000000E+02  0.51100000000E-03 0. -1.
    9900012    2    1    2    0    0  0.15652807995E+02 -0.34173936407E+01 -0.96947841869E+01  0.72461606384E+02  0.70000047014E+02 0.  0.
        -12    1    1    2    0    0 -0.15652807995E+02  0.34173936407E+01  0.96947841869E+01  0.18726393616E+02  0.00000000000E+00 0.  1.
         11    1    3    3    0    0  0.24230850509E+02  0.10391677456E+02 -0.97981500465E+01  0.28126941201E+02  0.51100000000E-03 0. -1.
        -11    1    3    3    0    0 -0.15963791986E+02  0.39924398676E+01  0.13147318839E+02  0.21062626227E+02  0.51100000000E-03 0.  1.
         12    1    3    3    0    0  0.73857494717E+01 -0.17801510964E+02 -0.13043952979E+02  0.23272038956E+02  0.00000000000E+00 0. -1.
</event>
<event>
 7    1  0.1857734E-013  0.7246155E+02  0.7816164E-02  0.1226708E+00
        -11   -1    0    0    0    0  0.00000000000E+00  0.00000000000E+00  0.45593999997E+02  0.45594000000E+02  0.51100000000E-03 0. -1.
         11   -1    0    0    0    0 -0.00000000000E+00 -0.00000000000E+00 -0.45593999997E+02  0.45594000000E+02  0.51100000000E-03 0.  1.
    9900012    2    1    2    0    0 -0.99463680451E+01  0.12184642375E+02  0.10162881383E+02  0.72461550654E+02  0.69999974415E+02 0.  0.
        -12    1    1    2    0    0  0.99463680451E+01 -0.12184642375E+02 -0.10162881383E+02  0.18726449346E+02  0.00000000000E+00 0.  1.
         11    1    3    3    0    0 -0.11113413024E+02  0.17977659363E+02 -0.13104821864E+02  0.24868464801E+02  0.51100000000E-03 0. -1.
        -11    1    3    3    0    0  0.18151574842E+02 -0.13736282614E+02  0.12420433342E+02  0.25931299504E+02  0.51100000000E-03 0.  1.
        -12    1    3    3    0    0 -0.16984529864E+02  0.79432656258E+01  0.10847269904E+02  0.21661786350E+02  0.00000000000E+00 0.  1.
</event>
<event>
 7    1  0.1857734E-013  0.7246158E+02  0.7816164E-02  0.1226708E+00
        -11   -1    0    0    0    0  0.00000000000E+00  0.00000000000E+00  0.45593999997E+02  0.45594000000E+02  0.51100000000E-03 0. -1.
         11   -1    0    0    0    0 -0.00000000000E+00 -0.00000000000E+00 -0.45593999997E+02  0.45594000000E+02  0.51100000000E-03 0.  1.
    9900012    2    1    2    0    0 -0.92129614197E+01  0.12227210431E+02  0.10784030521E+02  0.72461584237E+02  0.70000018163E+02 0.  0.
        -12    1    1    2    0    0  0.92129614197E+01 -0.12227210431E+02 -0.10784030521E+02  0.18726415763E+02  0.00000000000E+00 0.  1.
         11    1    3    3    0    0 -0.14343259021E+02 -0.16309287141E+02  0.26804377968E+02  0.34499226149E+02  0.51100000000E-03 0. -1.
        -11    1    3    3    0    0  0.10660907576E+02  0.15987721613E+02 -0.14683194528E+02  0.24183845735E+02  0.51100000000E-03 0.  1.
         12    1    3    3    0    0 -0.55306099742E+01  0.12548775958E+02 -0.13371529183E+01  0.13778512353E+02  0.00000000000E+00 0. -1.
</event>
<event>
 7    1  0.1857734E-013  0.7246157E+02  0.7816164E-02  0.1226708E+00
        -11   -1    0    0    0    0  0.00000000000E+00  0.00000000000E+00  0.45593999997E+02  0.45594000000E+02  0.51100000000E-03 0. -1.
         11   -1    0    0    0    0 -0.00000000000E+00 -0.00000000000E+00 -0.45593999997E+02  0.45594000000E+02  0.51100000000E-03 0.  1.
    9900012    2    1    2    0    0  0.17770420816E+02 -0.69980737171E-01  0.59064646787E+01  0.72461572730E+02  0.70000003173E+02 0.  0.
        -12    1    1    2    0    0 -0.17770420816E+02  0.69980737171E-01 -0.59064646787E+01  0.18726427270E+02  0.00000000000E+00 0.  1.
         11    1    3    3    0    0 -0.12751546020E+02  0.15409653052E+02  0.51164355867E+01  0.20645513954E+02  0.51100000000E-03 0. -1.
        -11    1    3    3    0    0  0.22162598850E+02 -0.90666301870E+01 -0.18214941227E+02  0.30086020922E+02  0.51100000000E-03 0.  1.
        -12    1    3    3    0    0  0.83593679857E+01 -0.64130036018E+01  0.19004970319E+02  0.21730037854E+02  0.00000000000E+00 0.  1.
</event>
<event>
 8    1  0.1857734E-013  0.7246155E+02  0.7816164E-02  0.1226708E+00
        -11   -1    0    0    0    0  0.00000000000E+00  0.00000000000E+00  0.45593999997E+02  0.45594000000E+02  0.51100000000E-03 0.  1.
         11   -1    0    0    0    0 -0.00000000000E+00 -0.00000000000E+00 -0.45593999997E+02  0.45594000000E+02  0.51100000000E-03 0. -1.
    9900012    2    1    2    0    0 -0.18511168765E+02  0.27683343816E+01  0.59412146185E+00  0.72461547463E+02  0.69999970258E+02 0.  0.
        -24    2    3    3    0    0 -0.10327289033E+02 -0.11218494738E+02  0.11415194051E+02  0.52975581012E+02  0.49432762470E+02 0.  0.
        -12    1    1    2    0    0  0.18511168765E+02 -0.27683343816E+01 -0.59412146185E+00  0.18726452537E+02  0.00000000000E+00 0.  1.
         11    1    4    4    0    0 -0.28527613108E+02 -0.14733064161E+02  0.19610043020E+01  0.32167272612E+02  0.51100000000E-03 0. -1.
        -11    1    3    3    0    0 -0.81838797325E+01  0.13986829119E+02 -0.10821072589E+02  0.19485966451E+02  0.51100000000E-03 0.  1.
        -12    1    4    4    0    0  0.18200324075E+02  0.35145694234E+01  0.94541897488E+01  0.20808308400E+02  0.00000000000E+00 0.  1.
</event>
<event>
 7    1  0.1857734E-013  0.7246160E+02  0.7816164E-02  0.1226708E+00
        -11   -1    0    0    0    0  0.00000000000E+00  0.00000000000E+00  0.45593999997E+02  0.45594000000E+02  0.51100000000E-03 0.  1.
         11   -1    0    0    0    0 -0.00000000000E+00 -0.00000000000E+00 -0.45593999997E+02  0.45594000000E+02  0.51100000000E-03 0. -1.
    9900012    2    1    2    0    0 -0.28328851827E+01  0.14915869170E+02 -0.10962185741E+02  0.72461603983E+02  0.70000043886E+02 0.  0.
        -12    1    1    2    0    0  0.28328851827E+01 -0.14915869170E+02  0.10962185741E+02  0.18726396017E+02  0.00000000000E+00 0.  1.
         11    1    3    3    0    0  0.55621552709E+01 -0.39919847078E+01 -0.27268236677E+02  0.28114591316E+02  0.51100000000E-03 0. -1.
        -11    1    3    3    0    0 -0.22177732993E+02  0.78075658900E+01  0.10161222756E+02  0.25613675527E+02  0.51100000000E-03 0.  1.
        -12    1    3    3    0    0  0.13782692540E+02  0.11100287988E+02  0.61448281793E+01  0.18733337140E+02  0.00000000000E+00 0.  1.
</event>
<event>
 7    1  0.1857734E-013  0.7246156E+02  0.7816164E-02  0.1226708E+00
        -11   -1    0    0    0    0  0.00000000000E+00  0.00000000000E+00  0.45593999997E+02  0.45594000000E+02  0.51100000000E-03 0. -1.
         11   -1    0    0    0    0 -0.00000000000E+00 -0.00000000000E+00 -0.45593999997E+02  0.45594000000E+02  0.51100000000E-03 0.  1.
    9900012    2    1    2    0    0  0.55138685843E+01 -0.16378815996E+02  0.72118854844E+01  0.72461557401E+02  0.69999983204E+02 0.  0.
        -12    1    1    2    0    0 -0.55138685843E+01  0.16378815996E+02 -0.72118854844E+01  0.18726442599E+02  0.00000000000E+00 0.  1.
         11    1    3    3    0    0 -0.10951284416E+02 -0.22649265179E+02  0.17931579109E+02  0.30894358273E+02  0.51100000000E-03 0. -1.
        -11    1    3    3    0    0  0.15670515999E+02  0.20542001848E+02 -0.61204109291E+01  0.26551804869E+02  0.51100000000E-03 0.  1.
        -12    1    3    3    0    0  0.79463700083E+00 -0.14271552665E+02 -0.45992826955E+01  0.15015394258E+02  0.00000000000E+00 0.  1.
</event>
<event>
 7    1  0.1857734E-013  0.7246149E+02  0.7816164E-02  0.1226708E+00
        -11   -1    0    0    0    0  0.00000000000E+00  0.00000000000E+00  0.45593999997E+02  0.45594000000E+02  0.51100000000E-03 0.  1.
         11   -1    0    0    0    0 -0.00000000000E+00 -0.00000000000E+00 -0.45593999997E+02  0.45594000000E+02  0.51100000000E-03 0. -1.
    9900012    2    1    2    0    0 -0.13597100549E+02  0.72066232606E+01 -0.10670779096E+02  0.72461492352E+02  0.69999898466E+02 0.  0.
        -12    1    1    2    0    0  0.13597100549E+02 -0.72066232606E+01  0.10670779096E+02  0.18726507648E+02  0.00000000000E+00 0.  1.
         11    1    3    3    0    0 -0.63207675220E+01  0.54307620167E+01 -0.25317039504E+02  0.26653288121E+02  0.51100000000E-03 0. -1.
        -11    1    3    3    0    0  0.12324934109E+02 -0.11515853362E+02 -0.18169128240E+01  0.16965260149E+02  0.51100000000E-03 0.  1.
        -12    1    3    3    0    0 -0.19601267136E+02  0.13291714606E+02  0.16463173232E+02  0.28842944083E+02  0.00000000000E+00 0.  1.
</event>
<event>
 7    1  0.1857734E-013  0.7246156E+02  0.7816164E-02  0.1226708E+00
        -11   -1    0    0    0    0  0.00000000000E+00  0.00000000000E+00  0.45593999997E+02  0.45594000000E+02  0.51100000000E-03 0.  1.
         11   -1    0    0    0    0 -0.00000000000E+00 -0.00000000000E+00 -0.45593999997E+02  0.45594000000E+02  0.51100000000E-03 0. -1.
    9900012    2    1    2    0    0  0.54018792564E+01 -0.64480654759E+01 -0.16730861013E+02  0.72461559919E+02  0.69999986484E+02 0.  0.
        -12    1    1    2    0    0 -0.54018792564E+01  0.64480654759E+01  0.16730861013E+02  0.18726440081E+02  0.00000000000E+00 0.  1.
         11    1    3    3    0    0  0.17919751362E+02  0.62535835644E+01 -0.20556538788E+02  0.27978493231E+02  0.51100000000E-03 0. -1.
        -11    1    3    3    0    0 -0.76463823902E+01  0.87601727684E+01  0.15652371420E+02  0.19498833860E+02  0.51100000000E-03 0.  1.
        -12    1    3    3    0    0 -0.48714897154E+01 -0.21461821809E+02 -0.11826693644E+02  0.24984232827E+02  0.00000000000E+00 0.  1.
</event>
<event>
 7    1  0.1857734E-013  0.7246158E+02  0.7816164E-02  0.1226708E+00
        -11   -1    0    0    0    0  0.00000000000E+00  0.00000000000E+00  0.45593999997E+02  0.45594000000E+02  0.51100000000E-03 0. -1.
         11   -1    0    0    0    0 -0.00000000000E+00 -0.00000000000E+00 -0.45593999997E+02  0.45594000000E+02  0.51100000000E-03 0.  1.
    9900012    2    1    2    0    0 -0.74876900388E+01  0.64834436752E+01  0.15892714514E+02  0.72461576993E+02  0.70000008726E+02 0.  0.
        -12    1    1    2    0    0  0.74876900388E+01 -0.64834436752E+01 -0.15892714514E+02  0.18726423007E+02  0.00000000000E+00 0.  1.
         11    1    3    3    0    0 -0.12200162355E+02  0.18530730389E+02  0.23328333829E+02  0.32193836207E+02  0.51100000000E-03 0. -1.
        -11    1    3    3    0    0 -0.13440597229E+02 -0.90628724272E+01 -0.13289821438E+02  0.20961981410E+02  0.51100000000E-03 0.  1.
        -12    1    3    3    0    0  0.18153069546E+02 -0.29844142865E+01  0.58542021240E+01  0.19305759376E+02  0.00000000000E+00 0.  1.
</event>
<event>
 7    1  0.1857734E-013  0.7246157E+02  0.7816164E-02  0.1226708E+00
        -11   -1    0    0    0    0  0.00000000000E+00  0.00000000000E+00  0.45593999997E+02  0.45594000000E+02  0.51100000000E-03 0. -1.
         11   -1    0    0    0    0 -0.00000000000E+00 -0.00000000000E+00 -0.45593999997E+02  0.45594000000E+02  0.51100000000E-03 0.  1.
    9900012    2    1    2    0    0 -0.12650509420E+02  0.13803774832E+02 -0.31557575947E+00  0.72461570114E+02  0.69999999765E+02 0.  0.
        -12    1    1    2    0    0  0.12650509420E+02 -0.13803774832E+02  0.31557575947E+00  0.18726429886E+02  0.00000000000E+00 0.  1.
         11    1    3    3    0    0 -0.46819153034E+01  0.98932436406E+01  0.20874320018E+02  0.23569765317E+02  0.51100000000E-03 0. -1.
        -11    1    3    3    0    0  0.65961963007E+01  0.46021607331E+01 -0.30532643231E+02  0.31574229871E+02  0.51100000000E-03 0.  1.
         12    1    3    3    0    0 -0.14564790418E+02 -0.69162954152E+00  0.93427474536E+01  0.17317574926E+02  0.00000000000E+00 0. -1.
</event>
<event>
 7    1  0.1857734E-013  0.7246157E+02  0.7816164E-02  0.1226708E+00
        -11   -1    0    0    0    0  0.00000000000E+00  0.00000000000E+00  0.45593999997E+02  0.45594000000E+02  0.51100000000E-03 0.  1.
         11   -1    0    0    0    0 -0.00000000000E+00 -0.00000000000E+00 -0.45593999997E+02  0.45594000000E+02  0.51100000000E-03 0. -1.
    9900012    2    1    2    0    0 -0.17267463805E+02  0.64957936931E+01  0.32122617744E+01  0.72461567674E+02  0.69999996587E+02 0.  0.
        -12    1    1    2    0    0  0.17267463805E+02 -0.64957936931E+01 -0.32122617744E+01  0.18726432326E+02  0.00000000000E+00 0.  1.
         11    1    3    3    0    0  0.10432160800E+02 -0.23369527658E+02 -0.72957959957E+01  0.26611904129E+02  0.51100000000E-03 0. -1.
        -11    1    3    3    0    0 -0.12252805892E+02  0.99616220392E+01  0.13106121637E+02  0.20521588401E+02  0.51100000000E-03 0.  1.
         12    1    3    3    0    0 -0.15446818713E+02  0.19903699312E+02 -0.25980638674E+01  0.25328075144E+02  0.00000000000E+00 0. -1.
</event>
<event>
 7    1  0.1857734E-013  0.7246156E+02  0.7816164E-02  0.1226708E+00
        -11   -1    0    0    0    0  0.00000000000E+00  0.00000000000E+00  0.45593999997E+02  0.45594000000E+02  0.51100000000E-03 0.  1.
         11   -1    0    0    0    0 -0.00000000000E+00 -0.00000000000E+00 -0.45593999997E+02  0.45594000000E+02  0.51100000000E-03 0. -1.
    9900012    2    1    2    0    0  0.54250930172E+01 -0.71598162648E+00 -0.17909082611E+02  0.72461561367E+02  0.69999988370E+02 0.  0.
        -12    1    1    2    0    0 -0.54250930172E+01  0.71598162648E+00  0.17909082611E+02  0.18726438633E+02  0.00000000000E+00 0.  1.
         11    1    3    3    0    0 -0.10674803855E+02 -0.21980933055E+02 -0.14694681861E+02  0.28513970797E+02  0.51100000000E-03 0. -1.
        -11    1    3    3    0    0  0.21244523885E+02  0.71432143019E+01  0.94205646101E+01  0.24312596396E+02  0.51100000000E-03 0.  1.
        -12    1    3    3    0    0 -0.51446270125E+01  0.14121737127E+02 -0.12634965360E+02  0.19634994174E+02  0.00000000000E+00 0.  1.
</event>
<event>
 7    1  0.1857734E-013  0.7246154E+02  0.7816164E-02  0.1226708E+00
        -11   -1    0    0    0    0  0.00000000000E+00  0.00000000000E+00  0.45593999997E+02  0.45594000000E+02  0.51100000000E-03 0.  1.
         11   -1    0    0    0    0 -0.00000000000E+00 -0.00000000000E+00 -0.45593999997E+02  0.45594000000E+02  0.51100000000E-03 0. -1.
    9900012    2    1    2    0    0  0.89732349135E+01  0.16407759466E+02 -0.97301287231E+00  0.72461540923E+02  0.69999961738E+02 0.  0.
        -12    1    1    2    0    0 -0.89732349135E+01 -0.16407759466E+02  0.97301287231E+00  0.18726459077E+02  0.00000000000E+00 0.  1.
         11    1    3    3    0    0 -0.77744716946E+01 -0.18102558101E+02 -0.83032185616E+01  0.21379627187E+02  0.51100000000E-03 0. -1.
        -11    1    3    3    0    0  0.84549461740E+01  0.28934122860E+02 -0.94160946169E+01  0.31580570270E+02  0.51100000000E-03 0.  1.
        -12    1    3    3    0    0  0.82927604341E+01  0.55761947067E+01  0.16746300306E+02  0.19501343466E+02  0.00000000000E+00 0.  1.
</event>
<event>
 7    1  0.1857734E-013  0.7246163E+02  0.7816164E-02  0.1226708E+00
        -11   -1    0    0    0    0  0.00000000000E+00  0.00000000000E+00  0.45593999997E+02  0.45594000000E+02  0.51100000000E-03 0. -1.
         11   -1    0    0    0    0 -0.00000000000E+00 -0.00000000000E+00 -0.45593999997E+02  0.45594000000E+02  0.51100000000E-03 0.  1.
    9900012    2    1    2    0    0 -0.44690852550E+01  0.51846999215E+01 -0.17430520579E+02  0.72461631320E+02  0.70000079498E+02 0.  0.
        -12    1    1    2    0    0  0.44690852550E+01 -0.51846999215E+01  0.17430520579E+02  0.18726368680E+02  0.00000000000E+00 0.  1.
         11    1    3    3    0    0  0.25634999906E+02  0.22148084877E+02 -0.11482669829E+02  0.35770694578E+02  0.51100000000E-03 0. -1.
        -11    1    3    3    0    0 -0.17904145017E+02 -0.14348610998E+02 -0.17939583885E+00  0.22945004456E+02  0.51100000000E-03 0.  1.
         12    1    3    3    0    0 -0.12199940144E+02 -0.26147739577E+01 -0.57684549104E+01  0.13745932286E+02  0.00000000000E+00 0. -1.
</event>
<event>
 7    1  0.1857734E-013  0.7246156E+02  0.7816164E-02  0.1226708E+00
        -11   -1    0    0    0    0  0.00000000000E+00  0.00000000000E+00  0.45593999997E+02  0.45594000000E+02  0.51100000000E-03 0.  1.
         11   -1    0    0    0    0 -0.00000000000E+00 -0.00000000000E+00 -0.45593999997E+02  0.45594000000E+02  0.51100000000E-03 0. -1.
    9900012    2    1    2    0    0  0.69916512802E+00 -0.13978731895E+02 -0.12441295381E+02  0.72461558586E+02  0.69999984747E+02 0.  0.
        -12    1    1    2    0    0 -0.69916512802E+00  0.13978731895E+02  0.12441295381E+02  0.18726441414E+02  0.00000000000E+00 0.  1.
         11    1    3    3    0    0 -0.18135217845E+02  0.11666784174E+02 -0.10574444172E+02  0.24017053297E+02  0.51100000000E-03 0. -1.
        -11    1    3    3    0    0  0.49613520099E+01 -0.24993236396E+02  0.12569225516E+02  0.28412361916E+02  0.51100000000E-03 0.  1.
         12    1    3    3    0    0  0.13873030964E+02 -0.65227967344E+00 -0.14436076725E+02  0.20032143373E+02  0.00000000000E+00 0. -1.
</event>
<event>
 7    1  0.1857734E-013  0.7246162E+02  0.7816164E-02  0.1226708E+00
        -11   -1    0    0    0    0  0.00000000000E+00  0.00000000000E+00  0.45593999997E+02  0.45594000000E+02  0.51100000000E-03 0.  1.
         11   -1    0    0    0    0 -0.00000000000E+00 -0.00000000000E+00 -0.45593999997E+02  0.45594000000E+02  0.51100000000E-03 0. -1.
    9900012    2    1    2    0    0  0.14442662299E+02  0.77014283333E+01 -0.90980747188E+01  0.72461616039E+02  0.70000059591E+02 0.  0.
        -12    1    1    2    0    0 -0.14442662299E+02 -0.77014283333E+01  0.90980747188E+01  0.18726383961E+02  0.00000000000E+00 0.  1.
         11    1    3    3    0    0  0.97591717246E+01  0.14681136862E+02  0.79440571756E+01  0.19336112768E+02  0.51100000000E-03 0.  1.
        -11    1    3    3    0    0  0.86358881972E+01  0.40335947773E+01 -0.32425718626E+02  0.33797569150E+02  0.51100000000E-03 0. -1.
        -12    1    3    3    0    0 -0.39523976225E+01 -0.11013303306E+02  0.15383586731E+02  0.19327934121E+02  0.00000000000E+00 0.  1.
</event>
<event>
 8    1  0.1857734E-013  0.7246157E+02  0.7816164E-02  0.1226708E+00
        -11   -1    0    0    0    0  0.00000000000E+00  0.00000000000E+00  0.45593999997E+02  0.45594000000E+02  0.51100000000E-03 0.  1.
         11   -1    0    0    0    0 -0.00000000000E+00 -0.00000000000E+00 -0.45593999997E+02  0.45594000000E+02  0.51100000000E-03 0. -1.
    9900012    2    1    2    0    0 -0.68439995811E+00 -0.10606114635E+02 -0.15418205313E+02  0.72461571456E+02  0.70000001513E+02 0.  0.
         24    2    3    3    0    0  0.11052880240E+01  0.76734395111E+01 -0.71808643828E+01  0.52332019332E+02  0.51253995928E+02 0.  0.
        -12    1    1    2    0    0  0.68439995811E+00  0.10606114635E+02  0.15418205313E+02  0.18726428544E+02  0.00000000000E+00 0.  1.
         11    1    3    3    0    0 -0.17896879821E+01 -0.18279554146E+02 -0.82373409298E+01  0.20129552124E+02  0.51100000000E-03 0. -1.
        -11    1    4    4    0    0 -0.20861888016E+02  0.14410830565E+02 -0.13191703066E+02  0.28581662639E+02  0.51100000000E-03 0.  1.
         12    1    4    4    0    0  0.21967176040E+02 -0.67373910543E+01  0.60108386833E+01  0.23750356693E+02  0.00000000000E+00 0. -1.
</event>
<event>
 8    1  0.1857734E-013  0.7246158E+02  0.7816164E-02  0.1226708E+00
        -11   -1    0    0    0    0  0.00000000000E+00  0.00000000000E+00  0.45593999997E+02  0.45594000000E+02  0.51100000000E-03 0. -1.
         11   -1    0    0    0    0 -0.00000000000E+00 -0.00000000000E+00 -0.45593999997E+02  0.45594000000E+02  0.51100000000E-03 0.  1.
    9900012    2    1    2    0    0 -0.17136690132E+02  0.49571337207E+01  0.56955527249E+01  0.72461584320E+02  0.70000018271E+02 0.  0.
         24    2    3    3    0    0 -0.13203565273E+01 -0.46329656593E+00  0.11997958974E+02  0.54593797720E+02  0.53240715105E+02 0.  0.
        -12    1    1    2    0    0  0.17136690132E+02 -0.49571337207E+01 -0.56955527249E+01  0.18726415680E+02  0.00000000000E+00 0.  1.
         11    1    3    3    0    0 -0.15816333604E+02  0.54204302867E+01 -0.63024062494E+01  0.17867786600E+02  0.51100000000E-03 0. -1.
        -11    1    4    4    0    0 -0.13998853820E+01 -0.23159666289E+02 -0.77978539396E+01  0.24477261857E+02  0.51100000000E-03 0.  1.
         12    1    4    4    0    0  0.79528854671E-01  0.22696369723E+02  0.19795812914E+02  0.30116535863E+02  0.00000000000E+00 0. -1.
</event>
<event>
 7    1  0.1857734E-013  0.7246156E+02  0.7816164E-02  0.1226708E+00
        -11   -1    0    0    0    0  0.00000000000E+00  0.00000000000E+00  0.45593999997E+02  0.45594000000E+02  0.51100000000E-03 0. -1.
         11   -1    0    0    0    0 -0.00000000000E+00 -0.00000000000E+00 -0.45593999997E+02  0.45594000000E+02  0.51100000000E-03 0.  1.
    9900012    2    1    2    0    0  0.19356365186E+00  0.18712911839E+02  0.68494524496E+00  0.72461556494E+02  0.69999982023E+02 0.  0.
        -12    1    1    2    0    0 -0.19356365186E+00 -0.18712911839E+02 -0.68494524496E+00  0.18726443506E+02  0.00000000000E+00 0.  1.
         11    1    3    3    0    0 -0.36236124505E+01  0.20308855941E+01  0.15753815976E+02  0.16292261401E+02  0.51100000000E-03 0. -1.
        -11    1    3    3    0    0 -0.53081095055E+01 -0.16321860987E+02 -0.13595215682E+02  0.21895411901E+02  0.51100000000E-03 0.  1.
        -12    1    3    3    0    0  0.91252856078E+01  0.33003887233E+02 -0.14736550495E+01  0.34273883192E+02  0.00000000000E+00 0.  1.
</event>
<event>
 7    1  0.1857734E-013  0.7246156E+02  0.7816164E-02  0.1226708E+00
        -11   -1    0    0    0    0  0.00000000000E+00  0.00000000000E+00  0.45593999997E+02  0.45594000000E+02  0.51100000000E-03 0. -1.
         11   -1    0    0    0    0 -0.00000000000E+00 -0.00000000000E+00 -0.45593999997E+02  0.45594000000E+02  0.51100000000E-03 0.  1.
    9900012    2    1    2    0    0  0.51371908149E+01  0.16204099259E+02  0.78559534362E+01  0.72461559691E+02  0.69999986187E+02 0.  0.
        -12    1    1    2    0    0 -0.51371908149E+01 -0.16204099259E+02 -0.78559534362E+01  0.18726440309E+02  0.00000000000E+00 0.  1.
         11    1    3    3    0    0 -0.12938619739E+02  0.29810064086E+02  0.10096292889E+02  0.34029148269E+02  0.51100000000E-03 0. -1.
        -11    1    3    3    0    0  0.13189547161E+02 -0.17743370833E+02  0.10271009934E+02  0.24377961526E+02  0.51100000000E-03 0.  1.
         12    1    3    3    0    0  0.48862633920E+01  0.41374060053E+01 -0.12511349387E+02  0.14054449895E+02  0.00000000000E+00 0. -1.
</event>
<event>
 7    1  0.1857734E-013  0.7246161E+02  0.7816164E-02  0.1226708E+00
        -11   -1    0    0    0    0  0.00000000000E+00  0.00000000000E+00  0.45593999997E+02  0.45594000000E+02  0.51100000000E-03 0.  1.
         11   -1    0    0    0    0 -0.00000000000E+00 -0.00000000000E+00 -0.45593999997E+02  0.45594000000E+02  0.51100000000E-03 0. -1.
    9900012    2    1    2    0    0 -0.23188054397E+01 -0.80845803311E+01 -0.16731418919E+02  0.72461610150E+02  0.70000051919E+02 0.  0.
        -12    1    1    2    0    0  0.23188054397E+01  0.80845803311E+01  0.16731418919E+02  0.18726389850E+02  0.00000000000E+00 0.  1.
         11    1    3    3    0    0 -0.26222718323E+02 -0.60514412629E+01 -0.29270544555E+01  0.27070621450E+02  0.51100000000E-03 0. -1.
        -11    1    3    3    0    0  0.13205901202E+02  0.18995298200E+01 -0.25674777235E+02  0.28934377934E+02  0.51100000000E-03 0.  1.
        -12    1    3    3    0    0  0.10698011682E+02 -0.39326688882E+01  0.11870412772E+02  0.16456610766E+02  0.00000000000E+00 0.  1.
</event>
<event>
 7    1  0.1857734E-013  0.7246153E+02  0.7816164E-02  0.1226708E+00
        -11   -1    0    0    0    0  0.00000000000E+00  0.00000000000E+00  0.45593999997E+02  0.45594000000E+02  0.51100000000E-03 0. -1.
         11   -1    0    0    0    0 -0.00000000000E+00 -0.00000000000E+00 -0.45593999997E+02  0.45594000000E+02  0.51100000000E-03 0.  1.
    9900012    2    1    2    0    0  0.12386511616E+02 -0.50812269901E+01  0.13093365023E+02  0.72461528219E+02  0.69999945190E+02 0.  0.
        -12    1    1    2    0    0 -0.12386511616E+02  0.50812269901E+01 -0.13093365023E+02  0.18726471781E+02  0.00000000000E+00 0.  1.
         11    1    3    3    0    0 -0.11898178847E+02 -0.19137558785E+02 -0.20648434478E+01  0.22629105039E+02  0.51100000000E-03 0. -1.
        -11    1    3    3    0    0  0.30211899791E+02  0.21890547021E+02  0.95148952731E+01  0.38503092995E+02  0.51100000000E-03 0.  1.
        -12    1    3    3    0    0 -0.59272093286E+01 -0.78342152255E+01  0.56433131975E+01  0.11329330186E+02  0.00000000000E+00 0.  1.
</event>
<event>
 7    1  0.1857734E-013  0.7246156E+02  0.7816164E-02  0.1226708E+00
        -11   -1    0    0    0    0  0.00000000000E+00  0.00000000000E+00  0.45593999997E+02  0.45594000000E+02  0.51100000000E-03 0.  1.
         11   -1    0    0    0    0 -0.00000000000E+00 -0.00000000000E+00 -0.45593999997E+02  0.45594000000E+02  0.51100000000E-03 0. -1.
    9900012    2    1    2    0    0  0.89757494509E+01 -0.53911541169E+01 -0.15525809582E+02  0.72461564565E+02  0.69999992537E+02 0.  0.
        -12    1    1    2    0    0 -0.89757494509E+01  0.53911541169E+01  0.15525809582E+02  0.18726435435E+02  0.00000000000E+00 0.  1.
         11    1    3    3    0    0  0.13677780529E+02 -0.65979818093E+00 -0.15101473683E+02  0.20385571405E+02  0.51100000000E-03 0. -1.
        -11    1    3    3    0    0 -0.11543078036E+02  0.20449520423E+02 -0.81600777726E+01  0.24859855301E+02  0.51100000000E-03 0.  1.
        -12    1    3    3    0    0  0.68410469571E+01 -0.25180876359E+02  0.77357418736E+01  0.27216137860E+02  0.00000000000E+00 0.  1.
</event>
<event>
 7    1  0.1857734E-013  0.7246130E+02  0.7816164E-02  0.1226709E+00
        -11   -1    0    0    0    0  0.00000000000E+00  0.00000000000E+00  0.45593999997E+02  0.45594000000E+02  0.51100000000E-03 0.  1.
         11   -1    0    0    0    0 -0.00000000000E+00 -0.00000000000E+00 -0.45593999997E+02  0.45594000000E+02  0.51100000000E-03 0. -1.
    9900012    2    1    2    0    0  0.11712666980E+02 -0.29308787440E+01 -0.14314769798E+02  0.72461301082E+02  0.69999649300E+02 0.  0.
        -12    1    1    2    0    0 -0.11712666980E+02  0.29308787440E+01  0.14314769798E+02  0.18726698918E+02  0.00000000000E+00 0.  1.
         11    1    3    3    0    0  0.22200405577E+01  0.79248674129E+01  0.17566084497E+02  0.19398438813E+02  0.51100000000E-03 0. -1.
        -11    1    3    3    0    0  0.91804387982E+01 -0.23045827164E+02 -0.76887413092E+01  0.25971279317E+02  0.51100000000E-03 0.  1.
         12    1    3    3    0    0  0.31218762438E+00  0.12190081007E+02 -0.24192112986E+02  0.27091582951E+02  0.00000000000E+00 0. -1.
</event>
<event>
 8    1  0.1857734E-013  0.7246155E+02  0.7816164E-02  0.1226708E+00
        -11   -1    0    0    0    0  0.00000000000E+00  0.00000000000E+00  0.45593999997E+02  0.45594000000E+02  0.51100000000E-03 0.  1.
         11   -1    0    0    0    0 -0.00000000000E+00 -0.00000000000E+00 -0.45593999997E+02  0.45594000000E+02  0.51100000000E-03 0. -1.
    9900012    2    1    2    0    0  0.13417070763E+02 -0.61385833100E+01 -0.11531696563E+02  0.72461547625E+02  0.69999970469E+02 0.  0.
         24    2    3    3    0    0  0.10870509720E+02  0.36130017347E+01  0.64379978367E+01  0.51858433756E+02  0.50166000163E+02 0.  0.
        -12    1    1    2    0    0 -0.13417070763E+02  0.61385833100E+01  0.11531696563E+02  0.18726452375E+02  0.00000000000E+00 0.  1.
         11    1    3    3    0    0  0.25465610428E+01 -0.97515850446E+01 -0.17969694400E+02  0.20603113869E+02  0.51100000000E-03 0. -1.
        -11    1    4    4    0    0  0.24636012732E+02 -0.72184210792E+01  0.17566197856E+02  0.31106430744E+02  0.51100000000E-03 0.  1.
         12    1    4    4    0    0 -0.13765503012E+02  0.10831422814E+02 -0.11128200020E+02  0.20752003012E+02  0.00000000000E+00 0. -1.
</event>
<event>
 7    1  0.1857734E-013  0.7246161E+02  0.7816164E-02  0.1226708E+00
        -11   -1    0    0    0    0  0.00000000000E+00  0.00000000000E+00  0.45593999997E+02  0.45594000000E+02  0.51100000000E-03 0. -1.
         11   -1    0    0    0    0 -0.00000000000E+00 -0.00000000000E+00 -0.45593999997E+02  0.45594000000E+02  0.51100000000E-03 0.  1.
    9900012    2    1    2    0    0 -0.45832103308E+01 -0.16733910027E+02  0.70461415687E+01  0.72461610259E+02  0.70000052061E+02 0.  0.
        -12    1    1    2    0    0  0.45832103308E+01  0.16733910027E+02 -0.70461415687E+01  0.18726389741E+02  0.00000000000E+00 0.  1.
         11    1    3    3    0    0  0.19252957430E+02  0.18179665962E+01 -0.16740506924E+02  0.25577840892E+02  0.51100000000E-03 0.  1.
        -11    1    3    3    0    0 -0.12097055870E+02 -0.22996519245E+02  0.22304412872E+02  0.34244203772E+02  0.51100000000E-03 0. -1.
         12    1    3    3    0    0 -0.11739111890E+02  0.44446426220E+01  0.14822356205E+01  0.12639565596E+02  0.00000000000E+00 0. -1.
</event>
<event>
 7    1  0.1857734E-013  0.7246135E+02  0.7816164E-02  0.1226709E+00
        -11   -1    0    0    0    0  0.00000000000E+00  0.00000000000E+00  0.45593999997E+02  0.45594000000E+02  0.51100000000E-03 0.  1.
         11   -1    0    0    0    0 -0.00000000000E+00 -0.00000000000E+00 -0.45593999997E+02  0.45594000000E+02  0.51100000000E-03 0. -1.
    9900012    2    1    2    0    0  0.56647628259E+01 -0.38718549232E+01 -0.17424308630E+02  0.72461352418E+02  0.69999716176E+02 0.  0.
        -12    1    1    2    0    0 -0.56647628259E+01  0.38718549232E+01  0.17424308630E+02  0.18726647582E+02  0.00000000000E+00 0.  1.
         11    1    3    3    0    0 -0.69687372801E+01 -0.22058708281E+02  0.79706203552E+01  0.24467952498E+02  0.51100000000E-03 0. -1.
        -11    1    3    3    0    0 -0.35935486594E+01  0.18609401959E+02 -0.13752152033E+01  0.19003016875E+02  0.51100000000E-03 0.  1.
        -12    1    3    3    0    0  0.16227048765E+02 -0.42254860133E+00 -0.24019713782E+02  0.28990383045E+02  0.00000000000E+00 0.  1.
</event>
<event>
 7    1  0.1857734E-013  0.7246160E+02  0.7816164E-02  0.1226708E+00
        -11   -1    0    0    0    0  0.00000000000E+00  0.00000000000E+00  0.45593999997E+02  0.45594000000E+02  0.51100000000E-03 0.  1.
         11   -1    0    0    0    0 -0.00000000000E+00 -0.00000000000E+00 -0.45593999997E+02  0.45594000000E+02  0.51100000000E-03 0. -1.
    9900012    2    1    2    0    0 -0.10720411344E+02 -0.80097717850E+01 -0.13099409787E+02  0.72461596175E+02  0.70000033715E+02 0.  0.
        -12    1    1    2    0    0  0.10720411344E+02  0.80097717850E+01  0.13099409787E+02  0.18726403825E+02  0.00000000000E+00 0.  1.
         11    1    3    3    0    0  0.47222527187E+01  0.13956143854E+02  0.21179816025E+02  0.25800353275E+02  0.51100000000E-03 0.  1.
        -11    1    3    3    0    0 -0.16557056689E+02 -0.17412666783E+02 -0.18861290493E+02  0.30546446111E+02  0.51100000000E-03 0. -1.
        -12    1    3    3    0    0  0.11143926266E+01 -0.45532488565E+01 -0.15417935318E+02  0.16114796789E+02  0.00000000000E+00 0.  1.
</event>
<event>
 7    1  0.1857734E-013  0.7246158E+02  0.7816164E-02  0.1226708E+00
        -11   -1    0    0    0    0  0.00000000000E+00  0.00000000000E+00  0.45593999997E+02  0.45594000000E+02  0.51100000000E-03 0. -1.
         11   -1    0    0    0    0 -0.00000000000E+00 -0.00000000000E+00 -0.45593999997E+02  0.45594000000E+02  0.51100000000E-03 0.  1.
    9900012    2    1    2    0    0  0.14717359838E+02 -0.82922986924E+01  0.80818291198E+01  0.72461578555E+02  0.70000010761E+02 0.  0.
        -12    1    1    2    0    0 -0.14717359838E+02  0.82922986924E+01 -0.80818291198E+01  0.18726421445E+02  0.00000000000E+00 0.  1.
         11    1    3    3    0    0  0.22011319374E+02 -0.16367388279E+02  0.29043011148E+02  0.39948542858E+02  0.51100000000E-03 0. -1.
        -11    1    3    3    0    0 -0.95121348792E+01  0.99699773517E+01 -0.27270387716E+01  0.14046988968E+02  0.51100000000E-03 0.  1.
         12    1    3    3    0    0  0.22181753437E+01 -0.18948877655E+01 -0.18234143257E+02  0.18466046729E+02  0.00000000000E+00 0. -1.
</event>
<event>
 7    1  0.1857734E-013  0.7246158E+02  0.7816164E-02  0.1226708E+00
        -11   -1    0    0    0    0  0.00000000000E+00  0.00000000000E+00  0.45593999997E+02  0.45594000000E+02  0.51100000000E-03 0. -1.
         11   -1    0    0    0    0 -0.00000000000E+00 -0.00000000000E+00 -0.45593999997E+02  0.45594000000E+02  0.51100000000E-03 0.  1.
    9900012    2    1    2    0    0 -0.14073350169E+02  0.80353235201E+01  0.93836609673E+01  0.72461582772E+02  0.70000016254E+02 0.  0.
        -12    1    1    2    0    0  0.14073350169E+02 -0.80353235201E+01 -0.93836609673E+01  0.18726417228E+02  0.00000000000E+00 0.  1.
         11    1    3    3    0    0  0.21144445282E+02  0.71465299084E+01 -0.87310227484E+01  0.23966460200E+02  0.51100000000E-03 0. -1.
        -11    1    3    3    0    0 -0.31218005321E+02 -0.32522898886E+01  0.20773045059E+01  0.31455626524E+02  0.51100000000E-03 0.  1.
         12    1    3    3    0    0 -0.39997901305E+01  0.41410835004E+01  0.16037379210E+02  0.17039496048E+02  0.00000000000E+00 0. -1.
</event>
<event>
 7    1  0.1857734E-013  0.7246163E+02  0.7816164E-02  0.1226708E+00
        -11   -1    0    0    0    0  0.00000000000E+00  0.00000000000E+00  0.45593999997E+02  0.45594000000E+02  0.51100000000E-03 0.  1.
         11   -1    0    0    0    0 -0.00000000000E+00 -0.00000000000E+00 -0.45593999997E+02  0.45594000000E+02  0.51100000000E-03 0. -1.
    9900012    2    1    2    0    0  0.15731638605E+02 -0.93754989457E+01 -0.39105830474E+01  0.72461625726E+02  0.70000072210E+02 0.  0.
        -12    1    1    2    0    0 -0.15731638605E+02  0.93754989457E+01  0.39105830474E+01  0.18726374274E+02  0.00000000000E+00 0.  1.
         11    1    3    3    0    0 -0.88069639491E+01  0.68176640926E+01 -0.11530854432E+01  0.11196997990E+02  0.51100000000E-03 0. -1.
        -11    1    3    3    0    0 -0.23356907606E+01 -0.21855468867E+02  0.16701536897E+02  0.27605403560E+02  0.51100000000E-03 0.  1.
        -12    1    3    3    0    0  0.26874293315E+02  0.56623058285E+01 -0.19459034501E+02  0.33659224177E+02  0.00000000000E+00 0.  1.
</event>
<event>
 7    1  0.1857734E-013  0.7246158E+02  0.7816164E-02  0.1226708E+00
        -11   -1    0    0    0    0  0.00000000000E+00  0.00000000000E+00  0.45593999997E+02  0.45594000000E+02  0.51100000000E-03 0.  1.
         11   -1    0    0    0    0 -0.00000000000E+00 -0.00000000000E+00 -0.45593999997E+02  0.45594000000E+02  0.51100000000E-03 0. -1.
    9900012    2    1    2    0    0 -0.39784616753E+01 -0.15758617861E+02 -0.93014269572E+01  0.72461581826E+02  0.70000015022E+02 0.  0.
        -12    1    1    2    0    0  0.39784616753E+01  0.15758617861E+02  0.93014269572E+01  0.18726418174E+02  0.00000000000E+00 0.  1.
         11    1    3    3    0    0  0.10989722085E+02 -0.25949497548E+02 -0.64189696520E+01  0.28902484083E+02  0.51100000000E-03 0. -1.
        -11    1    3    3    0    0 -0.18775383643E+02  0.11804569691E+02  0.13967080031E+02  0.26209582625E+02  0.51100000000E-03 0.  1.
        -12    1    3    3    0    0  0.38071998824E+01 -0.16136900029E+01 -0.16849537337E+02  0.17349515118E+02  0.00000000000E+00 0.  1.
</event>
<event>
 7    1  0.1857734E-013  0.7246154E+02  0.7816164E-02  0.1226708E+00
        -11   -1    0    0    0    0  0.00000000000E+00  0.00000000000E+00  0.45593999997E+02  0.45594000000E+02  0.51100000000E-03 0.  1.
         11   -1    0    0    0    0 -0.00000000000E+00 -0.00000000000E+00 -0.45593999997E+02  0.45594000000E+02  0.51100000000E-03 0. -1.
    9900012    2    1    2    0    0 -0.17370836059E+02  0.66527048826E+01 -0.21623530768E+01  0.72461542821E+02  0.69999964211E+02 0.  0.
        -12    1    1    2    0    0  0.17370836059E+02 -0.66527048826E+01  0.21623530768E+01  0.18726457179E+02  0.00000000000E+00 0.  1.
         11    1    3    3    0    0 -0.31900970117E+02 -0.93532418752E+01 -0.14044550668E+02  0.36088840820E+02  0.51100000000E-03 0.  1.
        -11    1    3    3    0    0  0.12445264833E+02  0.20890858088E+01  0.17196948655E+02  0.21330352543E+02  0.51100000000E-03 0. -1.
         12    1    3    3    0    0  0.20848692244E+01  0.13916860949E+02 -0.53147510638E+01  0.15042349458E+02  0.00000000000E+00 0. -1.
</event>
<event>
 7    1  0.1857734E-013  0.7246162E+02  0.7816164E-02  0.1226708E+00
        -11   -1    0    0    0    0  0.00000000000E+00  0.00000000000E+00  0.45593999997E+02  0.45594000000E+02  0.51100000000E-03 0. -1.
         11   -1    0    0    0    0 -0.00000000000E+00 -0.00000000000E+00 -0.45593999997E+02  0.45594000000E+02  0.51100000000E-03 0.  1.
    9900012    2    1    2    0    0 -0.50505278136E+01  0.18031123519E+02 -0.21964983871E+00  0.72461615068E+02  0.70000058326E+02 0.  0.
        -12    1    1    2    0    0  0.50505278136E+01 -0.18031123519E+02  0.21964983871E+00  0.18726384932E+02  0.00000000000E+00 0.  1.
         11    1    3    3    0    0 -0.11146647960E+02  0.32677747805E+02 -0.26517485319E+01  0.34628236064E+02  0.51100000000E-03 0. -1.
        -11    1    3    3    0    0 -0.38266537468E+01 -0.55314127703E+01  0.16823904800E+02  0.18118597603E+02  0.51100000000E-03 0.  1.
        -12    1    3    3    0    0  0.99227738934E+01 -0.91152115155E+01 -0.14391806106E+02  0.19714781402E+02  0.00000000000E+00 0.  1.
</event>
<event>
 7    1  0.1857734E-013  0.7246160E+02  0.7816164E-02  0.1226708E+00
        -11   -1    0    0    0    0  0.00000000000E+00  0.00000000000E+00  0.45593999997E+02  0.45594000000E+02  0.51100000000E-03 0.  1.
         11   -1    0    0    0    0 -0.00000000000E+00 -0.00000000000E+00 -0.45593999997E+02  0.45594000000E+02  0.51100000000E-03 0. -1.
    9900012    2    1    2    0    0 -0.12483225955E+02 -0.66097554918E+01 -0.12294642972E+02  0.72461600354E+02  0.70000039158E+02 0.  0.
        -12    1    1    2    0    0  0.12483225955E+02  0.66097554918E+01  0.12294642972E+02  0.18726399646E+02  0.00000000000E+00 0.  1.
         11    1    3    3    0    0 -0.27500518195E+02  0.79723224317E+00 -0.16316588506E+02  0.31986640039E+02  0.51100000000E-03 0. -1.
        -11    1    3    3    0    0  0.15150575423E+02  0.69396828765E+01 -0.10790881624E+02  0.19853016409E+02  0.51100000000E-03 0.  1.
        -12    1    3    3    0    0 -0.13328318193E+00 -0.14346670611E+02  0.14812827158E+02  0.20621943906E+02  0.00000000000E+00 0.  1.
</event>
<event>
 7    1  0.1857734E-013  0.7246155E+02  0.7816164E-02  0.1226708E+00
        -11   -1    0    0    0    0  0.00000000000E+00  0.00000000000E+00  0.45593999997E+02  0.45594000000E+02  0.51100000000E-03 0.  1.
         11   -1    0    0    0    0 -0.00000000000E+00 -0.00000000000E+00 -0.45593999997E+02  0.45594000000E+02  0.51100000000E-03 0. -1.
    9900012    2    1    2    0    0  0.79142380633E+01 -0.16497518401E+02  0.39845435580E+01  0.72461551728E+02  0.69999975814E+02 0.  0.
        -12    1    1    2    0    0 -0.79142380633E+01  0.16497518401E+02 -0.39845435580E+01  0.18726448272E+02  0.00000000000E+00 0.  1.
         11    1    3    3    0    0 -0.13492442873E+02 -0.67670758106E+01 -0.28099044000E+02  0.31896639379E+02  0.51100000000E-03 0. -1.
        -11    1    3    3    0    0  0.11108316071E+02 -0.23465799201E+01  0.10125671040E+02  0.15212834631E+02  0.51100000000E-03 0.  1.
         12    1    3    3    0    0  0.10298364866E+02 -0.73838626700E+01  0.21957916517E+02  0.25352077718E+02  0.00000000000E+00 0. -1.
</event>
<event>
 7    1  0.1857734E-013  0.7246157E+02  0.7816164E-02  0.1226708E+00
        -11   -1    0    0    0    0  0.00000000000E+00  0.00000000000E+00  0.45593999997E+02  0.45594000000E+02  0.51100000000E-03 0. -1.
         11   -1    0    0    0    0 -0.00000000000E+00 -0.00000000000E+00 -0.45593999997E+02  0.45594000000E+02  0.51100000000E-03 0.  1.
    9900012    2    1    2    0    0  0.11276171817E+02  0.10312444166E+02  0.10824992228E+02  0.72461574494E+02  0.70000005470E+02 0.  0.
        -12    1    1    2    0    0 -0.11276171817E+02 -0.10312444166E+02 -0.10824992228E+02  0.18726425506E+02  0.00000000000E+00 0.  1.
         11    1    3    3    0    0 -0.11178128144E+02 -0.10153941612E+01  0.44742295161E+01  0.12083058559E+02  0.51100000000E-03 0. -1.
        -11    1    3    3    0    0  0.19498171965E+02  0.32724404626E+02  0.71763365385E+01  0.38762935576E+02  0.51100000000E-03 0.  1.
        -12    1    3    3    0    0  0.29561279956E+01 -0.21396566299E+02 -0.82557382646E+00  0.21615580359E+02  0.00000000000E+00 0.  1.
</event>
<event>
 7    1  0.1857734E-013  0.7246159E+02  0.7816164E-02  0.1226708E+00
        -11   -1    0    0    0    0  0.00000000000E+00  0.00000000000E+00  0.45593999997E+02  0.45594000000E+02  0.51100000000E-03 0.  1.
         11   -1    0    0    0    0 -0.00000000000E+00 -0.00000000000E+00 -0.45593999997E+02  0.45594000000E+02  0.51100000000E-03 0. -1.
    9900012    2    1    2    0    0  0.89271701518E+01 -0.37179648164E+01 -0.16036236284E+02  0.72461588079E+02  0.70000023168E+02 0.  0.
        -12    1    1    2    0    0 -0.89271701518E+01  0.37179648164E+01  0.16036236284E+02  0.18726411921E+02  0.00000000000E+00 0.  1.
         11    1    3    3    0    0  0.14410716768E+02  0.11569448670E+02 -0.11769457550E+02  0.21909838694E+02  0.51100000000E-03 0. -1.
        -11    1    3    3    0    0 -0.20803575256E+02 -0.16602084454E+02 -0.16137693071E+02  0.31126244386E+02  0.51100000000E-03 0.  1.
        -12    1    3    3    0    0  0.15320028639E+02  0.13146709673E+01  0.11870914337E+02  0.19425504999E+02  0.00000000000E+00 0.  1.
</event>
<event>
 7    1  0.1857734E-013  0.7246118E+02  0.7816164E-02  0.1226709E+00
        -11   -1    0    0    0    0  0.00000000000E+00  0.00000000000E+00  0.45593999997E+02  0.45594000000E+02  0.51100000000E-03 0.  1.
         11   -1    0    0    0    0 -0.00000000000E+00 -0.00000000000E+00 -0.45593999997E+02  0.45594000000E+02  0.51100000000E-03 0. -1.
    9900012    2    1    2    0    0 -0.32774341846E+01  0.88510739164E+00 -0.18416534457E+02  0.72461181495E+02  0.69999493515E+02 0.  0.
        -12    1    1    2    0    0  0.32774341846E+01 -0.88510739164E+00  0.18416534457E+02  0.18726818505E+02  0.00000000000E+00 0.  1.
         11    1    3    3    0    0 -0.28067192791E+02 -0.14185518018E+02 -0.17165819143E+02  0.35828223229E+02  0.51100000000E-03 0. -1.
        -11    1    3    3    0    0  0.18838065457E+02  0.20404231157E+02  0.23450567022E+01  0.27869421423E+02  0.51100000000E-03 0.  1.
         12    1    3    3    0    0  0.59516931495E+01 -0.53336057469E+01 -0.35957720158E+01  0.87635368430E+01  0.00000000000E+00 0. -1.
</event>
<event>
 7    1  0.1857734E-013  0.7246150E+02  0.7816164E-02  0.1226708E+00
        -11   -1    0    0    0    0  0.00000000000E+00  0.00000000000E+00  0.45593999997E+02  0.45594000000E+02  0.51100000000E-03 0.  1.
         11   -1    0    0    0    0 -0.00000000000E+00 -0.00000000000E+00 -0.45593999997E+02  0.45594000000E+02  0.51100000000E-03 0. -1.
    9900012    2    1    2    0    0 -0.55214776937E+01 -0.93212148304E+01  0.15274494663E+02  0.72461496081E+02  0.69999903323E+02 0.  0.
        -12    1    1    2    0    0  0.55214776937E+01  0.93212148304E+01 -0.15274494663E+02  0.18726503919E+02  0.00000000000E+00 0.  1.
         11    1    3    3    0    0 -0.82441012749E+01  0.19551958707E+02  0.14528084741E+02  0.25715939446E+02  0.51100000000E-03 0. -1.
        -11    1    3    3    0    0  0.18573165793E+02 -0.13328505876E+02  0.65842914597E+01  0.23790007372E+02  0.51100000000E-03 0.  1.
         12    1    3    3    0    0 -0.15850542212E+02 -0.15544667661E+02 -0.58378815376E+01  0.22955549262E+02  0.00000000000E+00 0. -1.
</event>
<event>
 7    1  0.1857734E-013  0.7246156E+02  0.7816164E-02  0.1226708E+00
        -11   -1    0    0    0    0  0.00000000000E+00  0.00000000000E+00  0.45593999997E+02  0.45594000000E+02  0.51100000000E-03 0. -1.
         11   -1    0    0    0    0 -0.00000000000E+00 -0.00000000000E+00 -0.45593999997E+02  0.45594000000E+02  0.51100000000E-03 0.  1.
    9900012    2    1    2    0    0 -0.15582691744E+02 -0.50226548190E+01 -0.90902170647E+01  0.72461564416E+02  0.69999992342E+02 0.  0.
        -12    1    1    2    0    0  0.15582691744E+02  0.50226548190E+01  0.90902170647E+01  0.18726435584E+02  0.00000000000E+00 0.  1.
         11    1    3    3    0    0 -0.23273203734E+02 -0.20824345999E+02  0.17445459277E+00  0.31230207060E+02  0.51100000000E-03 0. -1.
        -11    1    3    3    0    0  0.11847362921E+02  0.19113646103E+02  0.74519542377E+01  0.23690147694E+02  0.51100000000E-03 0.  1.
        -12    1    3    3    0    0 -0.41568509307E+01 -0.33119549235E+01 -0.16716625895E+02  0.17541209662E+02  0.00000000000E+00 0.  1.
</event>
<event>
 7    1  0.1857734E-013  0.7246156E+02  0.7816164E-02  0.1226708E+00
        -11   -1    0    0    0    0  0.00000000000E+00  0.00000000000E+00  0.45593999997E+02  0.45594000000E+02  0.51100000000E-03 0. -1.
         11   -1    0    0    0    0 -0.00000000000E+00 -0.00000000000E+00 -0.45593999997E+02  0.45594000000E+02  0.51100000000E-03 0.  1.
    9900012    2    1    2    0    0  0.68800197288E+01  0.27593063335E+01  0.17196833938E+02  0.72461560391E+02  0.69999987100E+02 0.  0.
        -12    1    1    2    0    0 -0.68800197288E+01 -0.27593063335E+01 -0.17196833938E+02  0.18726439609E+02  0.00000000000E+00 0.  1.
         11    1    3    3    0    0 -0.14921688913E+02  0.19630245812E+02  0.24186099085E+01  0.24776057491E+02  0.51100000000E-03 0. -1.
        -11    1    3    3    0    0  0.63058453639E+01 -0.11169897866E+02 -0.11117084169E+02  0.16974093931E+02  0.51100000000E-03 0.  1.
         12    1    3    3    0    0  0.15495863278E+02 -0.57010416122E+01  0.25895308199E+02  0.30711408970E+02  0.00000000000E+00 0. -1.
</event>
<event>
 7    1  0.1857734E-013  0.7246160E+02  0.7816164E-02  0.1226708E+00
        -11   -1    0    0    0    0  0.00000000000E+00  0.00000000000E+00  0.45593999997E+02  0.45594000000E+02  0.51100000000E-03 0.  1.
         11   -1    0    0    0    0 -0.00000000000E+00 -0.00000000000E+00 -0.45593999997E+02  0.45594000000E+02  0.51100000000E-03 0. -1.
    9900012    2    1    2    0    0  0.16212232611E+02  0.93190068239E+01  0.99888408148E+00  0.72461597681E+02  0.70000035676E+02 0.  0.
        -12    1    1    2    0    0 -0.16212232611E+02 -0.93190068239E+01 -0.99888408148E+00  0.18726402319E+02  0.00000000000E+00 0.  1.
         11    1    3    3    0    0 -0.55620642682E+01 -0.23026671696E+02  0.80105000785E+01  0.25006644719E+02  0.51100000000E-03 0. -1.
        -11    1    3    3    0    0  0.66066827838E+01  0.27530789336E+02  0.32826463297E+01  0.28502076872E+02  0.51100000000E-03 0.  1.
         12    1    3    3    0    0  0.15167614095E+02  0.48148891844E+01 -0.10294262327E+02  0.18952876089E+02  0.00000000000E+00 0. -1.
</event>
<event>
 7    1  0.1857734E-013  0.7246156E+02  0.7816164E-02  0.1226708E+00
        -11   -1    0    0    0    0  0.00000000000E+00  0.00000000000E+00  0.45593999997E+02  0.45594000000E+02  0.51100000000E-03 0.  1.
         11   -1    0    0    0    0 -0.00000000000E+00 -0.00000000000E+00 -0.45593999997E+02  0.45594000000E+02  0.51100000000E-03 0. -1.
    9900012    2    1    2    0    0  0.84690064822E+01 -0.16116491915E+02  0.43834149166E+01  0.72461555896E+02  0.69999981244E+02 0.  0.
        -12    1    1    2    0    0 -0.84690064822E+01  0.16116491915E+02 -0.43834149166E+01  0.18726444104E+02  0.00000000000E+00 0.  1.
         11    1    3    3    0    0 -0.15888007333E+02 -0.22598505708E+02 -0.24660127366E+01  0.27734499388E+02  0.51100000000E-03 0. -1.
        -11    1    3    3    0    0  0.22603655494E+02 -0.82157167917E+01 -0.63718086832E+01  0.24880176653E+02  0.51100000000E-03 0.  1.
        -12    1    3    3    0    0  0.17533583210E+01  0.14697730585E+02  0.13221236336E+02  0.19846879856E+02  0.00000000000E+00 0.  1.
</event>
<event>
 7    1  0.2491067E-013  0.7246148E+02  0.7816164E-02  0.1226708E+00
        -11   -1    0    0    0    0  0.00000000000E+00  0.00000000000E+00  0.45593999997E+02  0.45594000000E+02  0.51100000000E-03 0. -1.
         11   -1    0    0    0    0 -0.00000000000E+00 -0.00000000000E+00 -0.45593999997E+02  0.45594000000E+02  0.51100000000E-03 0.  1.
    9900012    2    1    2    0    0  0.97732894634E+01 -0.15529027585E+00  0.15973137996E+02  0.72461482987E+02  0.69999886266E+02 0.  0.
        -12    1    1    2    0    0 -0.97732894634E+01  0.15529027585E+00 -0.15973137996E+02  0.18726517013E+02  0.00000000000E+00 0.  1.
         11    1    3    3    0    0 -0.26206494768E+01 -0.44280184407E+01  0.34555952721E+02  0.34936929168E+02  0.51100000000E-03 0. -1.
        -11    1    3    3    0    0  0.15682437765E+02 -0.89828416258E+01 -0.62507139745E+01  0.19123329297E+02  0.51100000000E-03 0.  1.
        -12    1    3    3    0    0 -0.32884988253E+01  0.13255569791E+02 -0.12332100750E+02  0.18401224522E+02  0.00000000000E+00 0.  1.
</event>
<event>
 7    1  0.1857734E-013  0.7246158E+02  0.7816164E-02  0.1226708E+00
        -11   -1    0    0    0    0  0.00000000000E+00  0.00000000000E+00  0.45593999997E+02  0.45594000000E+02  0.51100000000E-03 0.  1.
         11   -1    0    0    0    0 -0.00000000000E+00 -0.00000000000E+00 -0.45593999997E+02  0.45594000000E+02  0.51100000000E-03 0. -1.
    9900012    2    1    2    0    0 -0.98462085836E+01 -0.14730332054E+02 -0.60620495965E+01  0.72461576124E+02  0.70000007594E+02 0.  0.
        -12    1    1    2    0    0  0.98462085836E+01  0.14730332054E+02  0.60620495965E+01  0.18726423876E+02  0.00000000000E+00 0.  1.
         11    1    3    3    0    0 -0.63657726914E+01 -0.84408775109E+01  0.64035098408E+00  0.10591578011E+02  0.51100000000E-03 0. -1.
        -11    1    3    3    0    0  0.54381277520E+01  0.13602423130E+02  0.21628566431E+02  0.26122672806E+02  0.51100000000E-03 0.  1.
        -12    1    3    3    0    0 -0.89185636441E+01 -0.19891877672E+02 -0.28330967011E+02  0.35747325307E+02  0.00000000000E+00 0.  1.
</event>
<event>
 7    1  0.1857734E-013  0.7246154E+02  0.7816164E-02  0.1226708E+00
        -11   -1    0    0    0    0  0.00000000000E+00  0.00000000000E+00  0.45593999997E+02  0.45594000000E+02  0.51100000000E-03 0.  1.
         11   -1    0    0    0    0 -0.00000000000E+00 -0.00000000000E+00 -0.45593999997E+02  0.45594000000E+02  0.51100000000E-03 0. -1.
    9900012    2    1    2    0    0 -0.34539082866E+01 -0.18401830948E+02 -0.35143566453E+00  0.72461538196E+02  0.69999958185E+02 0.  0.
        -12    1    1    2    0    0  0.34539082866E+01  0.18401830948E+02  0.35143566453E+00  0.18726461804E+02  0.00000000000E+00 0.  1.
         11    1    3    3    0    0 -0.90184459005E+01  0.53205750557E+00 -0.21480420527E+02  0.23302873598E+02  0.51100000000E-03 0. -1.
        -11    1    3    3    0    0  0.17609531061E+02 -0.12449921261E+01  0.21418786190E+02  0.27756260405E+02  0.51100000000E-03 0.  1.
         12    1    3    3    0    0 -0.12044993447E+02 -0.17688896327E+02 -0.28980132742E+00  0.21402404193E+02  0.00000000000E+00 0. -1.
</event>
<event>
 7    1  0.1857734E-013  0.7246156E+02  0.7816164E-02  0.1226708E+00
        -11   -1    0    0    0    0  0.00000000000E+00  0.00000000000E+00  0.45593999997E+02  0.45594000000E+02  0.51100000000E-03 0. -1.
         11   -1    0    0    0    0 -0.00000000000E+00 -0.00000000000E+00 -0.45593999997E+02  0.45594000000E+02  0.51100000000E-03 0.  1.
    9900012    2    1    2    0    0 -0.17660345481E+01  0.56518992433E+01  0.17765607546E+02  0.72461557344E+02  0.69999983129E+02 0.  0.
        -12    1    1    2    0    0  0.17660345481E+01 -0.56518992433E+01 -0.17765607546E+02  0.18726442656E+02  0.00000000000E+00 0.  1.
         11    1    3    3    0    0  0.15250130123E+02 -0.16885755984E+02  0.27839642420E+02  0.35954706427E+02  0.51100000000E-03 0. -1.
        -11    1    3    3    0    0 -0.20950539254E+02  0.14254361389E+02 -0.10251238505E+02  0.27334955731E+02  0.51100000000E-03 0.  1.
         12    1    3    3    0    0  0.39343745838E+01  0.82832938386E+01  0.17720363073E+00  0.91718951864E+01  0.00000000000E+00 0. -1.
</event>
<event>
 7    1  0.1857734E-013  0.7246157E+02  0.7816164E-02  0.1226708E+00
        -11   -1    0    0    0    0  0.00000000000E+00  0.00000000000E+00  0.45593999997E+02  0.45594000000E+02  0.51100000000E-03 0.  1.
         11   -1    0    0    0    0 -0.00000000000E+00 -0.00000000000E+00 -0.45593999997E+02  0.45594000000E+02  0.51100000000E-03 0. -1.
    9900012    2    1    2    0    0  0.16345452711E+01  0.15907296909E+02 -0.97450110248E+01  0.72461572870E+02  0.70000003355E+02 0.  0.
        -12    1    1    2    0    0 -0.16345452711E+01 -0.15907296909E+02  0.97450110248E+01  0.18726427130E+02  0.00000000000E+00 0.  1.
         11    1    3    3    0    0 -0.51174274331E+01  0.10558219001E+02 -0.66984899623E+00  0.11752138101E+02  0.51100000000E-03 0. -1.
        -11    1    3    3    0    0  0.98364258156E+00 -0.25473888830E+02  0.55790554174E+01  0.26096214753E+02  0.51100000000E-03 0.  1.
        -12    1    3    3    0    0  0.57683301227E+01  0.30822966737E+02 -0.14654217446E+02  0.34613220016E+02  0.00000000000E+00 0.  1.
</event>
<event>
 7    1  0.1857734E-013  0.7246148E+02  0.7816164E-02  0.1226708E+00
        -11   -1    0    0    0    0  0.00000000000E+00  0.00000000000E+00  0.45593999997E+02  0.45594000000E+02  0.51100000000E-03 0.  1.
         11   -1    0    0    0    0 -0.00000000000E+00 -0.00000000000E+00 -0.45593999997E+02  0.45594000000E+02  0.51100000000E-03 0. -1.
    9900012    2    1    2    0    0 -0.63008175056E+01 -0.54051071150E+00 -0.17626401515E+02  0.72461481813E+02  0.69999884736E+02 0.  0.
        -12    1    1    2    0    0  0.63008175056E+01  0.54051071150E+00  0.17626401515E+02  0.18726518187E+02  0.00000000000E+00 0.  1.
         11    1    3    3    0    0  0.11029014006E+01  0.29649635160E+01 -0.38096816809E+01  0.49518758993E+01  0.51100000000E-03 0. -1.
        -11    1    3    3    0    0 -0.30050725701E+02 -0.20119310120E+02 -0.15557203757E+02  0.39368252995E+02  0.51100000000E-03 0.  1.
        -12    1    3    3    0    0  0.22647006795E+02  0.16613835892E+02  0.17404839233E+01  0.28141352919E+02  0.00000000000E+00 0.  1.
</event>
<event>
 7    1  0.1857734E-013  0.7246159E+02  0.7816164E-02  0.1226708E+00
        -11   -1    0    0    0    0  0.00000000000E+00  0.00000000000E+00  0.45593999997E+02  0.45594000000E+02  0.51100000000E-03 0.  1.
         11   -1    0    0    0    0 -0.00000000000E+00 -0.00000000000E+00 -0.45593999997E+02  0.45594000000E+02  0.51100000000E-03 0. -1.
    9900012    2    1    2    0    0  0.29046069169E+01 -0.11613515773E+02 -0.14400269845E+02  0.72461594537E+02  0.70000031581E+02 0.  0.
        -12    1    1    2    0    0 -0.29046069169E+01  0.11613515773E+02  0.14400269845E+02  0.18726405463E+02  0.00000000000E+00 0.  1.
         11    1    3    3    0    0 -0.14697296267E+02 -0.76643002014E+01 -0.14561710888E+02  0.22063441241E+02  0.51100000000E-03 0. -1.
        -11    1    3    3    0    0  0.11294954843E+02 -0.24202230395E+02  0.78461087445E+01  0.27836763168E+02  0.51100000000E-03 0.  1.
        -12    1    3    3    0    0  0.63069483407E+01  0.20253014824E+02 -0.76846677013E+01  0.22561390128E+02  0.00000000000E+00 0.  1.
</event>
<event>
 7    1  0.1857734E-013  0.7246155E+02  0.7816164E-02  0.1226708E+00
        -11   -1    0    0    0    0  0.00000000000E+00  0.00000000000E+00  0.45593999997E+02  0.45594000000E+02  0.51100000000E-03 0.  1.
         11   -1    0    0    0    0 -0.00000000000E+00 -0.00000000000E+00 -0.45593999997E+02  0.45594000000E+02  0.51100000000E-03 0. -1.
    9900012    2    1    2    0    0 -0.73399866773E+01 -0.12877618104E+02 -0.11444272131E+02  0.72461553005E+02  0.69999977477E+02 0.  0.
        -12    1    1    2    0    0  0.73399866773E+01  0.12877618104E+02  0.11444272131E+02  0.18726446995E+02  0.00000000000E+00 0.  1.
         11    1    3    3    0    0 -0.42936022178E+01 -0.27945663902E+02 -0.18331635504E+02  0.33696350120E+02  0.51100000000E-03 0. -1.
        -11    1    3    3    0    0 -0.99018641523E+01  0.22786553512E+02 -0.22925971882E+01  0.24950549829E+02  0.51100000000E-03 0.  1.
         12    1    3    3    0    0  0.68554796928E+01 -0.77185077141E+01  0.91799605606E+01  0.13814653056E+02  0.00000000000E+00 0. -1.
</event>
<event>
 7    1  0.1857734E-013  0.7246143E+02  0.7816164E-02  0.1226708E+00
        -11   -1    0    0    0    0  0.00000000000E+00  0.00000000000E+00  0.45593999997E+02  0.45594000000E+02  0.51100000000E-03 0. -1.
         11   -1    0    0    0    0 -0.00000000000E+00 -0.00000000000E+00 -0.45593999997E+02  0.45594000000E+02  0.51100000000E-03 0.  1.
    9900012    2    1    2    0    0  0.11687216981E+02 -0.12702355067E+02  0.72624681824E+01  0.72461433067E+02  0.69999821235E+02 0.  0.
        -12    1    1    2    0    0 -0.11687216981E+02  0.12702355067E+02 -0.72624681824E+01  0.18726566933E+02  0.00000000000E+00 0.  1.
         11    1    3    3    0    0 -0.20092696947E+01  0.10270736448E+02 -0.76330412133E+01  0.12953320436E+02  0.51100000000E-03 0.  1.
        -11    1    3    3    0    0 -0.11080129184E+02 -0.24208884114E+02  0.21059742803E+02  0.33946312023E+02  0.51100000000E-03 0. -1.
        -12    1    3    3    0    0  0.24776615860E+02  0.12357925984E+01 -0.61642334070E+01  0.25561800608E+02  0.00000000000E+00 0.  1.
</event>
<event>
 7    1  0.1857734E-013  0.7246156E+02  0.7816164E-02  0.1226708E+00
        -11   -1    0    0    0    0  0.00000000000E+00  0.00000000000E+00  0.45593999997E+02  0.45594000000E+02  0.51100000000E-03 0. -1.
         11   -1    0    0    0    0 -0.00000000000E+00 -0.00000000000E+00 -0.45593999997E+02  0.45594000000E+02  0.51100000000E-03 0.  1.
    9900012    2    1    2    0    0  0.15763184844E+02  0.76236794920E+01 -0.66393609696E+01  0.72461558814E+02  0.69999985044E+02 0.  0.
        -12    1    1    2    0    0 -0.15763184844E+02 -0.76236794920E+01  0.66393609696E+01  0.18726441186E+02  0.00000000000E+00 0.  1.
         11    1    3    3    0    0  0.54891419723E+01 -0.20179962841E+02 -0.22851104873E+01  0.21037664082E+02  0.51100000000E-03 0. -1.
        -11    1    3    3    0    0 -0.87916733981E+01  0.80392980409E+01  0.14008166785E+02  0.18388925229E+02  0.51100000000E-03 0.  1.
         12    1    3    3    0    0  0.19065716270E+02  0.19764344292E+02 -0.18362417267E+02  0.33034969503E+02  0.00000000000E+00 0. -1.
</event>
<event>
 7    1  0.1857734E-013  0.7246154E+02  0.7816164E-02  0.1226708E+00
        -11   -1    0    0    0    0  0.00000000000E+00  0.00000000000E+00  0.45593999997E+02  0.45594000000E+02  0.51100000000E-03 0.  1.
         11   -1    0    0    0    0 -0.00000000000E+00 -0.00000000000E+00 -0.45593999997E+02  0.45594000000E+02  0.51100000000E-03 0. -1.
    9900012    2    1    2    0    0  0.94855154425E+01  0.51498501413E+01  0.15303080977E+02  0.72461541524E+02  0.69999962521E+02 0.  0.
        -12    1    1    2    0    0 -0.94855154425E+01 -0.51498501413E+01 -0.15303080977E+02  0.18726458476E+02  0.00000000000E+00 0.  1.
         11    1    3    3    0    0  0.11581930493E+02  0.14932231584E+02 -0.72496416031E+01  0.20240305275E+02  0.51100000000E-03 0. -1.
        -11    1    3    3    0    0 -0.22729381567E+02 -0.12516649328E+02  0.93882100536E+01  0.27594017197E+02  0.51100000000E-03 0.  1.
        -12    1    3    3    0    0  0.20632966516E+02  0.27342678855E+01  0.13164512526E+02  0.24627219051E+02  0.00000000000E+00 0.  1.
</event>
<event>
 7    1  0.1857734E-013  0.7246151E+02  0.7816164E-02  0.1226708E+00
        -11   -1    0    0    0    0  0.00000000000E+00  0.00000000000E+00  0.45593999997E+02  0.45594000000E+02  0.51100000000E-03 0.  1.
         11   -1    0    0    0    0 -0.00000000000E+00 -0.00000000000E+00 -0.45593999997E+02  0.45594000000E+02  0.51100000000E-03 0. -1.
    9900012    2    1    2    0    0  0.87840609117E+01 -0.15991940197E+02 -0.42165731519E+01  0.72461511634E+02  0.69999923584E+02 0.  0.
        -12    1    1    2    0    0 -0.87840609117E+01  0.15991940197E+02  0.42165731519E+01  0.18726488366E+02  0.00000000000E+00 0.  1.
         11    1    3    3    0    0  0.19297748401E+02  0.71250081629E+01 -0.16217394991E+02  0.26194899031E+02  0.51100000000E-03 0. -1.
        -11    1    3    3    0    0 -0.15298605067E+02 -0.24257580892E+02 -0.45165525348E+01  0.29032340498E+02  0.51100000000E-03 0.  1.
        -12    1    3    3    0    0  0.47849175777E+01  0.11406325313E+01  0.16517374374E+02  0.17234272106E+02  0.00000000000E+00 0.  1.
</event>
<event>
 7    1  0.1857734E-013  0.7246156E+02  0.7816164E-02  0.1226708E+00
        -11   -1    0    0    0    0  0.00000000000E+00  0.00000000000E+00  0.45593999997E+02  0.45594000000E+02  0.51100000000E-03 0.  1.
         11   -1    0    0    0    0 -0.00000000000E+00 -0.00000000000E+00 -0.45593999997E+02  0.45594000000E+02  0.51100000000E-03 0. -1.
    9900012    2    1    2    0    0 -0.10457771575E+01  0.88576956173E+00 -0.18676224002E+02  0.72461559320E+02  0.69999985703E+02 0.  0.
        -12    1    1    2    0    0  0.10457771575E+01 -0.88576956173E+00  0.18676224002E+02  0.18726440680E+02  0.00000000000E+00 0.  1.
         11    1    3    3    0    0 -0.13872944682E+00 -0.20143480805E+02 -0.87652880852E+01  0.21968371361E+02  0.51100000000E-03 0. -1.
        -11    1    3    3    0    0  0.15253078504E+02  0.24137901273E+02  0.41429589233E+01  0.28852361959E+02  0.51100000000E-03 0.  1.
         12    1    3    3    0    0 -0.16160126215E+02 -0.31086509069E+01 -0.14053894840E+02  0.21640825999E+02  0.00000000000E+00 0. -1.
</event>
<event>
 7    1  0.1857734E-013  0.7246140E+02  0.7816164E-02  0.1226708E+00
        -11   -1    0    0    0    0  0.00000000000E+00  0.00000000000E+00  0.45593999997E+02  0.45594000000E+02  0.51100000000E-03 0. -1.
         11   -1    0    0    0    0 -0.00000000000E+00 -0.00000000000E+00 -0.45593999997E+02  0.45594000000E+02  0.51100000000E-03 0.  1.
    9900012    2    1    2    0    0 -0.16777731148E+02  0.73131107834E+01 -0.39638049093E+01  0.72461398569E+02  0.69999776296E+02 0.  0.
        -12    1    1    2    0    0  0.16777731148E+02 -0.73131107834E+01  0.39638049093E+01  0.18726601431E+02  0.00000000000E+00 0.  1.
         11    1    3    3    0    0  0.14260382069E+02  0.30148879050E+02 -0.27370854143E+01  0.33463488185E+02  0.51100000000E-03 0.  1.
        -11    1    3    3    0    0 -0.25493256577E+02 -0.17081665569E+02  0.99759823597E+00  0.30703169739E+02  0.51100000000E-03 0. -1.
        -12    1    3    3    0    0 -0.55448566393E+01 -0.57541026970E+01 -0.22243177310E+01  0.82947406449E+01  0.00000000000E+00 0.  1.
</event>
<event>
 7    1  0.1857734E-013  0.7246159E+02  0.7816164E-02  0.1226708E+00
        -11   -1    0    0    0    0  0.00000000000E+00  0.00000000000E+00  0.45593999997E+02  0.45594000000E+02  0.51100000000E-03 0.  1.
         11   -1    0    0    0    0 -0.00000000000E+00 -0.00000000000E+00 -0.45593999997E+02  0.45594000000E+02  0.51100000000E-03 0. -1.
    9900012    2    1    2    0    0  0.24658234441E+01  0.14454453363E+02 -0.11647620678E+02  0.72461586175E+02  0.70000020688E+02 0.  0.
        -12    1    1    2    0    0 -0.24658234441E+01 -0.14454453363E+02  0.11647620678E+02  0.18726413825E+02  0.00000000000E+00 0.  1.
         11    1    3    3    0    0 -0.26210666468E+02  0.13337267016E+02 -0.15889721715E+02  0.33427009806E+02  0.51100000000E-03 0.  1.
        -11    1    3    3    0    0  0.30187065386E+02 -0.20949794118E+01  0.10341041547E+02  0.31977882918E+02  0.51100000000E-03 0. -1.
        -12    1    3    3    0    0 -0.15105754739E+01  0.32121657589E+01 -0.60989405096E+01  0.70566934512E+01  0.00000000000E+00 0.  1.
</event>
<event>
 7    1  0.1857734E-013  0.7246146E+02  0.7816164E-02  0.1226708E+00
        -11   -1    0    0    0    0  0.00000000000E+00  0.00000000000E+00  0.45593999997E+02  0.45594000000E+02  0.51100000000E-03 0. -1.
         11   -1    0    0    0    0 -0.00000000000E+00 -0.00000000000E+00 -0.45593999997E+02  0.45594000000E+02  0.51100000000E-03 0.  1.
    9900012    2    1    2    0    0  0.82722206504E+00 -0.12857358977E+02  0.13589976223E+02  0.72461456540E+02  0.69999851814E+02 0.  0.
        -12    1    1    2    0    0 -0.82722206504E+00  0.12857358977E+02 -0.13589976223E+02  0.18726543460E+02  0.00000000000E+00 0.  1.
         11    1    3    3    0    0 -0.25899761706E+01 -0.48341094758E+01  0.26035370946E+02  0.26606712152E+02  0.51100000000E-03 0. -1.
        -11    1    3    3    0    0  0.36223303595E+01 -0.18692262625E+02 -0.23663219110E+02  0.30372189553E+02  0.51100000000E-03 0.  1.
        -12    1    3    3    0    0 -0.20513212390E+00  0.10669013125E+02  0.11217824388E+02  0.15482554835E+02  0.00000000000E+00 0.  1.
</event>
<event>
 7    1  0.1857734E-013  0.7246160E+02  0.7816164E-02  0.1226708E+00
        -11   -1    0    0    0    0  0.00000000000E+00  0.00000000000E+00  0.45593999997E+02  0.45594000000E+02  0.51100000000E-03 0.  1.
         11   -1    0    0    0    0 -0.00000000000E+00 -0.00000000000E+00 -0.45593999997E+02  0.45594000000E+02  0.51100000000E-03 0. -1.
    9900012    2    1    2    0    0 -0.48585037063E+01  0.98517991353E+01 -0.15166252547E+02  0.72461595626E+02  0.70000032999E+02 0.  0.
        -12    1    1    2    0    0  0.48585037063E+01 -0.98517991353E+01  0.15166252547E+02  0.18726404374E+02  0.00000000000E+00 0.  1.
         11    1    3    3    0    0 -0.25020258138E+02 -0.10707567543E+02 -0.13696125907E+02  0.30467182100E+02  0.51100000000E-03 0.  1.
        -11    1    3    3    0    0  0.21664558332E+02  0.31699649251E+00 -0.47972024595E+00  0.21672187390E+02  0.51100000000E-03 0. -1.
         12    1    3    3    0    0 -0.15028038999E+01  0.20242370186E+02 -0.99040639377E+00  0.20322226136E+02  0.00000000000E+00 0. -1.
</event>
<event>
 7    1  0.1857734E-013  0.7246155E+02  0.7816164E-02  0.1226708E+00
        -11   -1    0    0    0    0  0.00000000000E+00  0.00000000000E+00  0.45593999997E+02  0.45594000000E+02  0.51100000000E-03 0.  1.
         11   -1    0    0    0    0 -0.00000000000E+00 -0.00000000000E+00 -0.45593999997E+02  0.45594000000E+02  0.51100000000E-03 0. -1.
    9900012    2    1    2    0    0 -0.46810737891E+01  0.11730435299E+02 -0.13826216377E+02  0.72461552835E+02  0.69999977256E+02 0.  0.
        -12    1    1    2    0    0  0.46810737891E+01 -0.11730435299E+02  0.13826216377E+02  0.18726447165E+02  0.00000000000E+00 0.  1.
         11    1    3    3    0    0  0.98555101843E+01  0.30671772767E+02 -0.59172618598E+01  0.32755193692E+02  0.51100000000E-03 0. -1.
        -11    1    3    3    0    0 -0.11631114628E+02 -0.22788909058E+02  0.48729229610E+01  0.26045394641E+02  0.51100000000E-03 0.  1.
        -12    1    3    3    0    0 -0.29054693456E+01  0.38475715909E+01 -0.12781877478E+02  0.13660964502E+02  0.00000000000E+00 0.  1.
</event>
<event>
 7    1  0.1857734E-013  0.7246154E+02  0.7816164E-02  0.1226708E+00
        -11   -1    0    0    0    0  0.00000000000E+00  0.00000000000E+00  0.45593999997E+02  0.45594000000E+02  0.51100000000E-03 0. -1.
         11   -1    0    0    0    0 -0.00000000000E+00 -0.00000000000E+00 -0.45593999997E+02  0.45594000000E+02  0.51100000000E-03 0.  1.
    9900012    2    1    2    0    0  0.52576785634E+01 -0.17812399314E+02 -0.23990400423E+01  0.72461544214E+02  0.69999966025E+02 0.  0.
        -12    1    1    2    0    0 -0.52576785634E+01  0.17812399314E+02  0.23990400423E+01  0.18726455786E+02  0.00000000000E+00 0.  1.
         11    1    3    3    0    0  0.18280571101E+02 -0.11336548182E+02  0.12711498185E+02  0.24985571653E+02  0.51100000000E-03 0. -1.
        -11    1    3    3    0    0 -0.27232035631E+02 -0.51357009725E+01 -0.14973207848E+01  0.27752498246E+02  0.51100000000E-03 0.  1.
        -12    1    3    3    0    0  0.14209143094E+02 -0.13401501586E+01 -0.13613217442E+02  0.19723474315E+02  0.00000000000E+00 0.  1.
</event>
<event>
 7    1  0.1857734E-013  0.7246113E+02  0.7816164E-02  0.1226709E+00
        -11   -1    0    0    0    0  0.00000000000E+00  0.00000000000E+00  0.45593999997E+02  0.45594000000E+02  0.51100000000E-03 0. -1.
         11   -1    0    0    0    0 -0.00000000000E+00 -0.00000000000E+00 -0.45593999997E+02  0.45594000000E+02  0.51100000000E-03 0.  1.
    9900012    2    1    2    0    0  0.17947133560E+01 -0.18257578864E+02  0.37596941186E+01  0.72461134756E+02  0.69999432628E+02 0.  0.
        -12    1    1    2    0    0 -0.17947133560E+01  0.18257578864E+02 -0.37596941186E+01  0.18726865244E+02  0.00000000000E+00 0.  1.
         11    1    3    3    0    0  0.90372961098E+01  0.11435818558E+02  0.19634692493E+02  0.24453462263E+02  0.51100000000E-03 0. -1.
        -11    1    3    3    0    0 -0.14580895877E+02 -0.10342441093E+00 -0.28584629404E+01  0.14858803176E+02  0.51100000000E-03 0.  1.
         12    1    3    3    0    0  0.73383131229E+01 -0.29589973011E+02 -0.13016535434E+02  0.33148869317E+02  0.00000000000E+00 0. -1.
</event>
<event>
 7    1  0.1857734E-013  0.7246154E+02  0.7816164E-02  0.1226708E+00
        -11   -1    0    0    0    0  0.00000000000E+00  0.00000000000E+00  0.45593999997E+02  0.45594000000E+02  0.51100000000E-03 0.  1.
         11   -1    0    0    0    0 -0.00000000000E+00 -0.00000000000E+00 -0.45593999997E+02  0.45594000000E+02  0.51100000000E-03 0. -1.
    9900012    2    1    2    0    0  0.18488828457E+02  0.29429938500E+01 -0.42707054392E+00  0.72461537981E+02  0.69999957906E+02 0.  0.
        -12    1    1    2    0    0 -0.18488828457E+02 -0.29429938500E+01  0.42707054392E+00  0.18726462019E+02  0.00000000000E+00 0.  1.
         11    1    3    3    0    0  0.18889366181E+02  0.13894552548E+02  0.22970411173E+02  0.32825394666E+02  0.51100000000E-03 0. -1.
        -11    1    3    3    0    0 -0.42869507471E+01 -0.19628478445E+02 -0.81795860317E+01  0.21692412053E+02  0.51100000000E-03 0.  1.
        -12    1    3    3    0    0  0.38864130231E+01  0.86769197476E+01 -0.15217895686E+02  0.17943731262E+02  0.00000000000E+00 0.  1.
</event>
<event>
 7    1  0.1857734E-013  0.7246157E+02  0.7816164E-02  0.1226708E+00
        -11   -1    0    0    0    0  0.00000000000E+00  0.00000000000E+00  0.45593999997E+02  0.45594000000E+02  0.51100000000E-03 0. -1.
         11   -1    0    0    0    0 -0.00000000000E+00 -0.00000000000E+00 -0.45593999997E+02  0.45594000000E+02  0.51100000000E-03 0.  1.
    9900012    2    1    2    0    0 -0.49522978976E+01  0.10239359291E+02  0.14876466869E+02  0.72461574829E+02  0.70000005908E+02 0.  0.
        -12    1    1    2    0    0  0.49522978976E+01 -0.10239359291E+02 -0.14876466869E+02  0.18726425171E+02  0.00000000000E+00 0.  1.
         11    1    3    3    0    0  0.20960598113E+02  0.14722495274E+02  0.35097511249E+01  0.25853759757E+02  0.51100000000E-03 0. -1.
        -11    1    3    3    0    0 -0.68020275077E+01 -0.46811178759E+01  0.22860472658E+02  0.24306000354E+02  0.51100000000E-03 0.  1.
         12    1    3    3    0    0 -0.19110868503E+02  0.19798189259E+00 -0.11493756913E+02  0.22301814719E+02  0.00000000000E+00 0. -1.
</event>
<event>
 7    1  0.1857734E-013  0.7246151E+02  0.7816164E-02  0.1226708E+00
        -11   -1    0    0    0    0  0.00000000000E+00  0.00000000000E+00  0.45593999997E+02  0.45594000000E+02  0.51100000000E-03 0. -1.
         11   -1    0    0    0    0 -0.00000000000E+00 -0.00000000000E+00 -0.45593999997E+02  0.45594000000E+02  0.51100000000E-03 0.  1.
    9900012    2    1    2    0    0 -0.99166496024E+01 -0.59654752512E+01  0.14722586567E+02  0.72461511020E+02  0.69999922784E+02 0.  0.
        -12    1    1    2    0    0  0.99166496024E+01  0.59654752512E+01 -0.14722586567E+02  0.18726488980E+02  0.00000000000E+00 0.  1.
         11    1    3    3    0    0  0.10219637500E+02 -0.63961253998E+01  0.40654194739E+01  0.12723169673E+02  0.51100000000E-03 0. -1.
        -11    1    3    3    0    0 -0.30272089628E+02  0.20107117028E+02  0.95587981918E+01  0.37577469164E+02  0.51100000000E-03 0.  1.
        -12    1    3    3    0    0  0.10135802525E+02 -0.19676466879E+02  0.10983689008E+01  0.22160872183E+02  0.00000000000E+00 0.  1.
</event>
<event>
 7    1  0.1857734E-013  0.7246153E+02  0.7816164E-02  0.1226708E+00
        -11   -1    0    0    0    0  0.00000000000E+00  0.00000000000E+00  0.45593999997E+02  0.45594000000E+02  0.51100000000E-03 0. -1.
         11   -1    0    0    0    0 -0.00000000000E+00 -0.00000000000E+00 -0.45593999997E+02  0.45594000000E+02  0.51100000000E-03 0.  1.
    9900012    2    1    2    0    0  0.13419810070E+02  0.10274144461E+02  0.80641909043E+01  0.72461534192E+02  0.69999952970E+02 0.  0.
        -12    1    1    2    0    0 -0.13419810070E+02 -0.10274144461E+02 -0.80641909043E+01  0.18726465808E+02  0.00000000000E+00 0.  1.
         11    1    3    3    0    0 -0.46184854764E+01 -0.93895078470E+01  0.28235098691E+02  0.30111693145E+02  0.51100000000E-03 0. -1.
        -11    1    3    3    0    0  0.11698801802E+02  0.10939534079E+02 -0.25660419397E+02  0.30248842843E+02  0.51100000000E-03 0.  1.
        -12    1    3    3    0    0  0.63394937443E+01  0.87241182284E+01  0.54895116097E+01  0.12100998203E+02  0.00000000000E+00 0.  1.
</event>
<event>
 7    1  0.1857734E-013  0.7246155E+02  0.7816164E-02  0.1226708E+00
        -11   -1    0    0    0    0  0.00000000000E+00  0.00000000000E+00  0.45593999997E+02  0.45594000000E+02  0.51100000000E-03 0.  1.
         11   -1    0    0    0    0 -0.00000000000E+00 -0.00000000000E+00 -0.45593999997E+02  0.45594000000E+02  0.51100000000E-03 0. -1.
    9900012    2    1    2    0    0 -0.27080581102E+01 -0.27842794435E+01 -0.18319229351E+02  0.72461549328E+02  0.69999972687E+02 0.  0.
        -12    1    1    2    0    0  0.27080581102E+01  0.27842794435E+01  0.18319229351E+02  0.18726450672E+02  0.00000000000E+00 0.  1.
         11    1    3    3    0    0  0.17237410976E+02 -0.87191651234E+01 -0.21723102340E+02  0.29069663795E+02  0.51100000000E-03 0. -1.
        -11    1    3    3    0    0 -0.21835235727E+02  0.19660986662E+02  0.16955721463E+01  0.29431392780E+02  0.51100000000E-03 0.  1.
        -12    1    3    3    0    0  0.18897666408E+01 -0.13726100982E+02  0.17083008427E+01  0.13960492753E+02  0.00000000000E+00 0.  1.
</event>
<event>
 7    1  0.1857734E-013  0.7246155E+02  0.7816164E-02  0.1226708E+00
        -11   -1    0    0    0    0  0.00000000000E+00  0.00000000000E+00  0.45593999997E+02  0.45594000000E+02  0.51100000000E-03 0. -1.
         11   -1    0    0    0    0 -0.00000000000E+00 -0.00000000000E+00 -0.45593999997E+02  0.45594000000E+02  0.51100000000E-03 0.  1.
    9900012    2    1    2    0    0 -0.70987996863E+01 -0.11568189920E+02  0.12902088013E+02  0.72461552123E+02  0.69999976328E+02 0.  0.
        -12    1    1    2    0    0  0.70987996863E+01  0.11568189920E+02 -0.12902088013E+02  0.18726447877E+02  0.00000000000E+00 0.  1.
         11    1    3    3    0    0 -0.17342890765E+02 -0.25764260701E+02  0.29209121303E+02  0.42635029695E+02  0.51100000000E-03 0. -1.
        -11    1    3    3    0    0  0.29364508609E+01  0.56754754076E+01 -0.17411665560E+02  0.18547233287E+02  0.51100000000E-03 0.  1.
        -12    1    3    3    0    0  0.73076402176E+01  0.85205953732E+01  0.11046322701E+01  0.11279289141E+02  0.00000000000E+00 0.  1.
</event>
<event>
 7    1  0.1857734E-013  0.7246166E+02  0.7816164E-02  0.1226708E+00
        -11   -1    0    0    0    0  0.00000000000E+00  0.00000000000E+00  0.45593999997E+02  0.45594000000E+02  0.51100000000E-03 0.  1.
         11   -1    0    0    0    0 -0.00000000000E+00 -0.00000000000E+00 -0.45593999997E+02  0.45594000000E+02  0.51100000000E-03 0. -1.
    9900012    2    1    2    0    0 -0.51754929998E+01  0.15935084777E+02 -0.83643959917E+01  0.72461660930E+02  0.70000118070E+02 0.  0.
        -12    1    1    2    0    0  0.51754929998E+01 -0.15935084777E+02  0.83643959917E+01  0.18726339070E+02  0.00000000000E+00 0.  1.
         11    1    3    3    0    0 -0.13353403143E+02  0.23709080550E+02 -0.28333905461E+02  0.39284145338E+02  0.51100000000E-03 0. -1.
        -11    1    3    3    0    0  0.42569518594E+01  0.80377983321E+01  0.11956279668E+02  0.15022665041E+02  0.51100000000E-03 0.  1.
         12    1    3    3    0    0  0.39209582833E+01 -0.15811794105E+02  0.80132298016E+01  0.18154850551E+02  0.00000000000E+00 0. -1.
</event>
<event>
 7    1  0.1857734E-013  0.7246158E+02  0.7816164E-02  0.1226708E+00
        -11   -1    0    0    0    0  0.00000000000E+00  0.00000000000E+00  0.45593999997E+02  0.45594000000E+02  0.51100000000E-03 0.  1.
         11   -1    0    0    0    0 -0.00000000000E+00 -0.00000000000E+00 -0.45593999997E+02  0.45594000000E+02  0.51100000000E-03 0. -1.
    9900012    2    1    2    0    0 -0.14363011267E+00  0.60242191405E+01 -0.17730399203E+02  0.72461577444E+02  0.70000009314E+02 0.  0.
        -12    1    1    2    0    0  0.14363011267E+00 -0.60242191405E+01  0.17730399203E+02  0.18726422556E+02  0.00000000000E+00 0.  1.
         11    1    3    3    0    0  0.15031296523E+02 -0.39442725657E+01 -0.28146462087E+02  0.32151523907E+02  0.51100000000E-03 0. -1.
        -11    1    3    3    0    0 -0.19050813005E+02  0.88193736858E+01  0.20563734725E+02  0.29386765975E+02  0.51100000000E-03 0.  1.
        -12    1    3    3    0    0  0.38758863695E+01  0.11491180205E+01 -0.10147671841E+02  0.10923287562E+02  0.00000000000E+00 0.  1.
</event>
<event>
 7    1  0.1857734E-013  0.7246154E+02  0.7816164E-02  0.1226708E+00
        -11   -1    0    0    0    0  0.00000000000E+00  0.00000000000E+00  0.45593999997E+02  0.45594000000E+02  0.51100000000E-03 0. -1.
         11   -1    0    0    0    0 -0.00000000000E+00 -0.00000000000E+00 -0.45593999997E+02  0.45594000000E+02  0.51100000000E-03 0.  1.
    9900012    2    1    2    0    0 -0.15734549938E+02  0.99256650628E+01 -0.21413364567E+01  0.72461542500E+02  0.69999963793E+02 0.  0.
        -12    1    1    2    0    0  0.15734549938E+02 -0.99256650628E+01  0.21413364567E+01  0.18726457500E+02  0.00000000000E+00 0.  1.
         11    1    3    3    0    0 -0.12698435271E+02 -0.55836300754E+01  0.27249526653E+02  0.30577179174E+02  0.51100000000E-03 0. -1.
        -11    1    3    3    0    0  0.66037134498E+01  0.67104736594E+01 -0.27027630047E+02  0.28620486968E+02  0.51100000000E-03 0.  1.
         12    1    3    3    0    0 -0.96398281164E+01  0.87988214789E+01 -0.23632330624E+01  0.13263876358E+02  0.00000000000E+00 0. -1.
</event>
<event>
 7    1  0.1857734E-013  0.7246156E+02  0.7816164E-02  0.1226708E+00
        -11   -1    0    0    0    0  0.00000000000E+00  0.00000000000E+00  0.45593999997E+02  0.45594000000E+02  0.51100000000E-03 0.  1.
         11   -1    0    0    0    0 -0.00000000000E+00 -0.00000000000E+00 -0.45593999997E+02  0.45594000000E+02  0.51100000000E-03 0. -1.
    9900012    2    1    2    0    0 -0.11469270867E+02  0.50095611029E+01 -0.13929817917E+02  0.72461556027E+02  0.69999981414E+02 0.  0.
        -12    1    1    2    0    0  0.11469270867E+02 -0.50095611029E+01  0.13929817917E+02  0.18726443973E+02  0.00000000000E+00 0.  1.
         11    1    3    3    0    0  0.62261206437E+01  0.22642176463E+02 -0.26326371801E+02  0.35277621600E+02  0.51100000000E-03 0. -1.
        -11    1    3    3    0    0 -0.24020284819E+01 -0.16820399722E+02  0.13682283426E+02  0.21815143082E+02  0.51100000000E-03 0.  1.
        -12    1    3    3    0    0 -0.15293363029E+02 -0.81221563803E+00 -0.12857295420E+01  0.15368791346E+02  0.00000000000E+00 0.  1.
</event>
<event>
 7    1  0.1857734E-013  0.7246165E+02  0.7816164E-02  0.1226708E+00
        -11   -1    0    0    0    0  0.00000000000E+00  0.00000000000E+00  0.45593999997E+02  0.45594000000E+02  0.51100000000E-03 0.  1.
         11   -1    0    0    0    0 -0.00000000000E+00 -0.00000000000E+00 -0.45593999997E+02  0.45594000000E+02  0.51100000000E-03 0. -1.
    9900012    2    1    2    0    0  0.11019134366E+02 -0.12471271348E+02 -0.85861615784E+01  0.72461652201E+02  0.70000106699E+02 0.  0.
        -12    1    1    2    0    0 -0.11019134366E+02  0.12471271348E+02  0.85861615784E+01  0.18726347799E+02  0.00000000000E+00 0.  1.
         11    1    3    3    0    0 -0.11697822944E+02 -0.18661181792E+02 -0.56916325011E+01  0.22748042735E+02  0.51100000000E-03 0. -1.
        -11    1    3    3    0    0  0.30901185431E+02  0.90105758758E+01 -0.14443743599E+02  0.35280241894E+02  0.51100000000E-03 0.  1.
        -12    1    3    3    0    0 -0.81842281202E+01 -0.28206654326E+01  0.11549214522E+02  0.14433367572E+02  0.00000000000E+00 0.  1.
</event>
<event>
 7    1  0.1857734E-013  0.7246158E+02  0.7816164E-02  0.1226708E+00
        -11   -1    0    0    0    0  0.00000000000E+00  0.00000000000E+00  0.45593999997E+02  0.45594000000E+02  0.51100000000E-03 0.  1.
         11   -1    0    0    0    0 -0.00000000000E+00 -0.00000000000E+00 -0.45593999997E+02  0.45594000000E+02  0.51100000000E-03 0. -1.
    9900012    2    1    2    0    0  0.16632381205E+02  0.74983009760E+01 -0.42211639463E+01  0.72461578902E+02  0.70000011213E+02 0.  0.
        -12    1    1    2    0    0 -0.16632381205E+02 -0.74983009760E+01  0.42211639463E+01  0.18726421098E+02  0.00000000000E+00 0.  1.
         11    1    3    3    0    0  0.29079348116E+02 -0.29959938427E+01 -0.11180645759E+02  0.31298423376E+02  0.51100000000E-03 0. -1.
        -11    1    3    3    0    0 -0.21314111585E+02  0.10126933355E+02 -0.70066448488E+01  0.24615832388E+02  0.51100000000E-03 0.  1.
        -12    1    3    3    0    0  0.88671446741E+01  0.36736146398E+00  0.13966126662E+02  0.16547323138E+02  0.00000000000E+00 0.  1.
</event>
<event>
 7    1  0.1857734E-013  0.7246155E+02  0.7816164E-02  0.1226708E+00
        -11   -1    0    0    0    0  0.00000000000E+00  0.00000000000E+00  0.45593999997E+02  0.45594000000E+02  0.51100000000E-03 0.  1.
         11   -1    0    0    0    0 -0.00000000000E+00 -0.00000000000E+00 -0.45593999997E+02  0.45594000000E+02  0.51100000000E-03 0. -1.
    9900012    2    1    2    0    0 -0.18197501857E+02  0.44189815737E+01 -0.57935954355E-01  0.72461552698E+02  0.69999977077E+02 0.  0.
        -12    1    1    2    0    0  0.18197501857E+02 -0.44189815737E+01  0.57935954355E-01  0.18726447302E+02  0.00000000000E+00 0.  1.
         11    1    3    3    0    0 -0.24824996926E+02  0.12100733965E+02  0.13404852002E+02  0.30698506353E+02  0.51100000000E-03 0. -1.
        -11    1    3    3    0    0  0.13638233833E+02 -0.13258904412E+02 -0.22210336694E+02  0.29242076270E+02  0.51100000000E-03 0.  1.
        -12    1    3    3    0    0 -0.70107387636E+01  0.55771520215E+01  0.87475487374E+01  0.12520970074E+02  0.00000000000E+00 0.  1.
</event>
<event>
 7    1  0.1857734E-013  0.7246157E+02  0.7816164E-02  0.1226708E+00
        -11   -1    0    0    0    0  0.00000000000E+00  0.00000000000E+00  0.45593999997E+02  0.45594000000E+02  0.51100000000E-03 0.  1.
         11   -1    0    0    0    0 -0.00000000000E+00 -0.00000000000E+00 -0.45593999997E+02  0.45594000000E+02  0.51100000000E-03 0. -1.
    9900012    2    1    2    0    0 -0.81385116657E+01 -0.80552868172E+01 -0.14817430487E+02  0.72461567770E+02  0.69999996711E+02 0.  0.
        -12    1    1    2    0    0  0.81385116657E+01  0.80552868172E+01  0.14817430487E+02  0.18726432230E+02  0.00000000000E+00 0.  1.
         11    1    3    3    0    0  0.99283900460E+01 -0.22714975975E+02  0.87294661659E+01  0.26282059323E+02  0.51100000000E-03 0. -1.
        -11    1    3    3    0    0 -0.25304127644E+02  0.18121614905E+02 -0.21714995662E+02  0.37950399727E+02  0.51100000000E-03 0.  1.
        -12    1    3    3    0    0  0.72372259322E+01 -0.34619257474E+01 -0.18319009912E+01  0.82291087194E+01  0.00000000000E+00 0.  1.
</event>
<event>
 7    1  0.1857734E-013  0.7246160E+02  0.7816164E-02  0.1226708E+00
        -11   -1    0    0    0    0  0.00000000000E+00  0.00000000000E+00  0.45593999997E+02  0.45594000000E+02  0.51100000000E-03 0.  1.
         11   -1    0    0    0    0 -0.00000000000E+00 -0.00000000000E+00 -0.45593999997E+02  0.45594000000E+02  0.51100000000E-03 0. -1.
    9900012    2    1    2    0    0 -0.52132494013E+01 -0.17472476383E+02  0.42676264734E+01  0.72461600560E+02  0.70000039427E+02 0.  0.
        -12    1    1    2    0    0  0.52132494013E+01  0.17472476383E+02 -0.42676264734E+01  0.18726399440E+02  0.00000000000E+00 0.  1.
         11    1    3    3    0    0 -0.63818193913E+01  0.59777034665E+01 -0.99261844100E+01  0.13228367045E+02  0.51100000000E-03 0. -1.
        -11    1    3    3    0    0 -0.11673517310E+02 -0.31560614662E+02 -0.57771702298E+01  0.34142628785E+02  0.51100000000E-03 0.  1.
        -12    1    3    3    0    0  0.12842087300E+02  0.81104348131E+01  0.19970981113E+02  0.25090604730E+02  0.00000000000E+00 0.  1.
</event>
<event>
 7    1  0.1857734E-013  0.7246156E+02  0.7816164E-02  0.1226708E+00
        -11   -1    0    0    0    0  0.00000000000E+00  0.00000000000E+00  0.45593999997E+02  0.45594000000E+02  0.51100000000E-03 0.  1.
         11   -1    0    0    0    0 -0.00000000000E+00 -0.00000000000E+00 -0.45593999997E+02  0.45594000000E+02  0.51100000000E-03 0. -1.
    9900012    2    1    2    0    0  0.96327130071E+01  0.93354399674E+01  0.13066752962E+02  0.72461557940E+02  0.69999983906E+02 0.  0.
        -12    1    1    2    0    0 -0.96327130071E+01 -0.93354399674E+01 -0.13066752962E+02  0.18726442060E+02  0.00000000000E+00 0.  1.
         11    1    3    3    0    0  0.39750171612E+01  0.23375153568E+02  0.11043940801E+01  0.23736433016E+02  0.51100000000E-03 0. -1.
        -11    1    3    3    0    0 -0.16284080026E+02 -0.16822580920E+02 -0.34168539063E+00  0.23415534165E+02  0.51100000000E-03 0.  1.
        -12    1    3    3    0    0  0.21941775872E+02  0.27828673190E+01  0.12304044273E+02  0.25309590759E+02  0.00000000000E+00 0.  1.
</event>
<event>
 7    1  0.1857734E-013  0.7246153E+02  0.7816164E-02  0.1226708E+00
        -11   -1    0    0    0    0  0.00000000000E+00  0.00000000000E+00  0.45593999997E+02  0.45594000000E+02  0.51100000000E-03 0.  1.
         11   -1    0    0    0    0 -0.00000000000E+00 -0.00000000000E+00 -0.45593999997E+02  0.45594000000E+02  0.51100000000E-03 0. -1.
    9900012    2    1    2    0    0 -0.13403588717E+02 -0.79050937481E+01 -0.10417956673E+02  0.72461534266E+02  0.69999953066E+02 0.  0.
        -12    1    1    2    0    0  0.13403588717E+02  0.79050937481E+01  0.10417956673E+02  0.18726465734E+02  0.00000000000E+00 0.  1.
         11    1    3    3    0    0  0.27456379223E+01 -0.23583846630E+02  0.84739530689E+01  0.25210002585E+02  0.51100000000E-03 0. -1.
        -11    1    3    3    0    0 -0.10652050752E+02  0.15657352467E+02  0.74441727704E+01  0.20347839689E+02  0.51100000000E-03 0.  1.
         12    1    3    3    0    0 -0.54971758876E+01  0.21400414908E-01 -0.26336082512E+02  0.26903691992E+02  0.00000000000E+00 0. -1.
</event>
<event>
 7    1  0.1857734E-013  0.7246176E+02  0.7816164E-02  0.1226708E+00
        -11   -1    0    0    0    0  0.00000000000E+00  0.00000000000E+00  0.45593999997E+02  0.45594000000E+02  0.51100000000E-03 0.  1.
         11   -1    0    0    0    0 -0.00000000000E+00 -0.00000000000E+00 -0.45593999997E+02  0.45594000000E+02  0.51100000000E-03 0. -1.
    9900012    2    1    2    0    0 -0.16884599974E+02  0.22021124413E+01 -0.77931380275E+01  0.72461761301E+02  0.70000248822E+02 0.  0.
        -12    1    1    2    0    0  0.16884599974E+02 -0.22021124413E+01  0.77931380275E+01  0.18726238699E+02  0.00000000000E+00 0.  1.
         11    1    3    3    0    0  0.29647856197E+01  0.12984275306E+02 -0.15672253085E+02  0.20566985098E+02  0.51100000000E-03 0. -1.
        -11    1    3    3    0    0 -0.12391187250E+02 -0.25236110456E+02 -0.79318263424E+01  0.29211584376E+02  0.51100000000E-03 0.  1.
         12    1    3    3    0    0 -0.74581983438E+01  0.14453947591E+02  0.15810941400E+02  0.22683191827E+02  0.00000000000E+00 0. -1.
</event>
<event>
 7    1  0.1857734E-013  0.7246154E+02  0.7816164E-02  0.1226708E+00
        -11   -1    0    0    0    0  0.00000000000E+00  0.00000000000E+00  0.45593999997E+02  0.45594000000E+02  0.51100000000E-03 0. -1.
         11   -1    0    0    0    0 -0.00000000000E+00 -0.00000000000E+00 -0.45593999997E+02  0.45594000000E+02  0.51100000000E-03 0.  1.
    9900012    2    1    2    0    0  0.18244310311E+02 -0.21355624973E+01  0.36421041282E+01  0.72461537217E+02  0.69999956910E+02 0.  0.
        -12    1    1    2    0    0 -0.18244310311E+02  0.21355624973E+01 -0.36421041282E+01  0.18726462783E+02  0.00000000000E+00 0.  1.
         11    1    3    3    0    0  0.33430749010E+02  0.93213595746E+01 -0.15078249466E+02  0.37839877523E+02  0.51100000000E-03 0. -1.
        -11    1    3    3    0    0 -0.10908553462E+02 -0.80415565024E+00 -0.18224604849E+01  0.11088938967E+02  0.51100000000E-03 0.  1.
         12    1    3    3    0    0 -0.42778852380E+01 -0.10652766422E+02  0.20542814079E+02  0.23532720727E+02  0.00000000000E+00 0. -1.
</event>
<event>
 7    1  0.1857734E-013  0.7246106E+02  0.7816164E-02  0.1226709E+00
        -11   -1    0    0    0    0  0.00000000000E+00  0.00000000000E+00  0.45593999997E+02  0.45594000000E+02  0.51100000000E-03 0.  1.
         11   -1    0    0    0    0 -0.00000000000E+00 -0.00000000000E+00 -0.45593999997E+02  0.45594000000E+02  0.51100000000E-03 0. -1.
    9900012    2    1    2    0    0 -0.16257777725E+02  0.15213861186E+01 -0.91688682395E+01  0.72461064931E+02  0.69999341668E+02 0.  0.
        -12    1    1    2    0    0  0.16257777725E+02 -0.15213861186E+01  0.91688682395E+01  0.18726935069E+02  0.00000000000E+00 0.  1.
         11    1    3    3    0    0 -0.31034224527E+02  0.13055170494E+02 -0.23566728536E+02  0.41096852225E+02  0.51100000000E-03 0. -1.
        -11    1    3    3    0    0  0.15652917991E+02 -0.14850526344E+02  0.61571902001E+01  0.22437980430E+02  0.51100000000E-03 0.  1.
         12    1    3    3    0    0 -0.87647118907E+00  0.33167419684E+01  0.82406700963E+01  0.89262322772E+01  0.00000000000E+00 0. -1.
</event>
<event>
 7    1  0.1857734E-013  0.7246156E+02  0.7816164E-02  0.1226708E+00
        -11   -1    0    0    0    0  0.00000000000E+00  0.00000000000E+00  0.45593999997E+02  0.45594000000E+02  0.51100000000E-03 0.  1.
         11   -1    0    0    0    0 -0.00000000000E+00 -0.00000000000E+00 -0.45593999997E+02  0.45594000000E+02  0.51100000000E-03 0. -1.
    9900012    2    1    2    0    0  0.38195756227E+01 -0.78559202948E+01 -0.16564263165E+02  0.72461562650E+02  0.69999990042E+02 0.  0.
        -12    1    1    2    0    0 -0.38195756227E+01  0.78559202948E+01  0.16564263165E+02  0.18726437350E+02  0.00000000000E+00 0.  1.
         11    1    3    3    0    0  0.86065012628E+01 -0.21626069171E+02  0.15428357730E+02  0.27924773128E+02  0.51100000000E-03 0.  1.
        -11    1    3    3    0    0  0.41130894460E+01  0.81980608518E+01 -0.32749023857E+02  0.34009179208E+02  0.51100000000E-03 0. -1.
        -12    1    3    3    0    0 -0.89000150861E+01  0.55720880242E+01  0.75640296210E+00  0.10527610314E+02  0.00000000000E+00 0.  1.
</event>
<event>
 7    1  0.1857734E-013  0.7246146E+02  0.7816164E-02  0.1226708E+00
        -11   -1    0    0    0    0  0.00000000000E+00  0.00000000000E+00  0.45593999997E+02  0.45594000000E+02  0.51100000000E-03 0.  1.
         11   -1    0    0    0    0 -0.00000000000E+00 -0.00000000000E+00 -0.45593999997E+02  0.45594000000E+02  0.51100000000E-03 0. -1.
    9900012    2    1    2    0    0 -0.14691698423E+02  0.13823378468E+01 -0.11529375674E+02  0.72461458304E+02  0.69999854111E+02 0.  0.
        -12    1    1    2    0    0  0.14691698423E+02 -0.13823378468E+01  0.11529375674E+02  0.18726541696E+02  0.00000000000E+00 0.  1.
         11    1    3    3    0    0 -0.22867231703E+02  0.12600091330E+02 -0.72103724036E+01  0.27086196812E+02  0.51100000000E-03 0. -1.
        -11    1    3    3    0    0  0.81405607322E+01 -0.16079848819E+02 -0.21189708991E+02  0.27817872573E+02  0.51100000000E-03 0.  1.
         12    1    3    3    0    0  0.34972548391E-01  0.48620953355E+01  0.16870705720E+02  0.17557388919E+02  0.00000000000E+00 0. -1.
</event>
<event>
 7    1  0.1857734E-013  0.7246159E+02  0.7816164E-02  0.1226708E+00
        -11   -1    0    0    0    0  0.00000000000E+00  0.00000000000E+00  0.45593999997E+02  0.45594000000E+02  0.51100000000E-03 0. -1.
         11   -1    0    0    0    0 -0.00000000000E+00 -0.00000000000E+00 -0.45593999997E+02  0.45594000000E+02  0.51100000000E-03 0.  1.
    9900012    2    1    2    0    0  0.11414998328E+02  0.12791906237E+02  0.75328111562E+01  0.72461593620E+02  0.70000030386E+02 0.  0.
        -12    1    1    2    0    0 -0.11414998328E+02 -0.12791906237E+02 -0.75328111562E+01  0.18726406380E+02  0.00000000000E+00 0.  1.
         11    1    3    3    0    0 -0.12331938270E+02  0.29777497790E+01  0.17112564801E+02  0.21302196356E+02  0.51100000000E-03 0. -1.
        -11    1    3    3    0    0  0.14220428213E+02  0.18976684726E+01 -0.26533005372E+02  0.30163257425E+02  0.51100000000E-03 0.  1.
         12    1    3    3    0    0  0.95265083846E+01  0.79164879854E+01  0.16953251727E+02  0.20996139839E+02  0.00000000000E+00 0. -1.
</event>
<event>
 7    1  0.1857734E-013  0.7246190E+02  0.7816164E-02  0.1226707E+00
        -11   -1    0    0    0    0  0.00000000000E+00  0.00000000000E+00  0.45593999997E+02  0.45594000000E+02  0.51100000000E-03 0.  1.
         11   -1    0    0    0    0 -0.00000000000E+00 -0.00000000000E+00 -0.45593999997E+02  0.45594000000E+02  0.51100000000E-03 0. -1.
    9900012    2    1    2    0    0 -0.14548566402E+02 -0.22432972352E+01 -0.11574695510E+02  0.72461902089E+02  0.70000432222E+02 0.  0.
        -12    1    1    2    0    0  0.14548566402E+02  0.22432972352E+01  0.11574695510E+02  0.18726097911E+02  0.00000000000E+00 0.  1.
         11    1    3    3    0    0 -0.33830330920E+02 -0.19352253727E+02  0.44789917717E+01  0.39230885563E+02  0.51100000000E-03 0. -1.
        -11    1    3    3    0    0  0.54465483702E+00  0.72816274242E+01 -0.12493468426E+01  0.74080776610E+01  0.51100000000E-03 0.  1.
         12    1    3    3    0    0  0.18737109681E+02  0.98273290674E+01 -0.14804340439E+02  0.25822938865E+02  0.00000000000E+00 0. -1.
</event>
<event>
 7    1  0.1857734E-013  0.7246163E+02  0.7816164E-02  0.1226708E+00
        -11   -1    0    0    0    0  0.00000000000E+00  0.00000000000E+00  0.45593999997E+02  0.45594000000E+02  0.51100000000E-03 0.  1.
         11   -1    0    0    0    0 -0.00000000000E+00 -0.00000000000E+00 -0.45593999997E+02  0.45594000000E+02  0.51100000000E-03 0. -1.
    9900012    2    1    2    0    0 -0.11976442237E+02  0.47316694187E+01 -0.13596074845E+02  0.72461625142E+02  0.70000071449E+02 0.  0.
        -12    1    1    2    0    0  0.11976442237E+02 -0.47316694187E+01  0.13596074845E+02  0.18726374858E+02  0.00000000000E+00 0.  1.
         11    1    3    3    0    0 -0.19909885889E+02  0.22315221187E+01 -0.21017001109E+02  0.29036142701E+02  0.51100000000E-03 0. -1.
        -11    1    3    3    0    0 -0.31637897609E+00 -0.14063538152E+02  0.17421307803E+02  0.22391631626E+02  0.51100000000E-03 0.  1.
        -12    1    3    3    0    0  0.82498226287E+01  0.16563685452E+02 -0.10000381540E+02  0.21033850815E+02  0.00000000000E+00 0.  1.
</event>
<event>
 7    1  0.1857734E-013  0.7246171E+02  0.7816164E-02  0.1226708E+00
        -11   -1    0    0    0    0  0.00000000000E+00  0.00000000000E+00  0.45593999997E+02  0.45594000000E+02  0.51100000000E-03 0.  1.
         11   -1    0    0    0    0 -0.00000000000E+00 -0.00000000000E+00 -0.45593999997E+02  0.45594000000E+02  0.51100000000E-03 0. -1.
    9900012    2    1    2    0    0  0.11022965783E+00 -0.18606288273E+02 -0.21137598646E+01  0.72461705795E+02  0.70000176515E+02 0.  0.
        -12    1    1    2    0    0 -0.11022965783E+00  0.18606288273E+02  0.21137598646E+01  0.18726294205E+02  0.00000000000E+00 0.  1.
         11    1    3    3    0    0 -0.19364236442E+02 -0.29084973825E+02 -0.13780598878E+02  0.37560807514E+02  0.51100000000E-03 0. -1.
        -11    1    3    3    0    0  0.10577724564E+01  0.29754684795E+01  0.14476473398E+02  0.14816901753E+02  0.51100000000E-03 0.  1.
         12    1    3    3    0    0  0.18416693643E+02  0.75032170722E+01 -0.28096343849E+01  0.20083996529E+02  0.00000000000E+00 0. -1.
</event>
<event>
 7    1  0.1857734E-013  0.7246155E+02  0.7816164E-02  0.1226708E+00
        -11   -1    0    0    0    0  0.00000000000E+00  0.00000000000E+00  0.45593999997E+02  0.45594000000E+02  0.51100000000E-03 0. -1.
         11   -1    0    0    0    0 -0.00000000000E+00 -0.00000000000E+00 -0.45593999997E+02  0.45594000000E+02  0.51100000000E-03 0.  1.
    9900012    2    1    2    0    0  0.21596973998E+01  0.18035681903E+02  0.45530047603E+01  0.72461549004E+02  0.69999972265E+02 0.  0.
        -12    1    1    2    0    0 -0.21596973998E+01 -0.18035681903E+02 -0.45530047603E+01  0.18726450996E+02  0.00000000000E+00 0.  1.
         11    1    3    3    0    0  0.14970178537E+02 -0.21104393217E+01 -0.22780689750E+02  0.27340812448E+02  0.51100000000E-03 0.  1.
        -11    1    3    3    0    0 -0.20171932593E+02  0.18684788160E+02  0.16921725255E+02  0.32285801198E+02  0.51100000000E-03 0. -1.
         12    1    3    3    0    0  0.73614514556E+01  0.14613330643E+01  0.10411969256E+02  0.12834935358E+02  0.00000000000E+00 0. -1.
</event>
<event>
 7    1  0.1857734E-013  0.7246156E+02  0.7816164E-02  0.1226708E+00
        -11   -1    0    0    0    0  0.00000000000E+00  0.00000000000E+00  0.45593999997E+02  0.45594000000E+02  0.51100000000E-03 0.  1.
         11   -1    0    0    0    0 -0.00000000000E+00 -0.00000000000E+00 -0.45593999997E+02  0.45594000000E+02  0.51100000000E-03 0. -1.
    9900012    2    1    2    0    0 -0.14253316684E+02 -0.11428278512E+02  0.41130354292E+01  0.72461557554E+02  0.69999983404E+02 0.  0.
        -12    1    1    2    0    0  0.14253316684E+02  0.11428278512E+02 -0.41130354292E+01  0.18726442446E+02  0.00000000000E+00 0.  1.
         11    1    3    3    0    0 -0.84177641747E+01  0.24280746176E+02  0.18152189546E+02  0.31462920623E+02  0.51100000000E-03 0. -1.
        -11    1    3    3    0    0  0.34005929344E+01 -0.19377506260E+02 -0.58322730239E+01  0.20519921785E+02  0.51100000000E-03 0.  1.
         12    1    3    3    0    0 -0.92361454432E+01 -0.16331518427E+02 -0.82068810928E+01  0.20478715147E+02  0.00000000000E+00 0. -1.
</event>
<event>
 7    1  0.1857734E-013  0.7246163E+02  0.7816164E-02  0.1226708E+00
        -11   -1    0    0    0    0  0.00000000000E+00  0.00000000000E+00  0.45593999997E+02  0.45594000000E+02  0.51100000000E-03 0. -1.
         11   -1    0    0    0    0 -0.00000000000E+00 -0.00000000000E+00 -0.45593999997E+02  0.45594000000E+02  0.51100000000E-03 0.  1.
    9900012    2    1    2    0    0 -0.95784885146E+01  0.14161779464E+02  0.76402506753E+01  0.72461631687E+02  0.70000079975E+02 0.  0.
        -12    1    1    2    0    0  0.95784885146E+01 -0.14161779464E+02 -0.76402506753E+01  0.18726368313E+02  0.00000000000E+00 0.  1.
         11    1    3    3    0    0 -0.21379907325E+02 -0.16876164929E+02 -0.14005704755E+02  0.30627849188E+02  0.51100000000E-03 0.  1.
        -11    1    3    3    0    0  0.57220427602E+01  0.26925128898E+02  0.12851194518E+02  0.30378570412E+02  0.51100000000E-03 0. -1.
        -12    1    3    3    0    0  0.60793760499E+01  0.41128154958E+01  0.87947609119E+01  0.11455212087E+02  0.00000000000E+00 0.  1.
</event>
<event>
 7    1  0.1857734E-013  0.7246153E+02  0.7816164E-02  0.1226708E+00
        -11   -1    0    0    0    0  0.00000000000E+00  0.00000000000E+00  0.45593999997E+02  0.45594000000E+02  0.51100000000E-03 0.  1.
         11   -1    0    0    0    0 -0.00000000000E+00 -0.00000000000E+00 -0.45593999997E+02  0.45594000000E+02  0.51100000000E-03 0. -1.
    9900012    2    1    2    0    0  0.84383247639E+01  0.15167205591E+02 -0.70307315224E+01  0.72461531139E+02  0.69999948993E+02 0.  0.
        -12    1    1    2    0    0 -0.84383247639E+01 -0.15167205591E+02  0.70307315224E+01  0.18726468861E+02  0.00000000000E+00 0.  1.
         11    1    3    3    0    0  0.35763879193E+01 -0.90713187567E+01 -0.27666771777E+02  0.29334785415E+02  0.51100000000E-03 0.  1.
        -11    1    3    3    0    0  0.40234176714E+01  0.30817602775E+02  0.15449926214E+02  0.34707531616E+02  0.51100000000E-03 0. -1.
        -12    1    3    3    0    0  0.83851917324E+00 -0.65790784279E+01  0.51861140405E+01  0.84192141085E+01  0.00000000000E+00 0.  1.
</event>
<event>
 7    1  0.1857734E-013  0.7246155E+02  0.7816164E-02  0.1226708E+00
        -11   -1    0    0    0    0  0.00000000000E+00  0.00000000000E+00  0.45593999997E+02  0.45594000000E+02  0.51100000000E-03 0. -1.
         11   -1    0    0    0    0 -0.00000000000E+00 -0.00000000000E+00 -0.45593999997E+02  0.45594000000E+02  0.51100000000E-03 0.  1.
    9900012    2    1    2    0    0  0.12413762690E+02  0.37640414021E+01 -0.13505942834E+02  0.72461548023E+02  0.69999970987E+02 0.  0.
        -12    1    1    2    0    0 -0.12413762690E+02 -0.37640414021E+01  0.13505942834E+02  0.18726451977E+02  0.00000000000E+00 0.  1.
         11    1    3    3    0    0 -0.64555639260E+00  0.15265858740E+02  0.75210895739E+01  0.17030266432E+02  0.51100000000E-03 0. -1.
        -11    1    3    3    0    0  0.16770424428E+02 -0.13648271964E+02 -0.34820085416E+02  0.40987325013E+02  0.51100000000E-03 0.  1.
        -12    1    3    3    0    0 -0.37111053451E+01  0.21464546262E+01  0.13793053008E+02  0.14443956578E+02  0.00000000000E+00 0.  1.
</event>
<event>
 7    1  0.1857734E-013  0.7246157E+02  0.7816164E-02  0.1226708E+00
        -11   -1    0    0    0    0  0.00000000000E+00  0.00000000000E+00  0.45593999997E+02  0.45594000000E+02  0.51100000000E-03 0.  1.
         11   -1    0    0    0    0 -0.00000000000E+00 -0.00000000000E+00 -0.45593999997E+02  0.45594000000E+02  0.51100000000E-03 0. -1.
    9900012    2    1    2    0    0 -0.82689556423E+01 -0.16748079316E+02  0.13436267473E+01  0.72461571589E+02  0.70000001686E+02 0.  0.
        -12    1    1    2    0    0  0.82689556423E+01  0.16748079316E+02 -0.13436267473E+01  0.18726428411E+02  0.00000000000E+00 0.  1.
         11    1    3    3    0    0  0.50207516195E+01 -0.31239415274E+02  0.76609054881E+01  0.32554546328E+02  0.51100000000E-03 0. -1.
        -11    1    3    3    0    0 -0.15908255277E+02 -0.25372002378E+01 -0.13715407453E+02  0.21157088005E+02  0.51100000000E-03 0.  1.
        -12    1    3    3    0    0  0.26185480147E+01  0.17028536195E+02  0.73981287118E+01  0.18749937256E+02  0.00000000000E+00 0.  1.
</event>
<event>
 7    1  0.1857734E-013  0.7246151E+02  0.7816164E-02  0.1226708E+00
        -11   -1    0    0    0    0  0.00000000000E+00  0.00000000000E+00  0.45593999997E+02  0.45594000000E+02  0.51100000000E-03 0. -1.
         11   -1    0    0    0    0 -0.00000000000E+00 -0.00000000000E+00 -0.45593999997E+02  0.45594000000E+02  0.51100000000E-03 0.  1.
    9900012    2    1    2    0    0  0.82071907486E+01  0.16817313703E+02  0.70817640599E+00  0.72461507162E+02  0.69999917759E+02 0.  0.
        -12    1    1    2    0    0 -0.82071907486E+01 -0.16817313703E+02 -0.70817640599E+00  0.18726492838E+02  0.00000000000E+00 0.  1.
         11    1    3    3    0    0 -0.17186925263E+01 -0.22427111243E+01  0.65649059083E+01  0.71471425782E+01  0.51100000000E-03 0. -1.
        -11    1    3    3    0    0 -0.66650750157E+01  0.38725184490E+02 -0.44714070186E+01  0.39548155706E+02  0.51100000000E-03 0.  1.
        -12    1    3    3    0    0  0.16590958291E+02 -0.19665159663E+02 -0.13853224837E+01  0.25766208878E+02  0.00000000000E+00 0.  1.
</event>
<event>
 7    1  0.1857734E-013  0.7246157E+02  0.7816164E-02  0.1226708E+00
        -11   -1    0    0    0    0  0.00000000000E+00  0.00000000000E+00  0.45593999997E+02  0.45594000000E+02  0.51100000000E-03 0.  1.
         11   -1    0    0    0    0 -0.00000000000E+00 -0.00000000000E+00 -0.45593999997E+02  0.45594000000E+02  0.51100000000E-03 0. -1.
    9900012    2    1    2    0    0 -0.12337658356E+02 -0.14075428535E+02  0.58610572664E+00  0.72461574231E+02  0.70000005128E+02 0.  0.
        -12    1    1    2    0    0  0.12337658356E+02  0.14075428535E+02 -0.58610572664E+00  0.18726425769E+02  0.00000000000E+00 0.  1.
         11    1    3    3    0    0  0.15948797880E+02 -0.18229238024E+02 -0.17782181763E+02  0.30047882808E+02  0.51100000000E-03 0. -1.
        -11    1    3    3    0    0 -0.33139562454E+02  0.35786960962E+01  0.16349856752E+02  0.37126210168E+02  0.51100000000E-03 0.  1.
        -12    1    3    3    0    0  0.48531062174E+01  0.57511339319E+00  0.20184307374E+01  0.52874812543E+01  0.00000000000E+00 0.  1.
</event>
<event>
 7    1  0.1857734E-013  0.7246155E+02  0.7816164E-02  0.1226708E+00
        -11   -1    0    0    0    0  0.00000000000E+00  0.00000000000E+00  0.45593999997E+02  0.45594000000E+02  0.51100000000E-03 0.  1.
         11   -1    0    0    0    0 -0.00000000000E+00 -0.00000000000E+00 -0.45593999997E+02  0.45594000000E+02  0.51100000000E-03 0. -1.
    9900012    2    1    2    0    0 -0.16980337353E+01 -0.18449984704E+02  0.27193472881E+01  0.72461545348E+02  0.69999967503E+02 0.  0.
        -12    1    1    2    0    0  0.16980337353E+01  0.18449984704E+02 -0.27193472881E+01  0.18726454652E+02  0.00000000000E+00 0.  1.
         11    1    3    3    0    0 -0.20219911709E+02 -0.10139698137E+02 -0.11267006849E+02  0.25270610428E+02  0.51100000000E-03 0. -1.
        -11    1    3    3    0    0  0.20993296135E+02 -0.11675297882E+02 -0.76073794143E+01  0.25197287256E+02  0.51100000000E-03 0.  1.
        -12    1    3    3    0    0 -0.24714181616E+01  0.33650113147E+01  0.21593733551E+02  0.21993647664E+02  0.00000000000E+00 0.  1.
</event>
<event>
 7    1  0.1857734E-013  0.7246167E+02  0.7816164E-02  0.1226708E+00
        -11   -1    0    0    0    0  0.00000000000E+00  0.00000000000E+00  0.45593999997E+02  0.45594000000E+02  0.51100000000E-03 0. -1.
         11   -1    0    0    0    0 -0.00000000000E+00 -0.00000000000E+00 -0.45593999997E+02  0.45594000000E+02  0.51100000000E-03 0.  1.
    9900012    2    1    2    0    0  0.84407435354E+01 -0.94453280521E+01  0.13791847997E+02  0.72461669750E+02  0.70000129560E+02 0.  0.
        -12    1    1    2    0    0 -0.84407435354E+01  0.94453280521E+01 -0.13791847997E+02  0.18726330250E+02  0.00000000000E+00 0.  1.
         11    1    3    3    0    0  0.14741436900E+02 -0.63455593842E+00  0.19288391828E+02  0.24284865301E+02  0.51100000000E-03 0. -1.
        -11    1    3    3    0    0  0.13387676538E+02  0.61043641104E+01 -0.15641589614E+02  0.21474460882E+02  0.51100000000E-03 0.  1.
        -12    1    3    3    0    0 -0.19688369903E+02 -0.14915136224E+02  0.10145045783E+02  0.26702343567E+02  0.00000000000E+00 0.  1.
</event>
<event>
 7    1  0.1857734E-013  0.7246159E+02  0.7816164E-02  0.1226708E+00
        -11   -1    0    0    0    0  0.00000000000E+00  0.00000000000E+00  0.45593999997E+02  0.45594000000E+02  0.51100000000E-03 0. -1.
         11   -1    0    0    0    0 -0.00000000000E+00 -0.00000000000E+00 -0.45593999997E+02  0.45594000000E+02  0.51100000000E-03 0.  1.
    9900012    2    1    2    0    0 -0.61033667071E+01 -0.16213640718E+02  0.71095277321E+01  0.72461585098E+02  0.70000019285E+02 0.  0.
        -12    1    1    2    0    0  0.61033667071E+01  0.16213640718E+02 -0.71095277321E+01  0.18726414902E+02  0.00000000000E+00 0.  1.
         11    1    3    3    0    0 -0.12157311077E+02  0.10701991004E+02  0.15261960829E+02  0.22254443886E+02  0.51100000000E-03 0. -1.
        -11    1    3    3    0    0  0.30567901099E+01 -0.36867909038E+02  0.51025637848E-02  0.36994414564E+02  0.51100000000E-03 0.  1.
        -12    1    3    3    0    0  0.29971542598E+01  0.99522773159E+01 -0.81575356605E+01  0.13212726648E+02  0.00000000000E+00 0.  1.
</event>
<event>
 7    1  0.1857734E-013  0.7246160E+02  0.7816164E-02  0.1226708E+00
        -11   -1    0    0    0    0  0.00000000000E+00  0.00000000000E+00  0.45593999997E+02  0.45594000000E+02  0.51100000000E-03 0.  1.
         11   -1    0    0    0    0 -0.00000000000E+00 -0.00000000000E+00 -0.45593999997E+02  0.45594000000E+02  0.51100000000E-03 0. -1.
    9900012    2    1    2    0    0 -0.11125913123E+02  0.14923046854E+02 -0.20481616341E+01  0.72461595211E+02  0.70000032459E+02 0.  0.
        -12    1    1    2    0    0  0.11125913123E+02 -0.14923046854E+02  0.20481616341E+01  0.18726404789E+02  0.00000000000E+00 0.  1.
         11    1    3    3    0    0 -0.12997050316E+02  0.25694047158E+02  0.21592344135E+01  0.28875070039E+02  0.51100000000E-03 0. -1.
        -11    1    3    3    0    0 -0.30630734779E+01 -0.20656460958E+02 -0.16823783250E+02  0.26816254055E+02  0.51100000000E-03 0.  1.
        -12    1    3    3    0    0  0.49342106707E+01  0.98854606537E+01  0.12616387203E+02  0.16770271117E+02  0.00000000000E+00 0.  1.
</event>
<event>
 7    1  0.1857734E-013  0.7246169E+02  0.7816164E-02  0.1226708E+00
        -11   -1    0    0    0    0  0.00000000000E+00  0.00000000000E+00  0.45593999997E+02  0.45594000000E+02  0.51100000000E-03 0. -1.
         11   -1    0    0    0    0 -0.00000000000E+00 -0.00000000000E+00 -0.45593999997E+02  0.45594000000E+02  0.51100000000E-03 0.  1.
    9900012    2    1    2    0    0  0.17856266199E+00  0.18300918295E+02 -0.39647590448E+01  0.72461686713E+02  0.70000151656E+02 0.  0.
        -12    1    1    2    0    0 -0.17856266199E+00 -0.18300918295E+02  0.39647590448E+01  0.18726313287E+02  0.00000000000E+00 0.  1.
         11    1    3    3    0    0  0.20322615575E+01  0.35396191947E+02 -0.14004154778E+02  0.38120032039E+02  0.51100000000E-03 0. -1.
        -11    1    3    3    0    0 -0.48547535562E+01 -0.24334166224E+02  0.60149156538E+01  0.25532322426E+02  0.51100000000E-03 0.  1.
        -12    1    3    3    0    0  0.30010546607E+01  0.72388925716E+01  0.40244800794E+01  0.88093322476E+01  0.00000000000E+00 0.  1.
</event>
<event>
 7    1  0.1857734E-013  0.7246157E+02  0.7816164E-02  0.1226708E+00
        -11   -1    0    0    0    0  0.00000000000E+00  0.00000000000E+00  0.45593999997E+02  0.45594000000E+02  0.51100000000E-03 0. -1.
         11   -1    0    0    0    0 -0.00000000000E+00 -0.00000000000E+00 -0.45593999997E+02  0.45594000000E+02  0.51100000000E-03 0.  1.
    9900012    2    1    2    0    0  0.48412977574E+01  0.16850943931E+02  0.65792686096E+01  0.72461568124E+02  0.69999997173E+02 0.  0.
        -12    1    1    2    0    0 -0.48412977574E+01 -0.16850943931E+02 -0.65792686096E+01  0.18726431876E+02  0.00000000000E+00 0.  1.
         11    1    3    3    0    0 -0.94848397950E+01 -0.23707606727E+02  0.94213514600E+01  0.27217175942E+02  0.51100000000E-03 0.  1.
        -11    1    3    3    0    0  0.11876153771E+02  0.32233775128E+02 -0.78329966968E+01  0.35233721418E+02  0.51100000000E-03 0. -1.
        -12    1    3    3    0    0  0.24499837810E+01  0.83247755295E+01  0.49909138464E+01  0.10010670765E+02  0.00000000000E+00 0.  1.
</event>
<event>
 7    1  0.1857734E-013  0.7246154E+02  0.7816164E-02  0.1226708E+00
        -11   -1    0    0    0    0  0.00000000000E+00  0.00000000000E+00  0.45593999997E+02  0.45594000000E+02  0.51100000000E-03 0. -1.
         11   -1    0    0    0    0 -0.00000000000E+00 -0.00000000000E+00 -0.45593999997E+02  0.45594000000E+02  0.51100000000E-03 0.  1.
    9900012    2    1    2    0    0 -0.47912396955E+01 -0.17961424277E+02  0.22609134399E+01  0.72461535586E+02  0.69999954786E+02 0.  0.
        -12    1    1    2    0    0  0.47912396955E+01  0.17961424277E+02 -0.22609134399E+01  0.18726464414E+02  0.00000000000E+00 0.  1.
         11    1    3    3    0    0  0.78567167436E+00  0.14027255894E+02  0.22039746097E+02  0.26136786263E+02  0.51100000000E-03 0. -1.
        -11    1    3    3    0    0 -0.16080851908E+02 -0.22324704808E+02 -0.11463782402E+02  0.29806115985E+02  0.51100000000E-03 0.  1.
         12    1    3    3    0    0  0.10503940538E+02 -0.96639753623E+01 -0.83150502541E+01  0.16518633338E+02  0.00000000000E+00 0. -1.
</event>
<event>
 7    1  0.1857734E-013  0.7246217E+02  0.7816164E-02  0.1226706E+00
        -11   -1    0    0    0    0  0.00000000000E+00  0.00000000000E+00  0.45593999997E+02  0.45594000000E+02  0.51100000000E-03 0.  1.
         11   -1    0    0    0    0 -0.00000000000E+00 -0.00000000000E+00 -0.45593999997E+02  0.45594000000E+02  0.51100000000E-03 0. -1.
    9900012    2    1    2    0    0  0.23632792277E+00 -0.17303981877E+02  0.71535427280E+01  0.72462167222E+02  0.70000777604E+02 0.  0.
        -12    1    1    2    0    0 -0.23632792277E+00  0.17303981877E+02 -0.71535427280E+01  0.18725832778E+02  0.00000000000E+00 0.  1.
         11    1    3    3    0    0  0.12671012441E+02  0.10550500763E+02  0.20313241154E+02  0.26162862784E+02  0.51100000000E-03 0. -1.
        -11    1    3    3    0    0 -0.22863036735E+02 -0.13570773770E+02 -0.62504130404E+01  0.27312122088E+02  0.51100000000E-03 0.  1.
         12    1    3    3    0    0  0.10428352217E+02 -0.14283708870E+02 -0.69092853852E+01  0.18987182350E+02  0.00000000000E+00 0. -1.
</event>
<event>
 7    1  0.1857734E-013  0.7246152E+02  0.7816164E-02  0.1226708E+00
        -11   -1    0    0    0    0  0.00000000000E+00  0.00000000000E+00  0.45593999997E+02  0.45594000000E+02  0.51100000000E-03 0.  1.
         11   -1    0    0    0    0 -0.00000000000E+00 -0.00000000000E+00 -0.45593999997E+02  0.45594000000E+02  0.51100000000E-03 0. -1.
    9900012    2    1    2    0    0  0.61802083069E+01 -0.12281741569E+02 -0.12713961282E+02  0.72461522431E+02  0.69999937649E+02 0.  0.
        -12    1    1    2    0    0 -0.61802083069E+01  0.12281741569E+02  0.12713961282E+02  0.18726477569E+02  0.00000000000E+00 0.  1.
         11    1    3    3    0    0 -0.27450892503E+01  0.89548261748E+01 -0.15611808421E+02  0.18205850413E+02  0.51100000000E-03 0. -1.
        -11    1    3    3    0    0 -0.70154837946E+01 -0.27653913547E+02  0.15941767488E+02  0.32681736463E+02  0.51100000000E-03 0.  1.
        -12    1    3    3    0    0  0.15940781352E+02  0.64173458036E+01 -0.13043920349E+02  0.21573935555E+02  0.00000000000E+00 0.  1.
</event>
<event>
 7    1  0.1857734E-013  0.7246154E+02  0.7816164E-02  0.1226708E+00
        -11   -1    0    0    0    0  0.00000000000E+00  0.00000000000E+00  0.45593999997E+02  0.45594000000E+02  0.51100000000E-03 0.  1.
         11   -1    0    0    0    0 -0.00000000000E+00 -0.00000000000E+00 -0.45593999997E+02  0.45594000000E+02  0.51100000000E-03 0. -1.
    9900012    2    1    2    0    0  0.64847079489E+00 -0.58468929501E+01 -0.17778456423E+02  0.72461543199E+02  0.69999964703E+02 0.  0.
        -12    1    1    2    0    0 -0.64847079489E+00  0.58468929501E+01  0.17778456423E+02  0.18726456801E+02  0.00000000000E+00 0.  1.
         11    1    3    3    0    0 -0.33280746232E+01  0.15391080572E+01 -0.14433019563E+02  0.14891507253E+02  0.51100000000E-03 0. -1.
        -11    1    3    3    0    0 -0.14503144700E+02  0.67064863070E+01  0.19344466417E+02  0.25090367594E+02  0.51100000000E-03 0.  1.
        -12    1    3    3    0    0  0.18479690118E+02 -0.14092487314E+02 -0.22689903277E+02  0.32479668352E+02  0.00000000000E+00 0.  1.
</event>
<event>
 7    1  0.1857734E-013  0.7246162E+02  0.7816164E-02  0.1226708E+00
        -11   -1    0    0    0    0  0.00000000000E+00  0.00000000000E+00  0.45593999997E+02  0.45594000000E+02  0.51100000000E-03 0.  1.
         11   -1    0    0    0    0 -0.00000000000E+00 -0.00000000000E+00 -0.45593999997E+02  0.45594000000E+02  0.51100000000E-03 0. -1.
    9900012    2    1    2    0    0  0.51725444449E+01 -0.35521615316E+01 -0.17643812604E+02  0.72461623127E+02  0.70000068825E+02 0.  0.
        -12    1    1    2    0    0 -0.51725444449E+01  0.35521615316E+01  0.17643812604E+02  0.18726376873E+02  0.00000000000E+00 0.  1.
         11    1    3    3    0    0 -0.17165230881E+02 -0.56718933713E+01 -0.10039357639E+02  0.20678593465E+02  0.51100000000E-03 0. -1.
        -11    1    3    3    0    0  0.14432263841E+02 -0.20681409819E+02  0.30499384524E+01  0.25403013138E+02  0.51100000000E-03 0.  1.
        -12    1    3    3    0    0  0.79055114855E+01  0.22801141658E+02 -0.10654393417E+02  0.26380016525E+02  0.00000000000E+00 0.  1.
</event>
<event>
 7    1  0.1857734E-013  0.7246155E+02  0.7816164E-02  0.1226708E+00
        -11   -1    0    0    0    0  0.00000000000E+00  0.00000000000E+00  0.45593999997E+02  0.45594000000E+02  0.51100000000E-03 0.  1.
         11   -1    0    0    0    0 -0.00000000000E+00 -0.00000000000E+00 -0.45593999997E+02  0.45594000000E+02  0.51100000000E-03 0. -1.
    9900012    2    1    2    0    0 -0.83065989820E+01  0.48350334934E+01 -0.16071795558E+02  0.72461554850E+02  0.69999979880E+02 0.  0.
        -12    1    1    2    0    0  0.83065989820E+01 -0.48350334934E+01  0.16071795558E+02  0.18726445150E+02  0.00000000000E+00 0.  1.
         11    1    3    3    0    0 -0.10517820968E+02 -0.30556386399E+02 -0.29729981543E+01  0.32452365491E+02  0.51100000000E-03 0. -1.
        -11    1    3    3    0    0  0.67850927135E+01  0.11076600528E+02 -0.57013293839E+01  0.14185687131E+02  0.51100000000E-03 0.  1.
         12    1    3    3    0    0 -0.45738707275E+01  0.24314819365E+02 -0.73974680194E+01  0.25823502227E+02  0.00000000000E+00 0. -1.
</event>
<event>
 7    1  0.1857734E-013  0.7246111E+02  0.7816164E-02  0.1226709E+00
        -11   -1    0    0    0    0  0.00000000000E+00  0.00000000000E+00  0.45593999997E+02  0.45594000000E+02  0.51100000000E-03 0.  1.
         11   -1    0    0    0    0 -0.00000000000E+00 -0.00000000000E+00 -0.45593999997E+02  0.45594000000E+02  0.51100000000E-03 0. -1.
    9900012    2    1    2    0    0 -0.49286009613E+01 -0.11838004369E+02 -0.13647963435E+02  0.72461111289E+02  0.69999402058E+02 0.  0.
        -12    1    1    2    0    0  0.49286009613E+01  0.11838004369E+02  0.13647963435E+02  0.18726888711E+02  0.00000000000E+00 0.  1.
         11    1    3    3    0    0 -0.82344429227E+01  0.22870869117E+01  0.45156652134E+01  0.96658186083E+01  0.51100000000E-03 0. -1.
        -11    1    3    3    0    0 -0.10369930343E+01 -0.33420830791E+02 -0.25128210919E+02  0.41826478092E+02  0.51100000000E-03 0.  1.
        -12    1    3    3    0    0  0.43428349957E+01  0.19295739510E+02  0.69645822707E+01  0.20968814589E+02  0.00000000000E+00 0.  1.
</event>
<event>
 7    1  0.1857734E-013  0.7246159E+02  0.7816164E-02  0.1226708E+00
        -11   -1    0    0    0    0  0.00000000000E+00  0.00000000000E+00  0.45593999997E+02  0.45594000000E+02  0.51100000000E-03 0.  1.
         11   -1    0    0    0    0 -0.00000000000E+00 -0.00000000000E+00 -0.45593999997E+02  0.45594000000E+02  0.51100000000E-03 0. -1.
    9900012    2    1    2    0    0 -0.11499744867E+02  0.67882407562E+01 -0.13128372149E+02  0.72461588174E+02  0.70000023292E+02 0.  0.
        -12    1    1    2    0    0  0.11499744867E+02 -0.67882407562E+01  0.13128372149E+02  0.18726411826E+02  0.00000000000E+00 0.  1.
         11    1    3    3    0    0  0.69232477975E+01 -0.23706978510E+01 -0.30427485728E+01  0.79252689232E+01  0.51100000000E-03 0. -1.
        -11    1    3    3    0    0 -0.16372763470E+02  0.33391257115E+02 -0.14320919140E+02  0.39851375894E+02  0.51100000000E-03 0.  1.
        -12    1    3    3    0    0 -0.20502291944E+01 -0.24232318508E+02  0.42352955632E+01  0.24684943357E+02  0.00000000000E+00 0.  1.
</event>
<event>
 7    1  0.1857734E-013  0.7246158E+02  0.7816164E-02  0.1226708E+00
        -11   -1    0    0    0    0  0.00000000000E+00  0.00000000000E+00  0.45593999997E+02  0.45594000000E+02  0.51100000000E-03 0.  1.
         11   -1    0    0    0    0 -0.00000000000E+00 -0.00000000000E+00 -0.45593999997E+02  0.45594000000E+02  0.51100000000E-03 0. -1.
    9900012    2    1    2    0    0  0.12837472320E+02  0.10468702883E+02  0.87340830264E+01  0.72461584381E+02  0.70000018350E+02 0.  0.
        -12    1    1    2    0    0 -0.12837472320E+02 -0.10468702883E+02 -0.87340830264E+01  0.18726415619E+02  0.00000000000E+00 0.  1.
         11    1    3    3    0    0 -0.14083921936E+01  0.23408604763E+02 -0.77993139764E+01  0.24713875541E+02  0.51100000000E-03 0. -1.
        -11    1    3    3    0    0  0.24746268483E+02 -0.10336805667E+02  0.22839222878E+02  0.35225806693E+02  0.51100000000E-03 0.  1.
         12    1    3    3    0    0 -0.10500403969E+02 -0.26030962123E+01 -0.63058258749E+01  0.12521902147E+02  0.00000000000E+00 0. -1.
</event>
<event>
 7    1  0.1857734E-013  0.7246163E+02  0.7816164E-02  0.1226708E+00
        -11   -1    0    0    0    0  0.00000000000E+00  0.00000000000E+00  0.45593999997E+02  0.45594000000E+02  0.51100000000E-03 0. -1.
         11   -1    0    0    0    0 -0.00000000000E+00 -0.00000000000E+00 -0.45593999997E+02  0.45594000000E+02  0.51100000000E-03 0.  1.
    9900012    2    1    2    0    0 -0.15121426984E+02  0.99590755676E+01  0.47787076502E+01  0.72461633908E+02  0.70000082869E+02 0.  0.
        -12    1    1    2    0    0  0.15121426984E+02 -0.99590755676E+01 -0.47787076502E+01  0.18726366092E+02  0.00000000000E+00 0.  1.
         11    1    3    3    0    0 -0.33624127627E+02  0.17003628172E+02  0.19223594530E+02  0.42299549839E+02  0.51100000000E-03 0. -1.
        -11    1    3    3    0    0  0.38319383233E+01  0.46292488887E+01 -0.86609392132E+01  0.10541611115E+02  0.51100000000E-03 0.  1.
         12    1    3    3    0    0  0.14670762319E+02 -0.11673801493E+02 -0.57839476670E+01  0.19620472954E+02  0.00000000000E+00 0. -1.
</event>
<event>
 7    1  0.1857734E-013  0.7246160E+02  0.7816164E-02  0.1226708E+00
        -11   -1    0    0    0    0  0.00000000000E+00  0.00000000000E+00  0.45593999997E+02  0.45594000000E+02  0.51100000000E-03 0.  1.
         11   -1    0    0    0    0 -0.00000000000E+00 -0.00000000000E+00 -0.45593999997E+02  0.45594000000E+02  0.51100000000E-03 0. -1.
    9900012    2    1    2    0    0  0.33157337840E+01 -0.64778568151E+01 -0.17254605917E+02  0.72461597655E+02  0.70000035642E+02 0.  0.
        -12    1    1    2    0    0 -0.33157337840E+01  0.64778568151E+01  0.17254605917E+02  0.18726402345E+02  0.00000000000E+00 0.  1.
         11    1    3    3    0    0 -0.58328719500E+01 -0.46023490242E+01 -0.27362051188E+01  0.79177541285E+01  0.51100000000E-03 0. -1.
        -11    1    3    3    0    0  0.29154192631E+02 -0.15373046304E+02  0.52160846399E+01  0.33369222944E+02  0.51100000000E-03 0.  1.
        -12    1    3    3    0    0 -0.20005586897E+02  0.13497538514E+02 -0.19734485438E+02  0.31174620583E+02  0.00000000000E+00 0.  1.
</event>
<event>
 7    1  0.1857734E-013  0.7246157E+02  0.7816164E-02  0.1226708E+00
        -11   -1    0    0    0    0  0.00000000000E+00  0.00000000000E+00  0.45593999997E+02  0.45594000000E+02  0.51100000000E-03 0. -1.
         11   -1    0    0    0    0 -0.00000000000E+00 -0.00000000000E+00 -0.45593999997E+02  0.45594000000E+02  0.51100000000E-03 0.  1.
    9900012    2    1    2    0    0 -0.45130610200E+01  0.14438182238E+02  0.11038591216E+02  0.72461566219E+02  0.69999994691E+02 0.  0.
        -12    1    1    2    0    0  0.45130610200E+01 -0.14438182238E+02 -0.11038591216E+02  0.18726433781E+02  0.00000000000E+00 0.  1.
         11    1    3    3    0    0  0.12319405898E+02 -0.18177276180E+02 -0.40002589744E+01  0.22320017991E+02  0.51100000000E-03 0. -1.
        -11    1    3    3    0    0 -0.12664668910E+02  0.23840584789E+02  0.24591488472E+02  0.36517237399E+02  0.51100000000E-03 0.  1.
        -12    1    3    3    0    0 -0.41677980084E+01  0.87748736285E+01 -0.95526382812E+01  0.13624310829E+02  0.00000000000E+00 0.  1.
</event>
<event>
 7    1  0.1857734E-013  0.7246158E+02  0.7816164E-02  0.1226708E+00
        -11   -1    0    0    0    0  0.00000000000E+00  0.00000000000E+00  0.45593999997E+02  0.45594000000E+02  0.51100000000E-03 0.  1.
         11   -1    0    0    0    0 -0.00000000000E+00 -0.00000000000E+00 -0.45593999997E+02  0.45594000000E+02  0.51100000000E-03 0. -1.
    9900012    2    1    2    0    0 -0.16201419651E+02  0.48780560691E+01  0.80248081449E+01  0.72461575475E+02  0.70000006749E+02 0.  0.
        -12    1    1    2    0    0  0.16201419651E+02 -0.48780560691E+01 -0.80248081449E+01  0.18726424525E+02  0.00000000000E+00 0.  1.
         11    1    3    3    0    0  0.93923439382E+01 -0.17980684850E+02  0.14643749150E+02  0.25019203459E+02  0.51100000000E-03 0.  1.
        -11    1    3    3    0    0 -0.18220412201E+02  0.19652719825E+02  0.10299599246E+02  0.28710530511E+02  0.51100000000E-03 0. -1.
         12    1    3    3    0    0 -0.73733513885E+01  0.32060210934E+01 -0.16918540251E+02  0.18731841505E+02  0.00000000000E+00 0. -1.
</event>
<event>
 7    1  0.1857734E-013  0.7246156E+02  0.7816164E-02  0.1226708E+00
        -11   -1    0    0    0    0  0.00000000000E+00  0.00000000000E+00  0.45593999997E+02  0.45594000000E+02  0.51100000000E-03 0. -1.
         11   -1    0    0    0    0 -0.00000000000E+00 -0.00000000000E+00 -0.45593999997E+02  0.45594000000E+02  0.51100000000E-03 0.  1.
    9900012    2    1    2    0    0  0.12943641111E+02  0.97660142953E+01  0.93683847861E+01  0.72461561098E+02  0.69999988021E+02 0.  0.
        -12    1    1    2    0    0 -0.12943641111E+02 -0.97660142953E+01 -0.93683847861E+01  0.18726438902E+02  0.00000000000E+00 0.  1.
         11    1    3    3    0    0 -0.11982257019E+02  0.18342895049E+02  0.26807084455E+02  0.34621612604E+02  0.51100000000E-03 0. -1.
        -11    1    3    3    0    0  0.12629353334E+02 -0.15059949042E+02 -0.10953164751E+02  0.22500543307E+02  0.51100000000E-03 0.  1.
         12    1    3    3    0    0  0.12296544796E+02  0.64830682879E+01 -0.64855349184E+01  0.15339405188E+02  0.00000000000E+00 0. -1.
</event>
<event>
 7    1  0.1857734E-013  0.7246153E+02  0.7816164E-02  0.1226708E+00
        -11   -1    0    0    0    0  0.00000000000E+00  0.00000000000E+00  0.45593999997E+02  0.45594000000E+02  0.51100000000E-03 0. -1.
         11   -1    0    0    0    0 -0.00000000000E+00 -0.00000000000E+00 -0.45593999997E+02  0.45594000000E+02  0.51100000000E-03 0.  1.
    9900012    2    1    2    0    0 -0.10007593909E+02  0.13740836490E+02  0.78560868376E+01  0.72461531468E+02  0.69999949421E+02 0.  0.
        -12    1    1    2    0    0  0.10007593909E+02 -0.13740836490E+02 -0.78560868376E+01  0.18726468532E+02  0.00000000000E+00 0.  1.
         11    1    3    3    0    0  0.61213563410E+01  0.15779107442E+02  0.25547688066E+02  0.30645319396E+02  0.51100000000E-03 0. -1.
        -11    1    3    3    0    0 -0.26160677084E+02 -0.11880562835E+01 -0.69501724056E+01  0.27094231858E+02  0.51100000000E-03 0.  1.
         12    1    3    3    0    0  0.10031726834E+02 -0.85021466873E+00 -0.10741428823E+02  0.14721980214E+02  0.00000000000E+00 0. -1.
</event>
<event>
 7    1  0.1857734E-013  0.7246236E+02  0.7816164E-02  0.1226706E+00
        -11   -1    0    0    0    0  0.00000000000E+00  0.00000000000E+00  0.45593999997E+02  0.45594000000E+02  0.51100000000E-03 0. -1.
         11   -1    0    0    0    0 -0.00000000000E+00 -0.00000000000E+00 -0.45593999997E+02  0.45594000000E+02  0.51100000000E-03 0.  1.
    9900012    2    1    2    0    0  0.20352709285E+01 -0.17888193737E+02  0.51497311857E+01  0.72462361580E+02  0.70001030789E+02 0.  0.
        -12    1    1    2    0    0 -0.20352709285E+01  0.17888193737E+02 -0.51497311857E+01  0.18725638420E+02  0.00000000000E+00 0.  1.
         11    1    3    3    0    0  0.23939253622E+02 -0.31847520354E+01 -0.85784905471E+01  0.25628519463E+02  0.51100000000E-03 0. -1.
        -11    1    3    3    0    0 -0.14718825634E+02 -0.10641273764E+02  0.26199009626E+02  0.31878968631E+02  0.51100000000E-03 0.  1.
        -12    1    3    3    0    0 -0.71851570595E+01 -0.40621679382E+01 -0.12470787893E+02  0.14954873486E+02  0.00000000000E+00 0.  1.
</event>
<event>
 7    1  0.1857734E-013  0.7246155E+02  0.7816164E-02  0.1226708E+00
        -11   -1    0    0    0    0  0.00000000000E+00  0.00000000000E+00  0.45593999997E+02  0.45594000000E+02  0.51100000000E-03 0. -1.
         11   -1    0    0    0    0 -0.00000000000E+00 -0.00000000000E+00 -0.45593999997E+02  0.45594000000E+02  0.51100000000E-03 0.  1.
    9900012    2    1    2    0    0  0.94252559253E+00  0.17640724534E+01  0.18619339048E+02  0.72461545645E+02  0.69999967890E+02 0.  0.
        -12    1    1    2    0    0 -0.94252559253E+00 -0.17640724534E+01 -0.18619339048E+02  0.18726454355E+02  0.00000000000E+00 0.  1.
         11    1    3    3    0    0 -0.12188975900E+02  0.11523900419E+02 -0.64307070175E+01  0.17964559760E+02  0.51100000000E-03 0. -1.
        -11    1    3    3    0    0  0.29286457251E+02 -0.10811450872E+02  0.11120015698E+02  0.33139686143E+02  0.51100000000E-03 0.  1.
        -12    1    3    3    0    0 -0.16154955758E+02  0.10516229070E+01  0.13930030367E+02  0.21357299743E+02  0.00000000000E+00 0.  1.
</event>
<event>
 7    1  0.1857734E-013  0.7246160E+02  0.7816164E-02  0.1226708E+00
        -11   -1    0    0    0    0  0.00000000000E+00  0.00000000000E+00  0.45593999997E+02  0.45594000000E+02  0.51100000000E-03 0.  1.
         11   -1    0    0    0    0 -0.00000000000E+00 -0.00000000000E+00 -0.45593999997E+02  0.45594000000E+02  0.51100000000E-03 0. -1.
    9900012    2    1    2    0    0  0.56579405919E+01  0.56311906510E+01 -0.16939762264E+02  0.72461597637E+02  0.70000035620E+02 0.  0.
        -12    1    1    2    0    0 -0.56579405919E+01 -0.56311906510E+01  0.16939762264E+02  0.18726402363E+02  0.00000000000E+00 0.  1.
         11    1    3    3    0    0 -0.15531691475E+01  0.31467513823E+02 -0.22623520380E+02  0.38787116872E+02  0.51100000000E-03 0. -1.
        -11    1    3    3    0    0  0.86995418440E+00 -0.26256628321E+02  0.69932606885E+01  0.27185897932E+02  0.51100000000E-03 0.  1.
        -12    1    3    3    0    0  0.63411555550E+01  0.42030514904E+00 -0.13095025720E+01  0.64885828328E+01  0.00000000000E+00 0.  1.
</event>
<event>
 7    1  0.1857734E-013  0.7246154E+02  0.7816164E-02  0.1226708E+00
        -11   -1    0    0    0    0  0.00000000000E+00  0.00000000000E+00  0.45593999997E+02  0.45594000000E+02  0.51100000000E-03 0. -1.
         11   -1    0    0    0    0 -0.00000000000E+00 -0.00000000000E+00 -0.45593999997E+02  0.45594000000E+02  0.51100000000E-03 0.  1.
    9900012    2    1    2    0    0 -0.86767506104E+01  0.14525876706E+02  0.80245285817E+01  0.72461544003E+02  0.69999965751E+02 0.  0.
        -12    1    1    2    0    0  0.86767506104E+01 -0.14525876706E+02 -0.80245285817E+01  0.18726455997E+02  0.00000000000E+00 0.  1.
         11    1    3    3    0    0  0.13251056463E+02  0.22050078635E+01  0.24935230055E+02  0.28323457685E+02  0.51100000000E-03 0. -1.
        -11    1    3    3    0    0 -0.83148369686E+01 -0.10232743943E+02 -0.10925064819E+02  0.17123159872E+02  0.51100000000E-03 0.  1.
        -12    1    3    3    0    0 -0.13612970105E+02  0.22553612786E+02 -0.59856366539E+01  0.27014926447E+02  0.00000000000E+00 0.  1.
</event>
<event>
 7    1  0.1857734E-013  0.7246158E+02  0.7816164E-02  0.1226708E+00
        -11   -1    0    0    0    0  0.00000000000E+00  0.00000000000E+00  0.45593999997E+02  0.45594000000E+02  0.51100000000E-03 0.  1.
         11   -1    0    0    0    0 -0.00000000000E+00 -0.00000000000E+00 -0.45593999997E+02  0.45594000000E+02  0.51100000000E-03 0. -1.
    9900012    2    1    2    0    0 -0.10430046166E+02 -0.12987528557E+02  0.85566871189E+01  0.72461584018E+02  0.70000017878E+02 0.  0.
        -12    1    1    2    0    0  0.10430046166E+02  0.12987528557E+02 -0.85566871189E+01  0.18726415982E+02  0.00000000000E+00 0.  1.
         11    1    3    3    0    0 -0.19901856017E+02 -0.28989443293E+02  0.25749758788E+02  0.43583503453E+02  0.51100000000E-03 0. -1.
        -11    1    3    3    0    0  0.58133055232E+01  0.81509797159E+01 -0.44343373085E+00  0.10021458236E+02  0.51100000000E-03 0.  1.
         12    1    3    3    0    0  0.36585043275E+01  0.78509350196E+01 -0.16749637938E+02  0.18856622329E+02  0.00000000000E+00 0. -1.
</event>
<event>
 8    1  0.1857734E-013  0.7246167E+02  0.7816164E-02  0.1226708E+00
        -11   -1    0    0    0    0  0.00000000000E+00  0.00000000000E+00  0.45593999997E+02  0.45594000000E+02  0.51100000000E-03 0. -1.
         11   -1    0    0    0    0 -0.00000000000E+00 -0.00000000000E+00 -0.45593999997E+02  0.45594000000E+02  0.51100000000E-03 0.  1.
    9900012    2    1    2    0    0 -0.17990174284E+02  0.35466760585E+01 -0.38013146965E+01  0.72461674272E+02  0.70000135450E+02 0.  0.
        -24    2    3    3    0    0 -0.10883083288E+02  0.11772350816E+02  0.12153297780E+02  0.53155661551E+02  0.49201544309E+02 0.  0.
        -12    1    1    2    0    0  0.17990174284E+02 -0.35466760585E+01  0.38013146965E+01  0.18726325728E+02  0.00000000000E+00 0.  1.
         11    1    4    4    0    0 -0.26330318282E+02  0.20561465231E+02  0.11634673909E+02  0.35375487990E+02  0.51100000000E-03 0. -1.
        -11    1    3    3    0    0 -0.71070909962E+01 -0.82256747571E+01 -0.15954612477E+02  0.19306012721E+02  0.51100000000E-03 0.  1.
        -12    1    4    4    0    0  0.15447234993E+02 -0.87891144157E+01  0.51862387125E+00  0.17780173561E+02  0.00000000000E+00 0.  1.
</event>
<event>
 7    1  0.1857734E-013  0.7246157E+02  0.7816164E-02  0.1226708E+00
        -11   -1    0    0    0    0  0.00000000000E+00  0.00000000000E+00  0.45593999997E+02  0.45594000000E+02  0.51100000000E-03 0. -1.
         11   -1    0    0    0    0 -0.00000000000E+00 -0.00000000000E+00 -0.45593999997E+02  0.45594000000E+02  0.51100000000E-03 0.  1.
    9900012    2    1    2    0    0  0.15186804634E+01 -0.86683935143E+01  0.16529723906E+02  0.72461569244E+02  0.69999998631E+02 0.  0.
        -12    1    1    2    0    0 -0.15186804634E+01  0.86683935143E+01 -0.16529723906E+02  0.18726430756E+02  0.00000000000E+00 0.  1.
         11    1    3    3    0    0  0.66460322017E+01  0.77647158437E+01  0.12677176035E+02  0.16284082678E+02  0.51100000000E-03 0. -1.
        -11    1    3    3    0    0 -0.15479326666E+02 -0.22455529392E+02  0.21583440023E+02  0.34780817095E+02  0.51100000000E-03 0.  1.
        -12    1    3    3    0    0  0.10351974927E+02  0.60224200341E+01 -0.17730892152E+02  0.21396669471E+02  0.00000000000E+00 0.  1.
</event>
<event>
 7    1  0.1857734E-013  0.7246158E+02  0.7816164E-02  0.1226708E+00
        -11   -1    0    0    0    0  0.00000000000E+00  0.00000000000E+00  0.45593999997E+02  0.45594000000E+02  0.51100000000E-03 0. -1.
         11   -1    0    0    0    0 -0.00000000000E+00 -0.00000000000E+00 -0.45593999997E+02  0.45594000000E+02  0.51100000000E-03 0.  1.
    9900012    2    1    2    0    0 -0.64411282101E+01 -0.17523288539E+02 -0.14577593263E+01  0.72461579197E+02  0.70000011597E+02 0.  0.
        -12    1    1    2    0    0  0.64411282101E+01  0.17523288539E+02  0.14577593263E+01  0.18726420803E+02  0.00000000000E+00 0.  1.
         11    1    3    3    0    0 -0.26808659398E+02  0.16438350729E+01 -0.25411009832E+01  0.26978947476E+02  0.51100000000E-03 0. -1.
        -11    1    3    3    0    0  0.10684954782E+02  0.44571057442E+01 -0.12101625302E+02  0.16747638207E+02  0.51100000000E-03 0.  1.
         12    1    3    3    0    0  0.96825764060E+01 -0.23624229356E+02  0.13184966959E+02  0.28734993514E+02  0.00000000000E+00 0. -1.
</event>
<event>
 7    1  0.1857734E-013  0.7246154E+02  0.7816164E-02  0.1226708E+00
        -11   -1    0    0    0    0  0.00000000000E+00  0.00000000000E+00  0.45593999997E+02  0.45594000000E+02  0.51100000000E-03 0. -1.
         11   -1    0    0    0    0 -0.00000000000E+00 -0.00000000000E+00 -0.45593999997E+02  0.45594000000E+02  0.51100000000E-03 0.  1.
    9900012    2    1    2    0    0  0.15582791987E+02 -0.63637446364E+00 -0.10365899694E+02  0.72461541311E+02  0.69999962244E+02 0.  0.
        -12    1    1    2    0    0 -0.15582791987E+02  0.63637446364E+00  0.10365899694E+02  0.18726458689E+02  0.00000000000E+00 0.  1.
         11    1    3    3    0    0 -0.79660614626E+01  0.51514376111E+01  0.16518525077E+02  0.19048808773E+02  0.51100000000E-03 0. -1.
        -11    1    3    3    0    0  0.22208714953E+00 -0.67546922159E+01 -0.29180867101E+02  0.29953266845E+02  0.51100000000E-03 0.  1.
        -12    1    3    3    0    0  0.23326766300E+02  0.96688014119E+00  0.22964423301E+01  0.23459465693E+02  0.00000000000E+00 0.  1.
</event>
<event>
 7    1  0.1857734E-013  0.7246157E+02  0.7816164E-02  0.1226708E+00
        -11   -1    0    0    0    0  0.00000000000E+00  0.00000000000E+00  0.45593999997E+02  0.45594000000E+02  0.51100000000E-03 0.  1.
         11   -1    0    0    0    0 -0.00000000000E+00 -0.00000000000E+00 -0.45593999997E+02  0.45594000000E+02  0.51100000000E-03 0. -1.
    9900012    2    1    2    0    0 -0.16138093979E+02  0.50749067390E+01 -0.80303338242E+01  0.72461574367E+02  0.70000005305E+02 0.  0.
        -12    1    1    2    0    0  0.16138093979E+02 -0.50749067390E+01  0.80303338242E+01  0.18726425633E+02  0.00000000000E+00 0.  1.
         11    1    3    3    0    0 -0.77079595004E+01 -0.24417448949E+01 -0.10466977513E+02  0.13226200373E+02  0.51100000000E-03 0. -1.
        -11    1    3    3    0    0  0.15163443921E+02 -0.17183783207E+02  0.86898678436E+01  0.24509717262E+02  0.51100000000E-03 0.  1.
        -12    1    3    3    0    0 -0.23593578400E+02  0.24700434841E+02 -0.62532241544E+01  0.34725656731E+02  0.00000000000E+00 0.  1.
</event>
<event>
 7    1  0.1857734E-013  0.7246156E+02  0.7816164E-02  0.1226708E+00
        -11   -1    0    0    0    0  0.00000000000E+00  0.00000000000E+00  0.45593999997E+02  0.45594000000E+02  0.51100000000E-03 0.  1.
         11   -1    0    0    0    0 -0.00000000000E+00 -0.00000000000E+00 -0.45593999997E+02  0.45594000000E+02  0.51100000000E-03 0. -1.
    9900012    2    1    2    0    0  0.13626381987E+02  0.75045650645E+01  0.10425111107E+02  0.72461555478E+02  0.69999980699E+02 0.  0.
        -12    1    1    2    0    0 -0.13626381987E+02 -0.75045650645E+01 -0.10425111107E+02  0.18726444522E+02  0.00000000000E+00 0.  1.
         11    1    3    3    0    0 -0.13063415661E+02  0.11042083699E+02  0.11356036258E+02  0.20531439329E+02  0.51100000000E-03 0. -1.
        -11    1    3    3    0    0  0.30861538074E+02  0.10719043532E+02 -0.10434277931E+02  0.34295868304E+02  0.51100000000E-03 0.  1.
        -12    1    3    3    0    0 -0.41717404264E+01 -0.14256562166E+02  0.95033527798E+01  0.17634247845E+02  0.00000000000E+00 0.  1.
</event>
<event>
 7    1  0.1857734E-013  0.7246156E+02  0.7816164E-02  0.1226708E+00
        -11   -1    0    0    0    0  0.00000000000E+00  0.00000000000E+00  0.45593999997E+02  0.45594000000E+02  0.51100000000E-03 0. -1.
         11   -1    0    0    0    0 -0.00000000000E+00 -0.00000000000E+00 -0.45593999997E+02  0.45594000000E+02  0.51100000000E-03 0.  1.
    9900012    2    1    2    0    0 -0.18648753720E+02 -0.13588114668E+01 -0.10281812579E+01  0.72461560386E+02  0.69999987093E+02 0.  0.
        -12    1    1    2    0    0  0.18648753720E+02  0.13588114668E+01  0.10281812579E+01  0.18726439614E+02  0.00000000000E+00 0.  1.
         11    1    3    3    0    0 -0.16123595063E+02  0.13156669733E+02 -0.31236153600E+02  0.37533525923E+02  0.51100000000E-03 0. -1.
        -11    1    3    3    0    0  0.32987493627E+01 -0.23836889091E+01  0.66039006956E+01  0.77572691607E+01  0.51100000000E-03 0.  1.
         12    1    3    3    0    0 -0.58239080202E+01 -0.12131792290E+02  0.23604071647E+02  0.27170765302E+02  0.00000000000E+00 0. -1.
</event>
<event>
 7    1  0.1857734E-013  0.7246153E+02  0.7816164E-02  0.1226708E+00
        -11   -1    0    0    0    0  0.00000000000E+00  0.00000000000E+00  0.45593999997E+02  0.45594000000E+02  0.51100000000E-03 0. -1.
         11   -1    0    0    0    0 -0.00000000000E+00 -0.00000000000E+00 -0.45593999997E+02  0.45594000000E+02  0.51100000000E-03 0.  1.
    9900012    2    1    2    0    0 -0.11513190170E+02  0.14266688435E+02 -0.38195372923E+01  0.72461526442E+02  0.69999942874E+02 0.  0.
        -12    1    1    2    0    0  0.11513190170E+02 -0.14266688435E+02  0.38195372923E+01  0.18726473558E+02  0.00000000000E+00 0.  1.
         11    1    3    3    0    0  0.11477733743E+02 -0.59360802345E+01  0.14817484329E+02  0.19660449195E+02  0.51100000000E-03 0. -1.
        -11    1    3    3    0    0 -0.20532187521E+02  0.31606149112E+02 -0.15205041773E+02  0.40641268210E+02  0.51100000000E-03 0.  1.
        -12    1    3    3    0    0 -0.24587363915E+01 -0.11403380443E+02 -0.34319798485E+01  0.12159809038E+02  0.00000000000E+00 0.  1.
</event>
<event>
 7    1  0.1857734E-013  0.7246157E+02  0.7816164E-02  0.1226708E+00
        -11   -1    0    0    0    0  0.00000000000E+00  0.00000000000E+00  0.45593999997E+02  0.45594000000E+02  0.51100000000E-03 0. -1.
         11   -1    0    0    0    0 -0.00000000000E+00 -0.00000000000E+00 -0.45593999997E+02  0.45594000000E+02  0.51100000000E-03 0.  1.
    9900012    2    1    2    0    0 -0.10540671213E+02  0.55514252099E+01  0.14448354289E+02  0.72461574470E+02  0.70000005439E+02 0.  0.
        -12    1    1    2    0    0  0.10540671213E+02 -0.55514252099E+01 -0.14448354289E+02  0.18726425530E+02  0.00000000000E+00 0.  1.
         11    1    3    3    0    0 -0.25652488582E+02  0.63185581693E+01  0.14410104534E+02  0.30093611626E+02  0.51100000000E-03 0. -1.
        -11    1    3    3    0    0  0.77907310037E+01  0.16846471641E+02 -0.97096282863E+01  0.20946980165E+02  0.51100000000E-03 0.  1.
         12    1    3    3    0    0  0.73210863651E+01 -0.17613604600E+02  0.97478780414E+01  0.21420982678E+02  0.00000000000E+00 0. -1.
</event>
<event>
 7    1  0.1857734E-013  0.7246155E+02  0.7816164E-02  0.1226708E+00
        -11   -1    0    0    0    0  0.00000000000E+00  0.00000000000E+00  0.45593999997E+02  0.45594000000E+02  0.51100000000E-03 0.  1.
         11   -1    0    0    0    0 -0.00000000000E+00 -0.00000000000E+00 -0.45593999997E+02  0.45594000000E+02  0.51100000000E-03 0. -1.
    9900012    2    1    2    0    0 -0.20250420639E+01 -0.63666790617E+01 -0.17494127533E+02  0.72461550903E+02  0.69999974740E+02 0.  0.
        -12    1    1    2    0    0  0.20250420639E+01  0.63666790617E+01  0.17494127533E+02  0.18726449097E+02  0.00000000000E+00 0.  1.
         11    1    3    3    0    0 -0.92002743184E+01  0.20734884366E+02 -0.90977741876E+01  0.24440744109E+02  0.51100000000E-03 0. -1.
        -11    1    3    3    0    0  0.10741775663E+01 -0.25805031081E+02  0.10681651810E+02  0.27949081777E+02  0.51100000000E-03 0.  1.
         12    1    3    3    0    0  0.61010546882E+01 -0.12965323465E+01 -0.19078005156E+02  0.20071725017E+02  0.00000000000E+00 0. -1.
</event>
<event>
 7    1  0.1857734E-013  0.7246157E+02  0.7816164E-02  0.1226708E+00
        -11   -1    0    0    0    0  0.00000000000E+00  0.00000000000E+00  0.45593999997E+02  0.45594000000E+02  0.51100000000E-03 0.  1.
         11   -1    0    0    0    0 -0.00000000000E+00 -0.00000000000E+00 -0.45593999997E+02  0.45594000000E+02  0.51100000000E-03 0. -1.
    9900012    2    1    2    0    0  0.11582881963E+02  0.89304127404E+01 -0.11694605294E+02  0.72461568966E+02  0.69999998270E+02 0.  0.
        -12    1    1    2    0    0 -0.11582881963E+02 -0.89304127404E+01  0.11694605294E+02  0.18726431034E+02  0.00000000000E+00 0.  1.
         11    1    3    3    0    0  0.11498600491E+02  0.94918384847E+01 -0.34974821659E+02  0.38020401910E+02  0.51100000000E-03 0. -1.
        -11    1    3    3    0    0  0.12057306209E+02  0.74317993482E+00  0.17009125227E+02  0.20862437314E+02  0.51100000000E-03 0.  1.
        -12    1    3    3    0    0 -0.11973024737E+02 -0.13046056791E+01  0.62710911381E+01  0.13578729742E+02  0.00000000000E+00 0.  1.
</event>
<event>
 7    1  0.1857734E-013  0.7246142E+02  0.7816164E-02  0.1226708E+00
        -11   -1    0    0    0    0  0.00000000000E+00  0.00000000000E+00  0.45593999997E+02  0.45594000000E+02  0.51100000000E-03 0.  1.
         11   -1    0    0    0    0 -0.00000000000E+00 -0.00000000000E+00 -0.45593999997E+02  0.45594000000E+02  0.51100000000E-03 0. -1.
    9900012    2    1    2    0    0 -0.11954821734E+02 -0.84904430594E+01 -0.11648150056E+02  0.72461420340E+02  0.69999804657E+02 0.  0.
        -12    1    1    2    0    0  0.11954821734E+02  0.84904430594E+01  0.11648150056E+02  0.18726579660E+02  0.00000000000E+00 0.  1.
         11    1    3    3    0    0 -0.10149067916E+02 -0.22987163744E+02  0.22533619517E+02  0.33751700480E+02  0.51100000000E-03 0. -1.
        -11    1    3    3    0    0 -0.25666891558E+01  0.13472134312E+02 -0.18776821621E+02  0.23251996185E+02  0.51100000000E-03 0.  1.
         12    1    3    3    0    0  0.76093533735E+00  0.10245863725E+01 -0.15404947951E+02  0.15457723675E+02  0.00000000000E+00 0. -1.
</event>
<event>
 7    1  0.1857734E-013  0.7246158E+02  0.7816164E-02  0.1226708E+00
        -11   -1    0    0    0    0  0.00000000000E+00  0.00000000000E+00  0.45593999997E+02  0.45594000000E+02  0.51100000000E-03 0.  1.
         11   -1    0    0    0    0 -0.00000000000E+00 -0.00000000000E+00 -0.45593999997E+02  0.45594000000E+02  0.51100000000E-03 0. -1.
    9900012    2    1    2    0    0 -0.11704551296E+02  0.42747734691E+01 -0.13978867938E+02  0.72461575939E+02  0.70000007354E+02 0.  0.
        -12    1    1    2    0    0  0.11704551296E+02 -0.42747734691E+01  0.13978867938E+02  0.18726424061E+02  0.00000000000E+00 0.  1.
         11    1    3    3    0    0 -0.29918938298E+02 -0.16733785116E+02  0.70654174103E+01  0.35001179361E+02  0.51100000000E-03 0. -1.
        -11    1    3    3    0    0  0.17926594938E+02  0.18489432329E+02 -0.12651348358E+02  0.28692830628E+02  0.51100000000E-03 0.  1.
         12    1    3    3    0    0  0.28779206394E+00  0.25191262562E+01 -0.83929369905E+01  0.87675659503E+01  0.00000000000E+00 0. -1.
</event>
<event>
 7    1  0.1857734E-013  0.7246161E+02  0.7816164E-02  0.1226708E+00
        -11   -1    0    0    0    0  0.00000000000E+00  0.00000000000E+00  0.45593999997E+02  0.45594000000E+02  0.51100000000E-03 0.  1.
         11   -1    0    0    0    0 -0.00000000000E+00 -0.00000000000E+00 -0.45593999997E+02  0.45594000000E+02  0.51100000000E-03 0. -1.
    9900012    2    1    2    0    0 -0.81294956773E+01 -0.13703822974E+02 -0.98384131868E+01  0.72461605843E+02  0.70000046309E+02 0.  0.
        -12    1    1    2    0    0  0.81294956773E+01  0.13703822974E+02  0.98384131868E+01  0.18726394157E+02  0.00000000000E+00 0.  1.
         11    1    3    3    0    0  0.32210850802E+01 -0.14744929757E+02  0.47396650182E+01  0.15819379487E+02  0.51100000000E-03 0. -1.
        -11    1    3    3    0    0 -0.26679741680E+02 -0.18377413548E+01 -0.26008921565E+02  0.37304824227E+02  0.51100000000E-03 0.  1.
        -12    1    3    3    0    0  0.15329160922E+02  0.28788481372E+01  0.11430843360E+02  0.19337402129E+02  0.00000000000E+00 0.  1.
</event>
<event>
 7    1  0.1857734E-013  0.7246156E+02  0.7816164E-02  0.1226708E+00
        -11   -1    0    0    0    0  0.00000000000E+00  0.00000000000E+00  0.45593999997E+02  0.45594000000E+02  0.51100000000E-03 0.  1.
         11   -1    0    0    0    0 -0.00000000000E+00 -0.00000000000E+00 -0.45593999997E+02  0.45594000000E+02  0.51100000000E-03 0. -1.
    9900012    2    1    2    0    0  0.19347669421E+01 -0.14790882552E+02 -0.11321043275E+02  0.72461560119E+02  0.69999986744E+02 0.  0.
        -12    1    1    2    0    0 -0.19347669421E+01  0.14790882552E+02  0.11321043275E+02  0.18726439881E+02  0.00000000000E+00 0.  1.
         11    1    3    3    0    0 -0.17214483056E+02 -0.11025498978E+02  0.51486632359E+01  0.21081005383E+02  0.51100000000E-03 0.  1.
        -11    1    3    3    0    0  0.33375173075E+02 -0.45391426781E+01 -0.73817009819E+01  0.34481814100E+02  0.51100000000E-03 0. -1.
         12    1    3    3    0    0 -0.14225923077E+02  0.77375910437E+00 -0.90880055295E+01  0.16898740635E+02  0.00000000000E+00 0. -1.
</event>
<event>
 7    1  0.1857734E-013  0.7246163E+02  0.7816164E-02  0.1226708E+00
        -11   -1    0    0    0    0  0.00000000000E+00  0.00000000000E+00  0.45593999997E+02  0.45594000000E+02  0.51100000000E-03 0.  1.
         11   -1    0    0    0    0 -0.00000000000E+00 -0.00000000000E+00 -0.45593999997E+02  0.45594000000E+02  0.51100000000E-03 0. -1.
    9900012    2    1    2    0    0  0.11755689612E+02 -0.11464313686E+01  0.14531559359E+02  0.72461634615E+02  0.70000083789E+02 0.  0.
        -12    1    1    2    0    0 -0.11755689612E+02  0.11464313686E+01 -0.14531559359E+02  0.18726365385E+02  0.00000000000E+00 0.  1.
         11    1    3    3    0    0  0.34001506816E+02 -0.62483524751E+01  0.17387546148E+02  0.38697172193E+02  0.51100000000E-03 0. -1.
        -11    1    3    3    0    0 -0.50393241738E+01  0.10372272647E+02  0.67537181549E+01  0.13363814469E+02  0.51100000000E-03 0.  1.
         12    1    3    3    0    0 -0.17206493030E+02 -0.52703515407E+01 -0.96097049442E+01  0.20400647952E+02  0.00000000000E+00 0. -1.
</event>
<event>
 7    1  0.1857734E-013  0.7246159E+02  0.7816164E-02  0.1226708E+00
        -11   -1    0    0    0    0  0.00000000000E+00  0.00000000000E+00  0.45593999997E+02  0.45594000000E+02  0.51100000000E-03 0. -1.
         11   -1    0    0    0    0 -0.00000000000E+00 -0.00000000000E+00 -0.45593999997E+02  0.45594000000E+02  0.51100000000E-03 0.  1.
    9900012    2    1    2    0    0  0.24888463265E+01  0.18014140287E+02  0.44693238836E+01  0.72461589178E+02  0.70000024599E+02 0.  0.
        -12    1    1    2    0    0 -0.24888463265E+01 -0.18014140287E+02 -0.44693238836E+01  0.18726410822E+02  0.00000000000E+00 0.  1.
         11    1    3    3    0    0  0.16159287390E+02  0.18373949313E+02  0.53742574878E+01  0.25052090255E+02  0.51100000000E-03 0. -1.
        -11    1    3    3    0    0 -0.18900081567E+02 -0.18708008721E+02 -0.67846557984E+01  0.27445113010E+02  0.51100000000E-03 0.  1.
        -12    1    3    3    0    0  0.52296405027E+01  0.18348199695E+02  0.58797221942E+01  0.19964385913E+02  0.00000000000E+00 0.  1.
</event>
<event>
 7    1  0.1857734E-013  0.7246168E+02  0.7816164E-02  0.1226708E+00
        -11   -1    0    0    0    0  0.00000000000E+00  0.00000000000E+00  0.45593999997E+02  0.45594000000E+02  0.51100000000E-03 0. -1.
         11   -1    0    0    0    0 -0.00000000000E+00 -0.00000000000E+00 -0.45593999997E+02  0.45594000000E+02  0.51100000000E-03 0.  1.
    9900012    2    1    2    0    0  0.45126519128E+01 -0.18115754901E+02  0.14596187717E+01  0.72461679222E+02  0.70000141899E+02 0.  0.
        -12    1    1    2    0    0 -0.45126519128E+01  0.18115754901E+02 -0.14596187717E+01  0.18726320778E+02  0.00000000000E+00 0.  1.
         11    1    3    3    0    0 -0.56679022405E+01  0.13676628192E+01  0.10485019254E+02  0.11997134925E+02  0.51100000000E-03 0. -1.
        -11    1    3    3    0    0  0.55291577413E+01 -0.34815113055E+02 -0.20480435429E+02  0.40769006831E+02  0.51100000000E-03 0.  1.
        -12    1    3    3    0    0  0.46513964120E+01  0.15331695335E+02  0.11455034947E+02  0.19695537466E+02  0.00000000000E+00 0.  1.
</event>
<event>
 7    1  0.1857734E-013  0.7246157E+02  0.7816164E-02  0.1226708E+00
        -11   -1    0    0    0    0  0.00000000000E+00  0.00000000000E+00  0.45593999997E+02  0.45594000000E+02  0.51100000000E-03 0.  1.
         11   -1    0    0    0    0 -0.00000000000E+00 -0.00000000000E+00 -0.45593999997E+02  0.45594000000E+02  0.51100000000E-03 0. -1.
    9900012    2    1    2    0    0  0.27566374935E+01 -0.18520780714E+02 -0.24683253555E+00  0.72461566949E+02  0.69999995642E+02 0.  0.
        -12    1    1    2    0    0 -0.27566374935E+01  0.18520780714E+02  0.24683253555E+00  0.18726433051E+02  0.00000000000E+00 0.  1.
         11    1    3    3    0    0  0.22623003477E+02 -0.26839867017E+01 -0.10018669003E+02  0.24887301979E+02  0.51100000000E-03 0. -1.
        -11    1    3    3    0    0 -0.19926170682E+02 -0.27929715773E+02  0.54907852976E+01  0.34745791467E+02  0.51100000000E-03 0.  1.
        -12    1    3    3    0    0  0.59804698593E-01  0.12092921760E+02  0.42810511695E+01  0.12828473503E+02  0.00000000000E+00 0.  1.
</event>
<event>
 7    1  0.1857734E-013  0.7246166E+02  0.7816164E-02  0.1226708E+00
        -11   -1    0    0    0    0  0.00000000000E+00  0.00000000000E+00  0.45593999997E+02  0.45594000000E+02  0.51100000000E-03 0. -1.
         11   -1    0    0    0    0 -0.00000000000E+00 -0.00000000000E+00 -0.45593999997E+02  0.45594000000E+02  0.51100000000E-03 0.  1.
    9900012    2    1    2    0    0  0.38071693459E+01 -0.42111876553E-01  0.18335200602E+02  0.72461657780E+02  0.70000113966E+02 0.  0.
        -12    1    1    2    0    0 -0.38071693459E+01  0.42111876553E-01 -0.18335200602E+02  0.18726342220E+02  0.00000000000E+00 0.  1.
         11    1    3    3    0    0  0.12591890858E+02 -0.86244477561E+01 -0.15577780440E+02  0.21808348359E+02  0.51100000000E-03 0. -1.
        -11    1    3    3    0    0 -0.18613408723E+02  0.85426829800E+01  0.64302460464E+01  0.21465891113E+02  0.51100000000E-03 0.  1.
        -12    1    3    3    0    0  0.98286872116E+01  0.39652899548E-01  0.27482734995E+02  0.29187418308E+02  0.00000000000E+00 0.  1.
</event>
<event>
 7    1  0.1857734E-013  0.7246163E+02  0.7816164E-02  0.1226708E+00
        -11   -1    0    0    0    0  0.00000000000E+00  0.00000000000E+00  0.45593999997E+02  0.45594000000E+02  0.51100000000E-03 0.  1.
         11   -1    0    0    0    0 -0.00000000000E+00 -0.00000000000E+00 -0.45593999997E+02  0.45594000000E+02  0.51100000000E-03 0. -1.
    9900012    2    1    2    0    0 -0.96965590824E+01 -0.11805253992E+02 -0.10830034899E+02  0.72461629936E+02  0.70000077694E+02 0.  0.
        -12    1    1    2    0    0  0.96965590824E+01  0.11805253992E+02  0.10830034899E+02  0.18726370064E+02  0.00000000000E+00 0.  1.
         11    1    3    3    0    0 -0.13548841939E+02 -0.27655283651E+02  0.58614607300E+01  0.31348724916E+02  0.51100000000E-03 0. -1.
        -11    1    3    3    0    0 -0.98202285998E+01  0.12296254837E+02  0.38331013711E+01  0.16196525527E+02  0.51100000000E-03 0.  1.
         12    1    3    3    0    0  0.13672511456E+02  0.35537748223E+01 -0.20524597000E+02  0.24916379493E+02  0.00000000000E+00 0. -1.
</event>
<event>
 7    1  0.1857734E-013  0.7246158E+02  0.7816164E-02  0.1226708E+00
        -11   -1    0    0    0    0  0.00000000000E+00  0.00000000000E+00  0.45593999997E+02  0.45594000000E+02  0.51100000000E-03 0. -1.
         11   -1    0    0    0    0 -0.00000000000E+00 -0.00000000000E+00 -0.45593999997E+02  0.45594000000E+02  0.51100000000E-03 0.  1.
    9900012    2    1    2    0    0 -0.45079495741E+01  0.18167582319E+02 -0.54420743529E+00  0.72461579669E+02  0.70000012212E+02 0.  0.
        -12    1    1    2    0    0  0.45079495741E+01 -0.18167582319E+02  0.54420743529E+00  0.18726420331E+02  0.00000000000E+00 0.  1.
         11    1    3    3    0    0  0.29545241457E+02  0.69506263757E+01  0.70927477808E+01  0.31169529530E+02  0.51100000000E-03 0.  1.
        -11    1    3    3    0    0 -0.21281899587E+02  0.16093067120E+02 -0.71043337586E+01  0.27611186461E+02  0.51100000000E-03 0. -1.
        -12    1    3    3    0    0 -0.12771291444E+02 -0.48761111771E+01 -0.53262145753E+00  0.13680863678E+02  0.00000000000E+00 0.  1.
</event>
<event>
 7    1  0.1857734E-013  0.7246158E+02  0.7816164E-02  0.1226708E+00
        -11   -1    0    0    0    0  0.00000000000E+00  0.00000000000E+00  0.45593999997E+02  0.45594000000E+02  0.51100000000E-03 0.  1.
         11   -1    0    0    0    0 -0.00000000000E+00 -0.00000000000E+00 -0.45593999997E+02  0.45594000000E+02  0.51100000000E-03 0. -1.
    9900012    2    1    2    0    0 -0.12548295187E+02 -0.70243091640E+01 -0.11994923684E+02  0.72461579479E+02  0.70000011965E+02 0.  0.
        -12    1    1    2    0    0  0.12548295187E+02  0.70243091640E+01  0.11994923684E+02  0.18726420521E+02  0.00000000000E+00 0.  1.
         11    1    3    3    0    0 -0.28573024774E+02 -0.21842168692E+02 -0.16157164008E+02  0.39427807787E+02  0.51100000000E-03 0. -1.
        -11    1    3    3    0    0  0.18864418059E+02  0.19424720547E+01 -0.71019001784E+00  0.18977456007E+02  0.51100000000E-03 0.  1.
         12    1    3    3    0    0 -0.28396884722E+01  0.12875387473E+02  0.48724303416E+01  0.14056315685E+02  0.00000000000E+00 0. -1.
</event>
<event>
 7    1  0.1857734E-013  0.7246161E+02  0.7816164E-02  0.1226708E+00
        -11   -1    0    0    0    0  0.00000000000E+00  0.00000000000E+00  0.45593999997E+02  0.45594000000E+02  0.51100000000E-03 0.  1.
         11   -1    0    0    0    0 -0.00000000000E+00 -0.00000000000E+00 -0.45593999997E+02  0.45594000000E+02  0.51100000000E-03 0. -1.
    9900012    2    1    2    0    0  0.32394988686E+01 -0.18441325043E+02  0.31742668433E+00  0.72461612682E+02  0.70000055218E+02 0.  0.
        -12    1    1    2    0    0 -0.32394988686E+01  0.18441325043E+02 -0.31742668433E+00  0.18726387318E+02  0.00000000000E+00 0.  1.
         11    1    3    3    0    0  0.26861584036E+02 -0.17707742855E+02  0.18099684895E+02  0.36914867567E+02  0.51100000000E-03 0. -1.
        -11    1    3    3    0    0 -0.14580710805E+02  0.76693030381E+01 -0.38218990869E+01  0.16912192335E+02  0.51100000000E-03 0.  1.
         12    1    3    3    0    0 -0.90413743618E+01 -0.84028852268E+01 -0.13960359123E+02  0.18634552781E+02  0.00000000000E+00 0. -1.
</event>
<event>
 7    1  0.1857734E-013  0.7246196E+02  0.7816164E-02  0.1226707E+00
        -11   -1    0    0    0    0  0.00000000000E+00  0.00000000000E+00  0.45593999997E+02  0.45594000000E+02  0.51100000000E-03 0.  1.
         11   -1    0    0    0    0 -0.00000000000E+00 -0.00000000000E+00 -0.45593999997E+02  0.45594000000E+02  0.51100000000E-03 0. -1.
    9900012    2    1    2    0    0 -0.16659456059E+01  0.62776131223E+01 -0.17563617678E+02  0.72461962853E+02  0.70000511379E+02 0.  0.
        -12    1    1    2    0    0  0.16659456059E+01 -0.62776131223E+01  0.17563617678E+02  0.18726037147E+02  0.00000000000E+00 0.  1.
         11    1    3    3    0    0  0.17315538456E+01 -0.19462722256E+02  0.10726866248E+02  0.22290390219E+02  0.51100000000E-03 0. -1.
        -11    1    3    3    0    0 -0.37559141752E+00  0.14595083889E+02 -0.34209928783E+02  0.37195117559E+02  0.51100000000E-03 0.  1.
        -12    1    3    3    0    0 -0.30219080340E+01  0.11145251490E+02  0.59194448565E+01  0.12976455076E+02  0.00000000000E+00 0.  1.
</event>
<event>
 7    1  0.1857734E-013  0.7246171E+02  0.7816164E-02  0.1226708E+00
        -11   -1    0    0    0    0  0.00000000000E+00  0.00000000000E+00  0.45593999997E+02  0.45594000000E+02  0.51100000000E-03 0.  1.
         11   -1    0    0    0    0 -0.00000000000E+00 -0.00000000000E+00 -0.45593999997E+02  0.45594000000E+02  0.51100000000E-03 0. -1.
    9900012    2    1    2    0    0 -0.76395347505E+01  0.69192107294E+01 -0.15634449321E+02  0.72461709020E+02  0.70000180715E+02 0.  0.
        -12    1    1    2    0    0  0.76395347505E+01 -0.69192107294E+01  0.15634449321E+02  0.18726290980E+02  0.00000000000E+00 0.  1.
         11    1    3    3    0    0 -0.25502989042E+02  0.30226743920E+01 -0.30483712607E+02  0.39859700766E+02  0.51100000000E-03 0. -1.
        -11    1    3    3    0    0  0.19750350194E+01 -0.66216506493E+01  0.11261864527E+02  0.13212744361E+02  0.51100000000E-03 0.  1.
         12    1    3    3    0    0  0.15888419272E+02  0.10518186987E+02  0.35873987597E+01  0.19389263893E+02  0.00000000000E+00 0. -1.
</event>
<event>
 7    1  0.1857734E-013  0.7246154E+02  0.7816164E-02  0.1226708E+00
        -11   -1    0    0    0    0  0.00000000000E+00  0.00000000000E+00  0.45593999997E+02  0.45594000000E+02  0.51100000000E-03 0.  1.
         11   -1    0    0    0    0 -0.00000000000E+00 -0.00000000000E+00 -0.45593999997E+02  0.45594000000E+02  0.51100000000E-03 0. -1.
    9900012    2    1    2    0    0 -0.10679495367E+02 -0.12453912014E+02 -0.90293305719E+01  0.72461538607E+02  0.69999958721E+02 0.  0.
        -12    1    1    2    0    0  0.10679495367E+02  0.12453912014E+02  0.90293305719E+01  0.18726461393E+02  0.00000000000E+00 0.  1.
         11    1    3    3    0    0  0.24569189322E+02  0.14746771264E+01 -0.80092993091E+00  0.24626433473E+02  0.51100000000E-03 0. -1.
        -11    1    3    3    0    0 -0.18858547908E+02 -0.16115516810E+02 -0.16047190271E+02  0.29544323094E+02  0.51100000000E-03 0.  1.
        -12    1    3    3    0    0 -0.16390136781E+02  0.21869276696E+01  0.78187896304E+01  0.18290782040E+02  0.00000000000E+00 0.  1.
</event>
<event>
 7    1  0.1857734E-013  0.7246156E+02  0.7816164E-02  0.1226708E+00
        -11   -1    0    0    0    0  0.00000000000E+00  0.00000000000E+00  0.45593999997E+02  0.45594000000E+02  0.51100000000E-03 0.  1.
         11   -1    0    0    0    0 -0.00000000000E+00 -0.00000000000E+00 -0.45593999997E+02  0.45594000000E+02  0.51100000000E-03 0. -1.
    9900012    2    1    2    0    0 -0.24072206746E+01  0.42001124619E+01 -0.18089887856E+02  0.72461556165E+02  0.69999981594E+02 0.  0.
        -12    1    1    2    0    0  0.24072206746E+01 -0.42001124619E+01  0.18089887856E+02  0.18726443835E+02  0.00000000000E+00 0.  1.
         11    1    3    3    0    0  0.14011908469E+02  0.13917772646E+02 -0.83370162327E+01  0.21436973067E+02  0.51100000000E-03 0. -1.
        -11    1    3    3    0    0 -0.29431364587E+02  0.29137988734E+00  0.38775341215E+01  0.29687125069E+02  0.51100000000E-03 0.  1.
        -12    1    3    3    0    0  0.13012235444E+02 -0.10009040071E+02 -0.13630405745E+02  0.21337458029E+02  0.00000000000E+00 0.  1.
</event>
<event>
 7    1  0.1857734E-013  0.7246157E+02  0.7816164E-02  0.1226708E+00
        -11   -1    0    0    0    0  0.00000000000E+00  0.00000000000E+00  0.45593999997E+02  0.45594000000E+02  0.51100000000E-03 0. -1.
         11   -1    0    0    0    0 -0.00000000000E+00 -0.00000000000E+00 -0.45593999997E+02  0.45594000000E+02  0.51100000000E-03 0.  1.
    9900012    2    1    2    0    0  0.10689503797E+02  0.15358668942E+02 -0.72467711014E+00  0.72461565209E+02  0.69999993375E+02 0.  0.
        -12    1    1    2    0    0 -0.10689503797E+02 -0.15358668942E+02  0.72467711014E+00  0.18726434791E+02  0.00000000000E+00 0.  1.
         11    1    3    3    0    0 -0.89322819208E+01 -0.11384769269E+02  0.12659539709E+02  0.19226611181E+02  0.51100000000E-03 0. -1.
        -11    1    3    3    0    0  0.32587856095E+01  0.25996659699E+02 -0.22459333895E+02  0.34508950700E+02  0.51100000000E-03 0.  1.
        -12    1    3    3    0    0  0.16363000108E+02  0.74677851181E+00  0.90751170762E+01  0.18726003328E+02  0.00000000000E+00 0.  1.
</event>
<event>
 7    1  0.1857734E-013  0.7246155E+02  0.7816164E-02  0.1226708E+00
        -11   -1    0    0    0    0  0.00000000000E+00  0.00000000000E+00  0.45593999997E+02  0.45594000000E+02  0.51100000000E-03 0. -1.
         11   -1    0    0    0    0 -0.00000000000E+00 -0.00000000000E+00 -0.45593999997E+02  0.45594000000E+02  0.51100000000E-03 0.  1.
    9900012    2    1    2    0    0  0.25937301826E+01 -0.52177116492E+01  0.17796848636E+02  0.72461554195E+02  0.69999979027E+02 0.  0.
        -12    1    1    2    0    0 -0.25937301826E+01  0.52177116492E+01 -0.17796848636E+02  0.18726445805E+02  0.00000000000E+00 0.  1.
         11    1    3    3    0    0  0.69338786588E+01 -0.26084130979E+02  0.19794708996E+02  0.33470749419E+02  0.51100000000E-03 0. -1.
        -11    1    3    3    0    0 -0.10822037426E+02  0.12819630579E+02 -0.14915905388E+02  0.22448689406E+02  0.51100000000E-03 0.  1.
         12    1    3    3    0    0  0.64818889498E+01  0.80467887508E+01  0.12918045028E+02  0.16542115370E+02  0.00000000000E+00 0. -1.
</event>
<event>
 7    1  0.1857734E-013  0.7246156E+02  0.7816164E-02  0.1226708E+00
        -11   -1    0    0    0    0  0.00000000000E+00  0.00000000000E+00  0.45593999997E+02  0.45594000000E+02  0.51100000000E-03 0.  1.
         11   -1    0    0    0    0 -0.00000000000E+00 -0.00000000000E+00 -0.45593999997E+02  0.45594000000E+02  0.51100000000E-03 0. -1.
    9900012    2    1    2    0    0 -0.24854544658E+01  0.15402873660E+02 -0.10356322499E+02  0.72461563697E+02  0.69999991406E+02 0.  0.
        -12    1    1    2    0    0  0.24854544658E+01 -0.15402873660E+02  0.10356322499E+02  0.18726436303E+02  0.00000000000E+00 0.  1.
         11    1    3    3    0    0  0.29349421127E+02 -0.62202243095E+01  0.60056286360E+01  0.30596524093E+02  0.51100000000E-03 0. -1.
        -11    1    3    3    0    0 -0.13130897122E+02  0.80256205476E+01 -0.58511656669E+01  0.16464118085E+02  0.51100000000E-03 0.  1.
         12    1    3    3    0    0 -0.18703978472E+02  0.13597477422E+02 -0.10510785468E+02  0.25400921520E+02  0.00000000000E+00 0. -1.
</event>
<event>
 7    1  0.1857734E-013  0.7246139E+02  0.7816164E-02  0.1226708E+00
        -11   -1    0    0    0    0  0.00000000000E+00  0.00000000000E+00  0.45593999997E+02  0.45594000000E+02  0.51100000000E-03 0.  1.
         11   -1    0    0    0    0 -0.00000000000E+00 -0.00000000000E+00 -0.45593999997E+02  0.45594000000E+02  0.51100000000E-03 0. -1.
    9900012    2    1    2    0    0 -0.18558435595E+02  0.17232283838E+01  0.18168550081E+01  0.72461387655E+02  0.69999762078E+02 0.  0.
        -12    1    1    2    0    0  0.18558435595E+02 -0.17232283838E+01 -0.18168550081E+01  0.18726612345E+02  0.00000000000E+00 0.  1.
         11    1    3    3    0    0 -0.35535675985E+01  0.30666266023E+02  0.14468733035E+02  0.34093869689E+02  0.51100000000E-03 0. -1.
        -11    1    3    3    0    0 -0.10961852976E+02 -0.15063434436E+02  0.76346033214E+00  0.18645432406E+02  0.51100000000E-03 0.  1.
         12    1    3    3    0    0 -0.40430150210E+01 -0.13879603203E+02 -0.13415338359E+02  0.19722085560E+02  0.00000000000E+00 0. -1.
</event>
<event>
 7    1  0.1857734E-013  0.7246160E+02  0.7816164E-02  0.1226708E+00
        -11   -1    0    0    0    0  0.00000000000E+00  0.00000000000E+00  0.45593999997E+02  0.45594000000E+02  0.51100000000E-03 0.  1.
         11   -1    0    0    0    0 -0.00000000000E+00 -0.00000000000E+00 -0.45593999997E+02  0.45594000000E+02  0.51100000000E-03 0. -1.
    9900012    2    1    2    0    0 -0.75014433325E+01 -0.12459426957E+02 -0.11796991246E+02  0.72461602199E+02  0.70000041561E+02 0.  0.
        -12    1    1    2    0    0  0.75014433325E+01  0.12459426957E+02  0.11796991246E+02  0.18726397801E+02  0.00000000000E+00 0.  1.
         11    1    3    3    0    0  0.20928887294E+02  0.72413613185E+01 -0.58035529043E+01  0.22894035548E+02  0.51100000000E-03 0. -1.
        -11    1    3    3    0    0 -0.18877407679E+02  0.38146137664E+01  0.76839223454E+01  0.20735246845E+02  0.51100000000E-03 0.  1.
         12    1    3    3    0    0 -0.95529229471E+01 -0.23515402042E+02 -0.13677360687E+02  0.28832319805E+02  0.00000000000E+00 0. -1.
</event>
<event>
 7    1  0.1857734E-013  0.7246161E+02  0.7816164E-02  0.1226708E+00
        -11   -1    0    0    0    0  0.00000000000E+00  0.00000000000E+00  0.45593999997E+02  0.45594000000E+02  0.51100000000E-03 0.  1.
         11   -1    0    0    0    0 -0.00000000000E+00 -0.00000000000E+00 -0.45593999997E+02  0.45594000000E+02  0.51100000000E-03 0. -1.
    9900012    2    1    2    0    0  0.10624984912E+02  0.11215252107E+02 -0.10583265685E+02  0.72461609617E+02  0.70000051225E+02 0.  0.
        -12    1    1    2    0    0 -0.10624984912E+02 -0.11215252107E+02  0.10583265685E+02  0.18726390383E+02  0.00000000000E+00 0.  1.
         11    1    3    3    0    0  0.20213868004E+02  0.58209620066E+01  0.16432612395E+02  0.26692973022E+02  0.51100000000E-03 0.  1.
        -11    1    3    3    0    0 -0.11198061836E+02  0.18550291342E+02 -0.23687469867E+02  0.32103054788E+02  0.51100000000E-03 0. -1.
        -12    1    3    3    0    0  0.16091787434E+01 -0.13156001242E+02 -0.33284082129E+01  0.13665581807E+02  0.00000000000E+00 0.  1.
</event>
<event>
 7    1  0.1857734E-013  0.7246159E+02  0.7816164E-02  0.1226708E+00
        -11   -1    0    0    0    0  0.00000000000E+00  0.00000000000E+00  0.45593999997E+02  0.45594000000E+02  0.51100000000E-03 0. -1.
         11   -1    0    0    0    0 -0.00000000000E+00 -0.00000000000E+00 -0.45593999997E+02  0.45594000000E+02  0.51100000000E-03 0.  1.
    9900012    2    1    2    0    0 -0.18145537250E+02  0.76177870090E+00  0.45648340292E+01  0.72461587140E+02  0.70000021945E+02 0.  0.
        -12    1    1    2    0    0  0.18145537250E+02 -0.76177870090E+00 -0.45648340292E+01  0.18726412860E+02  0.00000000000E+00 0.  1.
         11    1    3    3    0    0  0.21394998858E+02  0.14600555294E+02  0.11534737771E+02  0.28354406478E+02  0.51100000000E-03 0.  1.
        -11    1    3    3    0    0 -0.26091055205E+02 -0.61856572256E+01  0.72716401231E+00  0.26824136236E+02  0.51100000000E-03 0. -1.
        -12    1    3    3    0    0 -0.13449480903E+02 -0.76531193676E+01 -0.76970677544E+01  0.17283044426E+02  0.00000000000E+00 0.  1.
</event>
<event>
 7    1  0.1857734E-013  0.7246152E+02  0.7816164E-02  0.1226708E+00
        -11   -1    0    0    0    0  0.00000000000E+00  0.00000000000E+00  0.45593999997E+02  0.45594000000E+02  0.51100000000E-03 0. -1.
         11   -1    0    0    0    0 -0.00000000000E+00 -0.00000000000E+00 -0.45593999997E+02  0.45594000000E+02  0.51100000000E-03 0.  1.
    9900012    2    1    2    0    0 -0.82110816603E+01 -0.59173337813E+01  0.15755776785E+02  0.72461515994E+02  0.69999929264E+02 0.  0.
        -12    1    1    2    0    0  0.82110816603E+01  0.59173337813E+01 -0.15755776785E+02  0.18726484006E+02  0.00000000000E+00 0.  1.
         11    1    3    3    0    0 -0.59807538889E+01 -0.65123923619E+01  0.22360577323E+02  0.24045292467E+02  0.51100000000E-03 0. -1.
        -11    1    3    3    0    0  0.45852310185E+01 -0.99564256756E+01 -0.24333542564E+02  0.26688500327E+02  0.51100000000E-03 0.  1.
        -12    1    3    3    0    0 -0.68155587899E+01  0.10551484256E+02  0.17728742027E+02  0.21727723201E+02  0.00000000000E+00 0.  1.
</event>
<event>
 7    1  0.1857734E-013  0.7246157E+02  0.7816164E-02  0.1226708E+00
        -11   -1    0    0    0    0  0.00000000000E+00  0.00000000000E+00  0.45593999997E+02  0.45594000000E+02  0.51100000000E-03 0.  1.
         11   -1    0    0    0    0 -0.00000000000E+00 -0.00000000000E+00 -0.45593999997E+02  0.45594000000E+02  0.51100000000E-03 0. -1.
    9900012    2    1    2    0    0  0.53871419870E+01 -0.12074016456E+02 -0.13261825298E+02  0.72461569950E+02  0.69999999552E+02 0.  0.
        -12    1    1    2    0    0 -0.53871419870E+01  0.12074016456E+02  0.13261825298E+02  0.18726430050E+02  0.00000000000E+00 0.  1.
         11    1    3    3    0    0  0.32324683879E+02  0.28738610230E+00 -0.70683587943E+01  0.33089718568E+02  0.51100000000E-03 0. -1.
        -11    1    3    3    0    0 -0.51277386542E+01  0.71846679291E+01  0.18113930150E+01  0.90107880828E+01  0.51100000000E-03 0.  1.
         12    1    3    3    0    0 -0.21809803237E+02 -0.19546070487E+02 -0.80048595190E+01  0.30361063299E+02  0.00000000000E+00 0. -1.
</event>
<event>
 7    1  0.1857734E-013  0.7246153E+02  0.7816164E-02  0.1226708E+00
        -11   -1    0    0    0    0  0.00000000000E+00  0.00000000000E+00  0.45593999997E+02  0.45594000000E+02  0.51100000000E-03 0.  1.
         11   -1    0    0    0    0 -0.00000000000E+00 -0.00000000000E+00 -0.45593999997E+02  0.45594000000E+02  0.51100000000E-03 0. -1.
    9900012    2    1    2    0    0  0.48063931702E+01  0.12038375785E+02 -0.13515057092E+02  0.72461530096E+02  0.69999947635E+02 0.  0.
        -12    1    1    2    0    0 -0.48063931702E+01 -0.12038375785E+02  0.13515057092E+02  0.18726469904E+02  0.00000000000E+00 0.  1.
         11    1    3    3    0    0  0.13538319509E+02  0.12003808185E+02 -0.32318187763E+02  0.37038395843E+02  0.51100000000E-03 0. -1.
        -11    1    3    3    0    0 -0.15716263014E+02 -0.64592925667E+01  0.34337818295E+01  0.17335346593E+02  0.51100000000E-03 0.  1.
        -12    1    3    3    0    0  0.69843366758E+01  0.64938601664E+01  0.15369348841E+02  0.18087787661E+02  0.00000000000E+00 0.  1.
</event>
<event>
 7    1  0.1857734E-013  0.7246157E+02  0.7816164E-02  0.1226708E+00
        -11   -1    0    0    0    0  0.00000000000E+00  0.00000000000E+00  0.45593999997E+02  0.45594000000E+02  0.51100000000E-03 0. -1.
         11   -1    0    0    0    0 -0.00000000000E+00 -0.00000000000E+00 -0.45593999997E+02  0.45594000000E+02  0.51100000000E-03 0.  1.
    9900012    2    1    2    0    0 -0.13375305237E+01  0.85358477725E+01  0.16614131856E+02  0.72461573154E+02  0.70000003725E+02 0.  0.
        -12    1    1    2    0    0  0.13375305237E+01 -0.85358477725E+01 -0.16614131856E+02  0.18726426846E+02  0.00000000000E+00 0.  1.
         11    1    3    3    0    0  0.21069493870E+02  0.14063905656E+02 -0.39862042943E+01  0.25643846029E+02  0.51100000000E-03 0. -1.
        -11    1    3    3    0    0 -0.23533769388E+02 -0.16122173881E+02  0.66975118261E+01  0.29302209084E+02  0.51100000000E-03 0.  1.
        -12    1    3    3    0    0  0.11267449945E+01  0.10594115998E+02  0.13902824324E+02  0.17515518041E+02  0.00000000000E+00 0.  1.
</event>
<event>
 7    1  0.1857734E-013  0.7246156E+02  0.7816164E-02  0.1226708E+00
        -11   -1    0    0    0    0  0.00000000000E+00  0.00000000000E+00  0.45593999997E+02  0.45594000000E+02  0.51100000000E-03 0.  1.
         11   -1    0    0    0    0 -0.00000000000E+00 -0.00000000000E+00 -0.45593999997E+02  0.45594000000E+02  0.51100000000E-03 0. -1.
    9900012    2    1    2    0    0 -0.22781572924E+01  0.76652219377E+01 -0.16933215484E+02  0.72461563749E+02  0.69999991474E+02 0.  0.
        -12    1    1    2    0    0  0.22781572924E+01 -0.76652219377E+01  0.16933215484E+02  0.18726436251E+02  0.00000000000E+00 0.  1.
         11    1    3    3    0    0 -0.49671025135E+01 -0.58184985513E+00 -0.18680954589E+01  0.53385801051E+01  0.51100000000E-03 0. -1.
        -11    1    3    3    0    0  0.15878496442E+02 -0.24840577714E+02 -0.10073273166E+02  0.31155284992E+02  0.51100000000E-03 0.  1.
        -12    1    3    3    0    0 -0.13189551221E+02  0.33087649506E+02 -0.49918468594E+01  0.35967698652E+02  0.00000000000E+00 0.  1.
</event>
<event>
 7    1  0.1857734E-013  0.7246151E+02  0.7816164E-02  0.1226708E+00
        -11   -1    0    0    0    0  0.00000000000E+00  0.00000000000E+00  0.45593999997E+02  0.45594000000E+02  0.51100000000E-03 0.  1.
         11   -1    0    0    0    0 -0.00000000000E+00 -0.00000000000E+00 -0.45593999997E+02  0.45594000000E+02  0.51100000000E-03 0. -1.
    9900012    2    1    2    0    0  0.84535094580E+01 -0.30653346480E+01 -0.16426305209E+02  0.72461505361E+02  0.69999915412E+02 0.  0.
        -12    1    1    2    0    0 -0.84535094580E+01  0.30653346480E+01  0.16426305209E+02  0.18726494639E+02  0.00000000000E+00 0.  1.
         11    1    3    3    0    0 -0.11865935930E+02 -0.95325489243E+01  0.17768209449E+02  0.23396136257E+02  0.51100000000E-03 0.  1.
        -11    1    3    3    0    0  0.27113718487E+02  0.50477263206E+01 -0.30785054674E+02  0.41332225476E+02  0.51100000000E-03 0. -1.
         12    1    3    3    0    0 -0.67942730993E+01  0.14194879556E+01 -0.34094599829E+01  0.77331436285E+01  0.00000000000E+00 0. -1.
</event>
<event>
 7    1  0.1857734E-013  0.7246136E+02  0.7816164E-02  0.1226709E+00
        -11   -1    0    0    0    0  0.00000000000E+00  0.00000000000E+00  0.45593999997E+02  0.45594000000E+02  0.51100000000E-03 0.  1.
         11   -1    0    0    0    0 -0.00000000000E+00 -0.00000000000E+00 -0.45593999997E+02  0.45594000000E+02  0.51100000000E-03 0. -1.
    9900012    2    1    2    0    0 -0.13691501815E+02 -0.24868260093E+01  0.12531784948E+02  0.72461356960E+02  0.69999722092E+02 0.  0.
        -12    1    1    2    0    0  0.13691501815E+02  0.24868260093E+01 -0.12531784948E+02  0.18726643040E+02  0.00000000000E+00 0.  1.
         11    1    3    3    0    0 -0.16656881093E+02 -0.13179653294E+02 -0.14473981154E+02  0.25703133649E+02  0.51100000000E-03 0. -1.
        -11    1    3    3    0    0  0.38560512055E+01 -0.75963027103E+01  0.27141372579E+02  0.28446916379E+02  0.51100000000E-03 0.  1.
        -12    1    3    3    0    0 -0.89067192748E+00  0.18289129995E+02 -0.13560647753E+00  0.18311306932E+02  0.00000000000E+00 0.  1.
</event>
<event>
 7    1  0.1857734E-013  0.7246157E+02  0.7816164E-02  0.1226708E+00
        -11   -1    0    0    0    0  0.00000000000E+00  0.00000000000E+00  0.45593999997E+02  0.45594000000E+02  0.51100000000E-03 0.  1.
         11   -1    0    0    0    0 -0.00000000000E+00 -0.00000000000E+00 -0.45593999997E+02  0.45594000000E+02  0.51100000000E-03 0. -1.
    9900012    2    1    2    0    0  0.40599710357E+01  0.11430821989E+02 -0.14266466044E+02  0.72461571896E+02  0.70000002086E+02 0.  0.
        -12    1    1    2    0    0 -0.40599710357E+01 -0.11430821989E+02  0.14266466044E+02  0.18726428104E+02  0.00000000000E+00 0.  1.
         11    1    3    3    0    0  0.78462071551E+01  0.12969947214E+02 -0.17884655810E+02  0.23444475067E+02  0.51100000000E-03 0. -1.
        -11    1    3    3    0    0 -0.18536513693E+02 -0.17733471584E+02  0.75957128743E+01  0.26753938190E+02  0.51100000000E-03 0.  1.
        -12    1    3    3    0    0  0.14750277574E+02  0.16194346359E+02 -0.39775231082E+01  0.22263158639E+02  0.00000000000E+00 0.  1.
</event>
<event>
 7    1  0.1857734E-013  0.7246151E+02  0.7816164E-02  0.1226708E+00
        -11   -1    0    0    0    0  0.00000000000E+00  0.00000000000E+00  0.45593999997E+02  0.45594000000E+02  0.51100000000E-03 0.  1.
         11   -1    0    0    0    0 -0.00000000000E+00 -0.00000000000E+00 -0.45593999997E+02  0.45594000000E+02  0.51100000000E-03 0. -1.
    9900012    2    1    2    0    0  0.98204072192E+00 -0.17061279950E+02 -0.76570002682E+01  0.72461512593E+02  0.69999924833E+02 0.  0.
        -12    1    1    2    0    0 -0.98204072192E+00  0.17061279950E+02  0.76570002682E+01  0.18726487407E+02  0.00000000000E+00 0.  1.
         11    1    3    3    0    0  0.62862183426E+01 -0.97200516633E+01 -0.13098408468E+02  0.17480396164E+02  0.51100000000E-03 0. -1.
        -11    1    3    3    0    0  0.13930224435E+02  0.17323145555E+02  0.79375985534E+01  0.23603982625E+02  0.51100000000E-03 0.  1.
        -12    1    3    3    0    0 -0.19234402055E+02 -0.24664373842E+02 -0.24961903532E+01  0.31377133803E+02  0.00000000000E+00 0.  1.
</event>
<event>
 7    1  0.1857734E-013  0.7246158E+02  0.7816164E-02  0.1226708E+00
        -11   -1    0    0    0    0  0.00000000000E+00  0.00000000000E+00  0.45593999997E+02  0.45594000000E+02  0.51100000000E-03 0.  1.
         11   -1    0    0    0    0 -0.00000000000E+00 -0.00000000000E+00 -0.45593999997E+02  0.45594000000E+02  0.51100000000E-03 0. -1.
    9900012    2    1    2    0    0 -0.85301565440E+01 -0.97231107687E+01 -0.13541659162E+02  0.72461575180E+02  0.70000006364E+02 0.  0.
        -12    1    1    2    0    0  0.85301565440E+01  0.97231107687E+01  0.13541659162E+02  0.18726424820E+02  0.00000000000E+00 0.  1.
         11    1    3    3    0    0  0.12947676026E+02  0.85755914679E+01  0.62870803240E+01  0.16754416217E+02  0.51100000000E-03 0.  1.
        -11    1    3    3    0    0 -0.33940435598E+02 -0.18238367932E+02 -0.99240996057E+01  0.39787925136E+02  0.51100000000E-03 0. -1.
        -12    1    3    3    0    0  0.12462603028E+02 -0.60334305025E-01 -0.99046398802E+01  0.15919233827E+02  0.00000000000E+00 0.  1.
</event>
<event>
 7    1  0.1857734E-013  0.7246150E+02  0.7816164E-02  0.1226708E+00
        -11   -1    0    0    0    0  0.00000000000E+00  0.00000000000E+00  0.45593999997E+02  0.45594000000E+02  0.51100000000E-03 0.  1.
         11   -1    0    0    0    0 -0.00000000000E+00 -0.00000000000E+00 -0.45593999997E+02  0.45594000000E+02  0.51100000000E-03 0. -1.
    9900012    2    1    2    0    0  0.13018569496E+02 -0.74165800398E+01 -0.11233565595E+02  0.72461499868E+02  0.69999908257E+02 0.  0.
        -12    1    1    2    0    0 -0.13018569496E+02  0.74165800398E+01  0.11233565595E+02  0.18726500132E+02  0.00000000000E+00 0.  1.
         11    1    3    3    0    0  0.21059844859E+01 -0.57409117211E+01 -0.28833465236E+02  0.29474768122E+02  0.51100000000E-03 0. -1.
        -11    1    3    3    0    0 -0.54555623082E+01  0.14924440620E+02  0.77319675446E+01  0.17671598974E+02  0.51100000000E-03 0.  1.
         12    1    3    3    0    0  0.16368147318E+02 -0.16600108939E+02  0.98679320973E+01  0.25315132773E+02  0.00000000000E+00 0. -1.
</event>
<event>
 7    1  0.1857734E-013  0.7246159E+02  0.7816164E-02  0.1226708E+00
        -11   -1    0    0    0    0  0.00000000000E+00  0.00000000000E+00  0.45593999997E+02  0.45594000000E+02  0.51100000000E-03 0.  1.
         11   -1    0    0    0    0 -0.00000000000E+00 -0.00000000000E+00 -0.45593999997E+02  0.45594000000E+02  0.51100000000E-03 0. -1.
    9900012    2    1    2    0    0 -0.17974567086E+02 -0.40293609845E+01 -0.33701171636E+01  0.72461588129E+02  0.70000023233E+02 0.  0.
        -12    1    1    2    0    0  0.17974567086E+02  0.40293609845E+01  0.33701171636E+01  0.18726411871E+02  0.00000000000E+00 0.  1.
         11    1    3    3    0    0 -0.12719709135E+02  0.13237186429E+01 -0.20518017164E+02  0.24177101980E+02  0.51100000000E-03 0. -1.
        -11    1    3    3    0    0 -0.23562283605E+01 -0.25053884469E+02  0.83386456758E+01  0.26510034912E+02  0.51100000000E-03 0.  1.
        -12    1    3    3    0    0 -0.28986295905E+01  0.19700804842E+02  0.88092543251E+01  0.21774451237E+02  0.00000000000E+00 0.  1.
</event>
<event>
 7    1  0.1857734E-013  0.7246180E+02  0.7816164E-02  0.1226707E+00
        -11   -1    0    0    0    0  0.00000000000E+00  0.00000000000E+00  0.45593999997E+02  0.45594000000E+02  0.51100000000E-03 0. -1.
         11   -1    0    0    0    0 -0.00000000000E+00 -0.00000000000E+00 -0.45593999997E+02  0.45594000000E+02  0.51100000000E-03 0.  1.
    9900012    2    1    2    0    0  0.74094305505E+01  0.70890831165E+01  0.15668943033E+02  0.72461800805E+02  0.70000300282E+02 0.  0.
        -12    1    1    2    0    0 -0.74094305505E+01 -0.70890831165E+01 -0.15668943033E+02  0.18726199195E+02  0.00000000000E+00 0.  1.
         11    1    3    3    0    0  0.18868192749E+02  0.70989207921E+00  0.77205220332E+01  0.20398997649E+02  0.51100000000E-03 0. -1.
        -11    1    3    3    0    0 -0.23284533485E+02 -0.69291731402E+01  0.19232104346E+02  0.30984783005E+02  0.51100000000E-03 0.  1.
        -12    1    3    3    0    0  0.11825771287E+02  0.13308364178E+02 -0.11283683346E+02  0.21078020151E+02  0.00000000000E+00 0.  1.
</event>
<event>
 7    1  0.1857734E-013  0.7246156E+02  0.7816164E-02  0.1226708E+00
        -11   -1    0    0    0    0  0.00000000000E+00  0.00000000000E+00  0.45593999997E+02  0.45594000000E+02  0.51100000000E-03 0.  1.
         11   -1    0    0    0    0 -0.00000000000E+00 -0.00000000000E+00 -0.45593999997E+02  0.45594000000E+02  0.51100000000E-03 0. -1.
    9900012    2    1    2    0    0  0.13934810697E+02  0.79418508633E+01 -0.96657883012E+01  0.72461563932E+02  0.69999991712E+02 0.  0.
        -12    1    1    2    0    0 -0.13934810697E+02 -0.79418508633E+01  0.96657883012E+01  0.18726436068E+02  0.00000000000E+00 0.  1.
         11    1    3    3    0    0  0.19496872879E+02 -0.56430164112E+00 -0.14066465259E+01  0.19555693369E+02  0.51100000000E-03 0. -1.
        -11    1    3    3    0    0 -0.15185251486E+02 -0.18290271500E+02 -0.31737970381E+01  0.23983304237E+02  0.51100000000E-03 0.  1.
        -12    1    3    3    0    0  0.96231893038E+01  0.26796424005E+02 -0.50853447372E+01  0.28922566327E+02  0.00000000000E+00 0.  1.
</event>
<event>
 7    1  0.1857734E-013  0.7246158E+02  0.7816164E-02  0.1226708E+00
        -11   -1    0    0    0    0  0.00000000000E+00  0.00000000000E+00  0.45593999997E+02  0.45594000000E+02  0.51100000000E-03 0. -1.
         11   -1    0    0    0    0 -0.00000000000E+00 -0.00000000000E+00 -0.45593999997E+02  0.45594000000E+02  0.51100000000E-03 0.  1.
    9900012    2    1    2    0    0 -0.50441189635E+01  0.17775705252E+02  0.30430274646E+01  0.72461578839E+02  0.70000011131E+02 0.  0.
        -12    1    1    2    0    0  0.50441189635E+01 -0.17775705252E+02 -0.30430274646E+01  0.18726421161E+02  0.00000000000E+00 0.  1.
         11    1    3    3    0    0  0.29206629610E+01  0.12279937274E+02  0.97369814853E+01  0.15941641706E+02  0.51100000000E-03 0. -1.
        -11    1    3    3    0    0 -0.37770633443E+01 -0.15529904870E+02 -0.24091057354E+02  0.28910607007E+02  0.51100000000E-03 0.  1.
        -12    1    3    3    0    0 -0.41877185803E+01  0.21025672848E+02  0.17397103334E+02  0.27609330126E+02  0.00000000000E+00 0.  1.
</event>
<event>
 7    1  0.1857734E-013  0.7246157E+02  0.7816164E-02  0.1226708E+00
        -11   -1    0    0    0    0  0.00000000000E+00  0.00000000000E+00  0.45593999997E+02  0.45594000000E+02  0.51100000000E-03 0. -1.
         11   -1    0    0    0    0 -0.00000000000E+00 -0.00000000000E+00 -0.45593999997E+02  0.45594000000E+02  0.51100000000E-03 0.  1.
    9900012    2    1    2    0    0 -0.54208083290E+01 -0.16284142648E+02  0.74913709046E+01  0.72461572077E+02  0.70000002322E+02 0.  0.
        -12    1    1    2    0    0  0.54208083290E+01  0.16284142648E+02 -0.74913709046E+01  0.18726427923E+02  0.00000000000E+00 0.  1.
         11    1    3    3    0    0  0.24611245644E+01 -0.19753394482E+01  0.62990140274E+01  0.70453302290E+01  0.51100000000E-03 0. -1.
        -11    1    3    3    0    0 -0.21216844905E+02 -0.17033717536E+02 -0.24324559152E+02  0.36496386383E+02  0.51100000000E-03 0.  1.
        -12    1    3    3    0    0  0.13334912012E+02  0.27249143363E+01  0.25516916029E+02  0.28919855465E+02  0.00000000000E+00 0.  1.
</event>
<event>
 7    1  0.1857734E-013  0.7246156E+02  0.7816164E-02  0.1226708E+00
        -11   -1    0    0    0    0  0.00000000000E+00  0.00000000000E+00  0.45593999997E+02  0.45594000000E+02  0.51100000000E-03 0. -1.
         11   -1    0    0    0    0 -0.00000000000E+00 -0.00000000000E+00 -0.45593999997E+02  0.45594000000E+02  0.51100000000E-03 0.  1.
    9900012    2    1    2    0    0 -0.10900666170E+02 -0.73015876108E-01  0.15226608171E+02  0.72461562788E+02  0.69999990221E+02 0.  0.
        -12    1    1    2    0    0  0.10900666170E+02  0.73015876108E-01 -0.15226608171E+02  0.18726437212E+02  0.00000000000E+00 0.  1.
         11    1    3    3    0    0 -0.22966980796E+01 -0.13556237223E+02  0.32312157622E+02  0.35115835747E+02  0.51100000000E-03 0. -1.
        -11    1    3    3    0    0  0.21053292144E+01  0.19677940290E+02 -0.14923422857E+02  0.24786332830E+02  0.51100000000E-03 0.  1.
         12    1    3    3    0    0 -0.10709297304E+02 -0.61947189427E+01 -0.21621265944E+01  0.12559394211E+02  0.00000000000E+00 0. -1.
</event>
<event>
 7    1  0.1857734E-013  0.7246156E+02  0.7816164E-02  0.1226708E+00
        -11   -1    0    0    0    0  0.00000000000E+00  0.00000000000E+00  0.45593999997E+02  0.45594000000E+02  0.51100000000E-03 0. -1.
         11   -1    0    0    0    0 -0.00000000000E+00 -0.00000000000E+00 -0.45593999997E+02  0.45594000000E+02  0.51100000000E-03 0.  1.
    9900012    2    1    2    0    0  0.11326079309E+02  0.14170302557E+02  0.46477925484E+01  0.72461560865E+02  0.69999987717E+02 0.  0.
        -12    1    1    2    0    0 -0.11326079309E+02 -0.14170302557E+02 -0.46477925484E+01  0.18726439135E+02  0.00000000000E+00 0.  1.
         11    1    3    3    0    0  0.30410754284E+02  0.30676157841E+02  0.76037308747E+01  0.43859518459E+02  0.51100000000E-03 0. -1.
        -11    1    3    3    0    0 -0.10776424901E+02 -0.16096222486E+02  0.98867993760E+00  0.19395803676E+02  0.51100000000E-03 0.  1.
         12    1    3    3    0    0 -0.83082500735E+01 -0.40963279732E+00 -0.39446182639E+01  0.92062387303E+01  0.00000000000E+00 0. -1.
</event>
<event>
 7    1  0.1857734E-013  0.7246225E+02  0.7816164E-02  0.1226706E+00
        -11   -1    0    0    0    0  0.00000000000E+00  0.00000000000E+00  0.45593999997E+02  0.45594000000E+02  0.51100000000E-03 0. -1.
         11   -1    0    0    0    0 -0.00000000000E+00 -0.00000000000E+00 -0.45593999997E+02  0.45594000000E+02  0.51100000000E-03 0.  1.
    9900012    2    1    2    0    0  0.97612803514E+01  0.13721513642E+02  0.81909304935E+01  0.72462245727E+02  0.70000879871E+02 0.  0.
        -12    1    1    2    0    0 -0.97612803514E+01 -0.13721513642E+02 -0.81909304935E+01  0.18725754273E+02  0.00000000000E+00 0.  1.
         11    1    3    3    0    0  0.23757273120E+00  0.27965347378E+02  0.73988860547E+01  0.28928543169E+02  0.51100000000E-03 0. -1.
        -11    1    3    3    0    0 -0.11645059021E+02 -0.17898456685E+02  0.42588552490E+01  0.21773837503E+02  0.51100000000E-03 0.  1.
         12    1    3    3    0    0  0.21168766642E+02  0.36546229487E+01 -0.34668108102E+01  0.21759865055E+02  0.00000000000E+00 0. -1.
</event>
<event>
 7    1  0.1857734E-013  0.7246164E+02  0.7816164E-02  0.1226708E+00
        -11   -1    0    0    0    0  0.00000000000E+00  0.00000000000E+00  0.45593999997E+02  0.45594000000E+02  0.51100000000E-03 0. -1.
         11   -1    0    0    0    0 -0.00000000000E+00 -0.00000000000E+00 -0.45593999997E+02  0.45594000000E+02  0.51100000000E-03 0.  1.
    9900012    2    1    2    0    0  0.75622362969E+01 -0.25384221287E+01  0.16942421532E+02  0.72461637511E+02  0.70000087562E+02 0.  0.
        -12    1    1    2    0    0 -0.75622362969E+01  0.25384221287E+01 -0.16942421532E+02  0.18726362489E+02  0.00000000000E+00 0.  1.
         11    1    3    3    0    0  0.11597043569E+02 -0.23801585631E+02 -0.37208147499E+01  0.26736704373E+02  0.51100000000E-03 0. -1.
        -11    1    3    3    0    0 -0.16814164666E+02  0.24862352183E+01  0.14095771710E+02  0.22081401208E+02  0.51100000000E-03 0.  1.
         12    1    3    3    0    0  0.12779357394E+02  0.18776928284E+02  0.65674645720E+01  0.23643531929E+02  0.00000000000E+00 0. -1.
</event>
<event>
 7    1  0.1857734E-013  0.7246153E+02  0.7816164E-02  0.1226708E+00
        -11   -1    0    0    0    0  0.00000000000E+00  0.00000000000E+00  0.45593999997E+02  0.45594000000E+02  0.51100000000E-03 0. -1.
         11   -1    0    0    0    0 -0.00000000000E+00 -0.00000000000E+00 -0.45593999997E+02  0.45594000000E+02  0.51100000000E-03 0.  1.
    9900012    2    1    2    0    0 -0.13689330919E+02 -0.12673874721E+02  0.16296989436E+01  0.72461526757E+02  0.69999943285E+02 0.  0.
        -12    1    1    2    0    0  0.13689330919E+02  0.12673874721E+02 -0.16296989436E+01  0.18726473243E+02  0.00000000000E+00 0.  1.
         11    1    3    3    0    0 -0.17274060995E+02  0.24199961765E+02 -0.96561008071E+01  0.31261343793E+02  0.51100000000E-03 0. -1.
        -11    1    3    3    0    0 -0.18455070294E+01 -0.32608929607E+02  0.10154699756E+02  0.34203305596E+02  0.51100000000E-03 0.  1.
         12    1    3    3    0    0  0.54302371051E+01 -0.42649068787E+01  0.11310999950E+01  0.69968773678E+01  0.00000000000E+00 0. -1.
</event>
<event>
 7    1  0.1857734E-013  0.7246157E+02  0.7816164E-02  0.1226708E+00
        -11   -1    0    0    0    0  0.00000000000E+00  0.00000000000E+00  0.45593999997E+02  0.45594000000E+02  0.51100000000E-03 0.  1.
         11   -1    0    0    0    0 -0.00000000000E+00 -0.00000000000E+00 -0.45593999997E+02  0.45594000000E+02  0.51100000000E-03 0. -1.
    9900012    2    1    2    0    0 -0.10942320645E+02 -0.60890164512E+01 -0.13923670547E+02  0.72461572046E+02  0.70000002282E+02 0.  0.
        -12    1    1    2    0    0  0.10942320645E+02  0.60890164512E+01  0.13923670547E+02  0.18726427954E+02  0.00000000000E+00 0.  1.
         11    1    3    3    0    0  0.18361613912E+02 -0.36035596057E-01 -0.11814426517E+02  0.21834166762E+02  0.51100000000E-03 0.  1.
        -11    1    3    3    0    0 -0.49608204591E+01 -0.21287602301E+02 -0.46006239104E+00  0.21862831679E+02  0.51100000000E-03 0. -1.
        -12    1    3    3    0    0 -0.24343114098E+02  0.15234621446E+02 -0.16491816391E+01  0.28764573605E+02  0.00000000000E+00 0.  1.
</event>
<event>
 7    1  0.1857734E-013  0.7246164E+02  0.7816164E-02  0.1226708E+00
        -11   -1    0    0    0    0  0.00000000000E+00  0.00000000000E+00  0.45593999997E+02  0.45594000000E+02  0.51100000000E-03 0.  1.
         11   -1    0    0    0    0 -0.00000000000E+00 -0.00000000000E+00 -0.45593999997E+02  0.45594000000E+02  0.51100000000E-03 0. -1.
    9900012    2    1    2    0    0 -0.15208174413E+02 -0.10480057443E+02  0.30913597965E+01  0.72461636809E+02  0.70000086647E+02 0.  0.
        -12    1    1    2    0    0  0.15208174413E+02  0.10480057443E+02 -0.30913597965E+01  0.18726363191E+02  0.00000000000E+00 0.  1.
         11    1    3    3    0    0 -0.78849440254E+01  0.36539723815E+01 -0.23681119979E+02  0.25225370169E+02  0.51100000000E-03 0. -1.
        -11    1    3    3    0    0 -0.20970959029E+02 -0.98219900680E+01  0.10102479161E+02  0.25264851018E+02  0.51100000000E-03 0.  1.
         12    1    3    3    0    0  0.13647728642E+02 -0.43120397569E+01  0.16670000615E+02  0.21971415622E+02  0.00000000000E+00 0. -1.
</event>
<event>
 7    1  0.1857734E-013  0.7246151E+02  0.7816164E-02  0.1226708E+00
        -11   -1    0    0    0    0  0.00000000000E+00  0.00000000000E+00  0.45593999997E+02  0.45594000000E+02  0.51100000000E-03 0.  1.
         11   -1    0    0    0    0 -0.00000000000E+00 -0.00000000000E+00 -0.45593999997E+02  0.45594000000E+02  0.51100000000E-03 0. -1.
    9900012    2    1    2    0    0 -0.81655081765E+01 -0.10187183749E+02 -0.13424866276E+02  0.72461514183E+02  0.69999926904E+02 0.  0.
        -12    1    1    2    0    0  0.81655081765E+01  0.10187183749E+02  0.13424866276E+02  0.18726485817E+02  0.00000000000E+00 0.  1.
         11    1    3    3    0    0  0.22848942766E+01 -0.30873519075E+02 -0.14114881832E+02  0.34023885893E+02  0.51100000000E-03 0. -1.
        -11    1    3    3    0    0  0.45960452023E+01  0.15663700183E+02  0.10849328086E+02  0.19600588131E+02  0.51100000000E-03 0.  1.
        -12    1    3    3    0    0 -0.15046447655E+02  0.50226351429E+01 -0.10159312531E+02  0.18837040158E+02  0.00000000000E+00 0.  1.
</event>
<event>
 7    1  0.1857734E-013  0.7246158E+02  0.7816164E-02  0.1226708E+00
        -11   -1    0    0    0    0  0.00000000000E+00  0.00000000000E+00  0.45593999997E+02  0.45594000000E+02  0.51100000000E-03 0.  1.
         11   -1    0    0    0    0 -0.00000000000E+00 -0.00000000000E+00 -0.45593999997E+02  0.45594000000E+02  0.51100000000E-03 0. -1.
    9900012    2    1    2    0    0  0.87740036151E+01  0.14119399406E+02 -0.86219724826E+01  0.72461575127E+02  0.70000006296E+02 0.  0.
        -12    1    1    2    0    0 -0.87740036151E+01 -0.14119399406E+02  0.86219724826E+01  0.18726424873E+02  0.00000000000E+00 0.  1.
         11    1    3    3    0    0  0.83822260725E+01  0.23785398293E+02  0.24534358739E+02  0.35184394906E+02  0.51100000000E-03 0.  1.
        -11    1    3    3    0    0  0.66144496272E+01 -0.80352659169E+01 -0.23144647127E+02  0.25376980379E+02  0.51100000000E-03 0. -1.
        -12    1    3    3    0    0 -0.62226720847E+01 -0.16307329699E+01 -0.10011684094E+02  0.11900199843E+02  0.00000000000E+00 0.  1.
</event>
<event>
 7    1  0.1857734E-013  0.7246160E+02  0.7816164E-02  0.1226708E+00
        -11   -1    0    0    0    0  0.00000000000E+00  0.00000000000E+00  0.45593999997E+02  0.45594000000E+02  0.51100000000E-03 0.  1.
         11   -1    0    0    0    0 -0.00000000000E+00 -0.00000000000E+00 -0.45593999997E+02  0.45594000000E+02  0.51100000000E-03 0. -1.
    9900012    2    1    2    0    0  0.26169717740E+01 -0.16772049015E+02 -0.79074683851E+01  0.72461595495E+02  0.70000032828E+02 0.  0.
        -12    1    1    2    0    0 -0.26169717740E+01  0.16772049015E+02  0.79074683851E+01  0.18726404505E+02  0.00000000000E+00 0.  1.
         11    1    3    3    0    0  0.98884573370E+01  0.15525779552E+02 -0.70323294013E+01  0.19704950553E+02  0.51100000000E-03 0. -1.
        -11    1    3    3    0    0  0.10369911800E+02 -0.13900430207E+02  0.14829365156E+02  0.22818130990E+02  0.51100000000E-03 0.  1.
         12    1    3    3    0    0 -0.17641397363E+02 -0.18397398361E+02 -0.15704504140E+02  0.29938513952E+02  0.00000000000E+00 0. -1.
</event>
<event>
 7    1  0.1857734E-013  0.7246213E+02  0.7816164E-02  0.1226707E+00
        -11   -1    0    0    0    0  0.00000000000E+00  0.00000000000E+00  0.45593999997E+02  0.45594000000E+02  0.51100000000E-03 0.  1.
         11   -1    0    0    0    0 -0.00000000000E+00 -0.00000000000E+00 -0.45593999997E+02  0.45594000000E+02  0.51100000000E-03 0. -1.
    9900012    2    1    2    0    0  0.43371876259E+01 -0.12125499720E+02 -0.13594826529E+02  0.72462128904E+02  0.70000727689E+02 0.  0.
        -12    1    1    2    0    0 -0.43371876259E+01  0.12125499720E+02  0.13594826529E+02  0.18725871096E+02  0.00000000000E+00 0.  1.
         11    1    3    3    0    0  0.14790649752E+02  0.18461376310E+02 -0.28270208174E+02  0.36861774317E+02  0.51100000000E-03 0. -1.
        -11    1    3    3    0    0 -0.40908636112E+01 -0.98020344471E+01  0.59768439288E+01  0.12187604687E+02  0.51100000000E-03 0.  1.
         12    1    3    3    0    0 -0.63625985147E+01 -0.20784841583E+02  0.86985377165E+01  0.23412749900E+02  0.00000000000E+00 0. -1.
</event>
<event>
 7    1  0.1857734E-013  0.7246143E+02  0.7816164E-02  0.1226708E+00
        -11   -1    0    0    0    0  0.00000000000E+00  0.00000000000E+00  0.45593999997E+02  0.45594000000E+02  0.51100000000E-03 0.  1.
         11   -1    0    0    0    0 -0.00000000000E+00 -0.00000000000E+00 -0.45593999997E+02  0.45594000000E+02  0.51100000000E-03 0. -1.
    9900012    2    1    2    0    0  0.94475706768E+01  0.12893578429E+02  0.97562023576E+01  0.72461429550E+02  0.69999816654E+02 0.  0.
        -12    1    1    2    0    0 -0.94475706768E+01 -0.12893578429E+02 -0.97562023576E+01  0.18726570450E+02  0.00000000000E+00 0.  1.
         11    1    3    3    0    0 -0.16405238521E+01 -0.24252064222E+02  0.15659842945E+02  0.28915127855E+02  0.51100000000E-03 0. -1.
        -11    1    3    3    0    0  0.35927039258E+01  0.15960177934E+02  0.68174666504E+01  0.17723223550E+02  0.51100000000E-03 0.  1.
         12    1    3    3    0    0  0.74953906030E+01  0.21185464716E+02 -0.12721107238E+02  0.25823078145E+02  0.00000000000E+00 0. -1.
</event>
<event>
 7    1  0.1857734E-013  0.7246155E+02  0.7816164E-02  0.1226708E+00
        -11   -1    0    0    0    0  0.00000000000E+00  0.00000000000E+00  0.45593999997E+02  0.45594000000E+02  0.51100000000E-03 0.  1.
         11   -1    0    0    0    0 -0.00000000000E+00 -0.00000000000E+00 -0.45593999997E+02  0.45594000000E+02  0.51100000000E-03 0. -1.
    9900012    2    1    2    0    0 -0.98927564159E+01  0.14641805775E+02 -0.61992556904E+01  0.72461551405E+02  0.69999975394E+02 0.  0.
        -12    1    1    2    0    0  0.98927564159E+01 -0.14641805775E+02  0.61992556904E+01  0.18726448595E+02  0.00000000000E+00 0.  1.
         11    1    3    3    0    0 -0.23878421057E+02  0.31453714385E+01 -0.20973881016E+02  0.31937063716E+02  0.51100000000E-03 0. -1.
        -11    1    3    3    0    0  0.18703615424E+02  0.20299705767E+02  0.92543510355E+01  0.29112648411E+02  0.51100000000E-03 0.  1.
        -12    1    3    3    0    0 -0.47179507827E+01 -0.88032714310E+01  0.55202742899E+01  0.11411839278E+02  0.00000000000E+00 0.  1.
</event>
<event>
 7    1  0.1857734E-013  0.7246158E+02  0.7816164E-02  0.1226708E+00
        -11   -1    0    0    0    0  0.00000000000E+00  0.00000000000E+00  0.45593999997E+02  0.45594000000E+02  0.51100000000E-03 0.  1.
         11   -1    0    0    0    0 -0.00000000000E+00 -0.00000000000E+00 -0.45593999997E+02  0.45594000000E+02  0.51100000000E-03 0. -1.
    9900012    2    1    2    0    0  0.25652248290E+01 -0.58737264509E+01 -0.17595386575E+02  0.72461583643E+02  0.70000017389E+02 0.  0.
        -12    1    1    2    0    0 -0.25652248290E+01  0.58737264509E+01  0.17595386575E+02  0.18726416357E+02  0.00000000000E+00 0.  1.
         11    1    3    3    0    0  0.66392238366E+01 -0.99383383973E+01 -0.18448068416E+02  0.21981380571E+02  0.51100000000E-03 0. -1.
        -11    1    3    3    0    0 -0.16929035219E+02 -0.75624090479E+01  0.18183081374E+02  0.25969341782E+02  0.51100000000E-03 0.  1.
        -12    1    3    3    0    0  0.12855036211E+02  0.11627020994E+02 -0.17330399534E+02  0.24510861290E+02  0.00000000000E+00 0.  1.
</event>
<event>
 7    1  0.1857734E-013  0.7246186E+02  0.7816164E-02  0.1226707E+00
        -11   -1    0    0    0    0  0.00000000000E+00  0.00000000000E+00  0.45593999997E+02  0.45594000000E+02  0.51100000000E-03 0. -1.
         11   -1    0    0    0    0 -0.00000000000E+00 -0.00000000000E+00 -0.45593999997E+02  0.45594000000E+02  0.51100000000E-03 0.  1.
    9900012    2    1    2    0    0  0.13870690103E+02 -0.12546434655E+02 -0.92701769443E+00  0.72461857090E+02  0.70000373603E+02 0.  0.
        -12    1    1    2    0    0 -0.13870690103E+02  0.12546434655E+02  0.92701769443E+00  0.18726142910E+02  0.00000000000E+00 0.  1.
         11    1    3    3    0    0  0.48076535540E+01  0.77907521733E+01  0.21148399089E+02  0.23044828843E+02  0.51100000000E-03 0. -1.
        -11    1    3    3    0    0  0.17443023396E+02  0.48371555819E+00 -0.20495269407E+02  0.26917449996E+02  0.51100000000E-03 0.  1.
         12    1    3    3    0    0 -0.83799868464E+01 -0.20820902387E+02 -0.15801473759E+01  0.22499578251E+02  0.00000000000E+00 0. -1.
</event>
<event>
 7    1  0.1857734E-013  0.7246151E+02  0.7816164E-02  0.1226708E+00
        -11   -1    0    0    0    0  0.00000000000E+00  0.00000000000E+00  0.45593999997E+02  0.45594000000E+02  0.51100000000E-03 0.  1.
         11   -1    0    0    0    0 -0.00000000000E+00 -0.00000000000E+00 -0.45593999997E+02  0.45594000000E+02  0.51100000000E-03 0. -1.
    9900012    2    1    2    0    0  0.58017754591E+01  0.12085561494E+02 -0.13075166269E+02  0.72461511593E+02  0.69999923531E+02 0.  0.
        -12    1    1    2    0    0 -0.58017754591E+01 -0.12085561494E+02  0.13075166269E+02  0.18726488407E+02  0.00000000000E+00 0.  1.
         11    1    3    3    0    0  0.20749772005E+02  0.23910415218E+02 -0.60752963987E+01  0.32236163245E+02  0.51100000000E-03 0.  1.
        -11    1    3    3    0    0 -0.27313496116E+01 -0.22028434229E+02  0.13743017647E+01  0.22239624342E+02  0.51100000000E-03 0. -1.
         12    1    3    3    0    0 -0.12216646935E+02  0.10203580505E+02 -0.83741716346E+01  0.17985724006E+02  0.00000000000E+00 0. -1.
</event>
<event>
 7    1  0.1857734E-013  0.7246163E+02  0.7816164E-02  0.1226708E+00
        -11   -1    0    0    0    0  0.00000000000E+00  0.00000000000E+00  0.45593999997E+02  0.45594000000E+02  0.51100000000E-03 0. -1.
         11   -1    0    0    0    0 -0.00000000000E+00 -0.00000000000E+00 -0.45593999997E+02  0.45594000000E+02  0.51100000000E-03 0.  1.
    9900012    2    1    2    0    0 -0.15084841161E+02 -0.10876508140E+02  0.21968111604E+01  0.72461632454E+02  0.70000080975E+02 0.  0.
        -12    1    1    2    0    0  0.15084841161E+02  0.10876508140E+02 -0.21968111604E+01  0.18726367546E+02  0.00000000000E+00 0.  1.
         11    1    3    3    0    0 -0.32858843302E+02 -0.29288315417E+02  0.65834930141E+01  0.44506756607E+02  0.51100000000E-03 0. -1.
        -11    1    3    3    0    0 -0.10480110066E+00  0.48514094235E+01 -0.24386962343E+01  0.54308743540E+01  0.51100000000E-03 0.  1.
         12    1    3    3    0    0  0.17878803242E+02  0.13560397853E+02 -0.19479856194E+01  0.22524001493E+02  0.00000000000E+00 0. -1.
</event>
<event>
 7    1  0.1857734E-013  0.7246149E+02  0.7816164E-02  0.1226708E+00
        -11   -1    0    0    0    0  0.00000000000E+00  0.00000000000E+00  0.45593999997E+02  0.45594000000E+02  0.51100000000E-03 0.  1.
         11   -1    0    0    0    0 -0.00000000000E+00 -0.00000000000E+00 -0.45593999997E+02  0.45594000000E+02  0.51100000000E-03 0. -1.
    9900012    2    1    2    0    0 -0.34524754592E+01  0.73279897656E+01 -0.16883810475E+02  0.72461492665E+02  0.69999898874E+02 0.  0.
        -12    1    1    2    0    0  0.34524754592E+01 -0.73279897656E+01  0.16883810475E+02  0.18726507335E+02  0.00000000000E+00 0.  1.
         11    1    3    3    0    0  0.43588330008E+01 -0.20255365303E+02 -0.54072923358E+01  0.21413034801E+02  0.51100000000E-03 0. -1.
        -11    1    3    3    0    0 -0.15590692535E+02  0.15696058670E+02 -0.23617460719E+02  0.32360784949E+02  0.51100000000E-03 0.  1.
        -12    1    3    3    0    0  0.77793840746E+01  0.11887296399E+02  0.12140942580E+02  0.18687672915E+02  0.00000000000E+00 0.  1.
</event>
<event>
 7    1  0.1857734E-013  0.7246157E+02  0.7816164E-02  0.1226708E+00
        -11   -1    0    0    0    0  0.00000000000E+00  0.00000000000E+00  0.45593999997E+02  0.45594000000E+02  0.51100000000E-03 0.  1.
         11   -1    0    0    0    0 -0.00000000000E+00 -0.00000000000E+00 -0.45593999997E+02  0.45594000000E+02  0.51100000000E-03 0. -1.
    9900012    2    1    2    0    0  0.17428547153E+02 -0.14038864246E+01 -0.67047707939E+01  0.72461572034E+02  0.70000002266E+02 0.  0.
        -12    1    1    2    0    0 -0.17428547153E+02  0.14038864246E+01  0.67047707939E+01  0.18726427966E+02  0.00000000000E+00 0.  1.
         11    1    3    3    0    0  0.34598544013E+02  0.57510303036E+01 -0.23255466987E+02  0.42082660828E+02  0.51100000000E-03 0. -1.
        -11    1    3    3    0    0 -0.85844999209E+01  0.43411628778E+01  0.11886951524E+02  0.15291793577E+02  0.51100000000E-03 0.  1.
        -12    1    3    3    0    0 -0.85854969386E+01 -0.11496079606E+02  0.46637446693E+01  0.15087117628E+02  0.00000000000E+00 0.  1.
</event>
<event>
 7    1  0.1857734E-013  0.7246156E+02  0.7816164E-02  0.1226708E+00
        -11   -1    0    0    0    0  0.00000000000E+00  0.00000000000E+00  0.45593999997E+02  0.45594000000E+02  0.51100000000E-03 0.  1.
         11   -1    0    0    0    0 -0.00000000000E+00 -0.00000000000E+00 -0.45593999997E+02  0.45594000000E+02  0.51100000000E-03 0. -1.
    9900012    2    1    2    0    0 -0.31439259226E+01 -0.18344790739E+02  0.20649738318E+01  0.72461555212E+02  0.69999980352E+02 0.  0.
        -12    1    1    2    0    0  0.31439259226E+01  0.18344790739E+02 -0.20649738318E+01  0.18726444788E+02  0.00000000000E+00 0.  1.
         11    1    3    3    0    0 -0.21729207134E+02  0.95662035757E+01  0.59057660318E+01  0.24465256308E+02  0.51100000000E-03 0. -1.
        -11    1    3    3    0    0 -0.74388566374E+00 -0.27239445984E+02 -0.76085619934E+01  0.28291889284E+02  0.51100000000E-03 0.  1.
         12    1    3    3    0    0  0.19329166875E+02 -0.67154833102E+00  0.37677697935E+01  0.19704409620E+02  0.00000000000E+00 0. -1.
</event>
<event>
 7    1  0.1857734E-013  0.7246148E+02  0.7816164E-02  0.1226708E+00
        -11   -1    0    0    0    0  0.00000000000E+00  0.00000000000E+00  0.45593999997E+02  0.45594000000E+02  0.51100000000E-03 0. -1.
         11   -1    0    0    0    0 -0.00000000000E+00 -0.00000000000E+00 -0.45593999997E+02  0.45594000000E+02  0.51100000000E-03 0.  1.
    9900012    2    1    2    0    0  0.13953195420E+02 -0.12360013983E+02 -0.17946471255E+01  0.72461484937E+02  0.69999888806E+02 0.  0.
        -12    1    1    2    0    0 -0.13953195420E+02  0.12360013983E+02  0.17946471255E+01  0.18726515063E+02  0.00000000000E+00 0.  1.
         11    1    3    3    0    0 -0.62291867697E+01  0.10861395886E+02  0.10282180703E+02  0.16201726101E+02  0.51100000000E-03 0. -1.
        -11    1    3    3    0    0  0.21715886720E+02 -0.15821269516E+02  0.13158436165E+02  0.29917164767E+02  0.51100000000E-03 0.  1.
        -12    1    3    3    0    0 -0.15335045300E+01 -0.74001403533E+01 -0.25235263994E+02  0.26342594068E+02  0.00000000000E+00 0.  1.
</event>
<event>
 7    1  0.1857734E-013  0.7246157E+02  0.7816164E-02  0.1226708E+00
        -11   -1    0    0    0    0  0.00000000000E+00  0.00000000000E+00  0.45593999997E+02  0.45594000000E+02  0.51100000000E-03 0.  1.
         11   -1    0    0    0    0 -0.00000000000E+00 -0.00000000000E+00 -0.45593999997E+02  0.45594000000E+02  0.51100000000E-03 0. -1.
    9900012    2    1    2    0    0  0.16686987850E+02  0.67005774404E+01 -0.52273985385E+01  0.72461574900E+02  0.70000005999E+02 0.  0.
        -12    1    1    2    0    0 -0.16686987850E+02 -0.67005774404E+01  0.52273985385E+01  0.18726425100E+02  0.00000000000E+00 0.  1.
         11    1    3    3    0    0  0.10890113480E+02 -0.14758064234E+02 -0.39260689671E+01  0.18756573497E+02  0.51100000000E-03 0.  1.
        -11    1    3    3    0    0 -0.43240447347E+01  0.21005672737E+02 -0.21960614817E+02  0.30695345794E+02  0.51100000000E-03 0. -1.
        -12    1    3    3    0    0  0.10120919105E+02  0.45296893726E+00  0.20659285245E+02  0.23009655609E+02  0.00000000000E+00 0.  1.
</event>
<event>
 7    1  0.1857734E-013  0.7246155E+02  0.7816164E-02  0.1226708E+00
        -11   -1    0    0    0    0  0.00000000000E+00  0.00000000000E+00  0.45593999997E+02  0.45594000000E+02  0.51100000000E-03 0. -1.
         11   -1    0    0    0    0 -0.00000000000E+00 -0.00000000000E+00 -0.45593999997E+02  0.45594000000E+02  0.51100000000E-03 0.  1.
    9900012    2    1    2    0    0  0.12662014003E+02 -0.12660856486E+02  0.54823406560E+01  0.72461549598E+02  0.69999973039E+02 0.  0.
        -12    1    1    2    0    0 -0.12662014003E+02  0.12660856486E+02 -0.54823406560E+01  0.18726450402E+02  0.00000000000E+00 0.  1.
         11    1    3    3    0    0  0.16446053358E+02  0.20952999031E+02  0.90802158494E+01  0.28141626811E+02  0.51100000000E-03 0. -1.
        -11    1    3    3    0    0 -0.10215565112E+02 -0.27916592319E+00 -0.11082487073E+01  0.10279295678E+02  0.51100000000E-03 0.  1.
         12    1    3    3    0    0  0.64315257578E+01 -0.33334689595E+02 -0.24896264860E+01  0.34040627109E+02  0.00000000000E+00 0. -1.
</event>
<event>
 7    1  0.1857734E-013  0.7246161E+02  0.7816164E-02  0.1226708E+00
        -11   -1    0    0    0    0  0.00000000000E+00  0.00000000000E+00  0.45593999997E+02  0.45594000000E+02  0.51100000000E-03 0.  1.
         11   -1    0    0    0    0 -0.00000000000E+00 -0.00000000000E+00 -0.45593999997E+02  0.45594000000E+02  0.51100000000E-03 0. -1.
    9900012    2    1    2    0    0  0.10390276680E+02 -0.10126660365E+02 -0.11839372621E+02  0.72461605694E+02  0.70000046115E+02 0.  0.
        -12    1    1    2    0    0 -0.10390276680E+02  0.10126660365E+02  0.11839372621E+02  0.18726394306E+02  0.00000000000E+00 0.  1.
         11    1    3    3    0    0  0.16983596090E+02  0.12924776691E+02  0.18311820709E+02  0.28121436069E+02  0.51100000000E-03 0. -1.
        -11    1    3    3    0    0 -0.66673626111E+01 -0.19624346186E+02 -0.84704548395E+01  0.22390115964E+02  0.51100000000E-03 0.  1.
        -12    1    3    3    0    0  0.74043200758E-01 -0.34270908701E+01 -0.21680738490E+02  0.21950053661E+02  0.00000000000E+00 0.  1.
</event>
<event>
 7    1  0.1857734E-013  0.7246158E+02  0.7816164E-02  0.1226708E+00
        -11   -1    0    0    0    0  0.00000000000E+00  0.00000000000E+00  0.45593999997E+02  0.45594000000E+02  0.51100000000E-03 0.  1.
         11   -1    0    0    0    0 -0.00000000000E+00 -0.00000000000E+00 -0.45593999997E+02  0.45594000000E+02  0.51100000000E-03 0. -1.
    9900012    2    1    2    0    0  0.13160779109E+02 -0.70168091796E+01 -0.11324184154E+02  0.72461578436E+02  0.70000010607E+02 0.  0.
        -12    1    1    2    0    0 -0.13160779109E+02  0.70168091796E+01  0.11324184154E+02  0.18726421564E+02  0.00000000000E+00 0.  1.
         11    1    3    3    0    0 -0.94825225152E+01  0.42735870541E+01 -0.11827892021E+01  0.10468083402E+02  0.51100000000E-03 0. -1.
        -11    1    3    3    0    0  0.18859933535E+02 -0.59830834996E+01  0.21772988534E+02  0.29420357086E+02  0.51100000000E-03 0.  1.
        -12    1    3    3    0    0  0.37833680894E+01 -0.53073127341E+01 -0.31914383486E+02  0.32573137949E+02  0.00000000000E+00 0.  1.
</event>
<event>
 7    1  0.1857734E-013  0.7246151E+02  0.7816164E-02  0.1226708E+00
        -11   -1    0    0    0    0  0.00000000000E+00  0.00000000000E+00  0.45593999997E+02  0.45594000000E+02  0.51100000000E-03 0.  1.
         11   -1    0    0    0    0 -0.00000000000E+00 -0.00000000000E+00 -0.45593999997E+02  0.45594000000E+02  0.51100000000E-03 0. -1.
    9900012    2    1    2    0    0  0.17563193667E+02 -0.98225399304E+00  0.64226879924E+01  0.72461507650E+02  0.69999918394E+02 0.  0.
        -12    1    1    2    0    0 -0.17563193667E+02  0.98225399304E+00 -0.64226879924E+01  0.18726492350E+02  0.00000000000E+00 0.  1.
         11    1    3    3    0    0  0.26623921558E+02 -0.51232684132E+00  0.15846177372E+02  0.30987045930E+02  0.51100000000E-03 0. -1.
        -11    1    3    3    0    0 -0.20822341333E+02  0.91520225555E+01  0.14466694000E+01  0.22790837370E+02  0.51100000000E-03 0.  1.
         12    1    3    3    0    0  0.11761613442E+02 -0.96219497072E+01 -0.10870158779E+02  0.18683624349E+02  0.00000000000E+00 0. -1.
</event>
<event>
 7    1  0.1857734E-013  0.7246197E+02  0.7816164E-02  0.1226707E+00
        -11   -1    0    0    0    0  0.00000000000E+00  0.00000000000E+00  0.45593999997E+02  0.45594000000E+02  0.51100000000E-03 0. -1.
         11   -1    0    0    0    0 -0.00000000000E+00 -0.00000000000E+00 -0.45593999997E+02  0.45594000000E+02  0.51100000000E-03 0.  1.
    9900012    2    1    2    0    0  0.10030286410E+02  0.15646863478E+02 -0.22876211393E+01  0.72461970185E+02  0.70000520930E+02 0.  0.
        -12    1    1    2    0    0 -0.10030286410E+02 -0.15646863478E+02  0.22876211393E+01  0.18726029815E+02  0.00000000000E+00 0.  1.
         11    1    3    3    0    0  0.87030709132E+01  0.72834338487E+01  0.26416221219E+02  0.28750801654E+02  0.51100000000E-03 0. -1.
        -11    1    3    3    0    0 -0.14162138733E+02  0.99984129706E+01 -0.16373166592E+02  0.23845649917E+02  0.51100000000E-03 0.  1.
        -12    1    3    3    0    0  0.15489354230E+02 -0.16349833417E+01 -0.12330675766E+02  0.19865518615E+02  0.00000000000E+00 0.  1.
</event>
<event>
 7    1  0.1857734E-013  0.7246100E+02  0.7816164E-02  0.1226710E+00
        -11   -1    0    0    0    0  0.00000000000E+00  0.00000000000E+00  0.45593999997E+02  0.45594000000E+02  0.51100000000E-03 0.  1.
         11   -1    0    0    0    0 -0.00000000000E+00 -0.00000000000E+00 -0.45593999997E+02  0.45594000000E+02  0.51100000000E-03 0. -1.
    9900012    2    1    2    0    0 -0.65938942681E+01  0.17383114973E+02 -0.22468740059E+01  0.72460998890E+02  0.69999255635E+02 0.  0.
        -12    1    1    2    0    0  0.65938942681E+01 -0.17383114973E+02  0.22468740059E+01  0.18727001110E+02  0.00000000000E+00 0.  1.
         11    1    3    3    0    0 -0.21789525453E+02  0.24827464694E+02 -0.11785809315E+02  0.35072663487E+02  0.51100000000E-03 0. -1.
        -11    1    3    3    0    0  0.22760193959E+02 -0.13012926996E+02  0.98058291675E+01  0.27991373385E+02  0.51100000000E-03 0.  1.
        -12    1    3    3    0    0 -0.75645627740E+01  0.55685772756E+01 -0.26689385798E+00  0.93969620180E+01  0.00000000000E+00 0.  1.
</event>
<event>
 7    1  0.1857734E-013  0.7246156E+02  0.7816164E-02  0.1226708E+00
        -11   -1    0    0    0    0  0.00000000000E+00  0.00000000000E+00  0.45593999997E+02  0.45594000000E+02  0.51100000000E-03 0.  1.
         11   -1    0    0    0    0 -0.00000000000E+00 -0.00000000000E+00 -0.45593999997E+02  0.45594000000E+02  0.51100000000E-03 0. -1.
    9900012    2    1    2    0    0  0.11160453340E+01  0.18112313717E+02 -0.46236441005E+01  0.72461560132E+02  0.69999986761E+02 0.  0.
        -12    1    1    2    0    0 -0.11160453340E+01 -0.18112313717E+02  0.46236441005E+01  0.18726439868E+02  0.00000000000E+00 0.  1.
         11    1    3    3    0    0  0.60129837077E+01  0.26913778378E+02  0.89719622932E+01  0.29000061160E+02  0.51100000000E-03 0. -1.
        -11    1    3    3    0    0  0.30441478934E+01 -0.16432903371E+02  0.85172554557E+01  0.18757686167E+02  0.51100000000E-03 0.  1.
         12    1    3    3    0    0 -0.79410862671E+01  0.76314387099E+01 -0.22112861849E+02  0.24703812804E+02  0.00000000000E+00 0. -1.
</event>
<event>
 7    1  0.1857734E-013  0.7246159E+02  0.7816164E-02  0.1226708E+00
        -11   -1    0    0    0    0  0.00000000000E+00  0.00000000000E+00  0.45593999997E+02  0.45594000000E+02  0.51100000000E-03 0.  1.
         11   -1    0    0    0    0 -0.00000000000E+00 -0.00000000000E+00 -0.45593999997E+02  0.45594000000E+02  0.51100000000E-03 0. -1.
    9900012    2    1    2    0    0  0.95505955516E+01  0.13729024842E+02 -0.84248796407E+01  0.72461585622E+02  0.70000019967E+02 0.  0.
        -12    1    1    2    0    0 -0.95505955516E+01 -0.13729024842E+02  0.84248796407E+01  0.18726414378E+02  0.00000000000E+00 0.  1.
         11    1    3    3    0    0 -0.53293903067E+01  0.32117430301E+02 -0.19226801168E+01  0.32613316747E+02  0.51100000000E-03 0. -1.
        -11    1    3    3    0    0  0.17399816804E+02 -0.98488392713E+01  0.90352343688E+01  0.21940572466E+02  0.51100000000E-03 0.  1.
         12    1    3    3    0    0 -0.25198309453E+01 -0.85395661872E+01 -0.15537433893E+02  0.17907696408E+02  0.00000000000E+00 0. -1.
</event>
<event>
 7    1  0.1857734E-013  0.7246181E+02  0.7816164E-02  0.1226707E+00
        -11   -1    0    0    0    0  0.00000000000E+00  0.00000000000E+00  0.45593999997E+02  0.45594000000E+02  0.51100000000E-03 0.  1.
         11   -1    0    0    0    0 -0.00000000000E+00 -0.00000000000E+00 -0.45593999997E+02  0.45594000000E+02  0.51100000000E-03 0. -1.
    9900012    2    1    2    0    0 -0.11196776374E+02  0.10524956172E+02 -0.10701764016E+02  0.72461808272E+02  0.70000310009E+02 0.  0.
        -12    1    1    2    0    0  0.11196776374E+02 -0.10524956172E+02  0.10701764016E+02  0.18726191728E+02  0.00000000000E+00 0.  1.
         11    1    3    3    0    0  0.33591823779E+01  0.69878148846E+01 -0.32363219134E+02  0.33278996621E+02  0.51100000000E-03 0. -1.
        -11    1    3    3    0    0 -0.12042590228E+02  0.14935025278E+02  0.19418454846E+02  0.27297533741E+02  0.51100000000E-03 0.  1.
         12    1    3    3    0    0 -0.25133685240E+01 -0.11397883990E+02  0.22430002718E+01  0.11885277911E+02  0.00000000000E+00 0. -1.
</event>
<event>
 7    1  0.1857734E-013  0.7246153E+02  0.7816164E-02  0.1226708E+00
        -11   -1    0    0    0    0  0.00000000000E+00  0.00000000000E+00  0.45593999997E+02  0.45594000000E+02  0.51100000000E-03 0.  1.
         11   -1    0    0    0    0 -0.00000000000E+00 -0.00000000000E+00 -0.45593999997E+02  0.45594000000E+02  0.51100000000E-03 0. -1.
    9900012    2    1    2    0    0  0.10772697597E+02  0.15291055337E+02  0.90185314723E+00  0.72461528737E+02  0.69999945864E+02 0.  0.
        -12    1    1    2    0    0 -0.10772697597E+02 -0.15291055337E+02 -0.90185314723E+00  0.18726471263E+02  0.00000000000E+00 0.  1.
         11    1    3    3    0    0  0.66825933686E+01 -0.17163023203E+02 -0.63325481117E+01  0.19476333984E+02  0.51100000000E-03 0. -1.
        -11    1    3    3    0    0 -0.16770189621E+02  0.23118939069E+02  0.93033479218E+01  0.30037924137E+02  0.51100000000E-03 0.  1.
        -12    1    3    3    0    0  0.20860293850E+02  0.93351394715E+01 -0.20689466629E+01  0.22947270617E+02  0.00000000000E+00 0.  1.
</event>
<event>
 7    1  0.1857734E-013  0.7246147E+02  0.7816164E-02  0.1226708E+00
        -11   -1    0    0    0    0  0.00000000000E+00  0.00000000000E+00  0.45593999997E+02  0.45594000000E+02  0.51100000000E-03 0. -1.
         11   -1    0    0    0    0 -0.00000000000E+00 -0.00000000000E+00 -0.45593999997E+02  0.45594000000E+02  0.51100000000E-03 0.  1.
    9900012    2    1    2    0    0 -0.48945694867E+01 -0.15860508236E+02  0.86700949175E+01  0.72461465941E+02  0.69999864061E+02 0.  0.
        -12    1    1    2    0    0  0.48945694867E+01  0.15860508236E+02 -0.86700949175E+01  0.18726534059E+02  0.00000000000E+00 0.  1.
         11    1    3    3    0    0 -0.28104503364E+02  0.16680451390E+01 -0.15883117395E+02  0.32325205373E+02  0.51100000000E-03 0. -1.
        -11    1    3    3    0    0  0.13569606115E+02 -0.49439281881E+01  0.17755847798E+02  0.22887699040E+02  0.51100000000E-03 0.  1.
         12    1    3    3    0    0  0.96403277629E+01 -0.12584625187E+02  0.67973645140E+01  0.17248561529E+02  0.00000000000E+00 0. -1.
</event>
<event>
 7    1  0.1857734E-013  0.7246157E+02  0.7816164E-02  0.1226708E+00
        -11   -1    0    0    0    0  0.00000000000E+00  0.00000000000E+00  0.45593999997E+02  0.45594000000E+02  0.51100000000E-03 0.  1.
         11   -1    0    0    0    0 -0.00000000000E+00 -0.00000000000E+00 -0.45593999997E+02  0.45594000000E+02  0.51100000000E-03 0. -1.
    9900012    2    1    2    0    0 -0.16503549859E+02  0.83893238054E+01 -0.28162710533E+01  0.72461566958E+02  0.69999995653E+02 0.  0.
        -12    1    1    2    0    0  0.16503549859E+02 -0.83893238054E+01  0.28162710533E+01  0.18726433042E+02  0.00000000000E+00 0.  1.
         11    1    3    3    0    0 -0.38795789314E+02 -0.13618599900E+01 -0.89065115830E+01  0.39828305010E+02  0.51100000000E-03 0. -1.
        -11    1    3    3    0    0  0.21865925709E+02  0.10215296660E+02  0.11816847753E+02  0.26872083731E+02  0.51100000000E-03 0.  1.
        -12    1    3    3    0    0  0.42631374638E+00 -0.46411286418E+00 -0.57266072232E+01  0.57611782171E+01  0.00000000000E+00 0.  1.
</event>
<event>
 7    1  0.1857734E-013  0.7246159E+02  0.7816164E-02  0.1226708E+00
        -11   -1    0    0    0    0  0.00000000000E+00  0.00000000000E+00  0.45593999997E+02  0.45594000000E+02  0.51100000000E-03 0. -1.
         11   -1    0    0    0    0 -0.00000000000E+00 -0.00000000000E+00 -0.45593999997E+02  0.45594000000E+02  0.51100000000E-03 0.  1.
    9900012    2    1    2    0    0 -0.95842703347E+01  0.14702698452E+02  0.65307709027E+01  0.72461586884E+02  0.70000021611E+02 0.  0.
        -12    1    1    2    0    0  0.95842703347E+01 -0.14702698452E+02 -0.65307709027E+01  0.18726413116E+02  0.00000000000E+00 0.  1.
         11    1    3    3    0    0 -0.17279405202E+02  0.16900719638E+01  0.11564188512E+02  0.20860600269E+02  0.51100000000E-03 0. -1.
        -11    1    3    3    0    0  0.67932814950E+01  0.31731030246E+02 -0.51762935097E+01  0.32860325146E+02  0.51100000000E-03 0.  1.
        -12    1    3    3    0    0  0.90185337231E+00 -0.18718403758E+02  0.14287590079E+00  0.18740661468E+02  0.00000000000E+00 0.  1.
</event>
<event>
 7    1  0.1857734E-013  0.7246160E+02  0.7816164E-02  0.1226708E+00
        -11   -1    0    0    0    0  0.00000000000E+00  0.00000000000E+00  0.45593999997E+02  0.45594000000E+02  0.51100000000E-03 0. -1.
         11   -1    0    0    0    0 -0.00000000000E+00 -0.00000000000E+00 -0.45593999997E+02  0.45594000000E+02  0.51100000000E-03 0.  1.
    9900012    2    1    2    0    0  0.73075877627E+00  0.17247092372E+02  0.72582264742E+01  0.72461600046E+02  0.70000038757E+02 0.  0.
        -12    1    1    2    0    0 -0.73075877627E+00 -0.17247092372E+02 -0.72582264742E+01  0.18726399954E+02  0.00000000000E+00 0.  1.
         11    1    3    3    0    0 -0.21125709207E+02  0.21500098204E+01 -0.58743284935E+01  0.22032382242E+02  0.51100000000E-03 0.  1.
        -11    1    3    3    0    0  0.20060521710E+02 -0.10761935267E+02  0.58630750106E+01  0.23507858916E+02  0.51100000000E-03 0. -1.
         12    1    3    3    0    0  0.17959462734E+01  0.25859017819E+02  0.72694799571E+01  0.26921358889E+02  0.00000000000E+00 0. -1.
</event>
<event>
 7    1  0.1857734E-013  0.7246155E+02  0.7816164E-02  0.1226708E+00
        -11   -1    0    0    0    0  0.00000000000E+00  0.00000000000E+00  0.45593999997E+02  0.45594000000E+02  0.51100000000E-03 0.  1.
         11   -1    0    0    0    0 -0.00000000000E+00 -0.00000000000E+00 -0.45593999997E+02  0.45594000000E+02  0.51100000000E-03 0. -1.
    9900012    2    1    2    0    0 -0.15628230918E+02 -0.71876418702E+01 -0.74011019900E+01  0.72461545238E+02  0.69999967360E+02 0.  0.
        -12    1    1    2    0    0  0.15628230918E+02  0.71876418702E+01  0.74011019900E+01  0.18726454762E+02  0.00000000000E+00 0.  1.
         11    1    3    3    0    0  0.17039661689E+02  0.70985708599E+01 -0.17075976936E+02  0.25146148160E+02  0.51100000000E-03 0. -1.
        -11    1    3    3    0    0 -0.79919137390E+01  0.16569988084E-01  0.16193723496E+02  0.18058450673E+02  0.51100000000E-03 0.  1.
         12    1    3    3    0    0 -0.24675978867E+02 -0.14302782718E+02 -0.65188485503E+01  0.29256946405E+02  0.00000000000E+00 0. -1.
</event>
<event>
 7    1  0.1857734E-013  0.7246153E+02  0.7816164E-02  0.1226708E+00
        -11   -1    0    0    0    0  0.00000000000E+00  0.00000000000E+00  0.45593999997E+02  0.45594000000E+02  0.51100000000E-03 0.  1.
         11   -1    0    0    0    0 -0.00000000000E+00 -0.00000000000E+00 -0.45593999997E+02  0.45594000000E+02  0.51100000000E-03 0. -1.
    9900012    2    1    2    0    0 -0.12893802709E+02 -0.10304866011E+02 -0.88453431996E+01  0.72461534553E+02  0.69999953441E+02 0.  0.
        -12    1    1    2    0    0  0.12893802709E+02  0.10304866011E+02  0.88453431996E+01  0.18726465447E+02  0.00000000000E+00 0.  1.
         11    1    3    3    0    0 -0.23049354992E+01  0.98169785309E+01 -0.17910370785E+02  0.20554006351E+02  0.51100000000E-03 0. -1.
        -11    1    3    3    0    0 -0.11063533070E+02  0.68741708239E+01  0.19086635258E+02  0.23107480049E+02  0.51100000000E-03 0.  1.
        -12    1    3    3    0    0  0.47466586023E+00 -0.26996015366E+02 -0.10021607672E+02  0.28800048153E+02  0.00000000000E+00 0.  1.
</event>
<event>
 7    1  0.1857734E-013  0.7246165E+02  0.7816164E-02  0.1226708E+00
        -11   -1    0    0    0    0  0.00000000000E+00  0.00000000000E+00  0.45593999997E+02  0.45594000000E+02  0.51100000000E-03 0. -1.
         11   -1    0    0    0    0 -0.00000000000E+00 -0.00000000000E+00 -0.45593999997E+02  0.45594000000E+02  0.51100000000E-03 0.  1.
    9900012    2    1    2    0    0  0.87147522883E+01  0.96673849213E+01  0.13463684496E+02  0.72461653884E+02  0.70000108890E+02 0.  0.
        -12    1    1    2    0    0 -0.87147522883E+01 -0.96673849213E+01 -0.13463684496E+02  0.18726346116E+02  0.00000000000E+00 0.  1.
         11    1    3    3    0    0  0.20308117656E+01  0.14221123159E+00  0.25832969804E+02  0.25913061371E+02  0.51100000000E-03 0. -1.
        -11    1    3    3    0    0  0.20820838669E+02  0.17148534237E+02 -0.14025236283E+02  0.30402085495E+02  0.51100000000E-03 0.  1.
        -12    1    3    3    0    0 -0.14136898146E+02 -0.76233605476E+01  0.16559509745E+01  0.16146507018E+02  0.00000000000E+00 0.  1.
</event>
<event>
 7    1  0.1857734E-013  0.7246166E+02  0.7816164E-02  0.1226708E+00
        -11   -1    0    0    0    0  0.00000000000E+00  0.00000000000E+00  0.45593999997E+02  0.45594000000E+02  0.51100000000E-03 0. -1.
         11   -1    0    0    0    0 -0.00000000000E+00 -0.00000000000E+00 -0.45593999997E+02  0.45594000000E+02  0.51100000000E-03 0.  1.
    9900012    2    1    2    0    0 -0.11952187644E+02  0.73168462528E+01  0.12421145683E+02  0.72461657895E+02  0.70000114116E+02 0.  0.
        -12    1    1    2    0    0  0.11952187644E+02 -0.73168462528E+01 -0.12421145683E+02  0.18726342105E+02  0.00000000000E+00 0.  1.
         11    1    3    3    0    0 -0.23532023354E+02  0.20460782552E+01  0.31952020521E+02  0.39735049704E+02  0.51100000000E-03 0. -1.
        -11    1    3    3    0    0  0.45024340148E+01  0.12326956278E+00 -0.22907733271E+02  0.23346334859E+02  0.51100000000E-03 0.  1.
         12    1    3    3    0    0  0.70774016959E+01  0.51474984349E+01  0.33768584334E+01  0.93802733319E+01  0.00000000000E+00 0. -1.
</event>
<event>
 7    1  0.1857734E-013  0.7246146E+02  0.7816164E-02  0.1226708E+00
        -11   -1    0    0    0    0  0.00000000000E+00  0.00000000000E+00  0.45593999997E+02  0.45594000000E+02  0.51100000000E-03 0.  1.
         11   -1    0    0    0    0 -0.00000000000E+00 -0.00000000000E+00 -0.45593999997E+02  0.45594000000E+02  0.51100000000E-03 0. -1.
    9900012    2    1    2    0    0 -0.10317595414E+02 -0.14754238541E+02 -0.51519720954E+01  0.72461464108E+02  0.69999861672E+02 0.  0.
        -12    1    1    2    0    0  0.10317595414E+02  0.14754238541E+02  0.51519720954E+01  0.18726535892E+02  0.00000000000E+00 0.  1.
         11    1    3    3    0    0  0.86979714451E+00  0.10473833122E+02 -0.15568102056E+02  0.18783597345E+02  0.51100000000E-03 0. -1.
        -11    1    3    3    0    0 -0.25815451058E+02 -0.27123579932E+02  0.42311333315E+01  0.37683266726E+02  0.51100000000E-03 0.  1.
        -12    1    3    3    0    0  0.14628058499E+02  0.18955082692E+01  0.61849966290E+01  0.15994600037E+02  0.00000000000E+00 0.  1.
</event>
<event>
 7    1  0.1857734E-013  0.7246156E+02  0.7816164E-02  0.1226708E+00
        -11   -1    0    0    0    0  0.00000000000E+00  0.00000000000E+00  0.45593999997E+02  0.45594000000E+02  0.51100000000E-03 0.  1.
         11   -1    0    0    0    0 -0.00000000000E+00 -0.00000000000E+00 -0.45593999997E+02  0.45594000000E+02  0.51100000000E-03 0. -1.
    9900012    2    1    2    0    0 -0.12273716569E+02  0.83677761216E+01 -0.11402441281E+02  0.72461562464E+02  0.69999989799E+02 0.  0.
        -12    1    1    2    0    0  0.12273716569E+02 -0.83677761216E+01  0.11402441281E+02  0.18726437536E+02  0.00000000000E+00 0.  1.
         11    1    3    3    0    0 -0.51072182761E+01  0.35907078197E+02 -0.98677161923E+01  0.37586882902E+02  0.51100000000E-03 0. -1.
        -11    1    3    3    0    0 -0.11031498272E+02 -0.20009730337E+02  0.59118139962E+01  0.23601542477E+02  0.51100000000E-03 0.  1.
         12    1    3    3    0    0  0.38649999789E+01 -0.75295717383E+01 -0.74465390845E+01  0.11273137085E+02  0.00000000000E+00 0. -1.
</event>
<event>
 7    1  0.1857734E-013  0.7246157E+02  0.7816164E-02  0.1226708E+00
        -11   -1    0    0    0    0  0.00000000000E+00  0.00000000000E+00  0.45593999997E+02  0.45594000000E+02  0.51100000000E-03 0.  1.
         11   -1    0    0    0    0 -0.00000000000E+00 -0.00000000000E+00 -0.45593999997E+02  0.45594000000E+02  0.51100000000E-03 0. -1.
    9900012    2    1    2    0    0  0.17990809394E+02  0.51329070105E+01 -0.81433174731E+00  0.72461572331E+02  0.70000002653E+02 0.  0.
        -12    1    1    2    0    0 -0.17990809394E+02 -0.51329070105E+01  0.81433174731E+00  0.18726427669E+02  0.00000000000E+00 0.  1.
         11    1    3    3    0    0  0.85370231539E+01  0.12114896486E+02 -0.22105271748E+02  0.26613803195E+02  0.51100000000E-03 0. -1.
        -11    1    3    3    0    0 -0.59434443610E+01 -0.14649872819E+01  0.27634898955E+02  0.28304740930E+02  0.51100000000E-03 0.  1.
        -12    1    3    3    0    0  0.15397230602E+02 -0.55170021936E+01 -0.63439589545E+01  0.17543028205E+02  0.00000000000E+00 0.  1.
</event>
<event>
 7    1  0.1857734E-013  0.7246155E+02  0.7816164E-02  0.1226708E+00
        -11   -1    0    0    0    0  0.00000000000E+00  0.00000000000E+00  0.45593999997E+02  0.45594000000E+02  0.51100000000E-03 0. -1.
         11   -1    0    0    0    0 -0.00000000000E+00 -0.00000000000E+00 -0.45593999997E+02  0.45594000000E+02  0.51100000000E-03 0.  1.
    9900012    2    1    2    0    0 -0.58577855092E+01 -0.11656414623E+02  0.13434813523E+02  0.72461551663E+02  0.69999975729E+02 0.  0.
        -12    1    1    2    0    0  0.58577855092E+01  0.11656414623E+02 -0.13434813523E+02  0.18726448337E+02  0.00000000000E+00 0.  1.
         11    1    3    3    0    0  0.21214884960E+02  0.14369938058E+02 -0.11899847697E+01  0.25651170103E+02  0.51100000000E-03 0. -1.
        -11    1    3    3    0    0 -0.30760510380E+02 -0.18667877962E+02  0.13803041943E+02  0.38538586295E+02  0.51100000000E-03 0.  1.
        -12    1    3    3    0    0  0.36878399113E+01 -0.73584747195E+01  0.82175634923E+00  0.82717952651E+01  0.00000000000E+00 0.  1.
</event>
<event>
 7    1  0.1857734E-013  0.7246155E+02  0.7816164E-02  0.1226708E+00
        -11   -1    0    0    0    0  0.00000000000E+00  0.00000000000E+00  0.45593999997E+02  0.45594000000E+02  0.51100000000E-03 0.  1.
         11   -1    0    0    0    0 -0.00000000000E+00 -0.00000000000E+00 -0.45593999997E+02  0.45594000000E+02  0.51100000000E-03 0. -1.
    9900012    2    1    2    0    0  0.17445053983E+02  0.81352168777E+00  0.67593083439E+01  0.72461548780E+02  0.69999971973E+02 0.  0.
        -12    1    1    2    0    0 -0.17445053983E+02 -0.81352168777E+00 -0.67593083439E+01  0.18726451220E+02  0.00000000000E+00 0.  1.
         11    1    3    3    0    0  0.11525566203E+02  0.18955773630E+02 -0.22766804870E+02  0.31788165006E+02  0.51100000000E-03 0. -1.
        -11    1    3    3    0    0  0.11419064045E+02 -0.16428945696E+02  0.28501034019E+02  0.34822610769E+02  0.51100000000E-03 0.  1.
         12    1    3    3    0    0 -0.54995762654E+01 -0.17133062458E+01  0.10250791944E+01  0.58507730041E+01  0.00000000000E+00 0. -1.
</event>
<event>
 7    1  0.1857734E-013  0.7246172E+02  0.7816164E-02  0.1226708E+00
        -11   -1    0    0    0    0  0.00000000000E+00  0.00000000000E+00  0.45593999997E+02  0.45594000000E+02  0.51100000000E-03 0.  1.
         11   -1    0    0    0    0 -0.00000000000E+00 -0.00000000000E+00 -0.45593999997E+02  0.45594000000E+02  0.51100000000E-03 0. -1.
    9900012    2    1    2    0    0 -0.16958411741E+02 -0.27152792560E+01 -0.74641251031E+01  0.72461718101E+02  0.70000192545E+02 0.  0.
        -12    1    1    2    0    0  0.16958411741E+02  0.27152792560E+01  0.74641251031E+01  0.18726281899E+02  0.00000000000E+00 0.  1.
         11    1    3    3    0    0 -0.17343375575E+02 -0.12409968344E+02 -0.12333224587E+02  0.24635511352E+02  0.51100000000E-03 0. -1.
        -11    1    3    3    0    0  0.15289758005E+02  0.11522595607E+02  0.19167446052E+02  0.27091288227E+02  0.51100000000E-03 0.  1.
        -12    1    3    3    0    0 -0.14904794171E+02 -0.18279065190E+01 -0.14298346568E+02  0.20734918522E+02  0.00000000000E+00 0.  1.
</event>
<event>
 7    1  0.1857734E-013  0.7246159E+02  0.7816164E-02  0.1226708E+00
        -11   -1    0    0    0    0  0.00000000000E+00  0.00000000000E+00  0.45593999997E+02  0.45594000000E+02  0.51100000000E-03 0.  1.
         11   -1    0    0    0    0 -0.00000000000E+00 -0.00000000000E+00 -0.45593999997E+02  0.45594000000E+02  0.51100000000E-03 0. -1.
    9900012    2    1    2    0    0 -0.12212233569E+02  0.18310370241E+01 -0.14077898933E+02  0.72461585936E+02  0.70000020377E+02 0.  0.
        -12    1    1    2    0    0  0.12212233569E+02 -0.18310370241E+01  0.14077898933E+02  0.18726414064E+02  0.00000000000E+00 0.  1.
         11    1    3    3    0    0 -0.13677583536E+02 -0.11180857632E+02  0.24224409566E+02  0.29981825960E+02  0.51100000000E-03 0.  1.
        -11    1    3    3    0    0 -0.38172383068E+01  0.11791225550E+02 -0.21407677856E+02  0.24736470640E+02  0.51100000000E-03 0. -1.
        -12    1    3    3    0    0  0.52825882740E+01  0.12206691068E+01 -0.16894630643E+02  0.17743289337E+02  0.00000000000E+00 0.  1.
</event>
<event>
 7    1  0.1857734E-013  0.7246155E+02  0.7816164E-02  0.1226708E+00
        -11   -1    0    0    0    0  0.00000000000E+00  0.00000000000E+00  0.45593999997E+02  0.45594000000E+02  0.51100000000E-03 0.  1.
         11   -1    0    0    0    0 -0.00000000000E+00 -0.00000000000E+00 -0.45593999997E+02  0.45594000000E+02  0.51100000000E-03 0. -1.
    9900012    2    1    2    0    0  0.29631710157E+01  0.89624789127E+01 -0.16173238221E+02  0.72461546912E+02  0.69999969540E+02 0.  0.
        -12    1    1    2    0    0 -0.29631710157E+01 -0.89624789127E+01  0.16173238221E+02  0.18726453088E+02  0.00000000000E+00 0.  1.
         11    1    3    3    0    0 -0.23659169783E+02 -0.77868296938E+01 -0.48675870286E+01  0.25378818634E+02  0.51100000000E-03 0. -1.
        -11    1    3    3    0    0  0.18896276295E+02  0.14518046413E+02 -0.22849270502E+02  0.33014119589E+02  0.51100000000E-03 0.  1.
        -12    1    3    3    0    0  0.77260645034E+01  0.22312621934E+01  0.11543619310E+02  0.14068608690E+02  0.00000000000E+00 0.  1.
</event>
<event>
 7    1  0.1857734E-013  0.7246158E+02  0.7816164E-02  0.1226708E+00
        -11   -1    0    0    0    0  0.00000000000E+00  0.00000000000E+00  0.45593999997E+02  0.45594000000E+02  0.51100000000E-03 0.  1.
         11   -1    0    0    0    0 -0.00000000000E+00 -0.00000000000E+00 -0.45593999997E+02  0.45594000000E+02  0.51100000000E-03 0. -1.
    9900012    2    1    2    0    0 -0.68845901744E+01  0.91882192033E+01 -0.14793839921E+02  0.72461584070E+02  0.70000017945E+02 0.  0.
        -12    1    1    2    0    0  0.68845901744E+01 -0.91882192033E+01  0.14793839921E+02  0.18726415930E+02  0.00000000000E+00 0.  1.
         11    1    3    3    0    0 -0.20314828866E+02 -0.13405126995E+02 -0.20653991214E+02  0.31921420002E+02  0.51100000000E-03 0. -1.
        -11    1    3    3    0    0  0.21435573192E+02  0.69585788492E+01  0.27898348947E+01  0.22708782369E+02  0.51100000000E-03 0.  1.
         12    1    3    3    0    0 -0.80053345004E+01  0.15634767349E+02  0.30703163984E+01  0.17831381699E+02  0.00000000000E+00 0. -1.
</event>
<event>
 7    1  0.1857734E-013  0.7246155E+02  0.7816164E-02  0.1226708E+00
        -11   -1    0    0    0    0  0.00000000000E+00  0.00000000000E+00  0.45593999997E+02  0.45594000000E+02  0.51100000000E-03 0.  1.
         11   -1    0    0    0    0 -0.00000000000E+00 -0.00000000000E+00 -0.45593999997E+02  0.45594000000E+02  0.51100000000E-03 0. -1.
    9900012    2    1    2    0    0  0.41580598768E+01 -0.18254994410E+02 -0.38169395392E+00  0.72461548838E+02  0.69999972049E+02 0.  0.
        -12    1    1    2    0    0 -0.41580598768E+01  0.18254994410E+02  0.38169395392E+00  0.18726451162E+02  0.00000000000E+00 0.  1.
         11    1    3    3    0    0 -0.18237941796E+02  0.11542373798E+02  0.59475409053E+01  0.22387991356E+02  0.51100000000E-03 0. -1.
        -11    1    3    3    0    0  0.21339030254E+02 -0.29542465673E+02  0.66532609830E+01  0.37045612050E+02  0.51100000000E-03 0.  1.
        -12    1    3    3    0    0  0.10569714191E+01 -0.25490253564E+00 -0.12982495842E+02  0.13027945432E+02  0.00000000000E+00 0.  1.
</event>
<event>
 7    1  0.1857734E-013  0.7246155E+02  0.7816164E-02  0.1226708E+00
        -11   -1    0    0    0    0  0.00000000000E+00  0.00000000000E+00  0.45593999997E+02  0.45594000000E+02  0.51100000000E-03 0.  1.
         11   -1    0    0    0    0 -0.00000000000E+00 -0.00000000000E+00 -0.45593999997E+02  0.45594000000E+02  0.51100000000E-03 0. -1.
    9900012    2    1    2    0    0 -0.35369364371E+01 -0.83956787481E+01 -0.16361012491E+02  0.72461546232E+02  0.69999968655E+02 0.  0.
        -12    1    1    2    0    0  0.35369364371E+01  0.83956787481E+01  0.16361012491E+02  0.18726453768E+02  0.00000000000E+00 0.  1.
         11    1    3    3    0    0  0.81961122347E+00 -0.31420917740E+02 -0.10185666220E+02  0.33040787381E+02  0.51100000000E-03 0. -1.
        -11    1    3    3    0    0  0.10635471299E+02  0.18203046891E+02  0.28426089470E+01  0.21273095491E+02  0.51100000000E-03 0.  1.
        -12    1    3    3    0    0 -0.14992018959E+02  0.48221921005E+01 -0.90179552175E+01  0.18147663360E+02  0.00000000000E+00 0.  1.
</event>
<event>
 7    1  0.1857734E-013  0.7246153E+02  0.7816164E-02  0.1226708E+00
        -11   -1    0    0    0    0  0.00000000000E+00  0.00000000000E+00  0.45593999997E+02  0.45594000000E+02  0.51100000000E-03 0. -1.
         11   -1    0    0    0    0 -0.00000000000E+00 -0.00000000000E+00 -0.45593999997E+02  0.45594000000E+02  0.51100000000E-03 0.  1.
    9900012    2    1    2    0    0  0.65759626047E+01  0.17356738642E+02 -0.24861467641E+01  0.72461532469E+02  0.69999950726E+02 0.  0.
        -12    1    1    2    0    0 -0.65759626047E+01 -0.17356738642E+02  0.24861467641E+01  0.18726467531E+02  0.00000000000E+00 0.  1.
         11    1    3    3    0    0  0.12887715278E+02  0.26563171264E+02  0.30982256191E+01  0.29686600932E+02  0.51100000000E-03 0. -1.
        -11    1    3    3    0    0 -0.19643161339E+02  0.69802599647E+01 -0.63465855418E+01  0.21791213019E+02  0.51100000000E-03 0.  1.
        -12    1    3    3    0    0  0.13331408666E+02 -0.16186692587E+02  0.76221315862E+00  0.20983718517E+02  0.00000000000E+00 0.  1.
</event>
<event>
 7    1  0.1857734E-013  0.7246161E+02  0.7816164E-02  0.1226708E+00
        -11   -1    0    0    0    0  0.00000000000E+00  0.00000000000E+00  0.45593999997E+02  0.45594000000E+02  0.51100000000E-03 0. -1.
         11   -1    0    0    0    0 -0.00000000000E+00 -0.00000000000E+00 -0.45593999997E+02  0.45594000000E+02  0.51100000000E-03 0.  1.
    9900012    2    1    2    0    0  0.11836934174E+02  0.14253103758E+02 -0.27228298163E+01  0.72461607406E+02  0.70000048345E+02 0.  0.
        -12    1    1    2    0    0 -0.11836934174E+02 -0.14253103758E+02  0.27228298163E+01  0.18726392594E+02  0.00000000000E+00 0.  1.
         11    1    3    3    0    0 -0.21642193724E+02  0.10960591544E+02  0.89722097325E+01  0.25865414436E+02  0.51100000000E-03 0. -1.
        -11    1    3    3    0    0  0.11773342463E+02  0.43475847826E+01 -0.19766485637E+02  0.23414248673E+02  0.51100000000E-03 0.  1.
         12    1    3    3    0    0  0.21705785435E+02 -0.10550725693E+01  0.80714460886E+01  0.23181944298E+02  0.00000000000E+00 0. -1.
</event>
<event>
 7    1  0.1857734E-013  0.7246152E+02  0.7816164E-02  0.1226708E+00
        -11   -1    0    0    0    0  0.00000000000E+00  0.00000000000E+00  0.45593999997E+02  0.45594000000E+02  0.51100000000E-03 0.  1.
         11   -1    0    0    0    0 -0.00000000000E+00 -0.00000000000E+00 -0.45593999997E+02  0.45594000000E+02  0.51100000000E-03 0. -1.
    9900012    2    1    2    0    0 -0.19291418466E+00  0.13413647864E+02 -0.13065904698E+02  0.72461520607E+02  0.69999935272E+02 0.  0.
        -12    1    1    2    0    0  0.19291418466E+00 -0.13413647864E+02  0.13065904698E+02  0.18726479393E+02  0.00000000000E+00 0.  1.
         11    1    3    3    0    0 -0.21598008318E+00 -0.18429253616E+02  0.28217528029E+00  0.18432679116E+02  0.51100000000E-03 0. -1.
        -11    1    3    3    0    0  0.47098502871E+01  0.36420456897E+02  0.25717849125E+01  0.36813672028E+02  0.51100000000E-03 0.  1.
         12    1    3    3    0    0 -0.46867843885E+01 -0.45775554169E+01 -0.15919864891E+02  0.17215169463E+02  0.00000000000E+00 0. -1.
</event>
<event>
 7    1  0.1857734E-013  0.7246156E+02  0.7816164E-02  0.1226708E+00
        -11   -1    0    0    0    0  0.00000000000E+00  0.00000000000E+00  0.45593999997E+02  0.45594000000E+02  0.51100000000E-03 0. -1.
         11   -1    0    0    0    0 -0.00000000000E+00 -0.00000000000E+00 -0.45593999997E+02  0.45594000000E+02  0.51100000000E-03 0.  1.
    9900012    2    1    2    0    0 -0.56046512453E+01  0.83387031153E+01  0.15802956668E+02  0.72461560811E+02  0.69999987647E+02 0.  0.
        -12    1    1    2    0    0  0.56046512453E+01 -0.83387031153E+01 -0.15802956668E+02  0.18726439189E+02  0.00000000000E+00 0.  1.
         11    1    3    3    0    0  0.14923557817E+01  0.14411475913E+02  0.51337859175E+00  0.14497631586E+02  0.51100000000E-03 0.  1.
        -11    1    3    3    0    0  0.17528004650E+02 -0.19183127945E+02  0.15123987576E+02  0.30065900040E+02  0.51100000000E-03 0. -1.
        -12    1    3    3    0    0 -0.24625011677E+02  0.13110355148E+02  0.16559050027E+00  0.27898029185E+02  0.00000000000E+00 0.  1.
</event>
<event>
 7    1  0.1857734E-013  0.7246156E+02  0.7816164E-02  0.1226708E+00
        -11   -1    0    0    0    0  0.00000000000E+00  0.00000000000E+00  0.45593999997E+02  0.45594000000E+02  0.51100000000E-03 0.  1.
         11   -1    0    0    0    0 -0.00000000000E+00 -0.00000000000E+00 -0.45593999997E+02  0.45594000000E+02  0.51100000000E-03 0. -1.
    9900012    2    1    2    0    0 -0.99584854942E+01  0.10192812424E+02  0.12149673168E+02  0.72461563699E+02  0.69999991408E+02 0.  0.
        -12    1    1    2    0    0  0.99584854942E+01 -0.10192812424E+02 -0.12149673168E+02  0.18726436301E+02  0.00000000000E+00 0.  1.
         11    1    3    3    0    0  0.58399838403E+01  0.77528783934E+01 -0.57425253162E+01  0.11277815919E+02  0.51100000000E-03 0. -1.
        -11    1    3    3    0    0 -0.25642440641E+02  0.12565547833E+02  0.30835981349E+02  0.42027199531E+02  0.51100000000E-03 0.  1.
        -12    1    3    3    0    0  0.98439713069E+01 -0.10125613802E+02 -0.12943782865E+02  0.19156548249E+02  0.00000000000E+00 0.  1.
</event>
<event>
 7    1  0.1857734E-013  0.7246157E+02  0.7816164E-02  0.1226708E+00
        -11   -1    0    0    0    0  0.00000000000E+00  0.00000000000E+00  0.45593999997E+02  0.45594000000E+02  0.51100000000E-03 0. -1.
         11   -1    0    0    0    0 -0.00000000000E+00 -0.00000000000E+00 -0.45593999997E+02  0.45594000000E+02  0.51100000000E-03 0.  1.
    9900012    2    1    2    0    0 -0.15861296446E+02  0.56527483443E+01 -0.81941884717E+01  0.72461574460E+02  0.70000005427E+02 0.  0.
        -12    1    1    2    0    0  0.15861296446E+02 -0.56527483443E+01  0.81941884717E+01  0.18726425540E+02  0.00000000000E+00 0.  1.
         11    1    3    3    0    0 -0.23046398279E+02  0.95090074042E+01 -0.13794207680E+02  0.28492768578E+02  0.51100000000E-03 0. -1.
        -11    1    3    3    0    0 -0.52829066036E+01 -0.15552105522E+02  0.16828842138E+02  0.23515675970E+02  0.51100000000E-03 0.  1.
        -12    1    3    3    0    0  0.12468008437E+02  0.11695846462E+02 -0.11228822929E+02  0.20453129913E+02  0.00000000000E+00 0.  1.
</event>
<event>
 7    1  0.1857734E-013  0.7246158E+02  0.7816164E-02  0.1226708E+00
        -11   -1    0    0    0    0  0.00000000000E+00  0.00000000000E+00  0.45593999997E+02  0.45594000000E+02  0.51100000000E-03 0. -1.
         11   -1    0    0    0    0 -0.00000000000E+00 -0.00000000000E+00 -0.45593999997E+02  0.45594000000E+02  0.51100000000E-03 0.  1.
    9900012    2    1    2    0    0 -0.10452979938E+02  0.11817479690E+00  0.15537054584E+02  0.72461579626E+02  0.70000012156E+02 0.  0.
        -12    1    1    2    0    0  0.10452979938E+02 -0.11817479690E+00 -0.15537054584E+02  0.18726420374E+02  0.00000000000E+00 0.  1.
         11    1    3    3    0    0 -0.28899822944E+02 -0.15915613792E+02  0.21836615636E+02  0.39564432402E+02  0.51100000000E-03 0. -1.
        -11    1    3    3    0    0  0.17926923574E+02  0.18629574205E+01 -0.47046536880E+01  0.18627371413E+02  0.51100000000E-03 0.  1.
         12    1    3    3    0    0  0.51991943230E+00  0.14170831168E+02 -0.15949073641E+01  0.14269775812E+02  0.00000000000E+00 0. -1.
</event>
<event>
 7    1  0.1857734E-013  0.7246157E+02  0.7816164E-02  0.1226708E+00
        -11   -1    0    0    0    0  0.00000000000E+00  0.00000000000E+00  0.45593999997E+02  0.45594000000E+02  0.51100000000E-03 0.  1.
         11   -1    0    0    0    0 -0.00000000000E+00 -0.00000000000E+00 -0.45593999997E+02  0.45594000000E+02  0.51100000000E-03 0. -1.
    9900012    2    1    2    0    0 -0.26349055277E+01  0.66794520062E+01 -0.17295131020E+02  0.72461565122E+02  0.69999993262E+02 0.  0.
        -12    1    1    2    0    0  0.26349055277E+01 -0.66794520062E+01  0.17295131020E+02  0.18726434878E+02  0.00000000000E+00 0.  1.
         11    1    3    3    0    0  0.91423344260E+01  0.21064144705E+02  0.14011283821E+02  0.26899749915E+02  0.51100000000E-03 0.  1.
        -11    1    3    3    0    0 -0.50842417579E+01 -0.56238386701E+01 -0.33477457517E+02  0.34325169157E+02  0.51100000000E-03 0. -1.
        -12    1    3    3    0    0 -0.66929981957E+01 -0.87608540284E+01  0.21710426753E+01  0.11236646050E+02  0.00000000000E+00 0.  1.
</event>
<event>
 7    1  0.1857734E-013  0.7246156E+02  0.7816164E-02  0.1226708E+00
        -11   -1    0    0    0    0  0.00000000000E+00  0.00000000000E+00  0.45593999997E+02  0.45594000000E+02  0.51100000000E-03 0. -1.
         11   -1    0    0    0    0 -0.00000000000E+00 -0.00000000000E+00 -0.45593999997E+02  0.45594000000E+02  0.51100000000E-03 0.  1.
    9900012    2    1    2    0    0  0.17418409559E+02  0.31887231281E-01  0.68758550903E+01  0.72461564365E+02  0.69999992276E+02 0.  0.
        -12    1    1    2    0    0 -0.17418409559E+02 -0.31887231281E-01 -0.68758550903E+01  0.18726435635E+02  0.00000000000E+00 0.  1.
         11    1    3    3    0    0  0.71405160206E+01  0.22912879828E+02  0.16320362471E+02  0.29023116003E+02  0.51100000000E-03 0. -1.
        -11    1    3    3    0    0  0.20771468004E+02 -0.17295230781E+02  0.17815964065E+01  0.27087875089E+02  0.51100000000E-03 0.  1.
         12    1    3    3    0    0 -0.10493574466E+02 -0.55857618159E+01 -0.11226103787E+02  0.16350573274E+02  0.00000000000E+00 0. -1.
</event>
<event>
 7    1  0.1857734E-013  0.7246146E+02  0.7816164E-02  0.1226708E+00
        -11   -1    0    0    0    0  0.00000000000E+00  0.00000000000E+00  0.45593999997E+02  0.45594000000E+02  0.51100000000E-03 0. -1.
         11   -1    0    0    0    0 -0.00000000000E+00 -0.00000000000E+00 -0.45593999997E+02  0.45594000000E+02  0.51100000000E-03 0.  1.
    9900012    2    1    2    0    0  0.10647912810E+02  0.15123720195E+02 -0.29288501775E+01  0.72461464733E+02  0.69999862487E+02 0.  0.
        -12    1    1    2    0    0 -0.10647912810E+02 -0.15123720195E+02  0.29288501775E+01  0.18726535267E+02  0.00000000000E+00 0.  1.
         11    1    3    3    0    0 -0.16012333359E+02  0.12864717680E+02  0.11450385394E+02  0.23516103132E+02  0.51100000000E-03 0. -1.
        -11    1    3    3    0    0  0.30519037040E+02  0.14614959362E+02 -0.10149672847E+02  0.35327390480E+02  0.51100000000E-03 0.  1.
        -12    1    3    3    0    0 -0.38587908704E+01 -0.12355956848E+02 -0.42295627247E+01  0.13617971121E+02  0.00000000000E+00 0.  1.
</event>
<event>
 7    1  0.1857734E-013  0.7246167E+02  0.7816164E-02  0.1226708E+00
        -11   -1    0    0    0    0  0.00000000000E+00  0.00000000000E+00  0.45593999997E+02  0.45594000000E+02  0.51100000000E-03 0.  1.
         11   -1    0    0    0    0 -0.00000000000E+00 -0.00000000000E+00 -0.45593999997E+02  0.45594000000E+02  0.51100000000E-03 0. -1.
    9900012    2    1    2    0    0 -0.62311119978E+01 -0.16274681802E+02 -0.68544405591E+01  0.72461671479E+02  0.70000131812E+02 0.  0.
        -12    1    1    2    0    0  0.62311119978E+01  0.16274681802E+02  0.68544405591E+01  0.18726328521E+02  0.00000000000E+00 0.  1.
         11    1    3    3    0    0 -0.49281584008E+01 -0.26898151792E+02  0.19909584343E+02  0.33825860876E+02  0.51100000000E-03 0. -1.
        -11    1    3    3    0    0  0.10910604898E+01  0.17373460818E+02 -0.92471149533E+01  0.19711334024E+02  0.51100000000E-03 0.  1.
         12    1    3    3    0    0 -0.23940140868E+01 -0.67499908278E+01 -0.17516909949E+02  0.18924476579E+02  0.00000000000E+00 0. -1.
</event>
<event>
 7    1  0.1857734E-013  0.7246160E+02  0.7816164E-02  0.1226708E+00
        -11   -1    0    0    0    0  0.00000000000E+00  0.00000000000E+00  0.45593999997E+02  0.45594000000E+02  0.51100000000E-03 0.  1.
         11   -1    0    0    0    0 -0.00000000000E+00 -0.00000000000E+00 -0.45593999997E+02  0.45594000000E+02  0.51100000000E-03 0. -1.
    9900012    2    1    2    0    0 -0.17295450373E+02  0.62555548098E+01  0.35232782768E+01  0.72461599935E+02  0.70000038612E+02 0.  0.
        -12    1    1    2    0    0  0.17295450373E+02 -0.62555548098E+01 -0.35232782768E+01  0.18726400065E+02  0.00000000000E+00 0.  1.
         11    1    3    3    0    0 -0.41807302211E+02  0.83967592495E+01  0.10819531661E+02  0.43993389841E+02  0.51100000000E-03 0. -1.
        -11    1    3    3    0    0  0.13431782705E+02 -0.18366726121E+01  0.23685392679E+01  0.13762126705E+02  0.51100000000E-03 0.  1.
         12    1    3    3    0    0  0.11080069133E+02 -0.30453182749E+00 -0.96647926524E+01  0.14706083389E+02  0.00000000000E+00 0. -1.
</event>
<event>
 7    1  0.1857734E-013  0.7246158E+02  0.7816164E-02  0.1226708E+00
        -11   -1    0    0    0    0  0.00000000000E+00  0.00000000000E+00  0.45593999997E+02  0.45594000000E+02  0.51100000000E-03 0.  1.
         11   -1    0    0    0    0 -0.00000000000E+00 -0.00000000000E+00 -0.45593999997E+02  0.45594000000E+02  0.51100000000E-03 0. -1.
    9900012    2    1    2    0    0 -0.32776092840E+01  0.99768609313E+01 -0.15504782430E+02  0.72461581366E+02  0.70000014423E+02 0.  0.
        -12    1    1    2    0    0  0.32776092840E+01 -0.99768609313E+01  0.15504782430E+02  0.18726418634E+02  0.00000000000E+00 0.  1.
         11    1    3    3    0    0  0.10882206208E+02 -0.21363953146E+02 -0.13725623713E+02  0.27626683705E+02  0.51100000000E-03 0. -1.
        -11    1    3    3    0    0 -0.16946069064E+02  0.14155989442E+02  0.95568578851E+01  0.24060233305E+02  0.51100000000E-03 0.  1.
        -12    1    3    3    0    0  0.27862535716E+01  0.17184824635E+02 -0.11336016602E+02  0.20774664356E+02  0.00000000000E+00 0.  1.
</event>
<event>
 7    1  0.1857734E-013  0.7246111E+02  0.7816164E-02  0.1226709E+00
        -11   -1    0    0    0    0  0.00000000000E+00  0.00000000000E+00  0.45593999997E+02  0.45594000000E+02  0.51100000000E-03 0.  1.
         11   -1    0    0    0    0 -0.00000000000E+00 -0.00000000000E+00 -0.45593999997E+02  0.45594000000E+02  0.51100000000E-03 0. -1.
    9900012    2    1    2    0    0 -0.12084275405E+02 -0.11671054263E+02 -0.82736417577E+01  0.72461111107E+02  0.69999401821E+02 0.  0.
        -12    1    1    2    0    0  0.12084275405E+02  0.11671054263E+02  0.82736417577E+01  0.18726888893E+02  0.00000000000E+00 0.  1.
         11    1    3    3    0    0  0.20314330665E+02 -0.15120127766E+02 -0.14607236283E+02  0.29234596732E+02  0.51100000000E-03 0. -1.
        -11    1    3    3    0    0 -0.58392436787E+00  0.71613977121E+01  0.84913486184E+01  0.11123380173E+02  0.51100000000E-03 0.  1.
         12    1    3    3    0    0 -0.31814681702E+02 -0.37123242087E+01 -0.21577540935E+01  0.32103134202E+02  0.00000000000E+00 0. -1.
</event>
<event>
 7    1  0.1857734E-013  0.7246155E+02  0.7816164E-02  0.1226708E+00
        -11   -1    0    0    0    0  0.00000000000E+00  0.00000000000E+00  0.45593999997E+02  0.45594000000E+02  0.51100000000E-03 0. -1.
         11   -1    0    0    0    0 -0.00000000000E+00 -0.00000000000E+00 -0.45593999997E+02  0.45594000000E+02  0.51100000000E-03 0.  1.
    9900012    2    1    2    0    0  0.38579807737E+01  0.17540940723E+02  0.53019938678E+01  0.72461554633E+02  0.69999979598E+02 0.  0.
        -12    1    1    2    0    0 -0.38579807737E+01 -0.17540940723E+02 -0.53019938678E+01  0.18726445367E+02  0.00000000000E+00 0.  1.
         11    1    3    3    0    0  0.11540509389E+02 -0.24377429879E+02  0.74912074931E+01  0.27992153086E+02  0.51100000000E-03 0.  1.
        -11    1    3    3    0    0 -0.57624669287E+01  0.41507918209E+02 -0.35869851809E+01  0.42059241102E+02  0.51100000000E-03 0. -1.
        -12    1    3    3    0    0 -0.19200616865E+01  0.41045239349E+00  0.13977715556E+01  0.24101604447E+01  0.00000000000E+00 0.  1.
</event>
<event>
 7    1  0.1857734E-013  0.7246145E+02  0.7816164E-02  0.1226708E+00
        -11   -1    0    0    0    0  0.00000000000E+00  0.00000000000E+00  0.45593999997E+02  0.45594000000E+02  0.51100000000E-03 0. -1.
         11   -1    0    0    0    0 -0.00000000000E+00 -0.00000000000E+00 -0.45593999997E+02  0.45594000000E+02  0.51100000000E-03 0.  1.
    9900012    2    1    2    0    0  0.70696091428E+01  0.30760549098E+01  0.17065822695E+02  0.72461446887E+02  0.69999839239E+02 0.  0.
        -12    1    1    2    0    0 -0.70696091428E+01 -0.30760549098E+01 -0.17065822695E+02  0.18726553113E+02  0.00000000000E+00 0.  1.
         11    1    3    3    0    0 -0.18804401386E+02  0.20590348968E+02  0.23267081894E+02  0.36317008167E+02  0.51100000000E-03 0. -1.
        -11    1    3    3    0    0  0.11779712785E+02 -0.13995732373E+02 -0.10374179367E+02  0.21030115448E+02  0.51100000000E-03 0.  1.
         12    1    3    3    0    0  0.14094297744E+02 -0.35185616848E+01  0.41729201683E+01  0.15114323272E+02  0.00000000000E+00 0. -1.
</event>
<event>
 7    1  0.1857734E-013  0.7246159E+02  0.7816164E-02  0.1226708E+00
        -11   -1    0    0    0    0  0.00000000000E+00  0.00000000000E+00  0.45593999997E+02  0.45594000000E+02  0.51100000000E-03 0.  1.
         11   -1    0    0    0    0 -0.00000000000E+00 -0.00000000000E+00 -0.45593999997E+02  0.45594000000E+02  0.51100000000E-03 0. -1.
    9900012    2    1    2    0    0  0.75250868734E+01 -0.13274709635E+02  0.10855125000E+02  0.72461585844E+02  0.70000020257E+02 0.  0.
        -12    1    1    2    0    0 -0.75250868734E+01  0.13274709635E+02 -0.10855125000E+02  0.18726414156E+02  0.00000000000E+00 0.  1.
         11    1    3    3    0    0  0.17413205390E+02  0.10947499099E+01 -0.17323394775E+02  0.24586951948E+02  0.51100000000E-03 0. -1.
        -11    1    3    3    0    0  0.76378195132E-01  0.10879690028E+02  0.12323756890E+02  0.16439235776E+02  0.51100000000E-03 0.  1.
         12    1    3    3    0    0 -0.99644967113E+01 -0.25249149573E+02  0.15854762885E+02  0.31435398121E+02  0.00000000000E+00 0. -1.
</event>
<event>
 7    1  0.1857734E-013  0.7246156E+02  0.7816164E-02  0.1226708E+00
        -11   -1    0    0    0    0  0.00000000000E+00  0.00000000000E+00  0.45593999997E+02  0.45594000000E+02  0.51100000000E-03 0. -1.
         11   -1    0    0    0    0 -0.00000000000E+00 -0.00000000000E+00 -0.45593999997E+02  0.45594000000E+02  0.51100000000E-03 0.  1.
    9900012    2    1    2    0    0  0.93176937701E+01  0.66202125347E+01  0.14833502556E+02  0.72461563359E+02  0.69999990965E+02 0.  0.
        -12    1    1    2    0    0 -0.93176937701E+01 -0.66202125347E+01 -0.14833502556E+02  0.18726436641E+02  0.00000000000E+00 0.  1.
         11    1    3    3    0    0 -0.12510622859E+01  0.10140430222E+02 -0.18856312900E+02  0.21446538611E+02  0.51100000000E-03 0. -1.
        -11    1    3    3    0    0  0.23675744653E+02 -0.17520018414E+01  0.14870857254E+02  0.28013439473E+02  0.51100000000E-03 0.  1.
         12    1    3    3    0    0 -0.13106988597E+02 -0.17682158459E+01  0.18818958202E+02  0.23001585275E+02  0.00000000000E+00 0. -1.
</event>
<event>
 7    1  0.1857734E-013  0.7246158E+02  0.7816164E-02  0.1226708E+00
        -11   -1    0    0    0    0  0.00000000000E+00  0.00000000000E+00  0.45593999997E+02  0.45594000000E+02  0.51100000000E-03 0.  1.
         11   -1    0    0    0    0 -0.00000000000E+00 -0.00000000000E+00 -0.45593999997E+02  0.45594000000E+02  0.51100000000E-03 0. -1.
    9900012    2    1    2    0    0 -0.11719917200E+02  0.14512886258E+02  0.16427243955E+01  0.72461578288E+02  0.70000010413E+02 0.  0.
        -12    1    1    2    0    0  0.11719917200E+02 -0.14512886258E+02 -0.16427243955E+01  0.18726421712E+02  0.00000000000E+00 0.  1.
         11    1    3    3    0    0 -0.29589163804E+02  0.10150569770E+02 -0.32875210953E+01  0.31454101108E+02  0.51100000000E-03 0. -1.
        -11    1    3    3    0    0  0.19521872389E+02 -0.60895828958E+01  0.15796436403E+02  0.25840161081E+02  0.51100000000E-03 0.  1.
         12    1    3    3    0    0 -0.16526257842E+01  0.10451899384E+02 -0.10866190912E+02  0.15167316099E+02  0.00000000000E+00 0. -1.
</event>
<event>
 7    1  0.1857734E-013  0.7246234E+02  0.7816164E-02  0.1226706E+00
        -11   -1    0    0    0    0  0.00000000000E+00  0.00000000000E+00  0.45593999997E+02  0.45594000000E+02  0.51100000000E-03 0.  1.
         11   -1    0    0    0    0 -0.00000000000E+00 -0.00000000000E+00 -0.45593999997E+02  0.45594000000E+02  0.51100000000E-03 0. -1.
    9900012    2    1    2    0    0 -0.39542728102E-01  0.18203162556E+02  0.43924563424E+01  0.72462339440E+02  0.70001001948E+02 0.  0.
        -12    1    1    2    0    0  0.39542728102E-01 -0.18203162556E+02 -0.43924563424E+01  0.18725660560E+02  0.00000000000E+00 0.  1.
         11    1    3    3    0    0 -0.60941932790E+01  0.42874349840E+01 -0.16834286026E+02  0.18409629999E+02  0.51100000000E-03 0. -1.
        -11    1    3    3    0    0  0.26554524164E+02  0.10703677616E+02  0.15353348763E+02  0.32487486615E+02  0.51100000000E-03 0.  1.
        -12    1    3    3    0    0 -0.20499873613E+02  0.32120499566E+01  0.58733936048E+01  0.21565222826E+02  0.00000000000E+00 0.  1.
</event>
<event>
 7    1  0.1857734E-013  0.7246158E+02  0.7816164E-02  0.1226708E+00
        -11   -1    0    0    0    0  0.00000000000E+00  0.00000000000E+00  0.45593999997E+02  0.45594000000E+02  0.51100000000E-03 0.  1.
         11   -1    0    0    0    0 -0.00000000000E+00 -0.00000000000E+00 -0.45593999997E+02  0.45594000000E+02  0.51100000000E-03 0. -1.
    9900012    2    1    2    0    0 -0.94161201387E+01 -0.56651141351E+01 -0.15163172015E+02  0.72461584909E+02  0.70000019038E+02 0.  0.
        -12    1    1    2    0    0  0.94161201387E+01  0.56651141351E+01  0.15163172015E+02  0.18726415091E+02  0.00000000000E+00 0.  1.
         11    1    3    3    0    0 -0.12180345907E+02  0.27115469068E+02  0.34943780505E+01  0.29930255051E+02  0.51100000000E-03 0. -1.
        -11    1    3    3    0    0  0.78417203233E+01 -0.28743103507E+02 -0.20029959080E+02  0.35900666259E+02  0.51100000000E-03 0.  1.
         12    1    3    3    0    0 -0.50774945547E+01 -0.40374796964E+01  0.13724090153E+01  0.66306635986E+01  0.00000000000E+00 0. -1.
</event>
<event>
 7    1  0.1857734E-013  0.7246085E+02  0.7816164E-02  0.1226710E+00
        -11   -1    0    0    0    0  0.00000000000E+00  0.00000000000E+00  0.45593999997E+02  0.45594000000E+02  0.51100000000E-03 0. -1.
         11   -1    0    0    0    0 -0.00000000000E+00 -0.00000000000E+00 -0.45593999997E+02  0.45594000000E+02  0.51100000000E-03 0.  1.
    9900012    2    1    2    0    0  0.18682223685E+02  0.31166481455E+00 -0.12583933936E+01  0.72460849370E+02  0.69999060856E+02 0.  0.
        -12    1    1    2    0    0 -0.18682223685E+02 -0.31166481455E+00  0.12583933936E+01  0.18727150630E+02  0.00000000000E+00 0.  1.
         11    1    3    3    0    0 -0.12464439449E+02 -0.13326301328E+02  0.20527166956E+02  0.27464834632E+02  0.51100000000E-03 0. -1.
        -11    1    3    3    0    0  0.67522297376E+01  0.32318669589E+01 -0.16266913926E+02  0.17906704314E+02  0.51100000000E-03 0.  1.
         12    1    3    3    0    0  0.24394433396E+02  0.10406099183E+02 -0.55186464240E+01  0.27089310425E+02  0.00000000000E+00 0. -1.
</event>
<event>
 7    1  0.1857734E-013  0.7246156E+02  0.7816164E-02  0.1226708E+00
        -11   -1    0    0    0    0  0.00000000000E+00  0.00000000000E+00  0.45593999997E+02  0.45594000000E+02  0.51100000000E-03 0.  1.
         11   -1    0    0    0    0 -0.00000000000E+00 -0.00000000000E+00 -0.45593999997E+02  0.45594000000E+02  0.51100000000E-03 0. -1.
    9900012    2    1    2    0    0  0.38572792253E+01 -0.16917533133E+02 -0.70425815943E+01  0.72461561849E+02  0.69999988998E+02 0.  0.
        -12    1    1    2    0    0 -0.38572792253E+01  0.16917533133E+02  0.70425815943E+01  0.18726438151E+02  0.00000000000E+00 0.  1.
         11    1    3    3    0    0  0.15456691720E+02  0.44719783837E+01 -0.12602524802E+02  0.20438481872E+02  0.51100000000E-03 0. -1.
        -11    1    3    3    0    0  0.93921469001E+01 -0.28145157530E+02  0.34353644542E+01  0.29869115236E+02  0.51100000000E-03 0.  1.
         12    1    3    3    0    0 -0.20991559395E+02  0.67556460132E+01  0.21245787531E+01  0.22153964741E+02  0.00000000000E+00 0. -1.
</event>
<event>
 7    1  0.1857734E-013  0.7246162E+02  0.7816164E-02  0.1226708E+00
        -11   -1    0    0    0    0  0.00000000000E+00  0.00000000000E+00  0.45593999997E+02  0.45594000000E+02  0.51100000000E-03 0. -1.
         11   -1    0    0    0    0 -0.00000000000E+00 -0.00000000000E+00 -0.45593999997E+02  0.45594000000E+02  0.51100000000E-03 0.  1.
    9900012    2    1    2    0    0  0.54980678896E+01  0.14496292591E+02  0.10502670366E+02  0.72461619297E+02  0.70000063835E+02 0.  0.
        -12    1    1    2    0    0 -0.54980678896E+01 -0.14496292591E+02 -0.10502670366E+02  0.18726380703E+02  0.00000000000E+00 0.  1.
         11    1    3    3    0    0  0.25110947986E+02  0.14114809244E+02  0.93969777429E+01  0.30300012206E+02  0.51100000000E-03 0. -1.
        -11    1    3    3    0    0 -0.18740475691E+02 -0.14634393961E+02  0.86908843469E+01  0.25316049983E+02  0.51100000000E-03 0.  1.
        -12    1    3    3    0    0 -0.87240440518E+00  0.15015877309E+02 -0.75851917234E+01  0.16845557108E+02  0.00000000000E+00 0.  1.
</event>
<event>
 7    1  0.1857734E-013  0.7246159E+02  0.7816164E-02  0.1226708E+00
        -11   -1    0    0    0    0  0.00000000000E+00  0.00000000000E+00  0.45593999997E+02  0.45594000000E+02  0.51100000000E-03 0.  1.
         11   -1    0    0    0    0 -0.00000000000E+00 -0.00000000000E+00 -0.45593999997E+02  0.45594000000E+02  0.51100000000E-03 0. -1.
    9900012    2    1    2    0    0 -0.92690055913E+00 -0.18613559847E+02 -0.18315971720E+01  0.72461588090E+02  0.70000023182E+02 0.  0.
        -12    1    1    2    0    0  0.92690055913E+00  0.18613559847E+02  0.18315971720E+01  0.18726411910E+02  0.00000000000E+00 0.  1.
         11    1    3    3    0    0 -0.12538720332E+02 -0.20571249138E+02 -0.68393564507E+01  0.25043414216E+02  0.51100000000E-03 0. -1.
        -11    1    3    3    0    0 -0.59921067808E+01  0.15388102648E+02  0.15739000372E+02  0.22812610104E+02  0.51100000000E-03 0.  1.
         12    1    3    3    0    0  0.17603926554E+02 -0.13430413357E+02 -0.10731241093E+02  0.24605563770E+02  0.00000000000E+00 0. -1.
</event>
<event>
 7    1  0.1857734E-013  0.7246196E+02  0.7816164E-02  0.1226707E+00
        -11   -1    0    0    0    0  0.00000000000E+00  0.00000000000E+00  0.45593999997E+02  0.45594000000E+02  0.51100000000E-03 0.  1.
         11   -1    0    0    0    0 -0.00000000000E+00 -0.00000000000E+00 -0.45593999997E+02  0.45594000000E+02  0.51100000000E-03 0. -1.
    9900012    2    1    2    0    0  0.11196689507E+02 -0.14648300572E+02  0.32750748693E+01  0.72461957146E+02  0.70000503945E+02 0.  0.
        -12    1    1    2    0    0 -0.11196689507E+02  0.14648300572E+02 -0.32750748693E+01  0.18726042854E+02  0.00000000000E+00 0.  1.
         11    1    3    3    0    0  0.14252826091E+02 -0.12506030442E+01 -0.99406587027E+01  0.17421933166E+02  0.51100000000E-03 0. -1.
        -11    1    3    3    0    0  0.35722544205E+01  0.10500783001E+02  0.25172271359E+02  0.27507647862E+02  0.51100000000E-03 0.  1.
        -12    1    3    3    0    0 -0.66283910043E+01 -0.23898480529E+02 -0.11956537787E+02  0.27532376118E+02  0.00000000000E+00 0.  1.
</event>
<event>
 7    1  0.1857734E-013  0.7246194E+02  0.7816164E-02  0.1226707E+00
        -11   -1    0    0    0    0  0.00000000000E+00  0.00000000000E+00  0.45593999997E+02  0.45594000000E+02  0.51100000000E-03 0.  1.
         11   -1    0    0    0    0 -0.00000000000E+00 -0.00000000000E+00 -0.45593999997E+02  0.45594000000E+02  0.51100000000E-03 0. -1.
    9900012    2    1    2    0    0  0.16544810778E+01  0.14637669988E+02 -0.11561428861E+02  0.72461939880E+02  0.70000481452E+02 0.  0.
        -12    1    1    2    0    0 -0.16544810778E+01 -0.14637669988E+02  0.11561428861E+02  0.18726060120E+02  0.00000000000E+00 0.  1.
         11    1    3    3    0    0 -0.13367820919E+02  0.28655984827E+02  0.12531249039E+02  0.34013178406E+02  0.51100000000E-03 0. -1.
        -11    1    3    3    0    0  0.95058558774E+01  0.20186172156E+01 -0.95961322462E+00  0.97650893098E+01  0.51100000000E-03 0.  1.
         12    1    3    3    0    0  0.55164461197E+01 -0.16036932055E+02 -0.23133064675E+02  0.28683672164E+02  0.00000000000E+00 0. -1.
</event>
<event>
 7    1  0.1857734E-013  0.7246152E+02  0.7816164E-02  0.1226708E+00
        -11   -1    0    0    0    0  0.00000000000E+00  0.00000000000E+00  0.45593999997E+02  0.45594000000E+02  0.51100000000E-03 0.  1.
         11   -1    0    0    0    0 -0.00000000000E+00 -0.00000000000E+00 -0.45593999997E+02  0.45594000000E+02  0.51100000000E-03 0. -1.
    9900012    2    1    2    0    0 -0.15451169283E+02  0.20319124677E+01 -0.10383332679E+02  0.72461524143E+02  0.69999939879E+02 0.  0.
        -12    1    1    2    0    0  0.15451169283E+02 -0.20319124677E+01  0.10383332679E+02  0.18726475857E+02  0.00000000000E+00 0.  1.
         11    1    3    3    0    0  0.12432225335E+02  0.13770705018E+02 -0.25866934585E+02  0.31832229714E+02  0.51100000000E-03 0. -1.
        -11    1    3    3    0    0 -0.20234790762E+02 -0.10246072404E+02 -0.67351247006E+00  0.22691019726E+02  0.51100000000E-03 0.  1.
        -12    1    3    3    0    0 -0.76486038564E+01 -0.14927201464E+01  0.16157114376E+02  0.17938274703E+02  0.00000000000E+00 0.  1.
</event>
<event>
 7    1  0.1857734E-013  0.7246159E+02  0.7816164E-02  0.1226708E+00
        -11   -1    0    0    0    0  0.00000000000E+00  0.00000000000E+00  0.45593999997E+02  0.45594000000E+02  0.51100000000E-03 0. -1.
         11   -1    0    0    0    0 -0.00000000000E+00 -0.00000000000E+00 -0.45593999997E+02  0.45594000000E+02  0.51100000000E-03 0.  1.
    9900012    2    1    2    0    0 -0.52725184911E+01 -0.16334596301E+02  0.74873172629E+01  0.72461590644E+02  0.70000026510E+02 0.  0.
        -12    1    1    2    0    0  0.52725184911E+01  0.16334596301E+02 -0.74873172629E+01  0.18726409356E+02  0.00000000000E+00 0.  1.
         11    1    3    3    0    0 -0.18111048611E+02 -0.29206996879E+02  0.39453583718E+01  0.34592262161E+02  0.51100000000E-03 0. -1.
        -11    1    3    3    0    0 -0.30548453042E+01  0.17417583618E+02  0.97718988021E+01  0.20203819079E+02  0.51100000000E-03 0.  1.
        -12    1    3    3    0    0  0.15893375424E+02 -0.45451830399E+01 -0.62299399110E+01  0.17665509405E+02  0.00000000000E+00 0.  1.
</event>
<event>
 7    1  0.1857734E-013  0.7246147E+02  0.7816164E-02  0.1226708E+00
        -11   -1    0    0    0    0  0.00000000000E+00  0.00000000000E+00  0.45593999997E+02  0.45594000000E+02  0.51100000000E-03 0. -1.
         11   -1    0    0    0    0 -0.00000000000E+00 -0.00000000000E+00 -0.45593999997E+02  0.45594000000E+02  0.51100000000E-03 0.  1.
    9900012    2    1    2    0    0 -0.13877945575E+02 -0.94539981552E+01  0.82889973665E+01  0.72461469839E+02  0.69999869139E+02 0.  0.
        -12    1    1    2    0    0  0.13877945575E+02  0.94539981552E+01 -0.82889973665E+01  0.18726530161E+02  0.00000000000E+00 0.  1.
         11    1    3    3    0    0 -0.69210898635E+01  0.17089894207E+02 -0.21901512618E+02  0.28629394407E+02  0.51100000000E-03 0. -1.
        -11    1    3    3    0    0 -0.10910646596E+01 -0.10787768713E+02  0.20250198944E+01  0.11030280220E+02  0.51100000000E-03 0.  1.
         12    1    3    3    0    0 -0.58657910522E+01 -0.15756123649E+02  0.28165490090E+02  0.32801795212E+02  0.00000000000E+00 0. -1.
</event>
<event>
 7    1  0.1857734E-013  0.7246158E+02  0.7816164E-02  0.1226708E+00
        -11   -1    0    0    0    0  0.00000000000E+00  0.00000000000E+00  0.45593999997E+02  0.45594000000E+02  0.51100000000E-03 0.  1.
         11   -1    0    0    0    0 -0.00000000000E+00 -0.00000000000E+00 -0.45593999997E+02  0.45594000000E+02  0.51100000000E-03 0. -1.
    9900012    2    1    2    0    0  0.10552706167E+02 -0.12131014081E+02 -0.95998743003E+01  0.72461582920E+02  0.70000016447E+02 0.  0.
        -12    1    1    2    0    0 -0.10552706167E+02  0.12131014081E+02  0.95998743003E+01  0.18726417080E+02  0.00000000000E+00 0.  1.
         11    1    3    3    0    0 -0.70918916216E+01 -0.27424037729E+02 -0.33814325201E+01  0.28527300228E+02  0.51100000000E-03 0. -1.
        -11    1    3    3    0    0  0.58135701296E+01  0.30945868466E+01  0.15216422033E+02  0.16580517639E+02  0.51100000000E-03 0.  1.
         12    1    3    3    0    0  0.11831027659E+02  0.12198436802E+02 -0.21434863814E+02  0.27353765053E+02  0.00000000000E+00 0. -1.
</event>
<event>
 7    1  0.1857734E-013  0.7246156E+02  0.7816164E-02  0.1226708E+00
        -11   -1    0    0    0    0  0.00000000000E+00  0.00000000000E+00  0.45593999997E+02  0.45594000000E+02  0.51100000000E-03 0.  1.
         11   -1    0    0    0    0 -0.00000000000E+00 -0.00000000000E+00 -0.45593999997E+02  0.45594000000E+02  0.51100000000E-03 0. -1.
    9900012    2    1    2    0    0  0.29666182888E+01 -0.21092555687E+01 -0.18369263494E+02  0.72461558148E+02  0.69999984178E+02 0.  0.
        -12    1    1    2    0    0 -0.29666182888E+01  0.21092555687E+01  0.18369263494E+02  0.18726441852E+02  0.00000000000E+00 0.  1.
         11    1    3    3    0    0  0.13423475343E+02 -0.97145877179E+00 -0.55904848902E+01  0.14573501432E+02  0.51100000000E-03 0. -1.
        -11    1    3    3    0    0 -0.32186777054E+01  0.27108396068E+02 -0.59164756892E+01  0.27932592224E+02  0.51100000000E-03 0.  1.
        -12    1    3    3    0    0 -0.72381793486E+01 -0.28246192865E+02 -0.68623029141E+01  0.29955464492E+02  0.00000000000E+00 0.  1.
</event>
<event>
 7    1  0.1857734E-013  0.7246156E+02  0.7816164E-02  0.1226708E+00
        -11   -1    0    0    0    0  0.00000000000E+00  0.00000000000E+00  0.45593999997E+02  0.45594000000E+02  0.51100000000E-03 0.  1.
         11   -1    0    0    0    0 -0.00000000000E+00 -0.00000000000E+00 -0.45593999997E+02  0.45594000000E+02  0.51100000000E-03 0. -1.
    9900012    2    1    2    0    0  0.10874957725E+02 -0.14702302696E+02 -0.40320077384E+01  0.72461561564E+02  0.69999988627E+02 0.  0.
        -12    1    1    2    0    0 -0.10874957725E+02  0.14702302696E+02  0.40320077384E+01  0.18726438436E+02  0.00000000000E+00 0.  1.
         11    1    3    3    0    0 -0.64300690985E+01 -0.44257425152E+01 -0.12597709362E+02  0.14820096722E+02  0.51100000000E-03 0. -1.
        -11    1    3    3    0    0  0.12497356680E+02 -0.54250684011E+01  0.31175547719E+02  0.34022493544E+02  0.51100000000E-03 0.  1.
        -12    1    3    3    0    0  0.48076701440E+01 -0.48514917800E+01 -0.22609846095E+02  0.23618971298E+02  0.00000000000E+00 0.  1.
</event>
<event>
 7    1  0.1857734E-013  0.7246154E+02  0.7816164E-02  0.1226708E+00
        -11   -1    0    0    0    0  0.00000000000E+00  0.00000000000E+00  0.45593999997E+02  0.45594000000E+02  0.51100000000E-03 0.  1.
         11   -1    0    0    0    0 -0.00000000000E+00 -0.00000000000E+00 -0.45593999997E+02  0.45594000000E+02  0.51100000000E-03 0. -1.
    9900012    2    1    2    0    0  0.62228975999E+01 -0.44121376688E+01 -0.17102303654E+02  0.72461542683E+02  0.69999964032E+02 0.  0.
        -12    1    1    2    0    0 -0.62228975999E+01  0.44121376688E+01  0.17102303654E+02  0.18726457317E+02  0.00000000000E+00 0.  1.
         11    1    3    3    0    0  0.10045749886E+02 -0.54586709335E+01  0.24306792114E+02  0.26861390922E+02  0.51100000000E-03 0. -1.
        -11    1    3    3    0    0  0.36728332117E+01  0.43199537667E+01 -0.31702590636E+01  0.64963256645E+01  0.51100000000E-03 0.  1.
         12    1    3    3    0    0 -0.74956854983E+01 -0.32734205020E+01 -0.38238836705E+02  0.39103826097E+02  0.00000000000E+00 0. -1.
</event>
<event>
 7    1  0.1857734E-013  0.7246155E+02  0.7816164E-02  0.1226708E+00
        -11   -1    0    0    0    0  0.00000000000E+00  0.00000000000E+00  0.45593999997E+02  0.45594000000E+02  0.51100000000E-03 0.  1.
         11   -1    0    0    0    0 -0.00000000000E+00 -0.00000000000E+00 -0.45593999997E+02  0.45594000000E+02  0.51100000000E-03 0. -1.
    9900012    2    1    2    0    0  0.72607469203E+01  0.15919059717E+02 -0.66742104711E+01  0.72461548293E+02  0.69999971339E+02 0.  0.
        -12    1    1    2    0    0 -0.72607469203E+01 -0.15919059717E+02  0.66742104711E+01  0.18726451707E+02  0.00000000000E+00 0.  1.
         11    1    3    3    0    0  0.59822136636E+01 -0.83870148876E+01 -0.20492271220E+02  0.22936043230E+02  0.51100000000E-03 0. -1.
        -11    1    3    3    0    0  0.53652654372E+01  0.35163076304E+02  0.13089312730E+02  0.37901953992E+02  0.51100000000E-03 0.  1.
        -12    1    3    3    0    0 -0.40867321805E+01 -0.10857001700E+02  0.72874801937E+00  0.11623551071E+02  0.00000000000E+00 0.  1.
</event>
<event>
 7    1  0.1857734E-013  0.7246155E+02  0.7816164E-02  0.1226708E+00
        -11   -1    0    0    0    0  0.00000000000E+00  0.00000000000E+00  0.45593999997E+02  0.45594000000E+02  0.51100000000E-03 0.  1.
         11   -1    0    0    0    0 -0.00000000000E+00 -0.00000000000E+00 -0.45593999997E+02  0.45594000000E+02  0.51100000000E-03 0. -1.
    9900012    2    1    2    0    0  0.21517921216E+01  0.12623967094E+02  0.13663284254E+02  0.72461545687E+02  0.69999967944E+02 0.  0.
        -12    1    1    2    0    0 -0.21517921216E+01 -0.12623967094E+02 -0.13663284254E+02  0.18726454313E+02  0.00000000000E+00 0.  1.
         11    1    3    3    0    0  0.10399787583E+02 -0.24966988832E+02  0.12801518238E+02  0.29922984186E+02  0.51100000000E-03 0. -1.
        -11    1    3    3    0    0  0.41334563619E+01  0.18263951946E+02 -0.38239702669E+01  0.19112303656E+02  0.51100000000E-03 0.  1.
         12    1    3    3    0    0 -0.12381451823E+02  0.19327003981E+02  0.46857362824E+01  0.23426257845E+02  0.00000000000E+00 0. -1.
</event>
<event>
 7    1  0.1857734E-013  0.7246155E+02  0.7816164E-02  0.1226708E+00
        -11   -1    0    0    0    0  0.00000000000E+00  0.00000000000E+00  0.45593999997E+02  0.45594000000E+02  0.51100000000E-03 0. -1.
         11   -1    0    0    0    0 -0.00000000000E+00 -0.00000000000E+00 -0.45593999997E+02  0.45594000000E+02  0.51100000000E-03 0.  1.
    9900012    2    1    2    0    0 -0.15318014909E+02 -0.85377889151E+01 -0.65684352280E+01  0.72461554484E+02  0.69999979404E+02 0.  0.
        -12    1    1    2    0    0  0.15318014909E+02  0.85377889151E+01  0.65684352280E+01  0.18726445516E+02  0.00000000000E+00 0.  1.
         11    1    3    3    0    0 -0.12136093294E+02  0.38399588321E+01  0.67254199836E+01  0.14396573151E+02  0.51100000000E-03 0. -1.
        -11    1    3    3    0    0 -0.78976101468E+01 -0.33083743425E+02 -0.14084387516E+02  0.36814077430E+02  0.51100000000E-03 0.  1.
        -12    1    3    3    0    0  0.47156885316E+01  0.20705995678E+02  0.79053230461E+00  0.21250903903E+02  0.00000000000E+00 0.  1.
</event>
<event>
 7    1  0.1857734E-013  0.7246158E+02  0.7816164E-02  0.1226708E+00
        -11   -1    0    0    0    0  0.00000000000E+00  0.00000000000E+00  0.45593999997E+02  0.45594000000E+02  0.51100000000E-03 0.  1.
         11   -1    0    0    0    0 -0.00000000000E+00 -0.00000000000E+00 -0.45593999997E+02  0.45594000000E+02  0.51100000000E-03 0. -1.
    9900012    2    1    2    0    0 -0.83470215288E+01  0.87080991175E+01 -0.14323932876E+02  0.72461579849E+02  0.70000012446E+02 0.  0.
        -12    1    1    2    0    0  0.83470215288E+01 -0.87080991175E+01  0.14323932876E+02  0.18726420151E+02  0.00000000000E+00 0.  1.
         11    1    3    3    0    0 -0.15590866753E+02 -0.36106246018E+01 -0.20217411100E+02  0.25784791020E+02  0.51100000000E-03 0. -1.
        -11    1    3    3    0    0 -0.94458360731E+01  0.19825825908E+02  0.14640203922E+02  0.26393612166E+02  0.51100000000E-03 0.  1.
        -12    1    3    3    0    0  0.16689681297E+02 -0.75071021889E+01 -0.87467256982E+01  0.20283176662E+02  0.00000000000E+00 0.  1.
</event>
<event>
 7    1  0.1857734E-013  0.7246140E+02  0.7816164E-02  0.1226708E+00
        -11   -1    0    0    0    0  0.00000000000E+00  0.00000000000E+00  0.45593999997E+02  0.45594000000E+02  0.51100000000E-03 0.  1.
         11   -1    0    0    0    0 -0.00000000000E+00 -0.00000000000E+00 -0.45593999997E+02  0.45594000000E+02  0.51100000000E-03 0. -1.
    9900012    2    1    2    0    0  0.12697697293E+02  0.12608376696E+02  0.55211243324E+01  0.72461401448E+02  0.69999780045E+02 0.  0.
        -12    1    1    2    0    0 -0.12697697293E+02 -0.12608376696E+02 -0.55211243324E+01  0.18726598552E+02  0.00000000000E+00 0.  1.
         11    1    3    3    0    0  0.64034884085E+01  0.35574372911E+02  0.15846503159E+02  0.39467104460E+02  0.51100000000E-03 0. -1.
        -11    1    3    3    0    0  0.11114527553E+02 -0.79604398061E+01  0.81235377237E+00  0.13695300053E+02  0.51100000000E-03 0.  1.
         12    1    3    3    0    0 -0.48203186688E+01 -0.15005556409E+02 -0.11137732599E+02  0.19298996934E+02  0.00000000000E+00 0. -1.
</event>
<event>
 7    1  0.1857734E-013  0.7246168E+02  0.7816164E-02  0.1226708E+00
        -11   -1    0    0    0    0  0.00000000000E+00  0.00000000000E+00  0.45593999997E+02  0.45594000000E+02  0.51100000000E-03 0.  1.
         11   -1    0    0    0    0 -0.00000000000E+00 -0.00000000000E+00 -0.45593999997E+02  0.45594000000E+02  0.51100000000E-03 0. -1.
    9900012    2    1    2    0    0  0.49788507715E+01  0.78265156828E+01 -0.16267504261E+02  0.72461681685E+02  0.70000145107E+02 0.  0.
        -12    1    1    2    0    0 -0.49788507715E+01 -0.78265156828E+01  0.16267504261E+02  0.18726318315E+02  0.00000000000E+00 0.  1.
         11    1    3    3    0    0  0.19283059234E+02  0.18288907127E+02 -0.10502458347E+02  0.28576601073E+02  0.51100000000E-03 0.  1.
        -11    1    3    3    0    0 -0.10572714607E+02 -0.25555988952E+02 -0.12081225607E+01  0.27683034983E+02  0.51100000000E-03 0. -1.
         12    1    3    3    0    0 -0.37314938557E+01  0.15093597508E+02 -0.45569233534E+01  0.16202045629E+02  0.00000000000E+00 0. -1.
</event>
<event>
 7    1  0.1857734E-013  0.7246158E+02  0.7816164E-02  0.1226708E+00
        -11   -1    0    0    0    0  0.00000000000E+00  0.00000000000E+00  0.45593999997E+02  0.45594000000E+02  0.51100000000E-03 0.  1.
         11   -1    0    0    0    0 -0.00000000000E+00 -0.00000000000E+00 -0.45593999997E+02  0.45594000000E+02  0.51100000000E-03 0. -1.
    9900012    2    1    2    0    0 -0.41155558813E+01  0.15541793002E+02 -0.96017568746E+01  0.72461578425E+02  0.70000010592E+02 0.  0.
        -12    1    1    2    0    0  0.41155558813E+01 -0.15541793002E+02  0.96017568746E+01  0.18726421575E+02  0.00000000000E+00 0.  1.
         11    1    3    3    0    0  0.21542669528E+02  0.64818988549E+01  0.41550662907E+01  0.22877198240E+02  0.51100000000E-03 0. -1.
        -11    1    3    3    0    0 -0.18851765492E+02  0.22920347402E+02 -0.16417131065E+02  0.33915388540E+02  0.51100000000E-03 0.  1.
        -12    1    3    3    0    0 -0.68064599175E+01 -0.13860453255E+02  0.26603078995E+01  0.15668991645E+02  0.00000000000E+00 0.  1.
</event>
<event>
 7    1  0.1857734E-013  0.7246155E+02  0.7816164E-02  0.1226708E+00
        -11   -1    0    0    0    0  0.00000000000E+00  0.00000000000E+00  0.45593999997E+02  0.45594000000E+02  0.51100000000E-03 0.  1.
         11   -1    0    0    0    0 -0.00000000000E+00 -0.00000000000E+00 -0.45593999997E+02  0.45594000000E+02  0.51100000000E-03 0. -1.
    9900012    2    1    2    0    0 -0.93169373141E+01 -0.13814336956E+02 -0.85462717530E+01  0.72461548459E+02  0.69999971555E+02 0.  0.
        -12    1    1    2    0    0  0.93169373141E+01  0.13814336956E+02  0.85462717530E+01  0.18726451541E+02  0.00000000000E+00 0.  1.
         11    1    3    3    0    0 -0.23044613946E+02 -0.96406742953E+01 -0.22973649457E+02  0.33937964029E+02  0.51100000000E-03 0. -1.
        -11    1    3    3    0    0  0.18624361367E+02  0.50223297772E+01  0.19063449883E+02  0.27120209335E+02  0.51100000000E-03 0.  1.
        -12    1    3    3    0    0 -0.48966847347E+01 -0.91959924378E+01 -0.46360721784E+01  0.11403375095E+02  0.00000000000E+00 0.  1.
</event>
<event>
 7    1  0.1857734E-013  0.7246109E+02  0.7816164E-02  0.1226709E+00
        -11   -1    0    0    0    0  0.00000000000E+00  0.00000000000E+00  0.45593999997E+02  0.45594000000E+02  0.51100000000E-03 0. -1.
         11   -1    0    0    0    0 -0.00000000000E+00 -0.00000000000E+00 -0.45593999997E+02  0.45594000000E+02  0.51100000000E-03 0.  1.
    9900012    2    1    2    0    0  0.87540193855E+01 -0.15438445843E+02  0.59765184227E+01  0.72461087871E+02  0.69999371551E+02 0.  0.
        -12    1    1    2    0    0 -0.87540193855E+01  0.15438445843E+02 -0.59765184227E+01  0.18726912129E+02  0.00000000000E+00 0.  1.
         11    1    3    3    0    0 -0.20723425709E+02 -0.16232828893E+02  0.10206245107E+02  0.28233535847E+02  0.51100000000E-03 0. -1.
        -11    1    3    3    0    0  0.22687695737E+02 -0.56332750074E+01  0.11405117598E+02  0.26010421620E+02  0.51100000000E-03 0.  1.
        -12    1    3    3    0    0  0.67897493570E+01  0.64276580575E+01 -0.15634844282E+02  0.18217130404E+02  0.00000000000E+00 0.  1.
</event>
<event>
 7    1  0.1857734E-013  0.7246155E+02  0.7816164E-02  0.1226708E+00
        -11   -1    0    0    0    0  0.00000000000E+00  0.00000000000E+00  0.45593999997E+02  0.45594000000E+02  0.51100000000E-03 0.  1.
         11   -1    0    0    0    0 -0.00000000000E+00 -0.00000000000E+00 -0.45593999997E+02  0.45594000000E+02  0.51100000000E-03 0. -1.
    9900012    2    1    2    0    0  0.11920729230E+02  0.13116681953E+02 -0.60439161595E+01  0.72461546695E+02  0.69999969257E+02 0.  0.
        -12    1    1    2    0    0 -0.11920729230E+02 -0.13116681953E+02  0.60439161595E+01  0.18726453305E+02  0.00000000000E+00 0.  1.
         11    1    3    3    0    0  0.27461913059E+02 -0.31445202095E+01  0.18685940163E+02  0.33364787369E+02  0.51100000000E-03 0. -1.
        -11    1    3    3    0    0 -0.13126414408E+02 -0.58418910970E+00 -0.12546647706E+02  0.18167619576E+02  0.51100000000E-03 0.  1.
         12    1    3    3    0    0 -0.24147694200E+01  0.16845391272E+02 -0.12183208616E+02  0.20929139750E+02  0.00000000000E+00 0. -1.
</event>
<event>
 7    1  0.1857734E-013  0.7246156E+02  0.7816164E-02  0.1226708E+00
        -11   -1    0    0    0    0  0.00000000000E+00  0.00000000000E+00  0.45593999997E+02  0.45594000000E+02  0.51100000000E-03 0. -1.
         11   -1    0    0    0    0 -0.00000000000E+00 -0.00000000000E+00 -0.45593999997E+02  0.45594000000E+02  0.51100000000E-03 0.  1.
    9900012    2    1    2    0    0 -0.32228693651E+01 -0.16910459602E+02  0.73708220709E+01  0.72461560165E+02  0.69999986805E+02 0.  0.
        -12    1    1    2    0    0  0.32228693651E+01  0.16910459602E+02 -0.73708220709E+01  0.18726439835E+02  0.00000000000E+00 0.  1.
         11    1    3    3    0    0 -0.70807481530E+01  0.36344588983E+01  0.23661497332E+02  0.24964229252E+02  0.51100000000E-03 0. -1.
        -11    1    3    3    0    0  0.50097095387E+01 -0.48565099886E+01 -0.27377305666E+02  0.28252429006E+02  0.51100000000E-03 0.  1.
        -12    1    3    3    0    0 -0.11518307508E+01 -0.15688408512E+02  0.11086630405E+02  0.19244901908E+02  0.00000000000E+00 0.  1.
</event>
<event>
 7    1  0.1857734E-013  0.7246148E+02  0.7816164E-02  0.1226708E+00
        -11   -1    0    0    0    0  0.00000000000E+00  0.00000000000E+00  0.45593999997E+02  0.45594000000E+02  0.51100000000E-03 0.  1.
         11   -1    0    0    0    0 -0.00000000000E+00 -0.00000000000E+00 -0.45593999997E+02  0.45594000000E+02  0.51100000000E-03 0. -1.
    9900012    2    1    2    0    0  0.57240604534E+01 -0.67870458885E+01 -0.16487981431E+02  0.72461484264E+02  0.69999887929E+02 0.  0.
        -12    1    1    2    0    0 -0.57240604534E+01  0.67870458885E+01  0.16487981431E+02  0.18726515736E+02  0.00000000000E+00 0.  1.
         11    1    3    3    0    0  0.24799343106E+01 -0.23683732101E+02 -0.15384229460E+02  0.28350374896E+02  0.51100000000E-03 0. -1.
        -11    1    3    3    0    0 -0.62670871465E+00  0.11151519206E+02  0.19445870410E+02  0.22425231787E+02  0.51100000000E-03 0.  1.
         12    1    3    3    0    0  0.38708348575E+01  0.57451670071E+01 -0.20549622381E+02  0.21685877581E+02  0.00000000000E+00 0. -1.
</event>
<event>
 7    1  0.1857734E-013  0.7246159E+02  0.7816164E-02  0.1226708E+00
        -11   -1    0    0    0    0  0.00000000000E+00  0.00000000000E+00  0.45593999997E+02  0.45594000000E+02  0.51100000000E-03 0.  1.
         11   -1    0    0    0    0 -0.00000000000E+00 -0.00000000000E+00 -0.45593999997E+02  0.45594000000E+02  0.51100000000E-03 0. -1.
    9900012    2    1    2    0    0 -0.48674449266E+00  0.89136410166E+01 -0.16461732972E+02  0.72461586333E+02  0.70000020894E+02 0.  0.
        -12    1    1    2    0    0  0.48674449266E+00 -0.89136410166E+01  0.16461732972E+02  0.18726413667E+02  0.00000000000E+00 0.  1.
         11    1    3    3    0    0  0.82118039682E+01 -0.49639222216E+01 -0.26678583063E+02  0.28351737914E+02  0.51100000000E-03 0. -1.
        -11    1    3    3    0    0 -0.29464082552E+01  0.17884579881E+01  0.24378967157E+02  0.24621412297E+02  0.51100000000E-03 0.  1.
         12    1    3    3    0    0 -0.57521402057E+01  0.12089105250E+02 -0.14162117066E+02  0.19488436122E+02  0.00000000000E+00 0. -1.
</event>
<event>
 7    1  0.1857734E-013  0.7246158E+02  0.7816164E-02  0.1226708E+00
        -11   -1    0    0    0    0  0.00000000000E+00  0.00000000000E+00  0.45593999997E+02  0.45594000000E+02  0.51100000000E-03 0. -1.
         11   -1    0    0    0    0 -0.00000000000E+00 -0.00000000000E+00 -0.45593999997E+02  0.45594000000E+02  0.51100000000E-03 0.  1.
    9900012    2    1    2    0    0 -0.20196104671E+01 -0.15979831002E+02 -0.95522333443E+01  0.72461575164E+02  0.70000006343E+02 0.  0.
        -12    1    1    2    0    0  0.20196104671E+01  0.15979831002E+02  0.95522333443E+01  0.18726424836E+02  0.00000000000E+00 0.  1.
         11    1    3    3    0    0 -0.23400339253E+02  0.25954797342E+01 -0.18856755583E+02  0.30164376731E+02  0.51100000000E-03 0. -1.
        -11    1    3    3    0    0  0.10731400269E+02  0.20574354401E+01 -0.78281523852E+01  0.13441575888E+02  0.51100000000E-03 0.  1.
         12    1    3    3    0    0  0.10649328517E+02 -0.20632746176E+02  0.17132674624E+02  0.28855622544E+02  0.00000000000E+00 0. -1.
</event>
<event>
 7    1  0.1857734E-013  0.7246135E+02  0.7816164E-02  0.1226709E+00
        -11   -1    0    0    0    0  0.00000000000E+00  0.00000000000E+00  0.45593999997E+02  0.45594000000E+02  0.51100000000E-03 0.  1.
         11   -1    0    0    0    0 -0.00000000000E+00 -0.00000000000E+00 -0.45593999997E+02  0.45594000000E+02  0.51100000000E-03 0. -1.
    9900012    2    1    2    0    0 -0.18559359911E+01  0.11846630040E+02 -0.14384022769E+02  0.72461354472E+02  0.69999718851E+02 0.  0.
        -12    1    1    2    0    0  0.18559359911E+01 -0.11846630040E+02  0.14384022769E+02  0.18726645528E+02  0.00000000000E+00 0.  1.
         11    1    3    3    0    0 -0.26593477857E+02  0.66552045080E+01 -0.52207840679E+01  0.27906296747E+02  0.51100000000E-03 0. -1.
        -11    1    3    3    0    0  0.15665560207E+02  0.20317115545E+02 -0.28130819603E+01  0.25809075749E+02  0.51100000000E-03 0.  1.
         12    1    3    3    0    0  0.90719816592E+01 -0.15125690013E+02 -0.63501567409E+01  0.18745981975E+02  0.00000000000E+00 0. -1.
</event>
<event>
 7    1  0.1857734E-013  0.7246156E+02  0.7816164E-02  0.1226708E+00
        -11   -1    0    0    0    0  0.00000000000E+00  0.00000000000E+00  0.45593999997E+02  0.45594000000E+02  0.51100000000E-03 0. -1.
         11   -1    0    0    0    0 -0.00000000000E+00 -0.00000000000E+00 -0.45593999997E+02  0.45594000000E+02  0.51100000000E-03 0.  1.
    9900012    2    1    2    0    0 -0.12195087550E+02 -0.23536222381E+01  0.14014987359E+02  0.72461559637E+02  0.69999986117E+02 0.  0.
        -12    1    1    2    0    0  0.12195087550E+02  0.23536222381E+01 -0.14014987359E+02  0.18726440363E+02  0.00000000000E+00 0.  1.
         11    1    3    3    0    0 -0.19413632611E+02 -0.16291140815E+02 -0.11842826512E+02  0.27973968976E+02  0.51100000000E-03 0. -1.
        -11    1    3    3    0    0  0.63174867145E+01  0.60454655051E+01  0.32795472671E+02  0.33941144935E+02  0.51100000000E-03 0.  1.
        -12    1    3    3    0    0  0.90105834701E+00  0.78920530716E+01 -0.69376587994E+01  0.10546445726E+02  0.00000000000E+00 0.  1.
</event>
<event>
 7    1  0.1857734E-013  0.7246159E+02  0.7816164E-02  0.1226708E+00
        -11   -1    0    0    0    0  0.00000000000E+00  0.00000000000E+00  0.45593999997E+02  0.45594000000E+02  0.51100000000E-03 0.  1.
         11   -1    0    0    0    0 -0.00000000000E+00 -0.00000000000E+00 -0.45593999997E+02  0.45594000000E+02  0.51100000000E-03 0. -1.
    9900012    2    1    2    0    0 -0.16311863526E+02  0.91667622550E+01  0.75626147808E+00  0.72461592086E+02  0.70000028388E+02 0.  0.
        -12    1    1    2    0    0  0.16311863526E+02 -0.91667622550E+01 -0.75626147808E+00  0.18726407914E+02  0.00000000000E+00 0.  1.
         11    1    3    3    0    0 -0.22873885590E+02  0.17728355626E+02  0.81509972826E+01  0.30065727866E+02  0.51100000000E-03 0. -1.
        -11    1    3    3    0    0 -0.81245454609E+01 -0.20944191525E+02 -0.27515320974E+01  0.22632682711E+02  0.51100000000E-03 0.  1.
         12    1    3    3    0    0  0.14686567524E+02  0.12382598154E+02 -0.46432037071E+01  0.19763181509E+02  0.00000000000E+00 0. -1.
</event>
<event>
 7    1  0.1857734E-013  0.7246155E+02  0.7816164E-02  0.1226708E+00
        -11   -1    0    0    0    0  0.00000000000E+00  0.00000000000E+00  0.45593999997E+02  0.45594000000E+02  0.51100000000E-03 0.  1.
         11   -1    0    0    0    0 -0.00000000000E+00 -0.00000000000E+00 -0.45593999997E+02  0.45594000000E+02  0.51100000000E-03 0. -1.
    9900012    2    1    2    0    0  0.13967939128E+02 -0.39219827805E+01 -0.11840389462E+02  0.72461545583E+02  0.69999967809E+02 0.  0.
        -12    1    1    2    0    0 -0.13967939128E+02  0.39219827805E+01  0.11840389462E+02  0.18726454417E+02  0.00000000000E+00 0.  1.
         11    1    3    3    0    0  0.38406353854E+02 -0.10630011932E+02 -0.10915337451E+02  0.41318152935E+02  0.51100000000E-03 0. -1.
        -11    1    3    3    0    0 -0.11113233425E+02  0.10207659708E+02  0.53426228264E+01  0.16007619835E+02  0.51100000000E-03 0.  1.
         12    1    3    3    0    0 -0.13325181301E+02 -0.34996305561E+01 -0.62676748381E+01  0.15135772812E+02  0.00000000000E+00 0. -1.
</event>
<event>
 7    1  0.1857734E-013  0.7246128E+02  0.7816164E-02  0.1226709E+00
        -11   -1    0    0    0    0  0.00000000000E+00  0.00000000000E+00  0.45593999997E+02  0.45594000000E+02  0.51100000000E-03 0. -1.
         11   -1    0    0    0    0 -0.00000000000E+00 -0.00000000000E+00 -0.45593999997E+02  0.45594000000E+02  0.51100000000E-03 0.  1.
    9900012    2    1    2    0    0  0.80541650521E+01  0.16846705921E+02  0.14173833485E+01  0.72461279768E+02  0.69999621535E+02 0.  0.
        -12    1    1    2    0    0 -0.80541650521E+01 -0.16846705921E+02 -0.14173833485E+01  0.18726720232E+02  0.00000000000E+00 0.  1.
         11    1    3    3    0    0  0.15958869165E+02  0.56195257134E+01 -0.12528214316E+02  0.21052808090E+02  0.51100000000E-03 0. -1.
        -11    1    3    3    0    0 -0.19839977862E+02  0.24561810842E+02  0.83770744927E+01  0.32666231046E+02  0.51100000000E-03 0.  1.
         12    1    3    3    0    0  0.11935273749E+02 -0.13334630634E+02  0.55685231717E+01  0.18742240633E+02  0.00000000000E+00 0. -1.
</event>
<event>
 7    1  0.1857734E-013  0.7246158E+02  0.7816164E-02  0.1226708E+00
        -11   -1    0    0    0    0  0.00000000000E+00  0.00000000000E+00  0.45593999997E+02  0.45594000000E+02  0.51100000000E-03 0. -1.
         11   -1    0    0    0    0 -0.00000000000E+00 -0.00000000000E+00 -0.45593999997E+02  0.45594000000E+02  0.51100000000E-03 0.  1.
    9900012    2    1    2    0    0  0.35390040305E+01 -0.14198873047E+02  0.11685303747E+02  0.72461578318E+02  0.70000010453E+02 0.  0.
        -12    1    1    2    0    0 -0.35390040305E+01  0.14198873047E+02 -0.11685303747E+02  0.18726421682E+02  0.00000000000E+00 0.  1.
         11    1    3    3    0    0 -0.20411539843E+02 -0.27362629480E+02  0.24488196988E+02  0.42012096387E+02  0.51100000000E-03 0. -1.
        -11    1    3    3    0    0  0.53687391571E+00 -0.16061028723E-01 -0.93177280116E+00  0.10754963376E+01  0.51100000000E-03 0.  1.
         12    1    3    3    0    0  0.23413669957E+02  0.13179817461E+02 -0.11871120440E+02  0.29373985594E+02  0.00000000000E+00 0. -1.
</event>
<event>
 7    1  0.1857734E-013  0.7246157E+02  0.7816164E-02  0.1226708E+00
        -11   -1    0    0    0    0  0.00000000000E+00  0.00000000000E+00  0.45593999997E+02  0.45594000000E+02  0.51100000000E-03 0. -1.
         11   -1    0    0    0    0 -0.00000000000E+00 -0.00000000000E+00 -0.45593999997E+02  0.45594000000E+02  0.51100000000E-03 0.  1.
    9900012    2    1    2    0    0  0.14886336725E+02  0.27638539239E+01  0.11019851262E+02  0.72461573981E+02  0.70000004803E+02 0.  0.
        -12    1    1    2    0    0 -0.14886336725E+02 -0.27638539239E+01 -0.11019851262E+02  0.18726426019E+02  0.00000000000E+00 0.  1.
         11    1    3    3    0    0  0.21642003820E+02 -0.13278093765E+02  0.32359044304E+02  0.41131397398E+02  0.51100000000E-03 0. -1.
        -11    1    3    3    0    0  0.39407735389E+00 -0.27360337097E+01 -0.17707158850E+01  0.32827751108E+01  0.51100000000E-03 0.  1.
         12    1    3    3    0    0 -0.71497444486E+01  0.18777981399E+02 -0.19568477157E+02  0.28047401472E+02  0.00000000000E+00 0. -1.
</event>
<event>
 7    1  0.1857734E-013  0.7246155E+02  0.7816164E-02  0.1226708E+00
        -11   -1    0    0    0    0  0.00000000000E+00  0.00000000000E+00  0.45593999997E+02  0.45594000000E+02  0.51100000000E-03 0. -1.
         11   -1    0    0    0    0 -0.00000000000E+00 -0.00000000000E+00 -0.45593999997E+02  0.45594000000E+02  0.51100000000E-03 0.  1.
    9900012    2    1    2    0    0  0.11685385151E+02  0.14606551302E+02 -0.88333790502E+00  0.72461552047E+02  0.69999976230E+02 0.  0.
        -12    1    1    2    0    0 -0.11685385151E+02 -0.14606551302E+02  0.88333790502E+00  0.18726447953E+02  0.00000000000E+00 0.  1.
         11    1    3    3    0    0 -0.16102438968E+02  0.91636392191E+00  0.11210289719E+02  0.19641763144E+02  0.51100000000E-03 0. -1.
        -11    1    3    3    0    0  0.28964130517E+02  0.11350101722E+01  0.71103407865E+01  0.29845704064E+02  0.51100000000E-03 0.  1.
        -12    1    3    3    0    0 -0.11763063981E+01  0.12555177208E+02 -0.19203968411E+02  0.22974084839E+02  0.00000000000E+00 0.  1.
</event>
<event>
 7    1  0.1857734E-013  0.7246159E+02  0.7816164E-02  0.1226708E+00
        -11   -1    0    0    0    0  0.00000000000E+00  0.00000000000E+00  0.45593999997E+02  0.45594000000E+02  0.51100000000E-03 0.  1.
         11   -1    0    0    0    0 -0.00000000000E+00 -0.00000000000E+00 -0.45593999997E+02  0.45594000000E+02  0.51100000000E-03 0. -1.
    9900012    2    1    2    0    0  0.54819460895E+01  0.11287607138E+02 -0.13900244750E+02  0.72461585182E+02  0.70000019394E+02 0.  0.
        -12    1    1    2    0    0 -0.54819460895E+01 -0.11287607138E+02  0.13900244750E+02  0.18726414818E+02  0.00000000000E+00 0.  1.
         11    1    3    3    0    0  0.14875233798E+02 -0.96704405544E+01 -0.16668566861E+02  0.24344016155E+02  0.51100000000E-03 0. -1.
        -11    1    3    3    0    0 -0.12538415424E+02  0.20177094294E+02 -0.16277968259E+02  0.28797556258E+02  0.51100000000E-03 0.  1.
        -12    1    3    3    0    0  0.31451277155E+01  0.78095339822E+00  0.19046290370E+02  0.19320012770E+02  0.00000000000E+00 0.  1.
</event>
<event>
 7    1  0.1857734E-013  0.7246138E+02  0.7816164E-02  0.1226709E+00
        -11   -1    0    0    0    0  0.00000000000E+00  0.00000000000E+00  0.45593999997E+02  0.45594000000E+02  0.51100000000E-03 0. -1.
         11   -1    0    0    0    0 -0.00000000000E+00 -0.00000000000E+00 -0.45593999997E+02  0.45594000000E+02  0.51100000000E-03 0.  1.
    9900012    2    1    2    0    0  0.18175277425E+02  0.16095397508E+01  0.42136657738E+01  0.72461379724E+02  0.69999751747E+02 0.  0.
        -12    1    1    2    0    0 -0.18175277425E+02 -0.16095397508E+01 -0.42136657738E+01  0.18726620276E+02  0.00000000000E+00 0.  1.
         11    1    3    3    0    0  0.34279254161E+02  0.16253107557E+01  0.39504268993E+01  0.34544388456E+02  0.51100000000E-03 0. -1.
        -11    1    3    3    0    0 -0.11551318410E+02  0.16684280751E+02 -0.22845458150E+01  0.20421002204E+02  0.51100000000E-03 0.  1.
         12    1    3    3    0    0 -0.45526583259E+01 -0.16700051756E+02  0.25477846894E+01  0.17495989064E+02  0.00000000000E+00 0. -1.
</event>
<event>
 7    1  0.1857734E-013  0.7246156E+02  0.7816164E-02  0.1226708E+00
        -11   -1    0    0    0    0  0.00000000000E+00  0.00000000000E+00  0.45593999997E+02  0.45594000000E+02  0.51100000000E-03 0.  1.
         11   -1    0    0    0    0 -0.00000000000E+00 -0.00000000000E+00 -0.45593999997E+02  0.45594000000E+02  0.51100000000E-03 0. -1.
    9900012    2    1    2    0    0  0.14925032102E+01 -0.15590843696E+02 -0.10265351207E+02  0.72461563916E+02  0.69999991692E+02 0.  0.
        -12    1    1    2    0    0 -0.14925032102E+01  0.15590843696E+02  0.10265351207E+02  0.18726436084E+02  0.00000000000E+00 0.  1.
         11    1    3    3    0    0  0.17257814275E+02 -0.29527968247E+02 -0.17858750092E+02  0.38583260845E+02  0.51100000000E-03 0. -1.
        -11    1    3    3    0    0 -0.93197105999E+01 -0.65871201636E+01  0.38363475280E+01  0.12040129581E+02  0.51100000000E-03 0.  1.
         12    1    3    3    0    0 -0.64456004648E+01  0.20524244715E+02  0.37570513566E+01  0.21838173490E+02  0.00000000000E+00 0. -1.
</event>
<event>
 7    1  0.1857734E-013  0.7246154E+02  0.7816164E-02  0.1226708E+00
        -11   -1    0    0    0    0  0.00000000000E+00  0.00000000000E+00  0.45593999997E+02  0.45594000000E+02  0.51100000000E-03 0.  1.
         11   -1    0    0    0    0 -0.00000000000E+00 -0.00000000000E+00 -0.45593999997E+02  0.45594000000E+02  0.51100000000E-03 0. -1.
    9900012    2    1    2    0    0  0.30437500319E+01  0.14216704369E+02 -0.11802596277E+02  0.72461538074E+02  0.69999958027E+02 0.  0.
        -12    1    1    2    0    0 -0.30437500319E+01 -0.14216704369E+02  0.11802596277E+02  0.18726461926E+02  0.00000000000E+00 0.  1.
         11    1    3    3    0    0  0.11569230732E+02  0.11603049939E+02  0.23272323279E+02  0.28461885016E+02  0.51100000000E-03 0. -1.
        -11    1    3    3    0    0 -0.15709782138E+02  0.15431712570E+01 -0.12058208697E+02  0.19864013432E+02  0.51100000000E-03 0.  1.
         12    1    3    3    0    0  0.71843014383E+01  0.10704831730E+01 -0.23016710859E+02  0.24135639626E+02  0.00000000000E+00 0. -1.
</event>
<event>
 7    1  0.1857734E-013  0.7246158E+02  0.7816164E-02  0.1226708E+00
        -11   -1    0    0    0    0  0.00000000000E+00  0.00000000000E+00  0.45593999997E+02  0.45594000000E+02  0.51100000000E-03 0.  1.
         11   -1    0    0    0    0 -0.00000000000E+00 -0.00000000000E+00 -0.45593999997E+02  0.45594000000E+02  0.51100000000E-03 0. -1.
    9900012    2    1    2    0    0  0.15554058733E+01 -0.28448047348E+01 -0.18443610921E+02  0.72461575215E+02  0.70000006410E+02 0.  0.
        -12    1    1    2    0    0 -0.15554058733E+01  0.28448047348E+01  0.18443610921E+02  0.18726424785E+02  0.00000000000E+00 0.  1.
         11    1    3    3    0    0  0.10610035053E+02 -0.51843245262E+01  0.18479122505E+02  0.21930071442E+02  0.51100000000E-03 0.  1.
        -11    1    3    3    0    0 -0.67973178772E+01  0.10521912729E+02 -0.39677268134E+02  0.41607689009E+02  0.51100000000E-03 0. -1.
        -12    1    3    3    0    0 -0.22573113022E+01 -0.81823929378E+01  0.27545347073E+01  0.89238147649E+01  0.00000000000E+00 0.  1.
</event>
<event>
 7    1  0.1857734E-013  0.7246175E+02  0.7816164E-02  0.1226708E+00
        -11   -1    0    0    0    0  0.00000000000E+00  0.00000000000E+00  0.45593999997E+02  0.45594000000E+02  0.51100000000E-03 0. -1.
         11   -1    0    0    0    0 -0.00000000000E+00 -0.00000000000E+00 -0.45593999997E+02  0.45594000000E+02  0.51100000000E-03 0.  1.
    9900012    2    1    2    0    0 -0.59027800752E+01  0.16514292185E+02  0.65656515630E+01  0.72461749990E+02  0.70000234087E+02 0.  0.
        -12    1    1    2    0    0  0.59027800752E+01 -0.16514292185E+02 -0.65656515630E+01  0.18726250010E+02  0.00000000000E+00 0.  1.
         11    1    3    3    0    0 -0.21158011108E+02 -0.34671875372E+01  0.18081211029E+02  0.28046622185E+02  0.51100000000E-03 0. -1.
        -11    1    3    3    0    0  0.17269612403E+02  0.19935007698E+02 -0.21624929678E+02  0.34106914670E+02  0.51100000000E-03 0.  1.
        -12    1    3    3    0    0 -0.20143813700E+01  0.46472023542E-01  0.10109370212E+02  0.10308213135E+02  0.00000000000E+00 0.  1.
</event>
<event>
 7    1  0.1857734E-013  0.7246158E+02  0.7816164E-02  0.1226708E+00
        -11   -1    0    0    0    0  0.00000000000E+00  0.00000000000E+00  0.45593999997E+02  0.45594000000E+02  0.51100000000E-03 0.  1.
         11   -1    0    0    0    0 -0.00000000000E+00 -0.00000000000E+00 -0.45593999997E+02  0.45594000000E+02  0.51100000000E-03 0. -1.
    9900012    2    1    2    0    0 -0.30923990006E+01  0.18457014506E+02  0.67415904357E+00  0.72461579988E+02  0.70000012628E+02 0.  0.
        -12    1    1    2    0    0  0.30923990006E+01 -0.18457014506E+02 -0.67415904357E+00  0.18726420012E+02  0.00000000000E+00 0.  1.
         11    1    3    3    0    0 -0.97520811673E+01 -0.11177427892E+02 -0.26240412517E+02  0.30142946616E+02  0.51100000000E-03 0. -1.
        -11    1    3    3    0    0  0.30777849539E+01  0.24486275206E+02  0.15070648824E+02  0.28916688779E+02  0.51100000000E-03 0.  1.
        -12    1    3    3    0    0  0.35818972128E+01  0.51481671920E+01  0.11843922737E+02  0.13401944593E+02  0.00000000000E+00 0.  1.
</event>
<event>
 7    1  0.1857734E-013  0.7246161E+02  0.7816164E-02  0.1226708E+00
        -11   -1    0    0    0    0  0.00000000000E+00  0.00000000000E+00  0.45593999997E+02  0.45594000000E+02  0.51100000000E-03 0.  1.
         11   -1    0    0    0    0 -0.00000000000E+00 -0.00000000000E+00 -0.45593999997E+02  0.45594000000E+02  0.51100000000E-03 0. -1.
    9900012    2    1    2    0    0  0.10337179996E+02  0.58190237178E+01 -0.14489976858E+02  0.72461608018E+02  0.70000049142E+02 0.  0.
        -12    1    1    2    0    0 -0.10337179996E+02 -0.58190237178E+01  0.14489976858E+02  0.18726391982E+02  0.00000000000E+00 0.  1.
         11    1    3    3    0    0 -0.29966635845E+01  0.55978497556E+01 -0.37530372481E+02  0.38063693638E+02  0.51100000000E-03 0. -1.
        -11    1    3    3    0    0  0.11027674924E+02  0.89394047419E+01  0.20666810464E+02  0.25072686860E+02  0.51100000000E-03 0.  1.
         12    1    3    3    0    0  0.23061686562E+01 -0.87182307797E+01  0.23735851586E+01  0.93252275202E+01  0.00000000000E+00 0. -1.
</event>
<event>
 8    1  0.1857734E-013  0.7246160E+02  0.7816164E-02  0.1226708E+00
        -11   -1    0    0    0    0  0.00000000000E+00  0.00000000000E+00  0.45593999997E+02  0.45594000000E+02  0.51100000000E-03 0.  1.
         11   -1    0    0    0    0 -0.00000000000E+00 -0.00000000000E+00 -0.45593999997E+02  0.45594000000E+02  0.51100000000E-03 0. -1.
    9900012    2    1    2    0    0 -0.14003974850E+02  0.10184007746E+02 -0.71311167779E+01  0.72461597466E+02  0.70000035396E+02 0.  0.
         24    2    3    3    0    0 -0.18460560980E+02  0.14125878115E+02  0.73842851109E+01  0.56774137691E+02  0.51268336229E+02 0.  0.
        -12    1    1    2    0    0  0.14003974850E+02 -0.10184007746E+02  0.71311167779E+01  0.18726402534E+02  0.00000000000E+00 0.  1.
         11    1    3    3    0    0  0.44565861307E+01 -0.39418703685E+01 -0.14515401889E+02  0.15687459775E+02  0.51100000000E-03 0. -1.
        -11    1    4    4    0    0 -0.20900125933E+02 -0.15200416090E+02  0.88328036731E+01  0.27310919690E+02  0.51100000000E-03 0.  1.
         12    1    4    4    0    0  0.24395649527E+01  0.29326294205E+02 -0.14485185622E+01  0.29463218001E+02  0.00000000000E+00 0. -1.
</event>
<event>
 7    1  0.1857734E-013  0.7246159E+02  0.7816164E-02  0.1226708E+00
        -11   -1    0    0    0    0  0.00000000000E+00  0.00000000000E+00  0.45593999997E+02  0.45594000000E+02  0.51100000000E-03 0. -1.
         11   -1    0    0    0    0 -0.00000000000E+00 -0.00000000000E+00 -0.45593999997E+02  0.45594000000E+02  0.51100000000E-03 0.  1.
    9900012    2    1    2    0    0 -0.43133410734E+01 -0.17713145468E+02  0.42799669112E+01  0.72461586826E+02  0.70000021536E+02 0.  0.
        -12    1    1    2    0    0  0.43133410734E+01  0.17713145468E+02 -0.42799669112E+01  0.18726413174E+02  0.00000000000E+00 0.  1.
         11    1    3    3    0    0 -0.14898988467E+02  0.34664832480E+01 -0.13526874749E+02  0.20419909505E+02  0.51100000000E-03 0. -1.
        -11    1    3    3    0    0  0.26357173324E+02 -0.18831780214E+02  0.81604824879E+01  0.33405538558E+02  0.51100000000E-03 0.  1.
         12    1    3    3    0    0 -0.15771525930E+02 -0.23478485023E+01  0.96463591720E+01  0.18636138764E+02  0.00000000000E+00 0. -1.
</event>
<event>
 7    1  0.1857734E-013  0.7246154E+02  0.7816164E-02  0.1226708E+00
        -11   -1    0    0    0    0  0.00000000000E+00  0.00000000000E+00  0.45593999997E+02  0.45594000000E+02  0.51100000000E-03 0. -1.
         11   -1    0    0    0    0 -0.00000000000E+00 -0.00000000000E+00 -0.45593999997E+02  0.45594000000E+02  0.51100000000E-03 0.  1.
    9900012    2    1    2    0    0 -0.46640978466E+01  0.18082628521E+02  0.13946533361E+01  0.72461539553E+02  0.69999959954E+02 0.  0.
        -12    1    1    2    0    0  0.46640978466E+01 -0.18082628521E+02 -0.13946533361E+01  0.18726460447E+02  0.00000000000E+00 0.  1.
         11    1    3    3    0    0  0.30785234411E+02  0.92943689384E+01  0.35147494659E+01  0.32349179522E+02  0.51100000000E-03 0. -1.
        -11    1    3    3    0    0 -0.61792157329E+01 -0.46388787446E+01 -0.16760017482E+01  0.79063825611E+01  0.51100000000E-03 0.  1.
         12    1    3    3    0    0 -0.29270116524E+02  0.13427138327E+02 -0.44409438151E+00  0.32205977470E+02  0.00000000000E+00 0. -1.
</event>
<event>
 7    1  0.1857734E-013  0.7246157E+02  0.7816164E-02  0.1226708E+00
        -11   -1    0    0    0    0  0.00000000000E+00  0.00000000000E+00  0.45593999997E+02  0.45594000000E+02  0.51100000000E-03 0.  1.
         11   -1    0    0    0    0 -0.00000000000E+00 -0.00000000000E+00 -0.45593999997E+02  0.45594000000E+02  0.51100000000E-03 0. -1.
    9900012    2    1    2    0    0  0.10956321128E+02  0.14536834906E+02 -0.43952924596E+01  0.72461571147E+02  0.70000001111E+02 0.  0.
        -12    1    1    2    0    0 -0.10956321128E+02 -0.14536834906E+02  0.43952924596E+01  0.18726428853E+02  0.00000000000E+00 0.  1.
         11    1    3    3    0    0  0.18098571844E+02  0.13536639591E+02  0.25508488807E+02  0.34080521060E+02  0.51100000000E-03 0. -1.
        -11    1    3    3    0    0  0.35370523169E+01 -0.85826544935E+01 -0.83358789317E+01  0.12476360650E+02  0.51100000000E-03 0.  1.
         12    1    3    3    0    0 -0.10679303032E+02  0.95828498086E+01 -0.21567902335E+02  0.25904689438E+02  0.00000000000E+00 0. -1.
</event>
<event>
 7    1  0.1857734E-013  0.7246160E+02  0.7816164E-02  0.1226708E+00
        -11   -1    0    0    0    0  0.00000000000E+00  0.00000000000E+00  0.45593999997E+02  0.45594000000E+02  0.51100000000E-03 0. -1.
         11   -1    0    0    0    0 -0.00000000000E+00 -0.00000000000E+00 -0.45593999997E+02  0.45594000000E+02  0.51100000000E-03 0.  1.
    9900012    2    1    2    0    0 -0.11335974108E+02 -0.11752281086E+02  0.91682906742E+01  0.72461602226E+02  0.70000041597E+02 0.  0.
        -12    1    1    2    0    0  0.11335974108E+02  0.11752281086E+02 -0.91682906742E+01  0.18726397774E+02  0.00000000000E+00 0.  1.
         11    1    3    3    0    0 -0.17625828596E+02  0.80477198943E+01  0.11679834647E+01  0.19411332124E+02  0.51100000000E-03 0. -1.
        -11    1    3    3    0    0  0.16602205481E+02 -0.28744087865E+02 -0.57342760249E+01  0.33685868489E+02  0.51100000000E-03 0.  1.
        -12    1    3    3    0    0 -0.10312350993E+02  0.89440868844E+01  0.13734583234E+02  0.19364401613E+02  0.00000000000E+00 0.  1.
</event>
<event>
 7    1  0.1857734E-013  0.7246161E+02  0.7816164E-02  0.1226708E+00
        -11   -1    0    0    0    0  0.00000000000E+00  0.00000000000E+00  0.45593999997E+02  0.45594000000E+02  0.51100000000E-03 0. -1.
         11   -1    0    0    0    0 -0.00000000000E+00 -0.00000000000E+00 -0.45593999997E+02  0.45594000000E+02  0.51100000000E-03 0.  1.
    9900012    2    1    2    0    0 -0.34909589333E+01  0.18396608760E+02  0.23602357894E+00  0.72461609123E+02  0.70000050581E+02 0.  0.
        -12    1    1    2    0    0  0.34909589333E+01 -0.18396608760E+02 -0.23602357894E+00  0.18726390877E+02  0.00000000000E+00 0.  1.
         11    1    3    3    0    0 -0.15142408447E+02  0.31912373710E+02 -0.39995707375E+00  0.35324950040E+02  0.51100000000E-03 0. -1.
        -11    1    3    3    0    0  0.20802231079E+02 -0.92628988571E+01 -0.77105010654E+01  0.24041338150E+02  0.51100000000E-03 0.  1.
        -12    1    3    3    0    0 -0.91507815654E+01 -0.42528660930E+01  0.83464817181E+01  0.13095320933E+02  0.00000000000E+00 0.  1.
</event>
<event>
 7    1  0.1857734E-013  0.7246156E+02  0.7816164E-02  0.1226708E+00
        -11   -1    0    0    0    0  0.00000000000E+00  0.00000000000E+00  0.45593999997E+02  0.45594000000E+02  0.51100000000E-03 0.  1.
         11   -1    0    0    0    0 -0.00000000000E+00 -0.00000000000E+00 -0.45593999997E+02  0.45594000000E+02  0.51100000000E-03 0. -1.
    9900012    2    1    2    0    0  0.57783731586E+01 -0.13240378387E+02 -0.11915640678E+02  0.72461555891E+02  0.69999981237E+02 0.  0.
        -12    1    1    2    0    0 -0.57783731586E+01  0.13240378387E+02  0.11915640678E+02  0.18726444109E+02  0.00000000000E+00 0.  1.
         11    1    3    3    0    0  0.60741359286E+01 -0.27559960231E+02 -0.25806278865E+02  0.38241477016E+02  0.51100000000E-03 0. -1.
        -11    1    3    3    0    0  0.13164900196E+02  0.11119953328E+02  0.57479398303E+01  0.18166088510E+02  0.51100000000E-03 0.  1.
         12    1    3    3    0    0 -0.13460662966E+02  0.31996285159E+01  0.81426983568E+01  0.16053990366E+02  0.00000000000E+00 0. -1.
</event>
<event>
 7    1  0.1857734E-013  0.7246156E+02  0.7816164E-02  0.1226708E+00
        -11   -1    0    0    0    0  0.00000000000E+00  0.00000000000E+00  0.45593999997E+02  0.45594000000E+02  0.51100000000E-03 0. -1.
         11   -1    0    0    0    0 -0.00000000000E+00 -0.00000000000E+00 -0.45593999997E+02  0.45594000000E+02  0.51100000000E-03 0.  1.
    9900012    2    1    2    0    0  0.20049000386E+01  0.67462439858E+01  0.17353624182E+02  0.72461556014E+02  0.69999981398E+02 0.  0.
        -12    1    1    2    0    0 -0.20049000386E+01 -0.67462439858E+01 -0.17353624182E+02  0.18726443986E+02  0.00000000000E+00 0.  1.
         11    1    3    3    0    0 -0.12196424441E+02  0.12175974124E+01  0.77755375972E+01  0.14515312528E+02  0.51100000000E-03 0. -1.
        -11    1    3    3    0    0  0.14314026820E+02  0.24813134575E+02 -0.10118803385E+02  0.30380473884E+02  0.51100000000E-03 0.  1.
        -12    1    3    3    0    0 -0.11270234071E+00 -0.19284488001E+02  0.19696889970E+02  0.27565769602E+02  0.00000000000E+00 0.  1.
</event>
<event>
 7    1  0.1857734E-013  0.7246154E+02  0.7816164E-02  0.1226708E+00
        -11   -1    0    0    0    0  0.00000000000E+00  0.00000000000E+00  0.45593999997E+02  0.45594000000E+02  0.51100000000E-03 0.  1.
         11   -1    0    0    0    0 -0.00000000000E+00 -0.00000000000E+00 -0.45593999997E+02  0.45594000000E+02  0.51100000000E-03 0. -1.
    9900012    2    1    2    0    0 -0.17738206211E+01  0.44909550424E+01 -0.18093235872E+02  0.72461540080E+02  0.69999960641E+02 0.  0.
        -12    1    1    2    0    0  0.17738206211E+01 -0.44909550424E+01  0.18093235872E+02  0.18726459920E+02  0.00000000000E+00 0.  1.
         11    1    3    3    0    0  0.88456380700E+01 -0.13137709358E+02 -0.32163282074E+02  0.35851379807E+02  0.51100000000E-03 0. -1.
        -11    1    3    3    0    0 -0.77639007223E+01 -0.52795269064E+01  0.89340065476E+01  0.12960248147E+02  0.51100000000E-03 0.  1.
         12    1    3    3    0    0 -0.28555579688E+01  0.22908191307E+02  0.51360396535E+01  0.23649912126E+02  0.00000000000E+00 0. -1.
</event>
<event>
 7    1  0.1857734E-013  0.7246166E+02  0.7816164E-02  0.1226708E+00
        -11   -1    0    0    0    0  0.00000000000E+00  0.00000000000E+00  0.45593999997E+02  0.45594000000E+02  0.51100000000E-03 0. -1.
         11   -1    0    0    0    0 -0.00000000000E+00 -0.00000000000E+00 -0.45593999997E+02  0.45594000000E+02  0.51100000000E-03 0.  1.
    9900012    2    1    2    0    0  0.16769556584E+02  0.10588033394E+01  0.82665968879E+01  0.72461662487E+02  0.70000120098E+02 0.  0.
        -12    1    1    2    0    0 -0.16769556584E+02 -0.10588033394E+01 -0.82665968879E+01  0.18726337513E+02  0.00000000000E+00 0.  1.
         11    1    3    3    0    0  0.37469539343E+02  0.85819819773E+01  0.23969312201E+02  0.45300603979E+02  0.51100000000E-03 0. -1.
        -11    1    3    3    0    0 -0.12938204639E+02 -0.56438804057E+01 -0.10978240387E+02  0.17882177931E+02  0.51100000000E-03 0.  1.
         12    1    3    3    0    0 -0.77617781194E+01 -0.18792982322E+01 -0.47244749264E+01  0.92788805763E+01  0.00000000000E+00 0. -1.
</event>
<event>
 7    1  0.1857734E-013  0.7246172E+02  0.7816164E-02  0.1226708E+00
        -11   -1    0    0    0    0  0.00000000000E+00  0.00000000000E+00  0.45593999997E+02  0.45594000000E+02  0.51100000000E-03 0.  1.
         11   -1    0    0    0    0 -0.00000000000E+00 -0.00000000000E+00 -0.45593999997E+02  0.45594000000E+02  0.51100000000E-03 0. -1.
    9900012    2    1    2    0    0  0.17207844367E+02  0.36865014503E+01 -0.64010307372E+01  0.72461724470E+02  0.70000200843E+02 0.  0.
        -12    1    1    2    0    0 -0.17207844367E+02 -0.36865014503E+01  0.64010307372E+01  0.18726275530E+02  0.00000000000E+00 0.  1.
         11    1    3    3    0    0  0.23194446444E+02  0.51951032615E+01  0.54528470062E+01  0.24386573857E+02  0.51100000000E-03 0.  1.
        -11    1    3    3    0    0 -0.14908348450E+02  0.15973008636E+02  0.47588078669E+01  0.22361621385E+02  0.51100000000E-03 0. -1.
        -12    1    3    3    0    0  0.89217463736E+01 -0.17481610447E+02 -0.16612685610E+02  0.25713529228E+02  0.00000000000E+00 0.  1.
</event>
<event>
 7    1  0.1857734E-013  0.7246161E+02  0.7816164E-02  0.1226708E+00
        -11   -1    0    0    0    0  0.00000000000E+00  0.00000000000E+00  0.45593999997E+02  0.45594000000E+02  0.51100000000E-03 0.  1.
         11   -1    0    0    0    0 -0.00000000000E+00 -0.00000000000E+00 -0.45593999997E+02  0.45594000000E+02  0.51100000000E-03 0. -1.
    9900012    2    1    2    0    0  0.27027492702E+01 -0.18475990249E+02 -0.14179622232E+01  0.72461609900E+02  0.70000051594E+02 0.  0.
        -12    1    1    2    0    0 -0.27027492702E+01  0.18475990249E+02  0.14179622232E+01  0.18726390100E+02  0.00000000000E+00 0.  1.
         11    1    3    3    0    0  0.15257761396E+02  0.12916626970E+01 -0.12330641413E+02  0.19659918445E+02  0.51100000000E-03 0. -1.
        -11    1    3    3    0    0 -0.18176577556E+02 -0.32644185574E+02  0.10212737737E+02  0.38734104298E+02  0.51100000000E-03 0.  1.
        -12    1    3    3    0    0  0.56215654296E+01  0.12876532627E+02  0.69994145280E+00  0.14067587157E+02  0.00000000000E+00 0.  1.
</event>
<event>
 7    1  0.1857734E-013  0.7246148E+02  0.7816164E-02  0.1226708E+00
        -11   -1    0    0    0    0  0.00000000000E+00  0.00000000000E+00  0.45593999997E+02  0.45594000000E+02  0.51100000000E-03 0. -1.
         11   -1    0    0    0    0 -0.00000000000E+00 -0.00000000000E+00 -0.45593999997E+02  0.45594000000E+02  0.51100000000E-03 0.  1.
    9900012    2    1    2    0    0  0.45560903848E+01 -0.16077301472E+02  0.84525141131E+01  0.72461479313E+02  0.69999881479E+02 0.  0.
        -12    1    1    2    0    0 -0.45560903848E+01  0.16077301472E+02 -0.84525141131E+01  0.18726520687E+02  0.00000000000E+00 0.  1.
         11    1    3    3    0    0  0.31807479003E+02 -0.84699181977E+01 -0.10237600245E+01  0.32931798002E+02  0.51100000000E-03 0. -1.
        -11    1    3    3    0    0 -0.18085752468E+02  0.79573726789E+01  0.82909221094E+01  0.21427869982E+02  0.51100000000E-03 0.  1.
         12    1    3    3    0    0 -0.91656361505E+01 -0.15564755953E+02  0.11853520281E+01  0.18101811328E+02  0.00000000000E+00 0. -1.
</event>
<event>
 7    1  0.1857734E-013  0.7246155E+02  0.7816164E-02  0.1226708E+00
        -11   -1    0    0    0    0  0.00000000000E+00  0.00000000000E+00  0.45593999997E+02  0.45594000000E+02  0.51100000000E-03 0.  1.
         11   -1    0    0    0    0 -0.00000000000E+00 -0.00000000000E+00 -0.45593999997E+02  0.45594000000E+02  0.51100000000E-03 0. -1.
    9900012    2    1    2    0    0  0.18113720392E+02 -0.31739719954E+01 -0.35353819260E+01  0.72461551056E+02  0.69999974939E+02 0.  0.
        -12    1    1    2    0    0 -0.18113720392E+02  0.31739719954E+01  0.35353819260E+01  0.18726448944E+02  0.00000000000E+00 0.  1.
         11    1    3    3    0    0  0.26233948954E+01 -0.27268507799E+02 -0.42892050350E+01  0.27728162551E+02  0.51100000000E-03 0. -1.
        -11    1    3    3    0    0  0.78676629704E+01  0.23982789771E+02 -0.13459420552E+02  0.28604725618E+02  0.51100000000E-03 0.  1.
        -12    1    3    3    0    0  0.76226625266E+01  0.11174603243E+00  0.14213243661E+02  0.16128662888E+02  0.00000000000E+00 0.  1.
</event>
<event>
 7    1  0.1857734E-013  0.7246156E+02  0.7816164E-02  0.1226708E+00
        -11   -1    0    0    0    0  0.00000000000E+00  0.00000000000E+00  0.45593999997E+02  0.45594000000E+02  0.51100000000E-03 0.  1.
         11   -1    0    0    0    0 -0.00000000000E+00 -0.00000000000E+00 -0.45593999997E+02  0.45594000000E+02  0.51100000000E-03 0. -1.
    9900012    2    1    2    0    0 -0.11417605306E+02 -0.12427565779E+02 -0.81162529592E+01  0.72461557086E+02  0.69999982794E+02 0.  0.
        -12    1    1    2    0    0  0.11417605306E+02  0.12427565779E+02  0.81162529592E+01  0.18726442914E+02  0.00000000000E+00 0.  1.
         11    1    3    3    0    0 -0.17419170236E+02 -0.19642966289E+02  0.11616824517E+02  0.28709305607E+02  0.51100000000E-03 0.  1.
        -11    1    3    3    0    0 -0.51494307664E+01 -0.48309396638E+01 -0.25418029824E+02  0.26380501429E+02  0.51100000000E-03 0. -1.
         12    1    3    3    0    0  0.11150995696E+02  0.12046340174E+02  0.56849523486E+01  0.17371750050E+02  0.00000000000E+00 0. -1.
</event>
<event>
 7    1  0.1857734E-013  0.7246143E+02  0.7816164E-02  0.1226708E+00
        -11   -1    0    0    0    0  0.00000000000E+00  0.00000000000E+00  0.45593999997E+02  0.45594000000E+02  0.51100000000E-03 0. -1.
         11   -1    0    0    0    0 -0.00000000000E+00 -0.00000000000E+00 -0.45593999997E+02  0.45594000000E+02  0.51100000000E-03 0.  1.
    9900012    2    1    2    0    0  0.12310370837E+02 -0.12070333499E+02 -0.73107063008E+01  0.72461425098E+02  0.69999810855E+02 0.  0.
        -12    1    1    2    0    0 -0.12310370837E+02  0.12070333499E+02  0.73107063008E+01  0.18726574902E+02  0.00000000000E+00 0.  1.
         11    1    3    3    0    0  0.25970427472E+02  0.99859069329E+01 -0.13570379081E+02  0.30957012598E+02  0.51100000000E-03 0. -1.
        -11    1    3    3    0    0 -0.23342365921E+02 -0.10000261248E+02  0.20388661561E+01  0.25476032801E+02  0.51100000000E-03 0.  1.
         12    1    3    3    0    0  0.96823092866E+01 -0.12055979184E+02  0.42208066240E+01  0.16028379699E+02  0.00000000000E+00 0. -1.
</event>
<event>
 7    1  0.1857734E-013  0.7246159E+02  0.7816164E-02  0.1226708E+00
        -11   -1    0    0    0    0  0.00000000000E+00  0.00000000000E+00  0.45593999997E+02  0.45594000000E+02  0.51100000000E-03 0. -1.
         11   -1    0    0    0    0 -0.00000000000E+00 -0.00000000000E+00 -0.45593999997E+02  0.45594000000E+02  0.51100000000E-03 0.  1.
    9900012    2    1    2    0    0  0.13136860946E+02  0.11122500096E+02  0.73750419885E+01  0.72461591689E+02  0.70000027871E+02 0.  0.
        -12    1    1    2    0    0 -0.13136860946E+02 -0.11122500096E+02 -0.73750419885E+01  0.18726408311E+02  0.00000000000E+00 0.  1.
         11    1    3    3    0    0 -0.20007702165E+02  0.33601628999E+01  0.81225274359E+01  0.21853473244E+02  0.51100000000E-03 0. -1.
        -11    1    3    3    0    0  0.27344828948E+02  0.21842308678E+02  0.23208118771E+01  0.35074382199E+02  0.51100000000E-03 0.  1.
        -12    1    3    3    0    0  0.57997341625E+01 -0.14079971483E+02 -0.30682973245E+01  0.15533736247E+02  0.00000000000E+00 0.  1.
</event>
<event>
 7    1  0.1857734E-013  0.7246167E+02  0.7816164E-02  0.1226708E+00
        -11   -1    0    0    0    0  0.00000000000E+00  0.00000000000E+00  0.45593999997E+02  0.45594000000E+02  0.51100000000E-03 0. -1.
         11   -1    0    0    0    0 -0.00000000000E+00 -0.00000000000E+00 -0.45593999997E+02  0.45594000000E+02  0.51100000000E-03 0.  1.
    9900012    2    1    2    0    0  0.12098929946E+02  0.12994175016E+02  0.59533681844E+01  0.72461674068E+02  0.70000135184E+02 0.  0.
        -12    1    1    2    0    0 -0.12098929946E+02 -0.12994175016E+02 -0.59533681844E+01  0.18726325932E+02  0.00000000000E+00 0.  1.
         11    1    3    3    0    0 -0.48850540001E+01 -0.22326801310E+00  0.78505661165E+01  0.92490534543E+01  0.51100000000E-03 0. -1.
        -11    1    3    3    0    0  0.28879384191E+02  0.17088183244E+02 -0.21576146825E+02  0.39894297210E+02  0.51100000000E-03 0.  1.
        -12    1    3    3    0    0 -0.11895400245E+02 -0.38707402152E+01  0.19678948893E+02  0.23318323403E+02  0.00000000000E+00 0.  1.
</event>
<event>
 7    1  0.1857734E-013  0.7246162E+02  0.7816164E-02  0.1226708E+00
        -11   -1    0    0    0    0  0.00000000000E+00  0.00000000000E+00  0.45593999997E+02  0.45594000000E+02  0.51100000000E-03 0.  1.
         11   -1    0    0    0    0 -0.00000000000E+00 -0.00000000000E+00 -0.45593999997E+02  0.45594000000E+02  0.51100000000E-03 0. -1.
    9900012    2    1    2    0    0 -0.76414036862E+01 -0.16107963893E+02 -0.57288559476E+01  0.72461619102E+02  0.70000063581E+02 0.  0.
        -12    1    1    2    0    0  0.76414036862E+01  0.16107963893E+02  0.57288559476E+01  0.18726380898E+02  0.00000000000E+00 0.  1.
         11    1    3    3    0    0  0.15491832935E+00  0.11008501716E+02 -0.24944548067E+02  0.27266125289E+02  0.51100000000E-03 0. -1.
        -11    1    3    3    0    0 -0.47550332375E+01 -0.32437873630E+02  0.20849067749E+02  0.38852408073E+02  0.51100000000E-03 0.  1.
        -12    1    3    3    0    0 -0.30412887780E+01  0.53214080218E+01 -0.16333756298E+01  0.63430857407E+01  0.00000000000E+00 0.  1.
</event>
<event>
 7    1  0.1857734E-013  0.7246153E+02  0.7816164E-02  0.1226708E+00
        -11   -1    0    0    0    0  0.00000000000E+00  0.00000000000E+00  0.45593999997E+02  0.45594000000E+02  0.51100000000E-03 0. -1.
         11   -1    0    0    0    0 -0.00000000000E+00 -0.00000000000E+00 -0.45593999997E+02  0.45594000000E+02  0.51100000000E-03 0.  1.
    9900012    2    1    2    0    0  0.16083469119E+02  0.91095080762E+01 -0.30032657673E+01  0.72461528854E+02  0.69999946016E+02 0.  0.
        -12    1    1    2    0    0 -0.16083469119E+02 -0.91095080762E+01  0.30032657673E+01  0.18726471146E+02  0.00000000000E+00 0.  1.
         11    1    3    3    0    0 -0.38418542221E+01  0.24937927408E+02 -0.11251846338E+02  0.27627234996E+02  0.51100000000E-03 0. -1.
        -11    1    3    3    0    0  0.50157708957E+01 -0.25362856056E+02  0.82446999690E+01  0.27136829270E+02  0.51100000000E-03 0.  1.
        -12    1    3    3    0    0  0.14909552446E+02  0.95344367241E+01  0.38806014757E-02  0.17697464588E+02  0.00000000000E+00 0.  1.
</event>
<event>
 7    1  0.1857734E-013  0.7246158E+02  0.7816164E-02  0.1226708E+00
        -11   -1    0    0    0    0  0.00000000000E+00  0.00000000000E+00  0.45593999997E+02  0.45594000000E+02  0.51100000000E-03 0. -1.
         11   -1    0    0    0    0 -0.00000000000E+00 -0.00000000000E+00 -0.45593999997E+02  0.45594000000E+02  0.51100000000E-03 0.  1.
    9900012    2    1    2    0    0  0.18447259297E+02 -0.11587591240E+01  0.30057535317E+01  0.72461584097E+02  0.70000017981E+02 0.  0.
        -12    1    1    2    0    0 -0.18447259297E+02  0.11587591240E+01 -0.30057535317E+01  0.18726415903E+02  0.00000000000E+00 0.  1.
         11    1    3    3    0    0 -0.20886370931E+02 -0.49853765146E+01 -0.37474929454E+01  0.21797664400E+02  0.51100000000E-03 0. -1.
        -11    1    3    3    0    0  0.21070266240E+02  0.17344485273E+02  0.59272746191E+01  0.27927045556E+02  0.51100000000E-03 0.  1.
         12    1    3    3    0    0  0.18263363988E+02 -0.13517867882E+02  0.82597185800E+00  0.22736874142E+02  0.00000000000E+00 0. -1.
</event>
<event>
 7    1  0.1857734E-013  0.7246161E+02  0.7816164E-02  0.1226708E+00
        -11   -1    0    0    0    0  0.00000000000E+00  0.00000000000E+00  0.45593999997E+02  0.45594000000E+02  0.51100000000E-03 0. -1.
         11   -1    0    0    0    0 -0.00000000000E+00 -0.00000000000E+00 -0.45593999997E+02  0.45594000000E+02  0.51100000000E-03 0.  1.
    9900012    2    1    2    0    0  0.13031094571E+02  0.13363738466E+02 -0.15096131892E+01  0.72461605166E+02  0.70000045426E+02 0.  0.
        -12    1    1    2    0    0 -0.13031094571E+02 -0.13363738466E+02  0.15096131892E+01  0.18726394834E+02  0.00000000000E+00 0.  1.
         11    1    3    3    0    0 -0.34020372206E+01 -0.18162514740E+02 -0.12718159833E+02  0.22432173072E+02  0.51100000000E-03 0.  1.
        -11    1    3    3    0    0  0.68022499844E+01  0.88622929533E+01  0.20793312852E+02  0.23604505944E+02  0.51100000000E-03 0. -1.
         12    1    3    3    0    0  0.96308818074E+01  0.22663960253E+02 -0.95847662080E+01  0.26424926149E+02  0.00000000000E+00 0. -1.
</event>
<event>
 7    1  0.1857734E-013  0.7246157E+02  0.7816164E-02  0.1226708E+00
        -11   -1    0    0    0    0  0.00000000000E+00  0.00000000000E+00  0.45593999997E+02  0.45594000000E+02  0.51100000000E-03 0. -1.
         11   -1    0    0    0    0 -0.00000000000E+00 -0.00000000000E+00 -0.45593999997E+02  0.45594000000E+02  0.51100000000E-03 0.  1.
    9900012    2    1    2    0    0  0.93554946835E+01 -0.14133022445E+02 -0.79631285408E+01  0.72461574277E+02  0.70000005188E+02 0.  0.
        -12    1    1    2    0    0 -0.93554946835E+01  0.14133022445E+02  0.79631285408E+01  0.18726425723E+02  0.00000000000E+00 0.  1.
         11    1    3    3    0    0 -0.18998723014E+02  0.33201741339E+01  0.11660034338E+02  0.22537334214E+02  0.51100000000E-03 0. -1.
        -11    1    3    3    0    0  0.16671427646E+02 -0.20083762338E+01  0.59773806354E+01  0.17824117212E+02  0.51100000000E-03 0.  1.
         12    1    3    3    0    0  0.11682790051E+02 -0.15444820345E+02 -0.25600543514E+02  0.32100122851E+02  0.00000000000E+00 0. -1.
</event>
<event>
 7    1  0.1857734E-013  0.7246189E+02  0.7816164E-02  0.1226707E+00
        -11   -1    0    0    0    0  0.00000000000E+00  0.00000000000E+00  0.45593999997E+02  0.45594000000E+02  0.51100000000E-03 0. -1.
         11   -1    0    0    0    0 -0.00000000000E+00 -0.00000000000E+00 -0.45593999997E+02  0.45594000000E+02  0.51100000000E-03 0.  1.
    9900012    2    1    2    0    0  0.22840076203E+00  0.11385198458E+02  0.14865807751E+02  0.72461891197E+02  0.70000418034E+02 0.  0.
        -12    1    1    2    0    0 -0.22840076203E+00 -0.11385198458E+02 -0.14865807751E+02  0.18726108803E+02  0.00000000000E+00 0.  1.
         11    1    3    3    0    0 -0.20489343352E+02 -0.14487734252E+02 -0.77218455011E+01  0.26255181069E+02  0.51100000000E-03 0.  1.
        -11    1    3    3    0    0  0.25370850600E+02  0.24914782060E+02  0.19940803429E+02  0.40768395442E+02  0.51100000000E-03 0. -1.
         12    1    3    3    0    0 -0.46531064860E+01  0.95815064962E+00  0.26468498223E+01  0.54383146856E+01  0.00000000000E+00 0. -1.
</event>
<event>
 7    1  0.1857734E-013  0.7246151E+02  0.7816164E-02  0.1226708E+00
        -11   -1    0    0    0    0  0.00000000000E+00  0.00000000000E+00  0.45593999997E+02  0.45594000000E+02  0.51100000000E-03 0.  1.
         11   -1    0    0    0    0 -0.00000000000E+00 -0.00000000000E+00 -0.45593999997E+02  0.45594000000E+02  0.51100000000E-03 0. -1.
    9900012    2    1    2    0    0  0.11377852340E+02 -0.11432696713E+02  0.95141742105E+01  0.72461505696E+02  0.69999915848E+02 0.  0.
        -12    1    1    2    0    0 -0.11377852340E+02  0.11432696713E+02 -0.95141742105E+01  0.18726494304E+02  0.00000000000E+00 0.  1.
         11    1    3    3    0    0 -0.22124487843E+01 -0.10333450466E+02  0.27859584985E+02  0.29796503217E+02  0.51100000000E-03 0. -1.
        -11    1    3    3    0    0  0.20345162628E+02  0.82968136662E+01 -0.12321276951E+01  0.22006383126E+02  0.51100000000E-03 0.  1.
         12    1    3    3    0    0 -0.67548615030E+01 -0.93960599137E+01 -0.17113283079E+02  0.20658619353E+02  0.00000000000E+00 0. -1.
</event>
<event>
 7    1  0.1857734E-013  0.7246156E+02  0.7816164E-02  0.1226708E+00
        -11   -1    0    0    0    0  0.00000000000E+00  0.00000000000E+00  0.45593999997E+02  0.45594000000E+02  0.51100000000E-03 0.  1.
         11   -1    0    0    0    0 -0.00000000000E+00 -0.00000000000E+00 -0.45593999997E+02  0.45594000000E+02  0.51100000000E-03 0. -1.
    9900012    2    1    2    0    0 -0.16324476219E+02 -0.80607675822E+01 -0.43835084133E+01  0.72461557630E+02  0.69999983502E+02 0.  0.
        -12    1    1    2    0    0  0.16324476219E+02  0.80607675822E+01  0.43835084133E+01  0.18726442370E+02  0.00000000000E+00 0.  1.
         11    1    3    3    0    0 -0.68799384983E+01  0.21627645532E+02 -0.25837973285E+02  0.34390252525E+02  0.51100000000E-03 0. -1.
        -11    1    3    3    0    0 -0.50240589149E+00 -0.71636831970E+01  0.56644443261E+01  0.91464035780E+01  0.51100000000E-03 0.  1.
         12    1    3    3    0    0 -0.89421318290E+01 -0.22524729917E+02  0.15790020546E+02  0.28924901527E+02  0.00000000000E+00 0. -1.
</event>
<event>
 7    1  0.1857734E-013  0.7246157E+02  0.7816164E-02  0.1226708E+00
        -11   -1    0    0    0    0  0.00000000000E+00  0.00000000000E+00  0.45593999997E+02  0.45594000000E+02  0.51100000000E-03 0. -1.
         11   -1    0    0    0    0 -0.00000000000E+00 -0.00000000000E+00 -0.45593999997E+02  0.45594000000E+02  0.51100000000E-03 0.  1.
    9900012    2    1    2    0    0  0.65071047537E+01  0.49589039474E+01  0.16844761531E+02  0.72461571305E+02  0.70000001317E+02 0.  0.
        -12    1    1    2    0    0 -0.65071047537E+01 -0.49589039474E+01 -0.16844761531E+02  0.18726428695E+02  0.00000000000E+00 0.  1.
         11    1    3    3    0    0 -0.11539503388E+02 -0.19286122721E+02  0.92082592614E+01  0.24287995120E+02  0.51100000000E-03 0. -1.
        -11    1    3    3    0    0  0.55860040303E+01  0.14406731993E+02 -0.14327652784E+02  0.21072232969E+02  0.51100000000E-03 0.  1.
         12    1    3    3    0    0  0.12460604111E+02  0.98382946760E+01  0.21964155053E+02  0.27101343216E+02  0.00000000000E+00 0. -1.
</event>
<event>
 7    1  0.1857734E-013  0.7246146E+02  0.7816164E-02  0.1226708E+00
        -11   -1    0    0    0    0  0.00000000000E+00  0.00000000000E+00  0.45593999997E+02  0.45594000000E+02  0.51100000000E-03 0.  1.
         11   -1    0    0    0    0 -0.00000000000E+00 -0.00000000000E+00 -0.45593999997E+02  0.45594000000E+02  0.51100000000E-03 0. -1.
    9900012    2    1    2    0    0 -0.18519766718E+02 -0.88341413483E+00 -0.26307737634E+01  0.72461464004E+02  0.69999861537E+02 0.  0.
        -12    1    1    2    0    0  0.18519766718E+02  0.88341413483E+00  0.26307737634E+01  0.18726535996E+02  0.00000000000E+00 0.  1.
         11    1    3    3    0    0 -0.14947119803E+02  0.79528389330E+01  0.22895574796E+02  0.28475803465E+02  0.51100000000E-03 0.  1.
        -11    1    3    3    0    0 -0.28464757084E+01  0.42301176948E+01 -0.29789154845E+02  0.30222343825E+02  0.51100000000E-03 0. -1.
         12    1    3    3    0    0 -0.72617120620E+00 -0.13066370763E+02  0.42628062856E+01  0.13763316713E+02  0.00000000000E+00 0. -1.
</event>
<event>
 7    1  0.1857734E-013  0.7246156E+02  0.7816164E-02  0.1226708E+00
        -11   -1    0    0    0    0  0.00000000000E+00  0.00000000000E+00  0.45593999997E+02  0.45594000000E+02  0.51100000000E-03 0. -1.
         11   -1    0    0    0    0 -0.00000000000E+00 -0.00000000000E+00 -0.45593999997E+02  0.45594000000E+02  0.51100000000E-03 0.  1.
    9900012    2    1    2    0    0  0.18072516312E+01  0.80192346618E+01  0.16825733129E+02  0.72461559379E+02  0.69999985780E+02 0.  0.
        -12    1    1    2    0    0 -0.18072516312E+01 -0.80192346618E+01 -0.16825733129E+02  0.18726440621E+02  0.00000000000E+00 0.  1.
         11    1    3    3    0    0 -0.14170276575E+02  0.28348910539E+02  0.15406593159E+02  0.35239474741E+02  0.51100000000E-03 0. -1.
        -11    1    3    3    0    0  0.17597428338E+02 -0.39670873851E+01 -0.62337695297E+01  0.19085783957E+02  0.51100000000E-03 0.  1.
         12    1    3    3    0    0 -0.16199001313E+01 -0.16362588492E+02  0.76529094998E+01  0.18136300681E+02  0.00000000000E+00 0. -1.
</event>
<event>
 7    1  0.1857734E-013  0.7246158E+02  0.7816164E-02  0.1226708E+00
        -11   -1    0    0    0    0  0.00000000000E+00  0.00000000000E+00  0.45593999997E+02  0.45594000000E+02  0.51100000000E-03 0.  1.
         11   -1    0    0    0    0 -0.00000000000E+00 -0.00000000000E+00 -0.45593999997E+02  0.45594000000E+02  0.51100000000E-03 0. -1.
    9900012    2    1    2    0    0 -0.12622735438E+02  0.13216558369E+02 -0.40826578149E+01  0.72461575891E+02  0.70000007291E+02 0.  0.
        -12    1    1    2    0    0  0.12622735438E+02 -0.13216558369E+02  0.40826578149E+01  0.18726424109E+02  0.00000000000E+00 0.  1.
         11    1    3    3    0    0  0.13969451924E+02 -0.29904023885E+01  0.35593595975E+01  0.14722674163E+02  0.51100000000E-03 0. -1.
        -11    1    3    3    0    0 -0.23905077130E+02  0.89598978355E+01 -0.26840790701E+02  0.37042685209E+02  0.51100000000E-03 0.  1.
        -12    1    3    3    0    0 -0.26871102326E+01  0.72470629223E+01  0.19198773288E+02  0.20696216518E+02  0.00000000000E+00 0.  1.
</event>
<event>
 7    1  0.1857734E-013  0.7246155E+02  0.7816164E-02  0.1226708E+00
        -11   -1    0    0    0    0  0.00000000000E+00  0.00000000000E+00  0.45593999997E+02  0.45594000000E+02  0.51100000000E-03 0.  1.
         11   -1    0    0    0    0 -0.00000000000E+00 -0.00000000000E+00 -0.45593999997E+02  0.45594000000E+02  0.51100000000E-03 0. -1.
    9900012    2    1    2    0    0  0.16655494989E+02 -0.79651757927E+01 -0.31353241693E+01  0.72461553557E+02  0.69999978197E+02 0.  0.
        -12    1    1    2    0    0 -0.16655494989E+02  0.79651757927E+01  0.31353241693E+01  0.18726446443E+02  0.00000000000E+00 0.  1.
         11    1    3    3    0    0  0.27784654721E+02 -0.16384177251E+02 -0.23549234918E+02  0.39937385588E+02  0.51100000000E-03 0.  1.
        -11    1    3    3    0    0 -0.10256668886E+02  0.98196823657E+01  0.23591265520E+01  0.14394127161E+02  0.51100000000E-03 0. -1.
        -12    1    3    3    0    0 -0.87249084620E+00 -0.14006809075E+01  0.18054784197E+02  0.18130040807E+02  0.00000000000E+00 0.  1.
</event>
<event>
 7    1  0.1857734E-013  0.7246158E+02  0.7816164E-02  0.1226708E+00
        -11   -1    0    0    0    0  0.00000000000E+00  0.00000000000E+00  0.45593999997E+02  0.45594000000E+02  0.51100000000E-03 0.  1.
         11   -1    0    0    0    0 -0.00000000000E+00 -0.00000000000E+00 -0.45593999997E+02  0.45594000000E+02  0.51100000000E-03 0. -1.
    9900012    2    1    2    0    0  0.17868217061E+02  0.45443912339E+01 -0.32793760507E+01  0.72461575357E+02  0.70000006595E+02 0.  0.
        -12    1    1    2    0    0 -0.17868217061E+02 -0.45443912339E+01  0.32793760507E+01  0.18726424643E+02  0.00000000000E+00 0.  1.
         11    1    3    3    0    0  0.18352379031E+01  0.91130674439E+01 -0.17740754820E+01  0.94637963036E+01  0.51100000000E-03 0. -1.
        -11    1    3    3    0    0  0.10398255761E+01 -0.31708488204E+02  0.20333710756E+01  0.31790628487E+02  0.51100000000E-03 0.  1.
        -12    1    3    3    0    0  0.14993153582E+02  0.27139811994E+02 -0.35386716443E+01  0.31207150566E+02  0.00000000000E+00 0.  1.
</event>
<event>
 7    1  0.1857734E-013  0.7246163E+02  0.7816164E-02  0.1226708E+00
        -11   -1    0    0    0    0  0.00000000000E+00  0.00000000000E+00  0.45593999997E+02  0.45594000000E+02  0.51100000000E-03 0. -1.
         11   -1    0    0    0    0 -0.00000000000E+00 -0.00000000000E+00 -0.45593999997E+02  0.45594000000E+02  0.51100000000E-03 0.  1.
    9900012    2    1    2    0    0 -0.55067148782E+01 -0.65218625529E+01  0.16667886967E+02  0.72461626730E+02  0.70000073517E+02 0.  0.
        -12    1    1    2    0    0  0.55067148782E+01  0.65218625529E+01 -0.16667886967E+02  0.18726373270E+02  0.00000000000E+00 0.  1.
         11    1    3    3    0    0 -0.33460430132E+02 -0.12388518263E+01  0.20061759476E+02  0.39033438639E+02  0.51100000000E-03 0. -1.
        -11    1    3    3    0    0  0.36421298396E+01 -0.54932345212E+01 -0.60809582309E+01  0.89676523428E+01  0.51100000000E-03 0.  1.
         12    1    3    3    0    0  0.24311585414E+02  0.21022379461E+00  0.26870857216E+01  0.24460535748E+02  0.00000000000E+00 0. -1.
</event>
<event>
 7    1  0.1857734E-013  0.7246237E+02  0.7816164E-02  0.1226706E+00
        -11   -1    0    0    0    0  0.00000000000E+00  0.00000000000E+00  0.45593999997E+02  0.45594000000E+02  0.51100000000E-03 0. -1.
         11   -1    0    0    0    0 -0.00000000000E+00 -0.00000000000E+00 -0.45593999997E+02  0.45594000000E+02  0.51100000000E-03 0.  1.
    9900012    2    1    2    0    0 -0.66809338352E+01 -0.17436070659E+02 -0.14134684289E+01  0.72462367035E+02  0.70001037895E+02 0.  0.
        -12    1    1    2    0    0  0.66809338352E+01  0.17436070659E+02  0.14134684289E+01  0.18725632965E+02  0.00000000000E+00 0.  1.
         11    1    3    3    0    0 -0.55945043052E+01 -0.87872207336E+01  0.12836183945E+02  0.16531223341E+02  0.51100000000E-03 0. -1.
        -11    1    3    3    0    0  0.75235849656E+01 -0.16351081862E+02 -0.30844044275E+02  0.35711584623E+02  0.51100000000E-03 0.  1.
        -12    1    3    3    0    0 -0.86100144956E+01  0.77022319371E+01  0.16594391901E+02  0.20219559070E+02  0.00000000000E+00 0.  1.
</event>
<event>
 7    1  0.1857734E-013  0.7246154E+02  0.7816164E-02  0.1226708E+00
        -11   -1    0    0    0    0  0.00000000000E+00  0.00000000000E+00  0.45593999997E+02  0.45594000000E+02  0.51100000000E-03 0.  1.
         11   -1    0    0    0    0 -0.00000000000E+00 -0.00000000000E+00 -0.45593999997E+02  0.45594000000E+02  0.51100000000E-03 0. -1.
    9900012    2    1    2    0    0 -0.73047526361E+01  0.17072079281E+02 -0.24217531947E+01  0.72461543032E+02  0.69999964485E+02 0.  0.
        -12    1    1    2    0    0  0.73047526361E+01 -0.17072079281E+02  0.24217531947E+01  0.18726456968E+02  0.00000000000E+00 0.  1.
         11    1    3    3    0    0 -0.22560966065E+02  0.57460871817E+01 -0.28589035489E+02  0.36869332217E+02  0.51100000000E-03 0. -1.
        -11    1    3    3    0    0  0.18711533449E+01  0.10461064606E+02  0.13071566848E+02  0.16846392719E+02  0.51100000000E-03 0.  1.
         12    1    3    3    0    0  0.13385060084E+02  0.86492749284E+00  0.13095715446E+02  0.18745818096E+02  0.00000000000E+00 0. -1.
</event>
<event>
 7    1  0.1857734E-013  0.7246158E+02  0.7816164E-02  0.1226708E+00
        -11   -1    0    0    0    0  0.00000000000E+00  0.00000000000E+00  0.45593999997E+02  0.45594000000E+02  0.51100000000E-03 0.  1.
         11   -1    0    0    0    0 -0.00000000000E+00 -0.00000000000E+00 -0.45593999997E+02  0.45594000000E+02  0.51100000000E-03 0. -1.
    9900012    2    1    2    0    0  0.80854986299E+00  0.15983634046E+02 -0.97236074889E+01  0.72461578751E+02  0.70000011016E+02 0.  0.
        -12    1    1    2    0    0 -0.80854986299E+00 -0.15983634046E+02  0.97236074889E+01  0.18726421249E+02  0.00000000000E+00 0.  1.
         11    1    3    3    0    0  0.36057948548E+01  0.58579809974E+01  0.20205066515E+02  0.21343908054E+02  0.51100000000E-03 0. -1.
        -11    1    3    3    0    0  0.14659014529E+02 -0.66815867351E+01 -0.17840093254E+02  0.24037454853E+02  0.51100000000E-03 0.  1.
         12    1    3    3    0    0 -0.17456259521E+02  0.16807239784E+02 -0.12088580750E+02  0.27080215844E+02  0.00000000000E+00 0. -1.
</event>
<event>
 7    1  0.1857734E-013  0.7246159E+02  0.7816164E-02  0.1226708E+00
        -11   -1    0    0    0    0  0.00000000000E+00  0.00000000000E+00  0.45593999997E+02  0.45594000000E+02  0.51100000000E-03 0. -1.
         11   -1    0    0    0    0 -0.00000000000E+00 -0.00000000000E+00 -0.45593999997E+02  0.45594000000E+02  0.51100000000E-03 0.  1.
    9900012    2    1    2    0    0  0.17981057009E+02 -0.41732032977E+01 -0.31534829459E+01  0.72461588394E+02  0.70000023578E+02 0.  0.
        -12    1    1    2    0    0 -0.17981057009E+02  0.41732032977E+01  0.31534829459E+01  0.18726411606E+02  0.00000000000E+00 0.  1.
         11    1    3    3    0    0 -0.51955627265E+01  0.82130658895E+01  0.23626616103E+02  0.25547315164E+02  0.51100000000E-03 0. -1.
        -11    1    3    3    0    0  0.21829015383E+02  0.37077205191E+01 -0.17976904888E+02  0.28520557738E+02  0.51100000000E-03 0.  1.
         12    1    3    3    0    0  0.13476043525E+01 -0.16093989706E+02 -0.88031941617E+01  0.18393715492E+02  0.00000000000E+00 0. -1.
</event>
<event>
 7    1  0.1857734E-013  0.7246162E+02  0.7816164E-02  0.1226708E+00
        -11   -1    0    0    0    0  0.00000000000E+00  0.00000000000E+00  0.45593999997E+02  0.45594000000E+02  0.51100000000E-03 0. -1.
         11   -1    0    0    0    0 -0.00000000000E+00 -0.00000000000E+00 -0.45593999997E+02  0.45594000000E+02  0.51100000000E-03 0.  1.
    9900012    2    1    2    0    0 -0.93444405776E+01  0.15288087263E+02 -0.54436216688E+01  0.72461622915E+02  0.70000068548E+02 0.  0.
        -12    1    1    2    0    0  0.93444405776E+01 -0.15288087263E+02  0.54436216688E+01  0.18726377085E+02  0.00000000000E+00 0.  1.
         11    1    3    3    0    0  0.11272346012E+02 -0.28432520153E+01  0.97349777305E+01  0.15163101870E+02  0.51100000000E-03 0. -1.
        -11    1    3    3    0    0 -0.29058682215E+02 -0.94341798226E+00  0.35185239233E+01  0.29286124025E+02  0.51100000000E-03 0.  1.
        -12    1    3    3    0    0  0.84418956248E+01  0.19074757260E+02 -0.18697123323E+02  0.28012397020E+02  0.00000000000E+00 0.  1.
</event>
<event>
 7    1  0.1857734E-013  0.7246164E+02  0.7816164E-02  0.1226708E+00
        -11   -1    0    0    0    0  0.00000000000E+00  0.00000000000E+00  0.45593999997E+02  0.45594000000E+02  0.51100000000E-03 0.  1.
         11   -1    0    0    0    0 -0.00000000000E+00 -0.00000000000E+00 -0.45593999997E+02  0.45594000000E+02  0.51100000000E-03 0. -1.
    9900012    2    1    2    0    0  0.11615367119E+02  0.14030757115E+02 -0.43471473796E+01  0.72461639199E+02  0.70000089761E+02 0.  0.
        -12    1    1    2    0    0 -0.11615367119E+02 -0.14030757115E+02  0.43471473796E+01  0.18726360801E+02  0.00000000000E+00 0.  1.
         11    1    3    3    0    0  0.49810602287E+01  0.17291232221E+02  0.52373885964E-01  0.17994455147E+02  0.51100000000E-03 0. -1.
        -11    1    3    3    0    0 -0.97805683720E+01 -0.12703529390E+02  0.18677464537E+02  0.24614769112E+02  0.51100000000E-03 0.  1.
        -12    1    3    3    0    0  0.16414875262E+02  0.94430542834E+01 -0.23076985802E+02  0.29852414941E+02  0.00000000000E+00 0.  1.
</event>
<event>
 7    1  0.1857734E-013  0.7246155E+02  0.7816164E-02  0.1226708E+00
        -11   -1    0    0    0    0  0.00000000000E+00  0.00000000000E+00  0.45593999997E+02  0.45594000000E+02  0.51100000000E-03 0.  1.
         11   -1    0    0    0    0 -0.00000000000E+00 -0.00000000000E+00 -0.45593999997E+02  0.45594000000E+02  0.51100000000E-03 0. -1.
    9900012    2    1    2    0    0  0.12674894165E+02  0.13402105526E+02 -0.32265243967E+01  0.72461552545E+02  0.69999976878E+02 0.  0.
        -12    1    1    2    0    0 -0.12674894165E+02 -0.13402105526E+02  0.32265243967E+01  0.18726447455E+02  0.00000000000E+00 0.  1.
         11    1    3    3    0    0 -0.23101065155E+02  0.79497460787E+01 -0.17921376560E+02  0.30299066192E+02  0.51100000000E-03 0. -1.
        -11    1    3    3    0    0  0.31533783708E+02  0.10187112757E+02  0.12854483666E+02  0.35544261588E+02  0.51100000000E-03 0.  1.
         12    1    3    3    0    0  0.42421756118E+01 -0.47347533101E+01  0.18403684970E+01  0.66182247645E+01  0.00000000000E+00 0. -1.
</event>
<event>
 7    1  0.1857734E-013  0.7246157E+02  0.7816164E-02  0.1226708E+00
        -11   -1    0    0    0    0  0.00000000000E+00  0.00000000000E+00  0.45593999997E+02  0.45594000000E+02  0.51100000000E-03 0.  1.
         11   -1    0    0    0    0 -0.00000000000E+00 -0.00000000000E+00 -0.45593999997E+02  0.45594000000E+02  0.51100000000E-03 0. -1.
    9900012    2    1    2    0    0  0.33971990931E-01  0.15977053538E+02  0.97679033011E+01  0.72461566043E+02  0.69999994462E+02 0.  0.
        -12    1    1    2    0    0 -0.33971990931E-01 -0.15977053538E+02 -0.97679033011E+01  0.18726433957E+02  0.00000000000E+00 0.  1.
         11    1    3    3    0    0  0.26871392005E+02  0.72746414863E+01  0.17738863617E+02  0.33009989393E+02  0.51100000000E-03 0.  1.
        -11    1    3    3    0    0 -0.16178458552E+02 -0.47113802464E+01 -0.13345616867E+02  0.21495234699E+02  0.51100000000E-03 0. -1.
         12    1    3    3    0    0 -0.10658961462E+02  0.13413792298E+02  0.53746565504E+01  0.17956341952E+02  0.00000000000E+00 0. -1.
</event>
<event>
 7    1  0.1857734E-013  0.7246161E+02  0.7816164E-02  0.1226708E+00
        -11   -1    0    0    0    0  0.00000000000E+00  0.00000000000E+00  0.45593999997E+02  0.45594000000E+02  0.51100000000E-03 0.  1.
         11   -1    0    0    0    0 -0.00000000000E+00 -0.00000000000E+00 -0.45593999997E+02  0.45594000000E+02  0.51100000000E-03 0. -1.
    9900012    2    1    2    0    0  0.33234527789E-01  0.15670263954E+02 -0.10252767653E+02  0.72461614298E+02  0.70000057323E+02 0.  0.
        -12    1    1    2    0    0 -0.33234527789E-01 -0.15670263954E+02  0.10252767653E+02  0.18726385702E+02  0.00000000000E+00 0.  1.
         11    1    3    3    0    0  0.23325228341E+01  0.58848591666E+01  0.97200074148E+01  0.11599602346E+02  0.51100000000E-03 0.  1.
        -11    1    3    3    0    0  0.67793849934E+01 -0.43701750656E+01 -0.36442023510E+02  0.37323981148E+02  0.51100000000E-03 0. -1.
        -12    1    3    3    0    0 -0.90786732997E+01  0.14155579853E+02  0.16469248443E+02  0.23538030804E+02  0.00000000000E+00 0.  1.
</event>
<event>
 7    1  0.1857734E-013  0.7246155E+02  0.7816164E-02  0.1226708E+00
        -11   -1    0    0    0    0  0.00000000000E+00  0.00000000000E+00  0.45593999997E+02  0.45594000000E+02  0.51100000000E-03 0.  1.
         11   -1    0    0    0    0 -0.00000000000E+00 -0.00000000000E+00 -0.45593999997E+02  0.45594000000E+02  0.51100000000E-03 0. -1.
    9900012    2    1    2    0    0  0.46819846968E+01  0.91648514666E+01 -0.15644952217E+02  0.72461547774E+02  0.69999970662E+02 0.  0.
        -12    1    1    2    0    0 -0.46819846968E+01 -0.91648514666E+01  0.15644952217E+02  0.18726452226E+02  0.00000000000E+00 0.  1.
         11    1    3    3    0    0  0.14812275049E+02 -0.25369145859E+02 -0.12602331597E+02  0.31965853902E+02  0.51100000000E-03 0.  1.
        -11    1    3    3    0    0 -0.10874012331E+02  0.22106767335E+02  0.56948716552E+01  0.25286060776E+02  0.51100000000E-03 0. -1.
         12    1    3    3    0    0  0.74372197844E+00  0.12427229991E+02 -0.87374922754E+01  0.15209633095E+02  0.00000000000E+00 0. -1.
</event>
<event>
 7    1  0.1857734E-013  0.7246159E+02  0.7816164E-02  0.1226708E+00
        -11   -1    0    0    0    0  0.00000000000E+00  0.00000000000E+00  0.45593999997E+02  0.45594000000E+02  0.51100000000E-03 0. -1.
         11   -1    0    0    0    0 -0.00000000000E+00 -0.00000000000E+00 -0.45593999997E+02  0.45594000000E+02  0.51100000000E-03 0.  1.
    9900012    2    1    2    0    0 -0.10652928247E+02 -0.15214502542E+02 -0.23900994091E+01  0.72461587022E+02  0.70000021791E+02 0.  0.
        -12    1    1    2    0    0  0.10652928247E+02  0.15214502542E+02  0.23900994091E+01  0.18726412978E+02  0.00000000000E+00 0.  1.
         11    1    3    3    0    0 -0.69537384851E+01 -0.98800390947E+01  0.29992085175E+02  0.32334112402E+02  0.51100000000E-03 0. -1.
        -11    1    3    3    0    0  0.54529187328E+01 -0.10157767905E+02 -0.24647038108E+02  0.27210127880E+02  0.51100000000E-03 0.  1.
         12    1    3    3    0    0 -0.91521084945E+01  0.48233044574E+01 -0.77351464759E+01  0.12917346740E+02  0.00000000000E+00 0. -1.
</event>
<event>
 7    1  0.1857734E-013  0.7246160E+02  0.7816164E-02  0.1226708E+00
        -11   -1    0    0    0    0  0.00000000000E+00  0.00000000000E+00  0.45593999997E+02  0.45594000000E+02  0.51100000000E-03 0.  1.
         11   -1    0    0    0    0 -0.00000000000E+00 -0.00000000000E+00 -0.45593999997E+02  0.45594000000E+02  0.51100000000E-03 0. -1.
    9900012    2    1    2    0    0  0.33564302467E+01  0.81947659190E+01 -0.16500250766E+02  0.72461599176E+02  0.70000037624E+02 0.  0.
        -12    1    1    2    0    0 -0.33564302467E+01 -0.81947659190E+01  0.16500250766E+02  0.18726400824E+02  0.00000000000E+00 0.  1.
         11    1    3    3    0    0 -0.19932416805E+02  0.30429802832E+01  0.10310924388E+02  0.22646768658E+02  0.51100000000E-03 0. -1.
        -11    1    3    3    0    0  0.19119511753E+02 -0.12913612281E+02 -0.18128668398E+02  0.29342217536E+02  0.51100000000E-03 0.  1.
        -12    1    3    3    0    0  0.41693352984E+01  0.18065397917E+02 -0.86825067562E+01  0.20472612982E+02  0.00000000000E+00 0.  1.
</event>
<event>
 7    1  0.1857734E-013  0.7246157E+02  0.7816164E-02  0.1226708E+00
        -11   -1    0    0    0    0  0.00000000000E+00  0.00000000000E+00  0.45593999997E+02  0.45594000000E+02  0.51100000000E-03 0. -1.
         11   -1    0    0    0    0 -0.00000000000E+00 -0.00000000000E+00 -0.45593999997E+02  0.45594000000E+02  0.51100000000E-03 0.  1.
    9900012    2    1    2    0    0 -0.14464929999E+02  0.10870253961E+02  0.48252173626E+01  0.72461565645E+02  0.69999993943E+02 0.  0.
        -12    1    1    2    0    0  0.14464929999E+02 -0.10870253961E+02 -0.48252173626E+01  0.18726434355E+02  0.00000000000E+00 0.  1.
         11    1    3    3    0    0 -0.13282393969E+02  0.18854376582E+02  0.63875708120E+01  0.23931372025E+02  0.51100000000E-03 0. -1.
        -11    1    3    3    0    0  0.86770604590E+01 -0.25985516300E+02  0.28269968273E+01  0.27541429646E+02  0.51100000000E-03 0.  1.
        -12    1    3    3    0    0 -0.98595964893E+01  0.18001393679E+02 -0.43893502767E+01  0.20988763975E+02  0.00000000000E+00 0.  1.
</event>
<event>
 7    1  0.1857734E-013  0.7246158E+02  0.7816164E-02  0.1226708E+00
        -11   -1    0    0    0    0  0.00000000000E+00  0.00000000000E+00  0.45593999997E+02  0.45594000000E+02  0.51100000000E-03 0.  1.
         11   -1    0    0    0    0 -0.00000000000E+00 -0.00000000000E+00 -0.45593999997E+02  0.45594000000E+02  0.51100000000E-03 0. -1.
    9900012    2    1    2    0    0  0.46508922615E+01  0.14034312003E+02 -0.11492866047E+02  0.72461583306E+02  0.70000016950E+02 0.  0.
        -12    1    1    2    0    0 -0.46508922615E+01 -0.14034312003E+02  0.11492866047E+02  0.18726416694E+02  0.00000000000E+00 0.  1.
         11    1    3    3    0    0  0.20140873576E+02  0.11955170123E+02 -0.98208857341E+01  0.25397454163E+02  0.51100000000E-03 0. -1.
        -11    1    3    3    0    0 -0.16421917658E+02  0.16470883285E+02  0.12871123494E+02  0.26582610783E+02  0.51100000000E-03 0.  1.
         12    1    3    3    0    0  0.93193634331E+00 -0.14391741405E+02 -0.14543103807E+02  0.20481518361E+02  0.00000000000E+00 0. -1.
</event>
<event>
 7    1  0.1857734E-013  0.7246156E+02  0.7816164E-02  0.1226708E+00
        -11   -1    0    0    0    0  0.00000000000E+00  0.00000000000E+00  0.45593999997E+02  0.45594000000E+02  0.51100000000E-03 0. -1.
         11   -1    0    0    0    0 -0.00000000000E+00 -0.00000000000E+00 -0.45593999997E+02  0.45594000000E+02  0.51100000000E-03 0.  1.
    9900012    2    1    2    0    0 -0.40683817122E+01  0.84405373797E+01  0.16213727801E+02  0.72461564936E+02  0.69999993020E+02 0.  0.
        -12    1    1    2    0    0  0.40683817122E+01 -0.84405373797E+01 -0.16213727801E+02  0.18726435064E+02  0.00000000000E+00 0.  1.
         11    1    3    3    0    0 -0.12779332627E+02  0.28961838943E+02  0.18875790355E+02  0.36856409471E+02  0.51100000000E-03 0.  1.
        -11    1    3    3    0    0 -0.95462863243E+01 -0.42060841342E+01 -0.37777903382E+01  0.11094792762E+02  0.51100000000E-03 0. -1.
         12    1    3    3    0    0  0.18257237239E+02 -0.16315217429E+02  0.11157277841E+01  0.24510362703E+02  0.00000000000E+00 0. -1.
</event>
<event>
 7    1  0.1857734E-013  0.7246158E+02  0.7816164E-02  0.1226708E+00
        -11   -1    0    0    0    0  0.00000000000E+00  0.00000000000E+00  0.45593999997E+02  0.45594000000E+02  0.51100000000E-03 0. -1.
         11   -1    0    0    0    0 -0.00000000000E+00 -0.00000000000E+00 -0.45593999997E+02  0.45594000000E+02  0.51100000000E-03 0.  1.
    9900012    2    1    2    0    0 -0.15668606556E+02  0.71617668200E+01 -0.73404780857E+01  0.72461581391E+02  0.70000014456E+02 0.  0.
        -12    1    1    2    0    0  0.15668606556E+02 -0.71617668200E+01  0.73404780857E+01  0.18726418609E+02  0.00000000000E+00 0.  1.
         11    1    3    3    0    0 -0.73527676823E+01 -0.25760200602E+02 -0.71578010693E+01  0.27728780067E+02  0.51100000000E-03 0. -1.
        -11    1    3    3    0    0 -0.17615908116E+02  0.10645586606E+02 -0.55384967431E+00  0.20590179277E+02  0.51100000000E-03 0.  1.
         12    1    3    3    0    0  0.93000692428E+01  0.22276380815E+02  0.37117265798E+00  0.24142622047E+02  0.00000000000E+00 0. -1.
</event>
<event>
 7    1  0.1857734E-013  0.7246155E+02  0.7816164E-02  0.1226708E+00
        -11   -1    0    0    0    0  0.00000000000E+00  0.00000000000E+00  0.45593999997E+02  0.45594000000E+02  0.51100000000E-03 0.  1.
         11   -1    0    0    0    0 -0.00000000000E+00 -0.00000000000E+00 -0.45593999997E+02  0.45594000000E+02  0.51100000000E-03 0. -1.
    9900012    2    1    2    0    0  0.17131390238E+02  0.58102370962E+01 -0.48411312282E+01  0.72461549771E+02  0.69999973265E+02 0.  0.
        -12    1    1    2    0    0 -0.17131390238E+02 -0.58102370962E+01  0.48411312282E+01  0.18726450229E+02  0.00000000000E+00 0.  1.
         11    1    3    3    0    0  0.19077007538E+02 -0.60008579710E+00 -0.21893490924E+02  0.29045090199E+02  0.51100000000E-03 0. -1.
        -11    1    3    3    0    0  0.99982217165E+00  0.77250642018E+01  0.29524086942E+02  0.30534373603E+02  0.51100000000E-03 0.  1.
         12    1    3    3    0    0 -0.29454394722E+01 -0.13147413085E+01 -0.12471727247E+02  0.12882085969E+02  0.00000000000E+00 0. -1.
</event>
<event>
 7    1  0.1857734E-013  0.7246152E+02  0.7816164E-02  0.1226708E+00
        -11   -1    0    0    0    0  0.00000000000E+00  0.00000000000E+00  0.45593999997E+02  0.45594000000E+02  0.51100000000E-03 0.  1.
         11   -1    0    0    0    0 -0.00000000000E+00 -0.00000000000E+00 -0.45593999997E+02  0.45594000000E+02  0.51100000000E-03 0. -1.
    9900012    2    1    2    0    0 -0.61198154038E+01 -0.12617251273E+02 -0.12411045290E+02  0.72461515668E+02  0.69999928839E+02 0.  0.
        -12    1    1    2    0    0  0.61198154038E+01  0.12617251273E+02  0.12411045290E+02  0.18726484332E+02  0.00000000000E+00 0.  1.
         11    1    3    3    0    0 -0.83031279202E+01 -0.30007688418E+02 -0.79384004054E+00  0.31145360485E+02  0.51100000000E-03 0. -1.
        -11    1    3    3    0    0  0.52000173778E+01  0.17889281972E+02  0.88477780188E+01  0.20624009463E+02  0.51100000000E-03 0.  1.
         12    1    3    3    0    0 -0.30167048613E+01 -0.49884482622E+00 -0.20464983268E+02  0.20692145721E+02  0.00000000000E+00 0. -1.
</event>
<event>
 7    1  0.1857734E-013  0.7246170E+02  0.7816164E-02  0.1226708E+00
        -11   -1    0    0    0    0  0.00000000000E+00  0.00000000000E+00  0.45593999997E+02  0.45594000000E+02  0.51100000000E-03 0. -1.
         11   -1    0    0    0    0 -0.00000000000E+00 -0.00000000000E+00 -0.45593999997E+02  0.45594000000E+02  0.51100000000E-03 0.  1.
    9900012    2    1    2    0    0 -0.33387733691E+01  0.66523323481E+01  0.17183522720E+02  0.72461698007E+02  0.70000166369E+02 0.  0.
        -12    1    1    2    0    0  0.33387733691E+01 -0.66523323481E+01 -0.17183522720E+02  0.18726301993E+02  0.00000000000E+00 0.  1.
         11    1    3    3    0    0 -0.24615275899E+02  0.67439105892E+01  0.15717298076E+02  0.29973748459E+02  0.51100000000E-03 0. -1.
        -11    1    3    3    0    0  0.20163276500E+02 -0.68836949721E+01 -0.14044689863E+02  0.25518547946E+02  0.51100000000E-03 0.  1.
        -12    1    3    3    0    0  0.11132260302E+01  0.67921167311E+01  0.15510914507E+02  0.16969401602E+02  0.00000000000E+00 0.  1.
</event>
<event>
 7    1  0.1857734E-013  0.7246157E+02  0.7816164E-02  0.1226708E+00
        -11   -1    0    0    0    0  0.00000000000E+00  0.00000000000E+00  0.45593999997E+02  0.45594000000E+02  0.51100000000E-03 0. -1.
         11   -1    0    0    0    0 -0.00000000000E+00 -0.00000000000E+00 -0.45593999997E+02  0.45594000000E+02  0.51100000000E-03 0.  1.
    9900012    2    1    2    0    0 -0.15962149571E+02  0.97849206919E+01 -0.37975217892E+00  0.72461572055E+02  0.70000002293E+02 0.  0.
        -12    1    1    2    0    0  0.15962149571E+02 -0.97849206919E+01  0.37975217892E+00  0.18726427945E+02  0.00000000000E+00 0.  1.
         11    1    3    3    0    0  0.20911359327E+02  0.16185977283E+02 -0.20292716459E+01  0.26521477206E+02  0.51100000000E-03 0. -1.
        -11    1    3    3    0    0 -0.11788288248E+02 -0.14122977895E+02 -0.45933310821E+01  0.18961037291E+02  0.51100000000E-03 0.  1.
         12    1    3    3    0    0 -0.25085220651E+02  0.77219213039E+01  0.62428505491E+01  0.26979057558E+02  0.00000000000E+00 0. -1.
</event>
<event>
 7    1  0.1857734E-013  0.7246161E+02  0.7816164E-02  0.1226708E+00
        -11   -1    0    0    0    0  0.00000000000E+00  0.00000000000E+00  0.45593999997E+02  0.45594000000E+02  0.51100000000E-03 0. -1.
         11   -1    0    0    0    0 -0.00000000000E+00 -0.00000000000E+00 -0.45593999997E+02  0.45594000000E+02  0.51100000000E-03 0.  1.
    9900012    2    1    2    0    0 -0.86876975004E+01  0.15949924681E+02  0.45608473783E+01  0.72461614497E+02  0.70000057583E+02 0.  0.
        -12    1    1    2    0    0  0.86876975004E+01 -0.15949924681E+02 -0.45608473783E+01  0.18726385503E+02  0.00000000000E+00 0.  1.
         11    1    3    3    0    0 -0.25699445998E+02  0.88290021883E+01 -0.82687554850E+01  0.28403963135E+02  0.51100000000E-03 0. -1.
        -11    1    3    3    0    0  0.17142522567E+02  0.11771386171E+02 -0.83235401162E+01  0.22398949365E+02  0.51100000000E-03 0.  1.
        -12    1    3    3    0    0 -0.13077406899E+00 -0.46504636786E+01  0.21153142979E+02  0.21658701997E+02  0.00000000000E+00 0.  1.
</event>
<event>
 7    1  0.1857734E-013  0.7246154E+02  0.7816164E-02  0.1226708E+00
        -11   -1    0    0    0    0  0.00000000000E+00  0.00000000000E+00  0.45593999997E+02  0.45594000000E+02  0.51100000000E-03 0. -1.
         11   -1    0    0    0    0 -0.00000000000E+00 -0.00000000000E+00 -0.45593999997E+02  0.45594000000E+02  0.51100000000E-03 0.  1.
    9900012    2    1    2    0    0  0.18270721581E+01  0.13524031146E+02  0.12823514117E+02  0.72461544772E+02  0.69999966752E+02 0.  0.
        -12    1    1    2    0    0 -0.18270721581E+01 -0.13524031146E+02 -0.12823514117E+02  0.18726455228E+02  0.00000000000E+00 0.  1.
         11    1    3    3    0    0 -0.14640596402E+02  0.12102644455E+02  0.54672131667E+01  0.19766423194E+02  0.51100000000E-03 0. -1.
        -11    1    3    3    0    0  0.17227502182E+02 -0.22187665614E+02  0.48506429934E+00  0.28094743716E+02  0.51100000000E-03 0.  1.
        -12    1    3    3    0    0 -0.75983362162E+00  0.23609052305E+02  0.68712366509E+01  0.24600377862E+02  0.00000000000E+00 0.  1.
</event>
<event>
 7    1  0.1857734E-013  0.7246149E+02  0.7816164E-02  0.1226708E+00
        -11   -1    0    0    0    0  0.00000000000E+00  0.00000000000E+00  0.45593999997E+02  0.45594000000E+02  0.51100000000E-03 0.  1.
         11   -1    0    0    0    0 -0.00000000000E+00 -0.00000000000E+00 -0.45593999997E+02  0.45594000000E+02  0.51100000000E-03 0. -1.
    9900012    2    1    2    0    0  0.42682799771E+01 -0.18200785605E+02  0.10933219595E+01  0.72461490354E+02  0.69999895863E+02 0.  0.
        -12    1    1    2    0    0 -0.42682799771E+01  0.18200785605E+02 -0.10933219595E+01  0.18726509646E+02  0.00000000000E+00 0.  1.
         11    1    3    3    0    0  0.28748769362E+01 -0.46815744920E+01 -0.55758729794E+01  0.78276699513E+01  0.51100000000E-03 0. -1.
        -11    1    3    3    0    0 -0.22468696078E+02 -0.11376619510E+02  0.24215257911E+02  0.34937780280E+02  0.51100000000E-03 0.  1.
        -12    1    3    3    0    0  0.23862099119E+02 -0.21425916030E+01 -0.17546062973E+02  0.29696040123E+02  0.00000000000E+00 0.  1.
</event>
<event>
 7    1  0.1857734E-013  0.7246155E+02  0.7816164E-02  0.1226708E+00
        -11   -1    0    0    0    0  0.00000000000E+00  0.00000000000E+00  0.45593999997E+02  0.45594000000E+02  0.51100000000E-03 0. -1.
         11   -1    0    0    0    0 -0.00000000000E+00 -0.00000000000E+00 -0.45593999997E+02  0.45594000000E+02  0.51100000000E-03 0.  1.
    9900012    2    1    2    0    0  0.32657381984E+01  0.15806908134E+02  0.94950844636E+01  0.72461547594E+02  0.69999970429E+02 0.  0.
        -12    1    1    2    0    0 -0.32657381984E+01 -0.15806908134E+02 -0.94950844636E+01  0.18726452406E+02  0.00000000000E+00 0.  1.
         11    1    3    3    0    0 -0.12977920812E+01  0.32781341198E+02  0.32857848410E+01  0.32971153716E+02  0.51100000000E-03 0. -1.
        -11    1    3    3    0    0  0.16340678939E+02  0.10032138579E-01  0.89665412743E+01  0.18639118850E+02  0.51100000000E-03 0.  1.
         12    1    3    3    0    0 -0.11777148659E+02 -0.16984465203E+02 -0.27572416517E+01  0.20851275028E+02  0.00000000000E+00 0. -1.
</event>
<event>
 7    1  0.1857734E-013  0.7246166E+02  0.7816164E-02  0.1226708E+00
        -11   -1    0    0    0    0  0.00000000000E+00  0.00000000000E+00  0.45593999997E+02  0.45594000000E+02  0.51100000000E-03 0.  1.
         11   -1    0    0    0    0 -0.00000000000E+00 -0.00000000000E+00 -0.45593999997E+02  0.45594000000E+02  0.51100000000E-03 0. -1.
    9900012    2    1    2    0    0 -0.11723858597E+02  0.79607899226E+01  0.12241433753E+02  0.72461661946E+02  0.70000119393E+02 0.  0.
        -12    1    1    2    0    0  0.11723858597E+02 -0.79607899226E+01 -0.12241433753E+02  0.18726338054E+02  0.00000000000E+00 0.  1.
         11    1    3    3    0    0  0.16890443635E+01 -0.38137725406E+01 -0.20503029564E+02  0.20923000583E+02  0.51100000000E-03 0. -1.
        -11    1    3    3    0    0 -0.13453917081E+02  0.22082478190E+02  0.12282558733E+02  0.28626997347E+02  0.51100000000E-03 0.  1.
        -12    1    3    3    0    0  0.41014120544E-01 -0.10307915726E+02  0.20461904584E+02  0.22911664016E+02  0.00000000000E+00 0.  1.
</event>
<event>
 7    1  0.1857734E-013  0.7246160E+02  0.7816164E-02  0.1226708E+00
        -11   -1    0    0    0    0  0.00000000000E+00  0.00000000000E+00  0.45593999997E+02  0.45594000000E+02  0.51100000000E-03 0.  1.
         11   -1    0    0    0    0 -0.00000000000E+00 -0.00000000000E+00 -0.45593999997E+02  0.45594000000E+02  0.51100000000E-03 0. -1.
    9900012    2    1    2    0    0 -0.73443452406E-01 -0.18592872494E+02  0.22310783732E+01  0.72461601195E+02  0.70000040253E+02 0.  0.
        -12    1    1    2    0    0  0.73443452406E-01  0.18592872494E+02 -0.22310783732E+01  0.18726398805E+02  0.00000000000E+00 0.  1.
         11    1    3    3    0    0  0.12788472481E+02  0.16272680266E+02  0.72680873106E+01  0.21935593105E+02  0.51100000000E-03 0. -1.
        -11    1    3    3    0    0 -0.22819584684E+02 -0.22217362903E+02 -0.10486959679E+02  0.33530895948E+02  0.51100000000E-03 0.  1.
         12    1    3    3    0    0  0.99576687512E+01 -0.12648189857E+02  0.54499507415E+01  0.16995112142E+02  0.00000000000E+00 0. -1.
</event>
<event>
 7    1  0.1857734E-013  0.7246159E+02  0.7816164E-02  0.1226708E+00
        -11   -1    0    0    0    0  0.00000000000E+00  0.00000000000E+00  0.45593999997E+02  0.45594000000E+02  0.51100000000E-03 0. -1.
         11   -1    0    0    0    0 -0.00000000000E+00 -0.00000000000E+00 -0.45593999997E+02  0.45594000000E+02  0.51100000000E-03 0.  1.
    9900012    2    1    2    0    0 -0.46201852082E+01 -0.16241450538E+02 -0.80961492152E+01  0.72461589264E+02  0.70000024712E+02 0.  0.
        -12    1    1    2    0    0  0.46201852082E+01  0.16241450538E+02  0.80961492152E+01  0.18726410736E+02  0.00000000000E+00 0.  1.
         11    1    3    3    0    0  0.83491951687E+01 -0.17382480629E+02 -0.37752938184E+01  0.19649746473E+02  0.51100000000E-03 0. -1.
        -11    1    3    3    0    0  0.98980181334E+01  0.20290266031E+02  0.59228031022E+00  0.22583543894E+02  0.51100000000E-03 0.  1.
        -12    1    3    3    0    0 -0.22867398510E+02 -0.19149235940E+02 -0.49131357071E+01  0.30228298897E+02  0.00000000000E+00 0.  1.
</event>
<event>
 7    1  0.1857734E-013  0.7246150E+02  0.7816164E-02  0.1226708E+00
        -11   -1    0    0    0    0  0.00000000000E+00  0.00000000000E+00  0.45593999997E+02  0.45594000000E+02  0.51100000000E-03 0.  1.
         11   -1    0    0    0    0 -0.00000000000E+00 -0.00000000000E+00 -0.45593999997E+02  0.45594000000E+02  0.51100000000E-03 0. -1.
    9900012    2    1    2    0    0  0.12830714689E+02  0.13384361470E+01 -0.13574360775E+02  0.72461496824E+02  0.69999904291E+02 0.  0.
        -12    1    1    2    0    0 -0.12830714689E+02 -0.13384361470E+01  0.13574360775E+02  0.18726503176E+02  0.00000000000E+00 0.  1.
         11    1    3    3    0    0  0.11138949543E+01 -0.97038410520E+01 -0.15201576214E+01  0.98851490928E+01  0.51100000000E-03 0. -1.
        -11    1    3    3    0    0  0.45648969251E+01  0.28510907822E+02 -0.26199191418E+02  0.38988559604E+02  0.51100000000E-03 0.  1.
        -12    1    3    3    0    0  0.71519228098E+01 -0.17468630623E+02  0.14144988265E+02  0.23587788127E+02  0.00000000000E+00 0.  1.
</event>
<event>
 7    1  0.1857734E-013  0.7246161E+02  0.7816164E-02  0.1226708E+00
        -11   -1    0    0    0    0  0.00000000000E+00  0.00000000000E+00  0.45593999997E+02  0.45594000000E+02  0.51100000000E-03 0.  1.
         11   -1    0    0    0    0 -0.00000000000E+00 -0.00000000000E+00 -0.45593999997E+02  0.45594000000E+02  0.51100000000E-03 0. -1.
    9900012    2    1    2    0    0 -0.12518286262E+02  0.12910551806E+02  0.52237806526E+01  0.72461608912E+02  0.70000050306E+02 0.  0.
        -12    1    1    2    0    0  0.12518286262E+02 -0.12910551806E+02 -0.52237806526E+01  0.18726391088E+02  0.00000000000E+00 0.  1.
         11    1    3    3    0    0 -0.25947968004E+02  0.60796404943E+01  0.22411977667E+02  0.34821772145E+02  0.51100000000E-03 0.  1.
        -11    1    3    3    0    0  0.19083537578E+02  0.23756433705E+01 -0.21816201249E+02  0.29082154754E+02  0.51100000000E-03 0. -1.
         12    1    3    3    0    0 -0.56538558360E+01  0.44552679411E+01  0.46280042348E+01  0.85576820132E+01  0.00000000000E+00 0. -1.
</event>
<event>
 7    1  0.1857734E-013  0.7246156E+02  0.7816164E-02  0.1226708E+00
        -11   -1    0    0    0    0  0.00000000000E+00  0.00000000000E+00  0.45593999997E+02  0.45594000000E+02  0.51100000000E-03 0. -1.
         11   -1    0    0    0    0 -0.00000000000E+00 -0.00000000000E+00 -0.45593999997E+02  0.45594000000E+02  0.51100000000E-03 0.  1.
    9900012    2    1    2    0    0  0.14604877791E+02 -0.67538141042E+01  0.95793079496E+01  0.72461558773E+02  0.69999984991E+02 0.  0.
        -12    1    1    2    0    0 -0.14604877791E+02  0.67538141042E+01 -0.95793079496E+01  0.18726441227E+02  0.00000000000E+00 0.  1.
         11    1    3    3    0    0  0.79560661731E+01 -0.16487886492E+02 -0.10808865832E+02  0.21259844091E+02  0.51100000000E-03 0. -1.
        -11    1    3    3    0    0 -0.64315837954E+01  0.25526256029E+02  0.13395827691E+02  0.29536472653E+02  0.51100000000E-03 0.  1.
         12    1    3    3    0    0  0.13080395413E+02 -0.15792183642E+02  0.69923460912E+01  0.21665242030E+02  0.00000000000E+00 0. -1.
</event>
<event>
 7    1  0.1857734E-013  0.7246154E+02  0.7816164E-02  0.1226708E+00
        -11   -1    0    0    0    0  0.00000000000E+00  0.00000000000E+00  0.45593999997E+02  0.45594000000E+02  0.51100000000E-03 0. -1.
         11   -1    0    0    0    0 -0.00000000000E+00 -0.00000000000E+00 -0.45593999997E+02  0.45594000000E+02  0.51100000000E-03 0.  1.
    9900012    2    1    2    0    0  0.12904412293E+02 -0.86990200186E+01  0.10415535074E+02  0.72461543400E+02  0.69999964965E+02 0.  0.
        -12    1    1    2    0    0 -0.12904412293E+02  0.86990200186E+01 -0.10415535074E+02  0.18726456600E+02  0.00000000000E+00 0.  1.
         11    1    3    3    0    0 -0.35167757330E+01  0.10717416891E+02 -0.53233087013E+01  0.12472704284E+02  0.51100000000E-03 0. -1.
        -11    1    3    3    0    0  0.33762066672E+02 -0.33143515791E+01  0.12253816813E+02  0.36069628486E+02  0.51100000000E-03 0.  1.
        -12    1    3    3    0    0 -0.17340878646E+02 -0.16102085331E+02  0.34850269627E+01  0.23919210629E+02  0.00000000000E+00 0.  1.
</event>
<event>
 7    1  0.1857734E-013  0.7246159E+02  0.7816164E-02  0.1226708E+00
        -11   -1    0    0    0    0  0.00000000000E+00  0.00000000000E+00  0.45593999997E+02  0.45594000000E+02  0.51100000000E-03 0. -1.
         11   -1    0    0    0    0 -0.00000000000E+00 -0.00000000000E+00 -0.45593999997E+02  0.45594000000E+02  0.51100000000E-03 0.  1.
    9900012    2    1    2    0    0 -0.15640359727E+02  0.85704278607E+01 -0.57101028086E+01  0.72461591904E+02  0.70000028151E+02 0.  0.
        -12    1    1    2    0    0  0.15640359727E+02 -0.85704278607E+01  0.57101028086E+01  0.18726408096E+02  0.00000000000E+00 0.  1.
         11    1    3    3    0    0  0.19188016669E+02  0.17495451914E+02  0.18782618661E+01  0.26034567199E+02  0.51100000000E-03 0. -1.
        -11    1    3    3    0    0 -0.16248059984E+02 -0.18483559808E+02 -0.14646319264E+01  0.24653328038E+02  0.51100000000E-03 0.  1.
         12    1    3    3    0    0 -0.18580316412E+02  0.95585357551E+01 -0.61237327483E+01  0.21773696666E+02  0.00000000000E+00 0. -1.
</event>
<event>
 7    1  0.1857734E-013  0.7246153E+02  0.7816164E-02  0.1226708E+00
        -11   -1    0    0    0    0  0.00000000000E+00  0.00000000000E+00  0.45593999997E+02  0.45594000000E+02  0.51100000000E-03 0.  1.
         11   -1    0    0    0    0 -0.00000000000E+00 -0.00000000000E+00 -0.45593999997E+02  0.45594000000E+02  0.51100000000E-03 0. -1.
    9900012    2    1    2    0    0 -0.62957819322E+01 -0.77267758619E+01 -0.15853730985E+02  0.72461528856E+02  0.69999946019E+02 0.  0.
        -12    1    1    2    0    0  0.62957819322E+01  0.77267758619E+01  0.15853730985E+02  0.18726471144E+02  0.00000000000E+00 0.  1.
         11    1    3    3    0    0  0.19994752508E+02  0.83350303518E+00 -0.22738003358E+02  0.30290289733E+02  0.51100000000E-03 0. -1.
        -11    1    3    3    0    0 -0.44584780482E+01 -0.60032846595E+00  0.16440679958E+02  0.17045069038E+02  0.51100000000E-03 0.  1.
         12    1    3    3    0    0 -0.21832056392E+02 -0.79599504312E+01 -0.95564075854E+01  0.25126170085E+02  0.00000000000E+00 0. -1.
</event>
<event>
 7    1  0.1857734E-013  0.7246156E+02  0.7816164E-02  0.1226708E+00
        -11   -1    0    0    0    0  0.00000000000E+00  0.00000000000E+00  0.45593999997E+02  0.45594000000E+02  0.51100000000E-03 0.  1.
         11   -1    0    0    0    0 -0.00000000000E+00 -0.00000000000E+00 -0.45593999997E+02  0.45594000000E+02  0.51100000000E-03 0. -1.
    9900012    2    1    2    0    0 -0.23609944882E+01 -0.18497060569E+02  0.17216176774E+01  0.72461561148E+02  0.69999988085E+02 0.  0.
        -12    1    1    2    0    0  0.23609944882E+01  0.18497060569E+02 -0.17216176774E+01  0.18726438852E+02  0.00000000000E+00 0.  1.
         11    1    3    3    0    0  0.81322897203E+01 -0.31879980732E+01 -0.25712357593E+02  0.27155529843E+02  0.51100000000E-03 0. -1.
        -11    1    3    3    0    0  0.10902876168E+01  0.14949709771E+01  0.24636089904E+02  0.24705476950E+02  0.51100000000E-03 0.  1.
        -12    1    3    3    0    0 -0.11583571825E+02 -0.16804033473E+02  0.27978853657E+01  0.20600554354E+02  0.00000000000E+00 0.  1.
</event>
<event>
 7    1  0.1857734E-013  0.7246154E+02  0.7816164E-02  0.1226708E+00
        -11   -1    0    0    0    0  0.00000000000E+00  0.00000000000E+00  0.45593999997E+02  0.45594000000E+02  0.51100000000E-03 0.  1.
         11   -1    0    0    0    0 -0.00000000000E+00 -0.00000000000E+00 -0.45593999997E+02  0.45594000000E+02  0.51100000000E-03 0. -1.
    9900012    2    1    2    0    0 -0.40558121210E+01  0.14296299615E+02 -0.11395015712E+02  0.72461543375E+02  0.69999964933E+02 0.  0.
        -12    1    1    2    0    0  0.40558121210E+01 -0.14296299615E+02  0.11395015712E+02  0.18726456625E+02  0.00000000000E+00 0.  1.
         11    1    3    3    0    0  0.29193571769E+02 -0.58148581337E+00 -0.51070429368E+01  0.29642615374E+02  0.51100000000E-03 0. -1.
        -11    1    3    3    0    0 -0.77995571603E+01 -0.49638430188E+01 -0.50277846145E+01  0.10523851377E+02  0.51100000000E-03 0.  1.
         12    1    3    3    0    0 -0.25449826729E+02  0.19841628447E+02 -0.12601881608E+01  0.32295076625E+02  0.00000000000E+00 0. -1.
</event>
<event>
 7    1  0.1857734E-013  0.7246138E+02  0.7816164E-02  0.1226709E+00
        -11   -1    0    0    0    0  0.00000000000E+00  0.00000000000E+00  0.45593999997E+02  0.45594000000E+02  0.51100000000E-03 0. -1.
         11   -1    0    0    0    0 -0.00000000000E+00 -0.00000000000E+00 -0.45593999997E+02  0.45594000000E+02  0.51100000000E-03 0.  1.
    9900012    2    1    2    0    0 -0.33015427886E+01 -0.12864198809E+02  0.13202217199E+02  0.72461378982E+02  0.69999750779E+02 0.  0.
        -12    1    1    2    0    0  0.33015427886E+01  0.12864198809E+02 -0.13202217199E+02  0.18726621018E+02  0.00000000000E+00 0.  1.
         11    1    3    3    0    0 -0.56430028205E+00 -0.60079178960E+01 -0.10028425909E+01  0.61171239792E+01  0.51100000000E-03 0. -1.
        -11    1    3    3    0    0 -0.49840233022E+01  0.83230434933E+01  0.37341880726E+02  0.38581467023E+02  0.51100000000E-03 0.  1.
        -12    1    3    3    0    0  0.22467807956E+01 -0.15179324407E+02 -0.23136820935E+02  0.27762787979E+02  0.00000000000E+00 0.  1.
</event>
<event>
 7    1  0.1857734E-013  0.7246154E+02  0.7816164E-02  0.1226708E+00
        -11   -1    0    0    0    0  0.00000000000E+00  0.00000000000E+00  0.45593999997E+02  0.45594000000E+02  0.51100000000E-03 0.  1.
         11   -1    0    0    0    0 -0.00000000000E+00 -0.00000000000E+00 -0.45593999997E+02  0.45594000000E+02  0.51100000000E-03 0. -1.
    9900012    2    1    2    0    0  0.11808098298E+02 -0.92193190794E+01 -0.11236245598E+02  0.72461541583E+02  0.69999962598E+02 0.  0.
        -12    1    1    2    0    0 -0.11808098298E+02  0.92193190794E+01  0.11236245598E+02  0.18726458417E+02  0.00000000000E+00 0.  1.
         11    1    3    3    0    0  0.25626053596E+01 -0.13284284336E+02 -0.15702214104E+02  0.20726762520E+02  0.51100000000E-03 0. -1.
        -11    1    3    3    0    0 -0.75116422273E+01  0.22574208996E+02 -0.61975035261E+01  0.24585132315E+02  0.51100000000E-03 0.  1.
        -12    1    3    3    0    0  0.16757135165E+02 -0.18509243740E+02  0.10663472032E+02  0.27149646748E+02  0.00000000000E+00 0.  1.
</event>
<event>
 7    1  0.1857734E-013  0.7246159E+02  0.7816164E-02  0.1226708E+00
        -11   -1    0    0    0    0  0.00000000000E+00  0.00000000000E+00  0.45593999997E+02  0.45594000000E+02  0.51100000000E-03 0.  1.
         11   -1    0    0    0    0 -0.00000000000E+00 -0.00000000000E+00 -0.45593999997E+02  0.45594000000E+02  0.51100000000E-03 0. -1.
    9900012    2    1    2    0    0  0.17580000622E+02 -0.62510269998E+01  0.15957887798E+01  0.72461593450E+02  0.70000030165E+02 0.  0.
        -12    1    1    2    0    0 -0.17580000622E+02  0.62510269998E+01 -0.15957887798E+01  0.18726406550E+02  0.00000000000E+00 0.  1.
         11    1    3    3    0    0  0.25392867509E+02  0.44403004094E+01 -0.20073246706E+02  0.32671841418E+02  0.51100000000E-03 0. -1.
        -11    1    3    3    0    0 -0.45964242583E+01 -0.21263787539E+02  0.17706562103E+02  0.28049921894E+02  0.51100000000E-03 0.  1.
        -12    1    3    3    0    0 -0.32164426281E+01  0.10572460130E+02  0.39624733832E+01  0.11739830139E+02  0.00000000000E+00 0.  1.
</event>
<event>
 7    1  0.1857734E-013  0.7246153E+02  0.7816164E-02  0.1226708E+00
        -11   -1    0    0    0    0  0.00000000000E+00  0.00000000000E+00  0.45593999997E+02  0.45594000000E+02  0.51100000000E-03 0.  1.
         11   -1    0    0    0    0 -0.00000000000E+00 -0.00000000000E+00 -0.45593999997E+02  0.45594000000E+02  0.51100000000E-03 0. -1.
    9900012    2    1    2    0    0 -0.14461290165E+02 -0.11591912759E+02 -0.26794349758E+01  0.72461528724E+02  0.69999945847E+02 0.  0.
        -12    1    1    2    0    0  0.14461290165E+02  0.11591912759E+02  0.26794349758E+01  0.18726471276E+02  0.00000000000E+00 0.  1.
         11    1    3    3    0    0 -0.32812898611E+01  0.19103276374E+02 -0.48533000721E+01  0.19981405187E+02  0.51100000000E-03 0. -1.
        -11    1    3    3    0    0  0.11511238320E+02 -0.25888506057E+02  0.60301708930E+01  0.28966986636E+02  0.51100000000E-03 0.  1.
        -12    1    3    3    0    0 -0.22691238625E+02 -0.48066830765E+01 -0.38563057967E+01  0.23513136901E+02  0.00000000000E+00 0.  1.
</event>
<event>
 7    1  0.1857734E-013  0.7246156E+02  0.7816164E-02  0.1226708E+00
        -11   -1    0    0    0    0  0.00000000000E+00  0.00000000000E+00  0.45593999997E+02  0.45594000000E+02  0.51100000000E-03 0. -1.
         11   -1    0    0    0    0 -0.00000000000E+00 -0.00000000000E+00 -0.45593999997E+02  0.45594000000E+02  0.51100000000E-03 0.  1.
    9900012    2    1    2    0    0  0.13651670695E+01  0.51826005190E+00  0.18669419453E+02  0.72461561542E+02  0.69999988599E+02 0.  0.
        -12    1    1    2    0    0 -0.13651670695E+01 -0.51826005190E+00 -0.18669419453E+02  0.18726438458E+02  0.00000000000E+00 0.  1.
         11    1    3    3    0    0  0.10645098659E+02 -0.23369220492E+02  0.19644963519E+02  0.32332076701E+02  0.51100000000E-03 0. -1.
        -11    1    3    3    0    0 -0.13965969550E+02  0.57081152506E+01 -0.11164618189E+02  0.18769112519E+02  0.51100000000E-03 0.  1.
         12    1    3    3    0    0  0.46860379608E+01  0.18179365294E+02  0.10189074123E+02  0.21360372322E+02  0.00000000000E+00 0. -1.
</event>
<event>
 7    1  0.1857734E-013  0.7246156E+02  0.7816164E-02  0.1226708E+00
        -11   -1    0    0    0    0  0.00000000000E+00  0.00000000000E+00  0.45593999997E+02  0.45594000000E+02  0.51100000000E-03 0.  1.
         11   -1    0    0    0    0 -0.00000000000E+00 -0.00000000000E+00 -0.45593999997E+02  0.45594000000E+02  0.51100000000E-03 0. -1.
    9900012    2    1    2    0    0 -0.50411042612E+01 -0.15302155093E+02 -0.95452061975E+01  0.72461557625E+02  0.69999983496E+02 0.  0.
        -12    1    1    2    0    0  0.50411042612E+01  0.15302155093E+02  0.95452061975E+01  0.18726442375E+02  0.00000000000E+00 0.  1.
         11    1    3    3    0    0  0.87583467531E+01  0.21223129580E+02  0.11709373406E+01  0.22989148778E+02  0.51100000000E-03 0. -1.
        -11    1    3    3    0    0 -0.15600179279E+02 -0.37431456753E+02 -0.20814988291E+01  0.40605568409E+02  0.51100000000E-03 0.  1.
         12    1    3    3    0    0  0.18007282645E+01  0.90617207992E+00 -0.86346447090E+01  0.88668404391E+01  0.00000000000E+00 0. -1.
</event>
<event>
 7    1  0.1857734E-013  0.7246156E+02  0.7816164E-02  0.1226708E+00
        -11   -1    0    0    0    0  0.00000000000E+00  0.00000000000E+00  0.45593999997E+02  0.45594000000E+02  0.51100000000E-03 0. -1.
         11   -1    0    0    0    0 -0.00000000000E+00 -0.00000000000E+00 -0.45593999997E+02  0.45594000000E+02  0.51100000000E-03 0.  1.
    9900012    2    1    2    0    0 -0.12510133691E+02 -0.82906051759E-01  0.13934464806E+02  0.72461558058E+02  0.69999984060E+02 0.  0.
        -12    1    1    2    0    0  0.12510133691E+02  0.82906051759E-01 -0.13934464806E+02  0.18726441942E+02  0.00000000000E+00 0.  1.
         11    1    3    3    0    0  0.10869085875E+02 -0.12838529888E+02 -0.18964732904E+01  0.16928127145E+02  0.51100000000E-03 0. -1.
        -11    1    3    3    0    0 -0.14820482341E+02  0.30285088539E+02  0.10392027537E+02  0.35282113332E+02  0.51100000000E-03 0.  1.
         12    1    3    3    0    0 -0.85587372251E+01 -0.17529464703E+02  0.54389105602E+01  0.20251317580E+02  0.00000000000E+00 0. -1.
</event>
<event>
 7    1  0.1857734E-013  0.7246151E+02  0.7816164E-02  0.1226708E+00
        -11   -1    0    0    0    0  0.00000000000E+00  0.00000000000E+00  0.45593999997E+02  0.45594000000E+02  0.51100000000E-03 0.  1.
         11   -1    0    0    0    0 -0.00000000000E+00 -0.00000000000E+00 -0.45593999997E+02  0.45594000000E+02  0.51100000000E-03 0. -1.
    9900012    2    1    2    0    0  0.75527830336E+01 -0.16552999477E+02 -0.44311639680E+01  0.72461507073E+02  0.69999917642E+02 0.  0.
        -12    1    1    2    0    0 -0.75527830336E+01  0.16552999477E+02  0.44311639680E+01  0.18726492927E+02  0.00000000000E+00 0.  1.
         11    1    3    3    0    0 -0.49191483614E+01 -0.40297419035E+01  0.31222581987E+01  0.70841609899E+01  0.51100000000E-03 0. -1.
        -11    1    3    3    0    0  0.31742310744E+02 -0.18899784638E+02  0.10292509700E+02  0.38349861889E+02  0.51100000000E-03 0.  1.
        -12    1    3    3    0    0 -0.19270379349E+02  0.63765270642E+01 -0.17845931867E+02  0.27027484194E+02  0.00000000000E+00 0.  1.
</event>
<event>
 7    1  0.1857734E-013  0.7246159E+02  0.7816164E-02  0.1226708E+00
        -11   -1    0    0    0    0  0.00000000000E+00  0.00000000000E+00  0.45593999997E+02  0.45594000000E+02  0.51100000000E-03 0.  1.
         11   -1    0    0    0    0 -0.00000000000E+00 -0.00000000000E+00 -0.45593999997E+02  0.45594000000E+02  0.51100000000E-03 0. -1.
    9900012    2    1    2    0    0  0.69816302974E+01 -0.16712813707E+02  0.47557384589E+01  0.72461592125E+02  0.70000028439E+02 0.  0.
        -12    1    1    2    0    0 -0.69816302974E+01  0.16712813707E+02 -0.47557384589E+01  0.18726407875E+02  0.00000000000E+00 0.  1.
         11    1    3    3    0    0  0.18680217563E+02 -0.35276951542E+01 -0.24195699046E+02  0.30770554332E+02  0.51100000000E-03 0. -1.
        -11    1    3    3    0    0 -0.64456856808E+01  0.27162598992E+00  0.26203938087E+02  0.26986422811E+02  0.51100000000E-03 0.  1.
        -12    1    3    3    0    0 -0.52529015845E+01 -0.13456744542E+02  0.27474994175E+01  0.14704614983E+02  0.00000000000E+00 0.  1.
</event>
<event>
 7    1  0.1857734E-013  0.7246158E+02  0.7816164E-02  0.1226708E+00
        -11   -1    0    0    0    0  0.00000000000E+00  0.00000000000E+00  0.45593999997E+02  0.45594000000E+02  0.51100000000E-03 0. -1.
         11   -1    0    0    0    0 -0.00000000000E+00 -0.00000000000E+00 -0.45593999997E+02  0.45594000000E+02  0.51100000000E-03 0.  1.
    9900012    2    1    2    0    0 -0.81325106681E+01 -0.17471393963E+01  0.16777616973E+02  0.72461583975E+02  0.70000017822E+02 0.  0.
        -12    1    1    2    0    0  0.81325106681E+01  0.17471393963E+01 -0.16777616973E+02  0.18726416025E+02  0.00000000000E+00 0.  1.
         11    1    3    3    0    0 -0.65640615161E+01 -0.32227597018E+02  0.94458915286E+01  0.34218851240E+02  0.51100000000E-03 0. -1.
        -11    1    3    3    0    0 -0.11249461166E+02  0.19793538096E+02  0.70010208367E+01  0.23819085203E+02  0.51100000000E-03 0.  1.
         12    1    3    3    0    0  0.96810120145E+01  0.10686919526E+02  0.33070460795E+00  0.14423647531E+02  0.00000000000E+00 0. -1.
</event>
<event>
 7    1  0.1857734E-013  0.7246160E+02  0.7816164E-02  0.1226708E+00
        -11   -1    0    0    0    0  0.00000000000E+00  0.00000000000E+00  0.45593999997E+02  0.45594000000E+02  0.51100000000E-03 0.  1.
         11   -1    0    0    0    0 -0.00000000000E+00 -0.00000000000E+00 -0.45593999997E+02  0.45594000000E+02  0.51100000000E-03 0. -1.
    9900012    2    1    2    0    0 -0.12205717532E+02 -0.13900855994E+02  0.29094361570E+01  0.72461597340E+02  0.70000035232E+02 0.  0.
        -12    1    1    2    0    0  0.12205717532E+02  0.13900855994E+02 -0.29094361570E+01  0.18726402660E+02  0.00000000000E+00 0.  1.
         11    1    3    3    0    0 -0.13140043892E+01 -0.28202154270E+02 -0.18380917858E+02  0.33688963393E+02  0.51100000000E-03 0. -1.
        -11    1    3    3    0    0 -0.68431461353E+01 -0.47277341111E+01  0.16889042479E+02  0.18826042467E+02  0.51100000000E-03 0.  1.
         12    1    3    3    0    0 -0.40485670080E+01  0.19029032387E+02  0.44013115355E+01  0.19946591479E+02  0.00000000000E+00 0. -1.
</event>
<event>
 7    1  0.1857734E-013  0.7246152E+02  0.7816164E-02  0.1226708E+00
        -11   -1    0    0    0    0  0.00000000000E+00  0.00000000000E+00  0.45593999997E+02  0.45594000000E+02  0.51100000000E-03 0.  1.
         11   -1    0    0    0    0 -0.00000000000E+00 -0.00000000000E+00 -0.45593999997E+02  0.45594000000E+02  0.51100000000E-03 0. -1.
    9900012    2    1    2    0    0 -0.68496141107E+01 -0.19242042710E+01 -0.17322277645E+02  0.72461519328E+02  0.69999933607E+02 0.  0.
        -12    1    1    2    0    0  0.68496141107E+01  0.19242042710E+01  0.17322277645E+02  0.18726480672E+02  0.00000000000E+00 0.  1.
         11    1    3    3    0    0 -0.23428256952E+02  0.11871413036E+02  0.10906907675E+02  0.28438957551E+02  0.51100000000E-03 0.  1.
        -11    1    3    3    0    0  0.14020294410E+01 -0.17710910040E+02 -0.18090832521E+02  0.25355871954E+02  0.51100000000E-03 0. -1.
        -12    1    3    3    0    0  0.15176613401E+02  0.39152927332E+01 -0.10138352799E+02  0.18666689824E+02  0.00000000000E+00 0.  1.
</event>
<event>
 7    1  0.1857734E-013  0.7246143E+02  0.7816164E-02  0.1226708E+00
        -11   -1    0    0    0    0  0.00000000000E+00  0.00000000000E+00  0.45593999997E+02  0.45594000000E+02  0.51100000000E-03 0. -1.
         11   -1    0    0    0    0 -0.00000000000E+00 -0.00000000000E+00 -0.45593999997E+02  0.45594000000E+02  0.51100000000E-03 0.  1.
    9900012    2    1    2    0    0 -0.58875373959E+01 -0.14752478314E+02  0.99189637235E+01  0.72461426519E+02  0.69999812706E+02 0.  0.
        -12    1    1    2    0    0  0.58875373959E+01  0.14752478314E+02 -0.99189637235E+01  0.18726573481E+02  0.00000000000E+00 0.  1.
         11    1    3    3    0    0  0.19461696946E+02 -0.13839720624E+02  0.67302380197E+01  0.24811118859E+02  0.51100000000E-03 0. -1.
        -11    1    3    3    0    0 -0.24984753918E+02 -0.95227195530E+01  0.16772752298E+02  0.31563354320E+02  0.51100000000E-03 0.  1.
        -12    1    3    3    0    0 -0.36448042361E+00  0.86099618631E+01 -0.13584026594E+02  0.16086953340E+02  0.00000000000E+00 0.  1.
</event>
<event>
 7    1  0.1857734E-013  0.7246157E+02  0.7816164E-02  0.1226708E+00
        -11   -1    0    0    0    0  0.00000000000E+00  0.00000000000E+00  0.45593999997E+02  0.45594000000E+02  0.51100000000E-03 0.  1.
         11   -1    0    0    0    0 -0.00000000000E+00 -0.00000000000E+00 -0.45593999997E+02  0.45594000000E+02  0.51100000000E-03 0. -1.
    9900012    2    1    2    0    0 -0.24917249941E+01  0.11490179268E+02 -0.14575539738E+02  0.72461567566E+02  0.69999996446E+02 0.  0.
        -12    1    1    2    0    0  0.24917249941E+01 -0.11490179268E+02  0.14575539738E+02  0.18726432434E+02  0.00000000000E+00 0.  1.
         11    1    3    3    0    0 -0.20905920540E+02  0.11430313070E+02  0.19382753262E+02  0.30714828581E+02  0.51100000000E-03 0. -1.
        -11    1    3    3    0    0  0.45553898682E+01 -0.71482986869E+01 -0.14475603320E+02  0.16774768037E+02  0.51100000000E-03 0.  1.
         12    1    3    3    0    0  0.13858805678E+02  0.72081648853E+01 -0.19482689680E+02  0.24971970947E+02  0.00000000000E+00 0. -1.
</event>
<event>
 7    1  0.1857734E-013  0.7246148E+02  0.7816164E-02  0.1226708E+00
        -11   -1    0    0    0    0  0.00000000000E+00  0.00000000000E+00  0.45593999997E+02  0.45594000000E+02  0.51100000000E-03 0.  1.
         11   -1    0    0    0    0 -0.00000000000E+00 -0.00000000000E+00 -0.45593999997E+02  0.45594000000E+02  0.51100000000E-03 0. -1.
    9900012    2    1    2    0    0 -0.58073498386E+01 -0.17558669941E+02 -0.29411271487E+01  0.72461483209E+02  0.69999886555E+02 0.  0.
        -12    1    1    2    0    0  0.58073498386E+01  0.17558669941E+02  0.29411271487E+01  0.18726516791E+02  0.00000000000E+00 0.  1.
         11    1    3    3    0    0 -0.66462808263E+01  0.11783434286E+02 -0.28074595767E+02  0.31164166925E+02  0.51100000000E-03 0. -1.
        -11    1    3    3    0    0 -0.56555592579E+01 -0.88613698854E+01  0.12651521160E+02  0.16449018655E+02  0.51100000000E-03 0.  1.
         12    1    3    3    0    0  0.64944902457E+01 -0.20480734342E+02  0.12481947458E+02  0.24848297629E+02  0.00000000000E+00 0. -1.
</event>
<event>
 7    1  0.1857734E-013  0.7246153E+02  0.7816164E-02  0.1226708E+00
        -11   -1    0    0    0    0  0.00000000000E+00  0.00000000000E+00  0.45593999997E+02  0.45594000000E+02  0.51100000000E-03 0. -1.
         11   -1    0    0    0    0 -0.00000000000E+00 -0.00000000000E+00 -0.45593999997E+02  0.45594000000E+02  0.51100000000E-03 0.  1.
    9900012    2    1    2    0    0 -0.71082354908E+01 -0.71575670482E+01  0.15777285597E+02  0.72461534272E+02  0.69999953075E+02 0.  0.
        -12    1    1    2    0    0  0.71082354908E+01  0.71575670482E+01 -0.15777285597E+02  0.18726465728E+02  0.00000000000E+00 0.  1.
         11    1    3    3    0    0 -0.24338715386E+00 -0.24268646643E+02  0.14856696361E+02  0.28456069199E+02  0.51100000000E-03 0. -1.
        -11    1    3    3    0    0 -0.10653588144E+02  0.54260801422E+01 -0.17903147658E+02  0.21528213636E+02  0.51100000000E-03 0.  1.
        -12    1    3    3    0    0  0.37887398065E+01  0.11684999453E+02  0.18823736894E+02  0.22477251438E+02  0.00000000000E+00 0.  1.
</event>
<event>
 7    1  0.1857734E-013  0.7246152E+02  0.7816164E-02  0.1226708E+00
        -11   -1    0    0    0    0  0.00000000000E+00  0.00000000000E+00  0.45593999997E+02  0.45594000000E+02  0.51100000000E-03 0.  1.
         11   -1    0    0    0    0 -0.00000000000E+00 -0.00000000000E+00 -0.45593999997E+02  0.45594000000E+02  0.51100000000E-03 0. -1.
    9900012    2    1    2    0    0  0.10142921092E+02 -0.15157717415E+02 -0.42480320927E+01  0.72461520828E+02  0.69999935562E+02 0.  0.
        -12    1    1    2    0    0 -0.10142921092E+02  0.15157717415E+02  0.42480320927E+01  0.18726479172E+02  0.00000000000E+00 0.  1.
         11    1    3    3    0    0 -0.10433879661E+02 -0.87483089548E+01 -0.12075410902E+02  0.18199294027E+02  0.51100000000E-03 0. -1.
        -11    1    3    3    0    0  0.35383934445E+02  0.34375342200E+01  0.81671333480E+01  0.36476588734E+02  0.51100000000E-03 0.  1.
        -12    1    3    3    0    0 -0.14807133692E+02 -0.98469426801E+01 -0.33975453828E+00  0.17785638068E+02  0.00000000000E+00 0.  1.
</event>
<event>
 7    1  0.1857734E-013  0.7246160E+02  0.7816164E-02  0.1226708E+00
        -11   -1    0    0    0    0  0.00000000000E+00  0.00000000000E+00  0.45593999997E+02  0.45594000000E+02  0.51100000000E-03 0.  1.
         11   -1    0    0    0    0 -0.00000000000E+00 -0.00000000000E+00 -0.45593999997E+02  0.45594000000E+02  0.51100000000E-03 0. -1.
    9900012    2    1    2    0    0 -0.14407575338E+02 -0.11853357085E+02  0.16117606784E+01  0.72461599551E+02  0.70000038112E+02 0.  0.
        -12    1    1    2    0    0  0.14407575338E+02  0.11853357085E+02 -0.16117606784E+01  0.18726400449E+02  0.00000000000E+00 0.  1.
         11    1    3    3    0    0 -0.40560153379E+01 -0.21407537670E+02 -0.31130708617E+01  0.22009660151E+02  0.51100000000E-03 0. -1.
        -11    1    3    3    0    0 -0.12770255356E+02  0.16605803158E+02 -0.17319727598E+02  0.27180969164E+02  0.51100000000E-03 0.  1.
        -12    1    3    3    0    0  0.24186953556E+01 -0.70516225727E+01  0.22044559138E+02  0.23270970236E+02  0.00000000000E+00 0.  1.
</event>
<event>
 7    1  0.1857734E-013  0.7246159E+02  0.7816164E-02  0.1226708E+00
        -11   -1    0    0    0    0  0.00000000000E+00  0.00000000000E+00  0.45593999997E+02  0.45594000000E+02  0.51100000000E-03 0.  1.
         11   -1    0    0    0    0 -0.00000000000E+00 -0.00000000000E+00 -0.45593999997E+02  0.45594000000E+02  0.51100000000E-03 0. -1.
    9900012    2    1    2    0    0  0.25055823385E+01  0.17343448369E+02 -0.66034233727E+01  0.72461592324E+02  0.70000028698E+02 0.  0.
        -12    1    1    2    0    0 -0.25055823385E+01 -0.17343448369E+02  0.66034233727E+01  0.18726407676E+02  0.00000000000E+00 0.  1.
         11    1    3    3    0    0  0.24632420566E+01 -0.63183793761E+01  0.13792891039E+02  0.15369883632E+02  0.51100000000E-03 0.  1.
        -11    1    3    3    0    0 -0.22416040375E+02  0.18710064572E+02 -0.17159353411E+02  0.33867222976E+02  0.51100000000E-03 0. -1.
        -12    1    3    3    0    0  0.22458380657E+02  0.49517631735E+01 -0.32369610009E+01  0.23224485716E+02  0.00000000000E+00 0.  1.
</event>
<event>
 7    1  0.1857734E-013  0.7246156E+02  0.7816164E-02  0.1226708E+00
        -11   -1    0    0    0    0  0.00000000000E+00  0.00000000000E+00  0.45593999997E+02  0.45594000000E+02  0.51100000000E-03 0. -1.
         11   -1    0    0    0    0 -0.00000000000E+00 -0.00000000000E+00 -0.45593999997E+02  0.45594000000E+02  0.51100000000E-03 0.  1.
    9900012    2    1    2    0    0 -0.29127062099E+01 -0.18413624842E+02 -0.17703743971E+01  0.72461557123E+02  0.69999982842E+02 0.  0.
        -12    1    1    2    0    0  0.29127062099E+01  0.18413624842E+02  0.17703743971E+01  0.18726442877E+02  0.00000000000E+00 0.  1.
         11    1    3    3    0    0 -0.30706830571E+02 -0.10526082209E+02 -0.32427227436E+01  0.32622432488E+02  0.51100000000E-03 0. -1.
        -11    1    3    3    0    0  0.20885606298E+02 -0.87464508274E+01 -0.11289884180E+02  0.25301589625E+02  0.51100000000E-03 0.  1.
        -12    1    3    3    0    0  0.69085180635E+01  0.85890819363E+00  0.12762232527E+02  0.14537535010E+02  0.00000000000E+00 0.  1.
</event>
<event>
 7    1  0.1857734E-013  0.7246173E+02  0.7816164E-02  0.1226708E+00
        -11   -1    0    0    0    0  0.00000000000E+00  0.00000000000E+00  0.45593999997E+02  0.45594000000E+02  0.51100000000E-03 0.  1.
         11   -1    0    0    0    0 -0.00000000000E+00 -0.00000000000E+00 -0.45593999997E+02  0.45594000000E+02  0.51100000000E-03 0. -1.
    9900012    2    1    2    0    0 -0.18139070397E+02 -0.22364007345E+01  0.40799176448E+01  0.72461732590E+02  0.70000211420E+02 0.  0.
        -12    1    1    2    0    0  0.18139070397E+02  0.22364007345E+01 -0.40799176448E+01  0.18726267410E+02  0.00000000000E+00 0.  1.
         11    1    3    3    0    0 -0.31773221413E+00 -0.28197102320E+02 -0.11822471542E+02  0.30576925396E+02  0.51100000000E-03 0. -1.
        -11    1    3    3    0    0 -0.20732101222E+02  0.20902392834E+02  0.19232438576E+02  0.35165561863E+02  0.51100000000E-03 0.  1.
         12    1    3    3    0    0  0.29107630393E+01  0.50583087512E+01 -0.33300493887E+01  0.67192453315E+01  0.00000000000E+00 0. -1.
</event>
<event>
 7    1  0.1857734E-013  0.7246155E+02  0.7816164E-02  0.1226708E+00
        -11   -1    0    0    0    0  0.00000000000E+00  0.00000000000E+00  0.45593999997E+02  0.45594000000E+02  0.51100000000E-03 0. -1.
         11   -1    0    0    0    0 -0.00000000000E+00 -0.00000000000E+00 -0.45593999997E+02  0.45594000000E+02  0.51100000000E-03 0.  1.
    9900012    2    1    2    0    0  0.26382606042E+01 -0.14104625642E+02  0.12032420219E+02  0.72461547590E+02  0.69999970424E+02 0.  0.
        -12    1    1    2    0    0 -0.26382606042E+01  0.14104625642E+02 -0.12032420219E+02  0.18726452410E+02  0.00000000000E+00 0.  1.
         11    1    3    3    0    0  0.90557555172E+01 -0.34856977680E+02  0.15981978214E+02  0.39401005430E+02  0.51100000000E-03 0. -1.
        -11    1    3    3    0    0  0.28981238284E+01  0.14023992012E+02  0.80650227591E+01  0.16435208123E+02  0.51100000000E-03 0.  1.
         12    1    3    3    0    0 -0.93156187414E+01  0.67283600256E+01 -0.12014580754E+02  0.16625334038E+02  0.00000000000E+00 0. -1.
</event>
<event>
 7    1  0.1857734E-013  0.7246165E+02  0.7816164E-02  0.1226708E+00
        -11   -1    0    0    0    0  0.00000000000E+00  0.00000000000E+00  0.45593999997E+02  0.45594000000E+02  0.51100000000E-03 0.  1.
         11   -1    0    0    0    0 -0.00000000000E+00 -0.00000000000E+00 -0.45593999997E+02  0.45594000000E+02  0.51100000000E-03 0. -1.
    9900012    2    1    2    0    0  0.11527169740E+02  0.16036673956E+01 -0.14670679837E+02  0.72461648562E+02  0.70000101958E+02 0.  0.
        -12    1    1    2    0    0 -0.11527169740E+02 -0.16036673956E+01  0.14670679837E+02  0.18726351438E+02  0.00000000000E+00 0.  1.
         11    1    3    3    0    0  0.99505050028E+01  0.10548963225E+02  0.18590057726E+02  0.23577180100E+02  0.51100000000E-03 0.  1.
        -11    1    3    3    0    0  0.81649900666E+00 -0.68939221238E+01 -0.40618958629E+02  0.41207919545E+02  0.51100000000E-03 0. -1.
         12    1    3    3    0    0  0.76016573003E+00 -0.20513737060E+01  0.73582210656E+01  0.76765489166E+01  0.00000000000E+00 0. -1.
</event>
<event>
 7    1  0.1857734E-013  0.7246194E+02  0.7816164E-02  0.1226707E+00
        -11   -1    0    0    0    0  0.00000000000E+00  0.00000000000E+00  0.45593999997E+02  0.45594000000E+02  0.51100000000E-03 0. -1.
         11   -1    0    0    0    0 -0.00000000000E+00 -0.00000000000E+00 -0.45593999997E+02  0.45594000000E+02  0.51100000000E-03 0.  1.
    9900012    2    1    2    0    0 -0.18490892639E+02 -0.61883735869E+00 -0.28929439638E+01  0.72461943420E+02  0.70000486064E+02 0.  0.
        -12    1    1    2    0    0  0.18490892639E+02  0.61883735869E+00  0.28929439638E+01  0.18726056580E+02  0.00000000000E+00 0.  1.
         11    1    3    3    0    0  0.53460671061E+01  0.12935763511E+02  0.73249195923E+01  0.15797748523E+02  0.51100000000E-03 0. -1.
        -11    1    3    3    0    0 -0.15878539259E+02 -0.27415769896E+02  0.77498864171E+01  0.32616149186E+02  0.51100000000E-03 0.  1.
         12    1    3    3    0    0 -0.79584204858E+01  0.13861169026E+02 -0.17967749973E+02  0.24048045711E+02  0.00000000000E+00 0. -1.
</event>
<event>
 7    1  0.2176418E-013  0.7246152E+02  0.7816164E-02  0.1226708E+00
        -11   -1    0    0    0    0  0.00000000000E+00  0.00000000000E+00  0.45593999997E+02  0.45594000000E+02  0.51100000000E-03 0. -1.
         11   -1    0    0    0    0 -0.00000000000E+00 -0.00000000000E+00 -0.45593999997E+02  0.45594000000E+02  0.51100000000E-03 0.  1.
    9900012    2    1    2    0    0  0.12367634358E+02 -0.58595777450E+01  0.12782336686E+02  0.72461517091E+02  0.69999930693E+02 0.  0.
        -12    1    1    2    0    0 -0.12367634358E+02  0.58595777450E+01 -0.12782336686E+02  0.18726482909E+02  0.00000000000E+00 0.  1.
         11    1    3    3    0    0 -0.70741595947E+01 -0.78833383521E+01  0.30396265338E+02  0.32188875474E+02  0.51100000000E-03 0. -1.
        -11    1    3    3    0    0 -0.40061393801E+01  0.88541882675E+01 -0.11576481579E+02  0.15114917421E+02  0.51100000000E-03 0.  1.
         12    1    3    3    0    0  0.23447933333E+02 -0.68304276603E+01 -0.60374470722E+01  0.25157724197E+02  0.00000000000E+00 0. -1.
</event>
<event>
 7    1  0.1857734E-013  0.7246159E+02  0.7816164E-02  0.1226708E+00
        -11   -1    0    0    0    0  0.00000000000E+00  0.00000000000E+00  0.45593999997E+02  0.45594000000E+02  0.51100000000E-03 0.  1.
         11   -1    0    0    0    0 -0.00000000000E+00 -0.00000000000E+00 -0.45593999997E+02  0.45594000000E+02  0.51100000000E-03 0. -1.
    9900012    2    1    2    0    0  0.30737907342E+01  0.14898255217E+02 -0.10921190667E+02  0.72461585405E+02  0.70000019685E+02 0.  0.
        -12    1    1    2    0    0 -0.30737907342E+01 -0.14898255217E+02  0.10921190667E+02  0.18726414595E+02  0.00000000000E+00 0.  1.
         11    1    3    3    0    0  0.34352923566E+02  0.17069619006E+02 -0.28526296298E+01  0.38465994679E+02  0.51100000000E-03 0. -1.
        -11    1    3    3    0    0 -0.24919777520E+02  0.22951696085E+00 -0.22043414499E+01  0.25018135645E+02  0.51100000000E-03 0.  1.
         12    1    3    3    0    0 -0.63593553121E+01 -0.24008807502E+01 -0.58642195874E+01  0.89774550810E+01  0.00000000000E+00 0. -1.
</event>
<event>
 7    1  0.1857734E-013  0.7246157E+02  0.7816164E-02  0.1226708E+00
        -11   -1    0    0    0    0  0.00000000000E+00  0.00000000000E+00  0.45593999997E+02  0.45594000000E+02  0.51100000000E-03 0. -1.
         11   -1    0    0    0    0 -0.00000000000E+00 -0.00000000000E+00 -0.45593999997E+02  0.45594000000E+02  0.51100000000E-03 0.  1.
    9900012    2    1    2    0    0  0.39161884076E+01  0.15956478465E+02  0.89851820567E+01  0.72461568593E+02  0.69999997784E+02 0.  0.
        -12    1    1    2    0    0 -0.39161884076E+01 -0.15956478465E+02 -0.89851820567E+01  0.18726431407E+02  0.00000000000E+00 0.  1.
         11    1    3    3    0    0  0.22615840087E+02  0.31756637663E+01 -0.10858002944E+02  0.25287492786E+02  0.51100000000E-03 0.  1.
        -11    1    3    3    0    0 -0.16253439562E+02  0.11094416428E+02 -0.64534818183E+01  0.20710089360E+02  0.51100000000E-03 0. -1.
         12    1    3    3    0    0 -0.24462121172E+01  0.16863982710E+01  0.26296666819E+02  0.26463986447E+02  0.00000000000E+00 0. -1.
</event>
<event>
 7    1  0.1857734E-013  0.7246158E+02  0.7816164E-02  0.1226708E+00
        -11   -1    0    0    0    0  0.00000000000E+00  0.00000000000E+00  0.45593999997E+02  0.45594000000E+02  0.51100000000E-03 0.  1.
         11   -1    0    0    0    0 -0.00000000000E+00 -0.00000000000E+00 -0.45593999997E+02  0.45594000000E+02  0.51100000000E-03 0. -1.
    9900012    2    1    2    0    0  0.73102254951E+01 -0.75707263838E+01 -0.15489461461E+02  0.72461582534E+02  0.70000015945E+02 0.  0.
        -12    1    1    2    0    0 -0.73102254951E+01  0.75707263838E+01  0.15489461461E+02  0.18726417466E+02  0.00000000000E+00 0.  1.
         11    1    3    3    0    0 -0.24906505270E+02  0.97485254822E+01  0.94628634047E+00  0.26763094214E+02  0.51100000000E-03 0.  1.
        -11    1    3    3    0    0  0.35310253057E+02 -0.17622320476E+02 -0.15891250841E+02  0.42542825522E+02  0.51100000000E-03 0. -1.
         12    1    3    3    0    0 -0.30935222920E+01  0.30306860985E+00 -0.54449696011E+00  0.31556627977E+01  0.00000000000E+00 0. -1.
</event>
<event>
 7    1  0.1857734E-013  0.7246160E+02  0.7816164E-02  0.1226708E+00
        -11   -1    0    0    0    0  0.00000000000E+00  0.00000000000E+00  0.45593999997E+02  0.45594000000E+02  0.51100000000E-03 0.  1.
         11   -1    0    0    0    0 -0.00000000000E+00 -0.00000000000E+00 -0.45593999997E+02  0.45594000000E+02  0.51100000000E-03 0. -1.
    9900012    2    1    2    0    0 -0.15022099422E+02 -0.78666882521E+01 -0.79454363037E+01  0.72461595829E+02  0.70000033264E+02 0.  0.
        -12    1    1    2    0    0  0.15022099422E+02  0.78666882521E+01  0.79454363037E+01  0.18726404171E+02  0.00000000000E+00 0.  1.
         11    1    3    3    0    0 -0.67368470517E+01 -0.14092282447E+02 -0.10814836805E+02  0.18998374355E+02  0.51100000000E-03 0. -1.
        -11    1    3    3    0    0  0.58170719681E+01  0.26205961431E+02  0.88891793696E+01  0.28277345189E+02  0.51100000000E-03 0.  1.
        -12    1    3    3    0    0 -0.14102324339E+02 -0.19980367236E+02 -0.60197788681E+01  0.25185876285E+02  0.00000000000E+00 0.  1.
</event>
<event>
 7    1  0.1857734E-013  0.7246155E+02  0.7816164E-02  0.1226708E+00
        -11   -1    0    0    0    0  0.00000000000E+00  0.00000000000E+00  0.45593999997E+02  0.45594000000E+02  0.51100000000E-03 0.  1.
         11   -1    0    0    0    0 -0.00000000000E+00 -0.00000000000E+00 -0.45593999997E+02  0.45594000000E+02  0.51100000000E-03 0. -1.
    9900012    2    1    2    0    0 -0.62891254519E+01  0.13547883201E+02 -0.11295200668E+02  0.72461553559E+02  0.69999978199E+02 0.  0.
        -12    1    1    2    0    0  0.62891254519E+01 -0.13547883201E+02  0.11295200668E+02  0.18726446441E+02  0.00000000000E+00 0.  1.
         11    1    3    3    0    0  0.11763475197E+02  0.26609808418E+02 -0.18106312498E+01  0.29150293970E+02  0.51100000000E-03 0. -1.
        -11    1    3    3    0    0 -0.84176674472E+01 -0.24046644147E+02  0.72254004926E+00  0.25487649644E+02  0.51100000000E-03 0.  1.
        -12    1    3    3    0    0 -0.96349332016E+01  0.10984718930E+02 -0.10207109467E+02  0.17823609944E+02  0.00000000000E+00 0.  1.
</event>
<event>
 7    1  0.1985286E-013  0.7246159E+02  0.7816164E-02  0.1226708E+00
        -11   -1    0    0    0    0  0.00000000000E+00  0.00000000000E+00  0.45593999997E+02  0.45594000000E+02  0.51100000000E-03 0. -1.
         11   -1    0    0    0    0 -0.00000000000E+00 -0.00000000000E+00 -0.45593999997E+02  0.45594000000E+02  0.51100000000E-03 0.  1.
    9900012    2    1    2    0    0 -0.14606591056E+02 -0.94993969529E+01  0.68620350143E+01  0.72461586321E+02  0.70000020878E+02 0.  0.
        -12    1    1    2    0    0  0.14606591056E+02  0.94993969529E+01 -0.68620350143E+01  0.18726413679E+02  0.00000000000E+00 0.  1.
         11    1    3    3    0    0 -0.19990845806E+02 -0.12589940894E+02  0.25205928338E+02  0.34546770491E+02  0.51100000000E-03 0. -1.
        -11    1    3    3    0    0 -0.12136268815E+02  0.69561302936E+01 -0.13240971231E+02  0.19261362590E+02  0.51100000000E-03 0.  1.
         12    1    3    3    0    0  0.17520523566E+02 -0.38655863527E+01 -0.51029220920E+01  0.18653453239E+02  0.00000000000E+00 0. -1.
</event>
<event>
 8    1  0.1857734E-013  0.7246154E+02  0.7816164E-02  0.1226708E+00
        -11   -1    0    0    0    0  0.00000000000E+00  0.00000000000E+00  0.45593999997E+02  0.45594000000E+02  0.51100000000E-03 0.  1.
         11   -1    0    0    0    0 -0.00000000000E+00 -0.00000000000E+00 -0.45593999997E+02  0.45594000000E+02  0.51100000000E-03 0. -1.
    9900012    2    1    2    0    0  0.28680165874E+00  0.85250085355E+01 -0.16670995872E+02  0.72461544674E+02  0.69999966625E+02 0.  0.
         24    2    3    3    0    0 -0.10964937875E+02  0.14583643002E+02 -0.23756219747E+02  0.57849594368E+02  0.49490454494E+02 0.  0.
        -12    1    1    2    0    0 -0.28680165874E+00 -0.85250085355E+01  0.16670995872E+02  0.18726455326E+02  0.00000000000E+00 0.  1.
         11    1    3    3    0    0  0.11251739534E+02 -0.60586344660E+01  0.70852238750E+01  0.14611950306E+02  0.51100000000E-03 0. -1.
        -11    1    4    4    0    0 -0.29200730584E+02  0.18169269387E+01 -0.19569544201E+02  0.35198735071E+02  0.51100000000E-03 0.  1.
         12    1    4    4    0    0  0.18235792708E+02  0.12766716063E+02 -0.41866755454E+01  0.22650859296E+02  0.00000000000E+00 0. -1.
</event>
<event>
 7    1  0.1857734E-013  0.7246161E+02  0.7816164E-02  0.1226708E+00
        -11   -1    0    0    0    0  0.00000000000E+00  0.00000000000E+00  0.45593999997E+02  0.45594000000E+02  0.51100000000E-03 0.  1.
         11   -1    0    0    0    0 -0.00000000000E+00 -0.00000000000E+00 -0.45593999997E+02  0.45594000000E+02  0.51100000000E-03 0. -1.
    9900012    2    1    2    0    0 -0.16789776540E+02  0.77224759951E+01 -0.30239684229E+01  0.72461611753E+02  0.70000054007E+02 0.  0.
        -12    1    1    2    0    0  0.16789776540E+02 -0.77224759951E+01  0.30239684229E+01  0.18726388247E+02  0.00000000000E+00 0.  1.
         11    1    3    3    0    0 -0.21095320015E+02 -0.65775829747E+01 -0.15197934629E+02  0.26818917606E+02  0.51100000000E-03 0. -1.
        -11    1    3    3    0    0 -0.33233691051E+01 -0.93122473825E+01  0.17650653673E+02  0.20231369426E+02  0.51100000000E-03 0.  1.
         12    1    3    3    0    0  0.76289125798E+01  0.23612306352E+02 -0.54766874663E+01  0.25411324720E+02  0.00000000000E+00 0. -1.
</event>
<event>
 7    1  0.1857734E-013  0.7246153E+02  0.7816164E-02  0.1226708E+00
        -11   -1    0    0    0    0  0.00000000000E+00  0.00000000000E+00  0.45593999997E+02  0.45594000000E+02  0.51100000000E-03 0.  1.
         11   -1    0    0    0    0 -0.00000000000E+00 -0.00000000000E+00 -0.45593999997E+02  0.45594000000E+02  0.51100000000E-03 0. -1.
    9900012    2    1    2    0    0  0.11463179310E+02 -0.10187310313E+02 -0.10746850540E+02  0.72461532959E+02  0.69999951364E+02 0.  0.
        -12    1    1    2    0    0 -0.11463179310E+02  0.10187310313E+02  0.10746850540E+02  0.18726467041E+02  0.00000000000E+00 0.  1.
         11    1    3    3    0    0  0.26934122828E+02 -0.16532265203E+02  0.15851997563E+02  0.35356026251E+02  0.51100000000E-03 0. -1.
        -11    1    3    3    0    0 -0.11570130389E+02  0.34872481594E+00 -0.23342007031E+01  0.11808387671E+02  0.51100000000E-03 0.  1.
         12    1    3    3    0    0 -0.39008131288E+01  0.59962300742E+01 -0.24264647399E+02  0.25297119037E+02  0.00000000000E+00 0. -1.
</event>
<event>
 7    1  0.1857734E-013  0.7246167E+02  0.7816164E-02  0.1226708E+00
        -11   -1    0    0    0    0  0.00000000000E+00  0.00000000000E+00  0.45593999997E+02  0.45594000000E+02  0.51100000000E-03 0.  1.
         11   -1    0    0    0    0 -0.00000000000E+00 -0.00000000000E+00 -0.45593999997E+02  0.45594000000E+02  0.51100000000E-03 0. -1.
    9900012    2    1    2    0    0 -0.15275767567E+02  0.48661681015E+01  0.96771275291E+01  0.72461669233E+02  0.70000128886E+02 0.  0.
        -12    1    1    2    0    0  0.15275767567E+02 -0.48661681015E+01 -0.96771275291E+01  0.18726330767E+02  0.00000000000E+00 0.  1.
         11    1    3    3    0    0 -0.36875272365E+02  0.12186740883E+02 -0.42519831483E+01  0.39068935566E+02  0.51100000000E-03 0. -1.
        -11    1    3    3    0    0  0.17858281636E+02 -0.33518749800E+01  0.18752709571E+02  0.26111633526E+02  0.51100000000E-03 0.  1.
        -12    1    3    3    0    0  0.37412231612E+01 -0.39686978019E+01 -0.48235988931E+01  0.72811001412E+01  0.00000000000E+00 0.  1.
</event>
<event>
 7    1  0.1857734E-013  0.7246156E+02  0.7816164E-02  0.1226708E+00
        -11   -1    0    0    0    0  0.00000000000E+00  0.00000000000E+00  0.45593999997E+02  0.45594000000E+02  0.51100000000E-03 0.  1.
         11   -1    0    0    0    0 -0.00000000000E+00 -0.00000000000E+00 -0.45593999997E+02  0.45594000000E+02  0.51100000000E-03 0. -1.
    9900012    2    1    2    0    0  0.13127025786E+02  0.45961895799E+01 -0.12539369669E+02  0.72461559967E+02  0.69999986546E+02 0.  0.
        -12    1    1    2    0    0 -0.13127025786E+02 -0.45961895799E+01  0.12539369669E+02  0.18726440033E+02  0.00000000000E+00 0.  1.
         11    1    3    3    0    0  0.18617486429E+02  0.17352083042E+02 -0.12916979521E+02  0.28540391501E+02  0.51100000000E-03 0. -1.
        -11    1    3    3    0    0 -0.22209901302E+02 -0.14466984437E+02 -0.33177616199E+01  0.26712935012E+02  0.51100000000E-03 0.  1.
         12    1    3    3    0    0  0.16719440658E+02  0.17110909746E+01  0.36953714724E+01  0.17208233453E+02  0.00000000000E+00 0. -1.
</event>
<event>
 7    1  0.1857734E-013  0.7246156E+02  0.7816164E-02  0.1226708E+00
        -11   -1    0    0    0    0  0.00000000000E+00  0.00000000000E+00  0.45593999997E+02  0.45594000000E+02  0.51100000000E-03 0.  1.
         11   -1    0    0    0    0 -0.00000000000E+00 -0.00000000000E+00 -0.45593999997E+02  0.45594000000E+02  0.51100000000E-03 0. -1.
    9900012    2    1    2    0    0  0.11854585042E+02 -0.82849334275E+01 -0.11895721966E+02  0.72461561217E+02  0.69999988175E+02 0.  0.
        -12    1    1    2    0    0 -0.11854585042E+02  0.82849334275E+01  0.11895721966E+02  0.18726438783E+02  0.00000000000E+00 0.  1.
         11    1    3    3    0    0 -0.11551406782E+02  0.11793423240E+02 -0.18123713015E+02  0.24515072997E+02  0.51100000000E-03 0.  1.
        -11    1    3    3    0    0  0.13453084520E+02 -0.27051029854E+02 -0.58948289818E+01  0.30781369500E+02  0.51100000000E-03 0. -1.
        -12    1    3    3    0    0  0.99529073040E+01  0.69726731874E+01  0.12122820031E+02  0.17165118720E+02  0.00000000000E+00 0.  1.
</event>
<event>
 7    1  0.1857734E-013  0.7246159E+02  0.7816164E-02  0.1226708E+00
        -11   -1    0    0    0    0  0.00000000000E+00  0.00000000000E+00  0.45593999997E+02  0.45594000000E+02  0.51100000000E-03 0.  1.
         11   -1    0    0    0    0 -0.00000000000E+00 -0.00000000000E+00 -0.45593999997E+02  0.45594000000E+02  0.51100000000E-03 0. -1.
    9900012    2    1    2    0    0  0.57367352066E-01 -0.10843286135E+02 -0.15267558781E+02  0.72461588268E+02  0.70000023414E+02 0.  0.
        -12    1    1    2    0    0 -0.57367352066E-01  0.10843286135E+02  0.15267558781E+02  0.18726411732E+02  0.00000000000E+00 0.  1.
         11    1    3    3    0    0 -0.92180452426E+01 -0.19003138500E+01 -0.53110494015E+01  0.10806979080E+02  0.51100000000E-03 0. -1.
        -11    1    3    3    0    0  0.30457873098E+02 -0.13475817239E+02 -0.18813136639E+02  0.38251977653E+02  0.51100000000E-03 0.  1.
        -12    1    3    3    0    0 -0.21182460504E+02  0.45328449535E+01  0.88566272596E+01  0.23402631535E+02  0.00000000000E+00 0.  1.
</event>
<event>
 7    1  0.1857734E-013  0.7246158E+02  0.7816164E-02  0.1226708E+00
        -11   -1    0    0    0    0  0.00000000000E+00  0.00000000000E+00  0.45593999997E+02  0.45594000000E+02  0.51100000000E-03 0.  1.
         11   -1    0    0    0    0 -0.00000000000E+00 -0.00000000000E+00 -0.45593999997E+02  0.45594000000E+02  0.51100000000E-03 0. -1.
    9900012    2    1    2    0    0 -0.39001355930E+01  0.14448172816E+02 -0.11256914184E+02  0.72461578230E+02  0.70000010337E+02 0.  0.
        -12    1    1    2    0    0  0.39001355930E+01 -0.14448172816E+02  0.11256914184E+02  0.18726421770E+02  0.00000000000E+00 0.  1.
         11    1    3    3    0    0 -0.15514229276E+02  0.17981005172E+02 -0.22672752413E+02  0.32833847768E+02  0.51100000000E-03 0. -1.
        -11    1    3    3    0    0  0.22382558485E+02 -0.61310012813E+01 -0.69157831062E+00  0.23217372415E+02  0.51100000000E-03 0.  1.
        -12    1    3    3    0    0 -0.10768464802E+02  0.25981689259E+01  0.12107416539E+02  0.16410358047E+02  0.00000000000E+00 0.  1.
</event>
<event>
 7    1  0.1857734E-013  0.7246157E+02  0.7816164E-02  0.1226708E+00
        -11   -1    0    0    0    0  0.00000000000E+00  0.00000000000E+00  0.45593999997E+02  0.45594000000E+02  0.51100000000E-03 0. -1.
         11   -1    0    0    0    0 -0.00000000000E+00 -0.00000000000E+00 -0.45593999997E+02  0.45594000000E+02  0.51100000000E-03 0.  1.
    9900012    2    1    2    0    0  0.16420853805E+02 -0.86124210094E+01 -0.26193138618E+01  0.72461573741E+02  0.70000004490E+02 0.  0.
        -12    1    1    2    0    0 -0.16420853805E+02  0.86124210094E+01  0.26193138618E+01  0.18726426259E+02  0.00000000000E+00 0.  1.
         11    1    3    3    0    0  0.12785691621E+02  0.23028649991E+02  0.72511309780E+01  0.27319801086E+02  0.51100000000E-03 0. -1.
        -11    1    3    3    0    0 -0.49420821763E+01 -0.25307138715E+02  0.55677278496E+01  0.26379443509E+02  0.51100000000E-03 0.  1.
        -12    1    3    3    0    0  0.85772443603E+01 -0.63339322858E+01 -0.15438172689E+02  0.18762329147E+02  0.00000000000E+00 0.  1.
</event>
<event>
 7    1  0.1857734E-013  0.7246163E+02  0.7816164E-02  0.1226708E+00
        -11   -1    0    0    0    0  0.00000000000E+00  0.00000000000E+00  0.45593999997E+02  0.45594000000E+02  0.51100000000E-03 0.  1.
         11   -1    0    0    0    0 -0.00000000000E+00 -0.00000000000E+00 -0.45593999997E+02  0.45594000000E+02  0.51100000000E-03 0. -1.
    9900012    2    1    2    0    0  0.11852241937E+02  0.10140769396E+02  0.10361767042E+02  0.72461626643E+02  0.70000073404E+02 0.  0.
        -12    1    1    2    0    0 -0.11852241937E+02 -0.10140769396E+02 -0.10361767042E+02  0.18726373357E+02  0.00000000000E+00 0.  1.
         11    1    3    3    0    0  0.21724515962E+02 -0.23376506662E+02 -0.43878293499E+01  0.32212865507E+02  0.51100000000E-03 0. -1.
        -11    1    3    3    0    0 -0.22187890608E+01  0.15669670971E+02  0.13478564716E+02  0.20787816632E+02  0.51100000000E-03 0.  1.
         12    1    3    3    0    0 -0.76534849640E+01  0.17847605088E+02  0.12710316753E+01  0.19460944504E+02  0.00000000000E+00 0. -1.
</event>
<event>
 8    1  0.1857734E-013  0.7246157E+02  0.7816164E-02  0.1226708E+00
        -11   -1    0    0    0    0  0.00000000000E+00  0.00000000000E+00  0.45593999997E+02  0.45594000000E+02  0.51100000000E-03 0. -1.
         11   -1    0    0    0    0 -0.00000000000E+00 -0.00000000000E+00 -0.45593999997E+02  0.45594000000E+02  0.51100000000E-03 0.  1.
    9900012    2    1    2    0    0 -0.68520916769E+01 -0.16186137208E+02  0.64604066577E+01  0.72461573426E+02  0.70000004079E+02 0.  0.
         24    2    3    3    0    0  0.75429137509E+01 -0.11516076957E+02 -0.56993948738E+01  0.53048010704E+02  0.50912599240E+02 0.  0.
        -12    1    1    2    0    0  0.68520916769E+01  0.16186137208E+02 -0.64604066577E+01  0.18726426574E+02  0.00000000000E+00 0.  1.
         11    1    3    3    0    0 -0.14395005428E+02 -0.46700602507E+01  0.12159801532E+02  0.19413562722E+02  0.51100000000E-03 0. -1.
        -11    1    4    4    0    0  0.69251857727E+01  0.46049472300E+01 -0.25896196278E+02  0.27198836720E+02  0.51100000000E-03 0.  1.
         12    1    4    4    0    0  0.61772797820E+00 -0.16121024187E+02  0.20196801404E+02  0.25849173984E+02  0.00000000000E+00 0. -1.
</event>
<event>
 7    1  0.1857734E-013  0.7246157E+02  0.7816164E-02  0.1226708E+00
        -11   -1    0    0    0    0  0.00000000000E+00  0.00000000000E+00  0.45593999997E+02  0.45594000000E+02  0.51100000000E-03 0.  1.
         11   -1    0    0    0    0 -0.00000000000E+00 -0.00000000000E+00 -0.45593999997E+02  0.45594000000E+02  0.51100000000E-03 0. -1.
    9900012    2    1    2    0    0  0.82437263007E+01  0.47622257885E+01 -0.16125793858E+02  0.72461573610E+02  0.70000004319E+02 0.  0.
        -12    1    1    2    0    0 -0.82437263007E+01 -0.47622257885E+01  0.16125793858E+02  0.18726426390E+02  0.00000000000E+00 0.  1.
         11    1    3    3    0    0  0.21099909035E+02  0.16025069589E+01 -0.22786705572E+02  0.31096754507E+02  0.51100000000E-03 0. -1.
        -11    1    3    3    0    0 -0.20534574329E+02 -0.38147995630E+01 -0.88675211544E+01  0.22690402602E+02  0.51100000000E-03 0.  1.
        -12    1    3    3    0    0  0.76783915949E+01  0.69745183926E+01  0.15528432868E+02  0.18674416500E+02  0.00000000000E+00 0.  1.
</event>
<event>
 7    1  0.1857734E-013  0.7246156E+02  0.7816164E-02  0.1226708E+00
        -11   -1    0    0    0    0  0.00000000000E+00  0.00000000000E+00  0.45593999997E+02  0.45594000000E+02  0.51100000000E-03 0.  1.
         11   -1    0    0    0    0 -0.00000000000E+00 -0.00000000000E+00 -0.45593999997E+02  0.45594000000E+02  0.51100000000E-03 0. -1.
    9900012    2    1    2    0    0  0.15175923591E+02 -0.72400216791E+01 -0.82433603377E+01  0.72461559857E+02  0.69999986404E+02 0.  0.
        -12    1    1    2    0    0 -0.15175923591E+02  0.72400216791E+01  0.82433603377E+01  0.18726440143E+02  0.00000000000E+00 0.  1.
         11    1    3    3    0    0  0.19659702088E+02 -0.21709081663E+02 -0.20747379441E+02  0.35892086408E+02  0.51100000000E-03 0. -1.
        -11    1    3    3    0    0 -0.48455545774E+01  0.17112162766E+02 -0.53069037789E+01  0.18559869118E+02  0.51100000000E-03 0.  1.
         12    1    3    3    0    0  0.36177608067E+00 -0.26431027829E+01  0.17810922882E+02  0.18009604331E+02  0.00000000000E+00 0. -1.
</event>
<event>
 7    1  0.1857734E-013  0.7246155E+02  0.7816164E-02  0.1226708E+00
        -11   -1    0    0    0    0  0.00000000000E+00  0.00000000000E+00  0.45593999997E+02  0.45594000000E+02  0.51100000000E-03 0.  1.
         11   -1    0    0    0    0 -0.00000000000E+00 -0.00000000000E+00 -0.45593999997E+02  0.45594000000E+02  0.51100000000E-03 0. -1.
    9900012    2    1    2    0    0  0.40870852682E+01  0.78141366198E+01  0.16520135723E+02  0.72461551287E+02  0.69999975240E+02 0.  0.
        -12    1    1    2    0    0 -0.40870852682E+01 -0.78141366198E+01 -0.16520135723E+02  0.18726448713E+02  0.00000000000E+00 0.  1.
         11    1    3    3    0    0  0.45938439174E+01 -0.67938056348E+01 -0.74754198292E+01  0.11096895909E+02  0.51100000000E-03 0. -1.
        -11    1    3    3    0    0 -0.22841378019E+02  0.22973029303E+02  0.16558224852E+02  0.36382185691E+02  0.51100000000E-03 0.  1.
        -12    1    3    3    0    0  0.22334619370E+02 -0.83650870480E+01  0.74373307004E+01  0.24982469687E+02  0.00000000000E+00 0.  1.
</event>
<event>
 7    1  0.1857734E-013  0.7246158E+02  0.7816164E-02  0.1226708E+00
        -11   -1    0    0    0    0  0.00000000000E+00  0.00000000000E+00  0.45593999997E+02  0.45594000000E+02  0.51100000000E-03 0.  1.
         11   -1    0    0    0    0 -0.00000000000E+00 -0.00000000000E+00 -0.45593999997E+02  0.45594000000E+02  0.51100000000E-03 0. -1.
    9900012    2    1    2    0    0  0.13696429507E+02 -0.12534052715E+02  0.24462449649E+01  0.72461580878E+02  0.70000013787E+02 0.  0.
        -12    1    1    2    0    0 -0.13696429507E+02  0.12534052715E+02 -0.24462449649E+01  0.18726419122E+02  0.00000000000E+00 0.  1.
         11    1    3    3    0    0 -0.67102302339E+01 -0.21282041136E+02 -0.20431057967E+02  0.30255257305E+02  0.51100000000E-03 0. -1.
        -11    1    3    3    0    0  0.14828044346E+01  0.14589018815E+02  0.14749161350E+02  0.20798460034E+02  0.51100000000E-03 0.  1.
         12    1    3    3    0    0  0.18923855306E+02 -0.58410303950E+01  0.81281415821E+01  0.21407863539E+02  0.00000000000E+00 0. -1.
</event>
<event>
 7    1  0.1857734E-013  0.7246157E+02  0.7816164E-02  0.1226708E+00
        -11   -1    0    0    0    0  0.00000000000E+00  0.00000000000E+00  0.45593999997E+02  0.45594000000E+02  0.51100000000E-03 0.  1.
         11   -1    0    0    0    0 -0.00000000000E+00 -0.00000000000E+00 -0.45593999997E+02  0.45594000000E+02  0.51100000000E-03 0. -1.
    9900012    2    1    2    0    0  0.11348415751E+02 -0.21248279296E+01 -0.14743738450E+02  0.72461567952E+02  0.69999996948E+02 0.  0.
        -12    1    1    2    0    0 -0.11348415751E+02  0.21248279296E+01  0.14743738450E+02  0.18726432048E+02  0.00000000000E+00 0.  1.
         11    1    3    3    0    0  0.19925069910E+02  0.57640440641E+01 -0.17543414436E+02  0.27166229131E+02  0.51100000000E-03 0. -1.
        -11    1    3    3    0    0 -0.55004538057E+01  0.13233276021E+02  0.14970602640E+02  0.20724225679E+02  0.51100000000E-03 0.  1.
        -12    1    3    3    0    0 -0.30762003538E+01 -0.21122148015E+02 -0.12170926654E+02  0.24571113141E+02  0.00000000000E+00 0.  1.
</event>
<event>
 7    1  0.1857734E-013  0.7246157E+02  0.7816164E-02  0.1226708E+00
        -11   -1    0    0    0    0  0.00000000000E+00  0.00000000000E+00  0.45593999997E+02  0.45594000000E+02  0.51100000000E-03 0.  1.
         11   -1    0    0    0    0 -0.00000000000E+00 -0.00000000000E+00 -0.45593999997E+02  0.45594000000E+02  0.51100000000E-03 0. -1.
    9900012    2    1    2    0    0  0.40706218863E+01 -0.13924328007E+02 -0.11841555644E+02  0.72461566462E+02  0.69999995007E+02 0.  0.
        -12    1    1    2    0    0 -0.40706218863E+01  0.13924328007E+02  0.11841555644E+02  0.18726433538E+02  0.00000000000E+00 0.  1.
         11    1    3    3    0    0 -0.14698157360E+01 -0.96471037352E+01 -0.40888175148E+01  0.10580425214E+02  0.51100000000E-03 0. -1.
        -11    1    3    3    0    0  0.20953899246E+02  0.17204821572E+02  0.11216336209E+02  0.29340722164E+02  0.51100000000E-03 0.  1.
        -12    1    3    3    0    0 -0.15413461623E+02 -0.21482045844E+02 -0.18969074338E+02  0.32540419083E+02  0.00000000000E+00 0.  1.
</event>
<event>
 7    1  0.1857734E-013  0.7246223E+02  0.7816164E-02  0.1226706E+00
        -11   -1    0    0    0    0  0.00000000000E+00  0.00000000000E+00  0.45593999997E+02  0.45594000000E+02  0.51100000000E-03 0. -1.
         11   -1    0    0    0    0 -0.00000000000E+00 -0.00000000000E+00 -0.45593999997E+02  0.45594000000E+02  0.51100000000E-03 0.  1.
    9900012    2    1    2    0    0  0.58477515677E+01  0.96510050381E+01  0.14943772514E+02  0.72462230761E+02  0.70000860376E+02 0.  0.
        -12    1    1    2    0    0 -0.58477515677E+01 -0.96510050381E+01 -0.14943772514E+02  0.18725769239E+02  0.00000000000E+00 0.  1.
         11    1    3    3    0    0  0.26696120943E+02 -0.20170437540E+02  0.11674423043E+02  0.35437572964E+02  0.51100000000E-03 0. -1.
        -11    1    3    3    0    0 -0.16402127334E+02  0.20311786080E+02  0.27756206511E+00  0.26108915638E+02  0.51100000000E-03 0.  1.
         12    1    3    3    0    0 -0.44462420411E+01  0.95096564982E+01  0.29917874050E+01  0.10915742159E+02  0.00000000000E+00 0. -1.
</event>
<event>
 7    1  0.1857734E-013  0.7246159E+02  0.7816164E-02  0.1226708E+00
        -11   -1    0    0    0    0  0.00000000000E+00  0.00000000000E+00  0.45593999997E+02  0.45594000000E+02  0.51100000000E-03 0.  1.
         11   -1    0    0    0    0 -0.00000000000E+00 -0.00000000000E+00 -0.45593999997E+02  0.45594000000E+02  0.51100000000E-03 0. -1.
    9900012    2    1    2    0    0 -0.15558181768E+02  0.88542835553E+01  0.54975487866E+01  0.72461590844E+02  0.70000026770E+02 0.  0.
        -12    1    1    2    0    0  0.15558181768E+02 -0.88542835553E+01 -0.54975487866E+01  0.18726409156E+02  0.00000000000E+00 0.  1.
         11    1    3    3    0    0 -0.25242980436E+02  0.15816677976E+02  0.31056613943E+01  0.29950300440E+02  0.51100000000E-03 0. -1.
        -11    1    3    3    0    0 -0.83064585332E+01 -0.18790275594E+02 -0.16259174744E+01  0.20608622423E+02  0.51100000000E-03 0.  1.
         12    1    3    3    0    0  0.17991257201E+02  0.11827881173E+02  0.40178048667E+01  0.21902667981E+02  0.00000000000E+00 0. -1.
</event>
<event>
 7    1  0.1857734E-013  0.7246158E+02  0.7816164E-02  0.1226708E+00
        -11   -1    0    0    0    0  0.00000000000E+00  0.00000000000E+00  0.45593999997E+02  0.45594000000E+02  0.51100000000E-03 0. -1.
         11   -1    0    0    0    0 -0.00000000000E+00 -0.00000000000E+00 -0.45593999997E+02  0.45594000000E+02  0.51100000000E-03 0.  1.
    9900012    2    1    2    0    0 -0.54681270277E+01  0.34600742640E+01  0.17572886076E+02  0.72461578769E+02  0.70000011039E+02 0.  0.
        -12    1    1    2    0    0  0.54681270277E+01 -0.34600742640E+01 -0.17572886076E+02  0.18726421231E+02  0.00000000000E+00 0.  1.
         11    1    3    3    0    0  0.17633214684E+02  0.14797998763E+02  0.26624398145E+02  0.35196158943E+02  0.51100000000E-03 0. -1.
        -11    1    3    3    0    0 -0.47821912982E+01 -0.16185723654E+02 -0.17901827665E+01  0.16972087626E+02  0.51100000000E-03 0.  1.
         12    1    3    3    0    0 -0.18319150414E+02  0.48477991544E+01 -0.72613293023E+01  0.20293332199E+02  0.00000000000E+00 0. -1.
</event>
<event>
 7    1  0.1857734E-013  0.7246157E+02  0.7816164E-02  0.1226708E+00
        -11   -1    0    0    0    0  0.00000000000E+00  0.00000000000E+00  0.45593999997E+02  0.45594000000E+02  0.51100000000E-03 0.  1.
         11   -1    0    0    0    0 -0.00000000000E+00 -0.00000000000E+00 -0.45593999997E+02  0.45594000000E+02  0.51100000000E-03 0. -1.
    9900012    2    1    2    0    0  0.16973340320E+02 -0.66340111578E+01 -0.43098622978E+01  0.72461566845E+02  0.69999995507E+02 0.  0.
        -12    1    1    2    0    0 -0.16973340320E+02  0.66340111578E+01  0.43098622978E+01  0.18726433155E+02  0.00000000000E+00 0.  1.
         11    1    3    3    0    0 -0.20479253029E+01  0.59181521742E+01 -0.17519266640E+02  0.18604924807E+02  0.51100000000E-03 0. -1.
        -11    1    3    3    0    0  0.26531881294E+02 -0.22011497302E+02 -0.18840515475E+01  0.34525300708E+02  0.51100000000E-03 0.  1.
        -12    1    3    3    0    0 -0.75106156712E+01  0.94593339704E+01  0.15093455890E+02  0.19331341330E+02  0.00000000000E+00 0.  1.
</event>
<event>
 7    1  0.1857734E-013  0.7246156E+02  0.7816164E-02  0.1226708E+00
        -11   -1    0    0    0    0  0.00000000000E+00  0.00000000000E+00  0.45593999997E+02  0.45594000000E+02  0.51100000000E-03 0.  1.
         11   -1    0    0    0    0 -0.00000000000E+00 -0.00000000000E+00 -0.45593999997E+02  0.45594000000E+02  0.51100000000E-03 0. -1.
    9900012    2    1    2    0    0  0.10033221765E+02 -0.15000865377E+02 -0.49988091653E+01  0.72461558958E+02  0.69999985232E+02 0.  0.
        -12    1    1    2    0    0 -0.10033221765E+02  0.15000865377E+02  0.49988091653E+01  0.18726441042E+02  0.00000000000E+00 0.  1.
         11    1    3    3    0    0 -0.94048186908E+01 -0.81093605639E+01 -0.25529175196E+02  0.28389278431E+02  0.51100000000E-03 0. -1.
        -11    1    3    3    0    0  0.22813836841E+02  0.47305487372E+01  0.40862919697E+01  0.23654746354E+02  0.51100000000E-03 0.  1.
         12    1    3    3    0    0 -0.33757963855E+01 -0.11622053550E+02  0.16444074061E+02  0.20417534173E+02  0.00000000000E+00 0. -1.
</event>
<event>
 7    1  0.1857734E-013  0.7246156E+02  0.7816164E-02  0.1226708E+00
        -11   -1    0    0    0    0  0.00000000000E+00  0.00000000000E+00  0.45593999997E+02  0.45594000000E+02  0.51100000000E-03 0.  1.
         11   -1    0    0    0    0 -0.00000000000E+00 -0.00000000000E+00 -0.45593999997E+02  0.45594000000E+02  0.51100000000E-03 0. -1.
    9900012    2    1    2    0    0  0.85648312646E+01  0.13948311959E+02 -0.90976849377E+01  0.72461558471E+02  0.69999984598E+02 0.  0.
        -12    1    1    2    0    0 -0.85648312646E+01 -0.13948311959E+02  0.90976849377E+01  0.18726441529E+02  0.00000000000E+00 0.  1.
         11    1    3    3    0    0  0.34872368398E+01  0.15636762289E+02 -0.28629427329E+02  0.32807213614E+02  0.51100000000E-03 0. -1.
        -11    1    3    3    0    0  0.79047476974E+01  0.30070388303E+01  0.28176560843E+02  0.29418461889E+02  0.51100000000E-03 0.  1.
         12    1    3    3    0    0 -0.28271532726E+01 -0.46954891599E+01 -0.86448184518E+01  0.10235882968E+02  0.00000000000E+00 0. -1.
</event>
<event>
 7    1  0.1857734E-013  0.7246156E+02  0.7816164E-02  0.1226708E+00
        -11   -1    0    0    0    0  0.00000000000E+00  0.00000000000E+00  0.45593999997E+02  0.45594000000E+02  0.51100000000E-03 0.  1.
         11   -1    0    0    0    0 -0.00000000000E+00 -0.00000000000E+00 -0.45593999997E+02  0.45594000000E+02  0.51100000000E-03 0. -1.
    9900012    2    1    2    0    0 -0.68934654458E+01  0.10714353232E+02 -0.13724515393E+02  0.72461560034E+02  0.69999986634E+02 0.  0.
        -12    1    1    2    0    0  0.68934654458E+01 -0.10714353232E+02  0.13724515393E+02  0.18726439966E+02  0.00000000000E+00 0.  1.
         11    1    3    3    0    0 -0.27270671529E+02  0.17224098054E+02 -0.16387990771E+02  0.36179072973E+02  0.51100000000E-03 0. -1.
        -11    1    3    3    0    0  0.10475250488E+02 -0.65850163414E+01  0.15650678769E+02  0.19950866126E+02  0.51100000000E-03 0.  1.
        -12    1    3    3    0    0  0.99019555951E+01  0.75271518936E-01 -0.12987203391E+02  0.16331620934E+02  0.00000000000E+00 0.  1.
</event>
<event>
 7    1  0.1857734E-013  0.7246174E+02  0.7816164E-02  0.1226708E+00
        -11   -1    0    0    0    0  0.00000000000E+00  0.00000000000E+00  0.45593999997E+02  0.45594000000E+02  0.51100000000E-03 0. -1.
         11   -1    0    0    0    0 -0.00000000000E+00 -0.00000000000E+00 -0.45593999997E+02  0.45594000000E+02  0.51100000000E-03 0.  1.
    9900012    2    1    2    0    0  0.12566031740E+02 -0.86669406605E+01  0.10846740165E+02  0.72461740728E+02  0.70000222022E+02 0.  0.
        -12    1    1    2    0    0 -0.12566031740E+02  0.86669406605E+01 -0.10846740165E+02  0.18726259272E+02  0.00000000000E+00 0.  1.
         11    1    3    3    0    0 -0.86587810991E+01 -0.82534587841E+00  0.19820700391E+02  0.21645226961E+02  0.51100000000E-03 0. -1.
        -11    1    3    3    0    0  0.94469224616E+01 -0.20189454270E+02 -0.20451866515E+02  0.30251235543E+02  0.51100000000E-03 0.  1.
        -12    1    3    3    0    0  0.11777890378E+02  0.12347859487E+02  0.11477906288E+02  0.20565278224E+02  0.00000000000E+00 0.  1.
</event>
<event>
 7    1  0.1857734E-013  0.7246156E+02  0.7816164E-02  0.1226708E+00
        -11   -1    0    0    0    0  0.00000000000E+00  0.00000000000E+00  0.45593999997E+02  0.45594000000E+02  0.51100000000E-03 0.  1.
         11   -1    0    0    0    0 -0.00000000000E+00 -0.00000000000E+00 -0.45593999997E+02  0.45594000000E+02  0.51100000000E-03 0. -1.
    9900012    2    1    2    0    0  0.14617554904E+02  0.50067226656E+01 -0.10580144535E+02  0.72461557690E+02  0.69999983581E+02 0.  0.
        -12    1    1    2    0    0 -0.14617554904E+02 -0.50067226656E+01  0.10580144535E+02  0.18726442310E+02  0.00000000000E+00 0.  1.
         11    1    3    3    0    0  0.17417007761E+02  0.66091309879E+01 -0.54630543359E+01  0.19413339092E+02  0.51100000000E-03 0.  1.
        -11    1    3    3    0    0 -0.19581978358E+02  0.26282096641E+01 -0.21511928465E+02  0.29208293839E+02  0.51100000000E-03 0. -1.
        -12    1    3    3    0    0  0.16782525500E+02 -0.42306179864E+01  0.16394838267E+02  0.23839924759E+02  0.00000000000E+00 0.  1.
</event>
<event>
 7    1  0.1857734E-013  0.7246162E+02  0.7816164E-02  0.1226708E+00
        -11   -1    0    0    0    0  0.00000000000E+00  0.00000000000E+00  0.45593999997E+02  0.45594000000E+02  0.51100000000E-03 0.  1.
         11   -1    0    0    0    0 -0.00000000000E+00 -0.00000000000E+00 -0.45593999997E+02  0.45594000000E+02  0.51100000000E-03 0. -1.
    9900012    2    1    2    0    0 -0.27310404870E+01  0.14621794155E+02 -0.11376364985E+02  0.72461624837E+02  0.70000071052E+02 0.  0.
        -12    1    1    2    0    0  0.27310404870E+01 -0.14621794155E+02  0.11376364985E+02  0.18726375163E+02  0.00000000000E+00 0.  1.
         11    1    3    3    0    0 -0.29774975788E+02  0.49842685749E+01  0.13701504497E+02  0.33153029155E+02  0.51100000000E-03 0.  1.
        -11    1    3    3    0    0  0.23044661333E+02  0.88813834599E+01 -0.16182828360E+02  0.29526586700E+02  0.51100000000E-03 0. -1.
        -12    1    3    3    0    0  0.39992739676E+01  0.75614212054E+00 -0.88950411217E+01  0.97820089823E+01  0.00000000000E+00 0.  1.
</event>
<event>
 7    1  0.1857734E-013  0.7246154E+02  0.7816164E-02  0.1226708E+00
        -11   -1    0    0    0    0  0.00000000000E+00  0.00000000000E+00  0.45593999997E+02  0.45594000000E+02  0.51100000000E-03 0.  1.
         11   -1    0    0    0    0 -0.00000000000E+00 -0.00000000000E+00 -0.45593999997E+02  0.45594000000E+02  0.51100000000E-03 0. -1.
    9900012    2    1    2    0    0 -0.10838061697E+02 -0.38280960651E+01 -0.14783852750E+02  0.72461542701E+02  0.69999964054E+02 0.  0.
        -12    1    1    2    0    0  0.10838061697E+02  0.38280960651E+01  0.14783852750E+02  0.18726457299E+02  0.00000000000E+00 0.  1.
         11    1    3    3    0    0 -0.12602427237E+02 -0.14653512391E+02  0.16803171193E+02  0.25610411165E+02  0.51100000000E-03 0. -1.
        -11    1    3    3    0    0  0.16731817574E+02  0.11335889080E+01 -0.15202778453E+02  0.22635441593E+02  0.51100000000E-03 0.  1.
         12    1    3    3    0    0 -0.14967452034E+02  0.96918274177E+01 -0.16384245491E+02  0.24215689943E+02  0.00000000000E+00 0. -1.
</event>
<event>
 7    1  0.1857734E-013  0.7246157E+02  0.7816164E-02  0.1226708E+00
        -11   -1    0    0    0    0  0.00000000000E+00  0.00000000000E+00  0.45593999997E+02  0.45594000000E+02  0.51100000000E-03 0. -1.
         11   -1    0    0    0    0 -0.00000000000E+00 -0.00000000000E+00 -0.45593999997E+02  0.45594000000E+02  0.51100000000E-03 0.  1.
    9900012    2    1    2    0    0 -0.14819623800E+02  0.66319419762E+01  0.93314199876E+01  0.72461566732E+02  0.69999995360E+02 0.  0.
        -12    1    1    2    0    0  0.14819623800E+02 -0.66319419762E+01 -0.93314199876E+01  0.18726433268E+02  0.00000000000E+00 0.  1.
         11    1    3    3    0    0 -0.11374341470E+01 -0.48712905503E+01 -0.58244041495E+01  0.76776892371E+01  0.51100000000E-03 0. -1.
        -11    1    3    3    0    0 -0.28869971637E+02  0.19340674333E+02  0.26986522300E+02  0.43997833266E+02  0.51100000000E-03 0.  1.
        -12    1    3    3    0    0  0.15187781985E+02 -0.78374418064E+01 -0.11830698163E+02  0.20786044229E+02  0.00000000000E+00 0.  1.
</event>
<event>
 7    1  0.1857734E-013  0.7246159E+02  0.7816164E-02  0.1226708E+00
        -11   -1    0    0    0    0  0.00000000000E+00  0.00000000000E+00  0.45593999997E+02  0.45594000000E+02  0.51100000000E-03 0. -1.
         11   -1    0    0    0    0 -0.00000000000E+00 -0.00000000000E+00 -0.45593999997E+02  0.45594000000E+02  0.51100000000E-03 0.  1.
    9900012    2    1    2    0    0 -0.20341784522E+01  0.14309166082E+02  0.11907489622E+02  0.72461590172E+02  0.70000025895E+02 0.  0.
        -12    1    1    2    0    0  0.20341784522E+01 -0.14309166082E+02 -0.11907489622E+02  0.18726409828E+02  0.00000000000E+00 0.  1.
         11    1    3    3    0    0 -0.10525823162E+02 -0.11110953167E+02  0.22905428774E+02  0.27548228638E+02  0.51100000000E-03 0. -1.
        -11    1    3    3    0    0  0.11542995044E+02  0.33183253975E+02 -0.78652360552E+01  0.36003208432E+02  0.51100000000E-03 0.  1.
        -12    1    3    3    0    0 -0.30513503339E+01 -0.77631347250E+01 -0.31327030968E+01  0.89101531026E+01  0.00000000000E+00 0.  1.
</event>
<event>
 7    1  0.1857734E-013  0.7246148E+02  0.7816164E-02  0.1226708E+00
        -11   -1    0    0    0    0  0.00000000000E+00  0.00000000000E+00  0.45593999997E+02  0.45594000000E+02  0.51100000000E-03 0. -1.
         11   -1    0    0    0    0 -0.00000000000E+00 -0.00000000000E+00 -0.45593999997E+02  0.45594000000E+02  0.51100000000E-03 0.  1.
    9900012    2    1    2    0    0  0.40691698053E+01 -0.18144829982E+02  0.22112488728E+01  0.72461478177E+02  0.69999880000E+02 0.  0.
        -12    1    1    2    0    0 -0.40691698053E+01  0.18144829982E+02 -0.22112488728E+01  0.18726521823E+02  0.00000000000E+00 0.  1.
         11    1    3    3    0    0  0.17967192629E+02 -0.97613340280E+01  0.23340702868E+02  0.31030502149E+02  0.51100000000E-03 0. -1.
        -11    1    3    3    0    0 -0.10151666472E+02 -0.17706048759E+02 -0.23481944396E+02  0.31112091021E+02  0.51100000000E-03 0.  1.
        -12    1    3    3    0    0 -0.37463563513E+01  0.93225528045E+01  0.23524904008E+01  0.10318885007E+02  0.00000000000E+00 0.  1.
</event>
<event>
 7    1  0.1857734E-013  0.7246160E+02  0.7816164E-02  0.1226708E+00
        -11   -1    0    0    0    0  0.00000000000E+00  0.00000000000E+00  0.45593999997E+02  0.45594000000E+02  0.51100000000E-03 0.  1.
         11   -1    0    0    0    0 -0.00000000000E+00 -0.00000000000E+00 -0.45593999997E+02  0.45594000000E+02  0.51100000000E-03 0. -1.
    9900012    2    1    2    0    0  0.12256941857E+02 -0.13779720309E+02 -0.32503452707E+01  0.72461599922E+02  0.70000038596E+02 0.  0.
        -12    1    1    2    0    0 -0.12256941857E+02  0.13779720309E+02  0.32503452707E+01  0.18726400078E+02  0.00000000000E+00 0.  1.
         11    1    3    3    0    0 -0.16465186095E+02 -0.48096616887E+01 -0.12906437075E+02  0.21466516180E+02  0.51100000000E-03 0. -1.
        -11    1    3    3    0    0 -0.44655630849E+01 -0.53845342660E+01  0.15593177753E+02  0.17090396591E+02  0.51100000000E-03 0.  1.
        -12    1    3    3    0    0  0.33187691037E+02 -0.35855243548E+01 -0.59370859488E+01  0.33904687151E+02  0.00000000000E+00 0.  1.
</event>
<event>
 7    1  0.1857734E-013  0.7246164E+02  0.7816164E-02  0.1226708E+00
        -11   -1    0    0    0    0  0.00000000000E+00  0.00000000000E+00  0.45593999997E+02  0.45594000000E+02  0.51100000000E-03 0.  1.
         11   -1    0    0    0    0 -0.00000000000E+00 -0.00000000000E+00 -0.45593999997E+02  0.45594000000E+02  0.51100000000E-03 0. -1.
    9900012    2    1    2    0    0  0.14980952897E+02 -0.22360987506E+01  0.11011246935E+02  0.72461637662E+02  0.70000087759E+02 0.  0.
        -12    1    1    2    0    0 -0.14980952897E+02  0.22360987506E+01 -0.11011246935E+02  0.18726362338E+02  0.00000000000E+00 0.  1.
         11    1    3    3    0    0  0.15857046796E+02  0.25280184648E+02 -0.90915967779E+01  0.31196006173E+02  0.51100000000E-03 0. -1.
        -11    1    3    3    0    0  0.10869636975E+02 -0.90096147889E+01  0.79636566621E+01  0.16209318132E+02  0.51100000000E-03 0.  1.
         12    1    3    3    0    0 -0.11745730874E+02 -0.18506668609E+02  0.12139187051E+02  0.25056313357E+02  0.00000000000E+00 0. -1.
</event>
<event>
 7    1  0.1857734E-013  0.7246160E+02  0.7816164E-02  0.1226708E+00
        -11   -1    0    0    0    0  0.00000000000E+00  0.00000000000E+00  0.45593999997E+02  0.45594000000E+02  0.51100000000E-03 0. -1.
         11   -1    0    0    0    0 -0.00000000000E+00 -0.00000000000E+00 -0.45593999997E+02  0.45594000000E+02  0.51100000000E-03 0.  1.
    9900012    2    1    2    0    0 -0.86302026484E+01  0.15520256727E+02  0.59430094253E+01  0.72461598113E+02  0.70000036239E+02 0.  0.
        -12    1    1    2    0    0  0.86302026484E+01 -0.15520256727E+02 -0.59430094253E+01  0.18726401887E+02  0.00000000000E+00 0.  1.
         11    1    3    3    0    0  0.11863533468E+00 -0.26387577491E+02  0.13388607005E+01  0.26421787760E+02  0.51100000000E-03 0. -1.
        -11    1    3    3    0    0 -0.76073437527E+01  0.33696847494E+02  0.10222137967E+02  0.36025564741E+02  0.51100000000E-03 0.  1.
         12    1    3    3    0    0 -0.11414942303E+01  0.82109867238E+01 -0.56179892423E+01  0.10014245612E+02  0.00000000000E+00 0. -1.
</event>
<event>
 7    1  0.1857734E-013  0.7246147E+02  0.7816164E-02  0.1226708E+00
        -11   -1    0    0    0    0  0.00000000000E+00  0.00000000000E+00  0.45593999997E+02  0.45594000000E+02  0.51100000000E-03 0.  1.
         11   -1    0    0    0    0 -0.00000000000E+00 -0.00000000000E+00 -0.45593999997E+02  0.45594000000E+02  0.51100000000E-03 0. -1.
    9900012    2    1    2    0    0 -0.10836203733E+02 -0.10784820310E+02  0.10814210752E+02  0.72461472969E+02  0.69999873216E+02 0.  0.
        -12    1    1    2    0    0  0.10836203733E+02  0.10784820310E+02 -0.10814210752E+02  0.18726527031E+02  0.00000000000E+00 0.  1.
         11    1    3    3    0    0  0.40331894881E+01  0.11074736694E+02 -0.11689617493E+02  0.16600107460E+02  0.51100000000E-03 0. -1.
        -11    1    3    3    0    0 -0.21594927260E+02  0.10562199529E+01  0.23532659950E+02  0.31956886089E+02  0.51100000000E-03 0.  1.
        -12    1    3    3    0    0  0.67255340391E+01 -0.22915776957E+02 -0.10288317050E+01  0.23904479420E+02  0.00000000000E+00 0.  1.
</event>
<event>
 7    1  0.1857734E-013  0.7246159E+02  0.7816164E-02  0.1226708E+00
        -11   -1    0    0    0    0  0.00000000000E+00  0.00000000000E+00  0.45593999997E+02  0.45594000000E+02  0.51100000000E-03 0. -1.
         11   -1    0    0    0    0 -0.00000000000E+00 -0.00000000000E+00 -0.45593999997E+02  0.45594000000E+02  0.51100000000E-03 0.  1.
    9900012    2    1    2    0    0  0.25753647968E+00  0.30891681442E+01  0.18468053595E+02  0.72461593819E+02  0.70000030646E+02 0.  0.
        -12    1    1    2    0    0 -0.25753647968E+00 -0.30891681442E+01 -0.18468053595E+02  0.18726406181E+02  0.00000000000E+00 0.  1.
         11    1    3    3    0    0 -0.29452785951E+01  0.19604846729E+02  0.10156688472E+02  0.22275165594E+02  0.51100000000E-03 0. -1.
        -11    1    3    3    0    0 -0.49211165037E+01 -0.25855969234E+02 -0.99387388296E+01  0.28134090753E+02  0.51100000000E-03 0.  1.
        -12    1    3    3    0    0  0.81239315785E+01  0.93402906491E+01  0.18250103953E+02  0.22052337472E+02  0.00000000000E+00 0.  1.
</event>
<event>
 7    1  0.1857734E-013  0.7246158E+02  0.7816164E-02  0.1226708E+00
        -11   -1    0    0    0    0  0.00000000000E+00  0.00000000000E+00  0.45593999997E+02  0.45594000000E+02  0.51100000000E-03 0.  1.
         11   -1    0    0    0    0 -0.00000000000E+00 -0.00000000000E+00 -0.45593999997E+02  0.45594000000E+02  0.51100000000E-03 0. -1.
    9900012    2    1    2    0    0 -0.13689072116E+02  0.82116237735E+01 -0.97906858936E+01  0.72461575070E+02  0.70000006221E+02 0.  0.
        -12    1    1    2    0    0  0.13689072116E+02 -0.82116237735E+01  0.97906858936E+01  0.18726424930E+02  0.00000000000E+00 0.  1.
         11    1    3    3    0    0  0.22953235310E+02 -0.98670726585E+01 -0.17888663204E+02  0.30728071946E+02  0.51100000000E-03 0. -1.
        -11    1    3    3    0    0 -0.20237591578E+02  0.88504862654E+01  0.51659942721E+01  0.22684327566E+02  0.51100000000E-03 0.  1.
         12    1    3    3    0    0 -0.16404715847E+02  0.92282101666E+01  0.29319830378E+01  0.19049175558E+02  0.00000000000E+00 0. -1.
</event>
<event>
 7    1  0.1857734E-013  0.7246171E+02  0.7816164E-02  0.1226708E+00
        -11   -1    0    0    0    0  0.00000000000E+00  0.00000000000E+00  0.45593999997E+02  0.45594000000E+02  0.51100000000E-03 0. -1.
         11   -1    0    0    0    0 -0.00000000000E+00 -0.00000000000E+00 -0.45593999997E+02  0.45594000000E+02  0.51100000000E-03 0.  1.
    9900012    2    1    2    0    0  0.18680080692E+02 -0.88014078404E+00 -0.97661927536E+00  0.72461712389E+02  0.70000185105E+02 0.  0.
        -12    1    1    2    0    0 -0.18680080692E+02  0.88014078404E+00  0.97661927536E+00  0.18726287611E+02  0.00000000000E+00 0.  1.
         11    1    3    3    0    0 -0.11248976082E+02 -0.19639812008E+02 -0.16834604397E+02  0.28207544807E+02  0.51100000000E-03 0. -1.
        -11    1    3    3    0    0  0.21059244647E+02  0.19768848383E+02  0.36258177164E+01  0.29110920732E+02  0.51100000000E-03 0.  1.
         12    1    3    3    0    0  0.88698121270E+01 -0.10091771599E+01  0.12232167405E+02  0.15143246849E+02  0.00000000000E+00 0. -1.
</event>
<event>
 7    1  0.1857734E-013  0.7246149E+02  0.7816164E-02  0.1226708E+00
        -11   -1    0    0    0    0  0.00000000000E+00  0.00000000000E+00  0.45593999997E+02  0.45594000000E+02  0.51100000000E-03 0.  1.
         11   -1    0    0    0    0 -0.00000000000E+00 -0.00000000000E+00 -0.45593999997E+02  0.45594000000E+02  0.51100000000E-03 0. -1.
    9900012    2    1    2    0    0  0.30452788445E+01  0.11120590652E+02 -0.14756042917E+02  0.72461493058E+02  0.69999899385E+02 0.  0.
        -12    1    1    2    0    0 -0.30452788445E+01 -0.11120590652E+02  0.14756042917E+02  0.18726506942E+02  0.00000000000E+00 0.  1.
         11    1    3    3    0    0 -0.13459926021E+02  0.29410416495E+02 -0.21984739709E+02  0.39108451609E+02  0.51100000000E-03 0. -1.
        -11    1    3    3    0    0  0.16557377578E+02 -0.20866381566E+02  0.10496301517E+01  0.26658101126E+02  0.51100000000E-03 0.  1.
         12    1    3    3    0    0 -0.52172713049E-01  0.25765557224E+01  0.61790666399E+01  0.66949403226E+01  0.00000000000E+00 0. -1.
</event>
<event>
 7    1  0.1857734E-013  0.7246212E+02  0.7816164E-02  0.1226707E+00
        -11   -1    0    0    0    0  0.00000000000E+00  0.00000000000E+00  0.45593999997E+02  0.45594000000E+02  0.51100000000E-03 0. -1.
         11   -1    0    0    0    0 -0.00000000000E+00 -0.00000000000E+00 -0.45593999997E+02  0.45594000000E+02  0.51100000000E-03 0.  1.
    9900012    2    1    2    0    0  0.13490869419E+02 -0.12284988961E+02 -0.42111978330E+01  0.72462116879E+02  0.70000712025E+02 0.  0.
        -12    1    1    2    0    0 -0.13490869419E+02  0.12284988961E+02  0.42111978330E+01  0.18725883121E+02  0.00000000000E+00 0.  1.
         11    1    3    3    0    0  0.14065531958E+02 -0.97737684185E+01  0.17317776959E+02  0.24357157827E+02  0.51100000000E-03 0. -1.
        -11    1    3    3    0    0 -0.21328709815E+02 -0.46405724055E+01 -0.13966857446E+02  0.25913739248E+02  0.51100000000E-03 0.  1.
         12    1    3    3    0    0  0.20754047276E+02  0.21293518625E+01 -0.75621173454E+01  0.22191219805E+02  0.00000000000E+00 0. -1.
</event>
<event>
 7    1  0.1857734E-013  0.7246159E+02  0.7816164E-02  0.1226708E+00
        -11   -1    0    0    0    0  0.00000000000E+00  0.00000000000E+00  0.45593999997E+02  0.45594000000E+02  0.51100000000E-03 0.  1.
         11   -1    0    0    0    0 -0.00000000000E+00 -0.00000000000E+00 -0.45593999997E+02  0.45594000000E+02  0.51100000000E-03 0. -1.
    9900012    2    1    2    0    0  0.17565159153E+02  0.59700867624E+01  0.25498528923E+01  0.72461588122E+02  0.70000023224E+02 0.  0.
        -12    1    1    2    0    0 -0.17565159153E+02 -0.59700867624E+01 -0.25498528923E+01  0.18726411878E+02  0.00000000000E+00 0.  1.
         11    1    3    3    0    0 -0.17123787755E+02  0.11616965059E+02  0.11876105822E+02  0.23858329238E+02  0.51100000000E-03 0. -1.
        -11    1    3    3    0    0  0.24717345229E+02  0.97809543598E+01  0.25882287041E+01  0.26707923009E+02  0.51100000000E-03 0.  1.
        -12    1    3    3    0    0  0.99716016790E+01 -0.15427832657E+02 -0.11914481633E+02  0.21895335876E+02  0.00000000000E+00 0.  1.
</event>
<event>
 7    1  0.1857734E-013  0.7246165E+02  0.7816164E-02  0.1226708E+00
        -11   -1    0    0    0    0  0.00000000000E+00  0.00000000000E+00  0.45593999997E+02  0.45594000000E+02  0.51100000000E-03 0. -1.
         11   -1    0    0    0    0 -0.00000000000E+00 -0.00000000000E+00 -0.45593999997E+02  0.45594000000E+02  0.51100000000E-03 0.  1.
    9900012    2    1    2    0    0 -0.94484017320E+01  0.18797001371E+01  0.16058350962E+02  0.72461649487E+02  0.70000103164E+02 0.  0.
        -12    1    1    2    0    0  0.94484017320E+01 -0.18797001371E+01 -0.16058350962E+02  0.18726350513E+02  0.00000000000E+00 0.  1.
         11    1    3    3    0    0 -0.23216111856E+02  0.21172540429E+01  0.45564559561E+01  0.23753566164E+02  0.51100000000E-03 0. -1.
        -11    1    3    3    0    0  0.14587709727E+02 -0.20318481479E+02 -0.10113224194E+01  0.25033272619E+02  0.51100000000E-03 0.  1.
        -12    1    3    3    0    0 -0.81999960326E+00  0.20080927573E+02  0.12513217425E+02  0.23674810705E+02  0.00000000000E+00 0.  1.
</event>
<event>
 7    1  0.1857734E-013  0.7246156E+02  0.7816164E-02  0.1226708E+00
        -11   -1    0    0    0    0  0.00000000000E+00  0.00000000000E+00  0.45593999997E+02  0.45594000000E+02  0.51100000000E-03 0. -1.
         11   -1    0    0    0    0 -0.00000000000E+00 -0.00000000000E+00 -0.45593999997E+02  0.45594000000E+02  0.51100000000E-03 0.  1.
    9900012    2    1    2    0    0 -0.10668025419E+01  0.46493613956E+01  0.18108695673E+02  0.72461561790E+02  0.69999988922E+02 0.  0.
        -12    1    1    2    0    0  0.10668025419E+01 -0.46493613956E+01 -0.18108695673E+02  0.18726438210E+02  0.00000000000E+00 0.  1.
         11    1    3    3    0    0 -0.32228837819E+01 -0.14284275294E+02 -0.20802254070E+02  0.25439364677E+02  0.51100000000E-03 0.  1.
        -11    1    3    3    0    0 -0.72014857824E+01  0.10857600404E+02  0.13484595007E+02  0.18750551639E+02  0.51100000000E-03 0. -1.
         12    1    3    3    0    0  0.93575670225E+01  0.80760362850E+01  0.25426354736E+02  0.28271645474E+02  0.00000000000E+00 0. -1.
</event>
<event>
 7    1  0.1857734E-013  0.7246161E+02  0.7816164E-02  0.1226708E+00
        -11   -1    0    0    0    0  0.00000000000E+00  0.00000000000E+00  0.45593999997E+02  0.45594000000E+02  0.51100000000E-03 0.  1.
         11   -1    0    0    0    0 -0.00000000000E+00 -0.00000000000E+00 -0.45593999997E+02  0.45594000000E+02  0.51100000000E-03 0. -1.
    9900012    2    1    2    0    0 -0.58090666838E+01  0.15133006564E+02  0.93767996526E+01  0.72461614467E+02  0.70000057543E+02 0.  0.
        -12    1    1    2    0    0  0.58090666838E+01 -0.15133006564E+02 -0.93767996526E+01  0.18726385533E+02  0.00000000000E+00 0.  1.
         11    1    3    3    0    0 -0.20387965201E+02  0.20735737900E+00 -0.47922359263E+01  0.20944632906E+02  0.51100000000E-03 0. -1.
        -11    1    3    3    0    0  0.28290852976E+02  0.20876103815E+01  0.65215692278E+00  0.28375267191E+02  0.51100000000E-03 0.  1.
         12    1    3    3    0    0 -0.13711954459E+02  0.12838038803E+02  0.13516878656E+02  0.23141714371E+02  0.00000000000E+00 0. -1.
</event>
<event>
 7    1  0.1857734E-013  0.7246156E+02  0.7816164E-02  0.1226708E+00
        -11   -1    0    0    0    0  0.00000000000E+00  0.00000000000E+00  0.45593999997E+02  0.45594000000E+02  0.51100000000E-03 0.  1.
         11   -1    0    0    0    0 -0.00000000000E+00 -0.00000000000E+00 -0.45593999997E+02  0.45594000000E+02  0.51100000000E-03 0. -1.
    9900012    2    1    2    0    0  0.55468637496E+00  0.13677755015E+02  0.12778538008E+02  0.72461556322E+02  0.69999981798E+02 0.  0.
        -12    1    1    2    0    0 -0.55468637496E+00 -0.13677755015E+02 -0.12778538008E+02  0.18726443678E+02  0.00000000000E+00 0.  1.
         11    1    3    3    0    0 -0.22335262057E+02  0.95433814988E+01  0.17651587384E+01  0.24352737982E+02  0.51100000000E-03 0. -1.
        -11    1    3    3    0    0  0.86582970618E+01  0.11792163654E+01  0.25881113666E+02  0.27316454823E+02  0.51100000000E-03 0.  1.
         12    1    3    3    0    0  0.14231651371E+02  0.29551571507E+01 -0.14867734396E+02  0.20792363516E+02  0.00000000000E+00 0. -1.
</event>
<event>
 7    1  0.1857734E-013  0.7246167E+02  0.7816164E-02  0.1226708E+00
        -11   -1    0    0    0    0  0.00000000000E+00  0.00000000000E+00  0.45593999997E+02  0.45594000000E+02  0.51100000000E-03 0.  1.
         11   -1    0    0    0    0 -0.00000000000E+00 -0.00000000000E+00 -0.45593999997E+02  0.45594000000E+02  0.51100000000E-03 0. -1.
    9900012    2    1    2    0    0  0.11758864461E+02  0.14377023698E+02 -0.23886948936E+01  0.72461666479E+02  0.70000125299E+02 0.  0.
        -12    1    1    2    0    0 -0.11758864461E+02 -0.14377023698E+02  0.23886948936E+01  0.18726333521E+02  0.00000000000E+00 0.  1.
         11    1    3    3    0    0  0.14780264817E+01  0.36100628975E+02  0.99331777648E+01  0.37471429055E+02  0.51100000000E-03 0. -1.
        -11    1    3    3    0    0  0.62114250176E+01 -0.17597097667E+02 -0.18668171584E+02  0.26395838263E+02  0.51100000000E-03 0.  1.
         12    1    3    3    0    0  0.40694129616E+01 -0.41265076091E+01  0.63462989252E+01  0.85943991615E+01  0.00000000000E+00 0. -1.
</event>
<event>
 7    1  0.1857734E-013  0.7246162E+02  0.7816164E-02  0.1226708E+00
        -11   -1    0    0    0    0  0.00000000000E+00  0.00000000000E+00  0.45593999997E+02  0.45594000000E+02  0.51100000000E-03 0. -1.
         11   -1    0    0    0    0 -0.00000000000E+00 -0.00000000000E+00 -0.45593999997E+02  0.45594000000E+02  0.51100000000E-03 0.  1.
    9900012    2    1    2    0    0 -0.18575996701E+02 -0.46450944283E+00 -0.23224457386E+01  0.72461623504E+02  0.70000069316E+02 0.  0.
        -12    1    1    2    0    0  0.18575996701E+02  0.46450944283E+00  0.23224457386E+01  0.18726376496E+02  0.00000000000E+00 0.  1.
         11    1    3    3    0    0 -0.87175565245E+01  0.26179572015E+02  0.54653053113E+01  0.28128905863E+02  0.51100000000E-03 0. -1.
        -11    1    3    3    0    0  0.71367962825E+01 -0.25261426321E+02 -0.20018567203E+01  0.26326430664E+02  0.51100000000E-03 0.  1.
        -12    1    3    3    0    0 -0.16995236459E+02 -0.13826551371E+01 -0.57858943296E+01  0.18006286977E+02  0.00000000000E+00 0.  1.
</event>
<event>
 7    1  0.1857734E-013  0.7246168E+02  0.7816164E-02  0.1226708E+00
        -11   -1    0    0    0    0  0.00000000000E+00  0.00000000000E+00  0.45593999997E+02  0.45594000000E+02  0.51100000000E-03 0.  1.
         11   -1    0    0    0    0 -0.00000000000E+00 -0.00000000000E+00 -0.45593999997E+02  0.45594000000E+02  0.51100000000E-03 0. -1.
    9900012    2    1    2    0    0  0.25473240196E+01  0.18527820803E+02  0.95195271625E+00  0.72461675818E+02  0.70000137464E+02 0.  0.
        -12    1    1    2    0    0 -0.25473240196E+01 -0.18527820803E+02 -0.95195271625E+00  0.18726324182E+02  0.00000000000E+00 0.  1.
         11    1    3    3    0    0  0.16229115340E+02  0.10951581318E+02 -0.98392029559E+01  0.21911897069E+02  0.51100000000E-03 0. -1.
        -11    1    3    3    0    0 -0.99002457848E+01 -0.23237869434E+01  0.28306566246E+02  0.30077841433E+02  0.51100000000E-03 0.  1.
        -12    1    3    3    0    0 -0.37815455357E+01  0.99000264283E+01 -0.17515410574E+02  0.20471937316E+02  0.00000000000E+00 0.  1.
</event>
<event>
 7    1  0.1857734E-013  0.7246155E+02  0.7816164E-02  0.1226708E+00
        -11   -1    0    0    0    0  0.00000000000E+00  0.00000000000E+00  0.45593999997E+02  0.45594000000E+02  0.51100000000E-03 0.  1.
         11   -1    0    0    0    0 -0.00000000000E+00 -0.00000000000E+00 -0.45593999997E+02  0.45594000000E+02  0.51100000000E-03 0. -1.
    9900012    2    1    2    0    0 -0.90177502416E+01  0.61827717982E+01 -0.15203076556E+02  0.72461547499E+02  0.69999970304E+02 0.  0.
        -12    1    1    2    0    0  0.90177502416E+01 -0.61827717982E+01  0.15203076556E+02  0.18726452501E+02  0.00000000000E+00 0.  1.
         11    1    3    3    0    0 -0.18248649841E+02  0.89097265799E+01 -0.20358810991E+02  0.28755480069E+02  0.51100000000E-03 0. -1.
        -11    1    3    3    0    0  0.18870452021E+02 -0.52934832379E+01  0.18563313637E+02  0.26994657577E+02  0.51100000000E-03 0.  1.
         12    1    3    3    0    0 -0.96395524215E+01  0.25665284562E+01 -0.13407579201E+02  0.16711409852E+02  0.00000000000E+00 0. -1.
</event>
<event>
 7    1  0.1857734E-013  0.7246156E+02  0.7816164E-02  0.1226708E+00
        -11   -1    0    0    0    0  0.00000000000E+00  0.00000000000E+00  0.45593999997E+02  0.45594000000E+02  0.51100000000E-03 0.  1.
         11   -1    0    0    0    0 -0.00000000000E+00 -0.00000000000E+00 -0.45593999997E+02  0.45594000000E+02  0.51100000000E-03 0. -1.
    9900012    2    1    2    0    0 -0.30154800228E+00 -0.18038674539E+02 -0.50194306251E+01  0.72461564297E+02  0.69999992188E+02 0.  0.
        -12    1    1    2    0    0  0.30154800228E+00  0.18038674539E+02  0.50194306251E+01  0.18726435703E+02  0.00000000000E+00 0.  1.
         11    1    3    3    0    0  0.34347627335E+00 -0.28416046514E+02 -0.20648060165E+01  0.28493035984E+02  0.51100000000E-03 0.  1.
        -11    1    3    3    0    0 -0.39780670723E+01  0.25816242062E+02 -0.81148342055E+01  0.27352402203E+02  0.51100000000E-03 0. -1.
         12    1    3    3    0    0  0.33330427967E+01 -0.15438870087E+02  0.51602095970E+01  0.16616126111E+02  0.00000000000E+00 0. -1.
</event>
<event>
 7    1  0.1857734E-013  0.7246182E+02  0.7816164E-02  0.1226707E+00
        -11   -1    0    0    0    0  0.00000000000E+00  0.00000000000E+00  0.45593999997E+02  0.45594000000E+02  0.51100000000E-03 0. -1.
         11   -1    0    0    0    0 -0.00000000000E+00 -0.00000000000E+00 -0.45593999997E+02  0.45594000000E+02  0.51100000000E-03 0.  1.
    9900012    2    1    2    0    0  0.15880973472E+02  0.81613016764E+01  0.56442447789E+01  0.72461824133E+02  0.70000330671E+02 0.  0.
        -12    1    1    2    0    0 -0.15880973472E+02 -0.81613016764E+01 -0.56442447789E+01  0.18726175867E+02  0.00000000000E+00 0.  1.
         11    1    3    3    0    0 -0.65052971462E+01 -0.92229330637E+01 -0.82878083235E+01  0.14002469508E+02  0.51100000000E-03 0. -1.
        -11    1    3    3    0    0  0.24013583408E+02  0.29479740566E+02 -0.23685691103E+01  0.38096160066E+02  0.51100000000E-03 0.  1.
        -12    1    3    3    0    0 -0.16273127889E+01 -0.12095505826E+02  0.16300622213E+02  0.20363194558E+02  0.00000000000E+00 0.  1.
</event>
<event>
 7    1  0.1857734E-013  0.7246156E+02  0.7816164E-02  0.1226708E+00
        -11   -1    0    0    0    0  0.00000000000E+00  0.00000000000E+00  0.45593999997E+02  0.45594000000E+02  0.51100000000E-03 0.  1.
         11   -1    0    0    0    0 -0.00000000000E+00 -0.00000000000E+00 -0.45593999997E+02  0.45594000000E+02  0.51100000000E-03 0. -1.
    9900012    2    1    2    0    0 -0.16454807749E+02  0.78045738287E+01  0.43597713054E+01  0.72461556756E+02  0.69999982364E+02 0.  0.
        -12    1    1    2    0    0  0.16454807749E+02 -0.78045738287E+01 -0.43597713054E+01  0.18726443244E+02  0.00000000000E+00 0.  1.
         11    1    3    3    0    0  0.65369095897E+01  0.50185796747E+01  0.25072918366E+02  0.26392585409E+02  0.51100000000E-03 0.  1.
        -11    1    3    3    0    0 -0.20531847446E+02 -0.13126273112E+02 -0.83194080760E+01  0.25750113715E+02  0.51100000000E-03 0. -1.
        -12    1    3    3    0    0 -0.24598698936E+01  0.15912267266E+02 -0.12393738985E+02  0.20318857632E+02  0.00000000000E+00 0.  1.
</event>
<event>
 7    1  0.1857734E-013  0.7246159E+02  0.7816164E-02  0.1226708E+00
        -11   -1    0    0    0    0  0.00000000000E+00  0.00000000000E+00  0.45593999997E+02  0.45594000000E+02  0.51100000000E-03 0.  1.
         11   -1    0    0    0    0 -0.00000000000E+00 -0.00000000000E+00 -0.45593999997E+02  0.45594000000E+02  0.51100000000E-03 0. -1.
    9900012    2    1    2    0    0 -0.13280164786E+02  0.11678470792E+02 -0.61586533655E+01  0.72461589024E+02  0.70000024398E+02 0.  0.
        -12    1    1    2    0    0  0.13280164786E+02 -0.11678470792E+02  0.61586533655E+01  0.18726410976E+02  0.00000000000E+00 0.  1.
         11    1    3    3    0    0  0.65386257954E+01  0.27259034689E+02 -0.19758540118E+02  0.34295896363E+02  0.51100000000E-03 0. -1.
        -11    1    3    3    0    0 -0.20718183426E+02 -0.17291660726E+01  0.37011786542E+01  0.21117098842E+02  0.51100000000E-03 0.  1.
         12    1    3    3    0    0  0.89939284475E+00 -0.13851397825E+02  0.98987080984E+01  0.17048593819E+02  0.00000000000E+00 0. -1.
</event>
<event>
 7    1  0.1857734E-013  0.7246164E+02  0.7816164E-02  0.1226708E+00
        -11   -1    0    0    0    0  0.00000000000E+00  0.00000000000E+00  0.45593999997E+02  0.45594000000E+02  0.51100000000E-03 0.  1.
         11   -1    0    0    0    0 -0.00000000000E+00 -0.00000000000E+00 -0.45593999997E+02  0.45594000000E+02  0.51100000000E-03 0. -1.
    9900012    2    1    2    0    0  0.16849202075E+02 -0.50160678017E+01 -0.64513579249E+01  0.72461639813E+02  0.70000090561E+02 0.  0.
        -12    1    1    2    0    0 -0.16849202075E+02  0.50160678017E+01  0.64513579249E+01  0.18726360187E+02  0.00000000000E+00 0.  1.
         11    1    3    3    0    0  0.22799447725E+02  0.78678716259E+01 -0.32171850593E+02  0.40208782515E+02  0.51100000000E-03 0. -1.
        -11    1    3    3    0    0 -0.71300540883E+00 -0.13581937832E+02  0.21715059732E+02  0.25622670263E+02  0.51100000000E-03 0.  1.
         12    1    3    3    0    0 -0.52372402409E+01  0.69799840418E+00  0.40054329365E+01  0.66301870352E+01  0.00000000000E+00 0. -1.
</event>
<event>
 7    1  0.1857734E-013  0.7246157E+02  0.7816164E-02  0.1226708E+00
        -11   -1    0    0    0    0  0.00000000000E+00  0.00000000000E+00  0.45593999997E+02  0.45594000000E+02  0.51100000000E-03 0. -1.
         11   -1    0    0    0    0 -0.00000000000E+00 -0.00000000000E+00 -0.45593999997E+02  0.45594000000E+02  0.51100000000E-03 0.  1.
    9900012    2    1    2    0    0 -0.15881394441E+02 -0.38699451029E+00  0.99151706932E+01  0.72461573111E+02  0.70000003670E+02 0.  0.
        -12    1    1    2    0    0  0.15881394441E+02  0.38699451029E+00 -0.99151706932E+01  0.18726426889E+02  0.00000000000E+00 0.  1.
         11    1    3    3    0    0 -0.21590300776E+02  0.28415835939E+02  0.11706660463E+02  0.37558577171E+02  0.51100000000E-03 0. -1.
        -11    1    3    3    0    0 -0.52307340765E+01 -0.10799873370E+02  0.46571565214E+01  0.12871944333E+02  0.51100000000E-03 0.  1.
         12    1    3    3    0    0  0.10939640411E+02 -0.18002957079E+02 -0.64486462907E+01  0.22031051607E+02  0.00000000000E+00 0. -1.
</event>
<event>
 7    1  0.1857734E-013  0.7246150E+02  0.7816164E-02  0.1226708E+00
        -11   -1    0    0    0    0  0.00000000000E+00  0.00000000000E+00  0.45593999997E+02  0.45594000000E+02  0.51100000000E-03 0. -1.
         11   -1    0    0    0    0 -0.00000000000E+00 -0.00000000000E+00 -0.45593999997E+02  0.45594000000E+02  0.51100000000E-03 0.  1.
    9900012    2    1    2    0    0  0.15932065101E+01  0.15764936806E+02  0.99805020247E+01  0.72461495784E+02  0.69999902937E+02 0.  0.
        -12    1    1    2    0    0 -0.15932065101E+01 -0.15764936806E+02 -0.99805020247E+01  0.18726504216E+02  0.00000000000E+00 0.  1.
         11    1    3    3    0    0 -0.66739473149E+01 -0.23612005964E+01  0.21166210070E+02  0.22318720618E+02  0.51100000000E-03 0. -1.
        -11    1    3    3    0    0  0.25929075168E+02  0.17352873970E+02 -0.72361448452E+01  0.32028127741E+02  0.51100000000E-03 0.  1.
        -12    1    3    3    0    0 -0.17661921343E+02  0.77326343170E+00 -0.39495632005E+01  0.18114647425E+02  0.00000000000E+00 0.  1.
</event>
<event>
 7    1  0.1857734E-013  0.7246154E+02  0.7816164E-02  0.1226708E+00
        -11   -1    0    0    0    0  0.00000000000E+00  0.00000000000E+00  0.45593999997E+02  0.45594000000E+02  0.51100000000E-03 0.  1.
         11   -1    0    0    0    0 -0.00000000000E+00 -0.00000000000E+00 -0.45593999997E+02  0.45594000000E+02  0.51100000000E-03 0. -1.
    9900012    2    1    2    0    0 -0.24835411588E+01 -0.23878837926E+01 -0.18406797647E+02  0.72461543706E+02  0.69999965364E+02 0.  0.
        -12    1    1    2    0    0  0.24835411588E+01  0.23878837926E+01  0.18406797647E+02  0.18726456294E+02  0.00000000000E+00 0.  1.
         11    1    3    3    0    0 -0.77969588656E+01 -0.87084318559E+01 -0.13082673587E+02  0.17543822314E+02  0.51100000000E-03 0. -1.
        -11    1    3    3    0    0 -0.16073888525E+02  0.11313138741E+02  0.15208185492E+02  0.24852482909E+02  0.51100000000E-03 0.  1.
        -12    1    3    3    0    0  0.21387306232E+02 -0.49925906780E+01 -0.20532309552E+02  0.30065238484E+02  0.00000000000E+00 0.  1.
</event>
<event>
 8    1  0.1857734E-013  0.7246167E+02  0.7816164E-02  0.1226708E+00
        -11   -1    0    0    0    0  0.00000000000E+00  0.00000000000E+00  0.45593999997E+02  0.45594000000E+02  0.51100000000E-03 0. -1.
         11   -1    0    0    0    0 -0.00000000000E+00 -0.00000000000E+00 -0.45593999997E+02  0.45594000000E+02  0.51100000000E-03 0.  1.
    9900012    2    1    2    0    0  0.14100436486E+02 -0.64211760068E+01  0.10517676853E+02  0.72461672629E+02  0.70000133310E+02 0.  0.
        -24    2    3    3    0    0  0.13285313680E+01 -0.13174591296E+01  0.15229655714E+02  0.57923026497E+02  0.55853682880E+02 0.  0.
        -12    1    1    2    0    0 -0.14100436486E+02  0.64211760068E+01 -0.10517676853E+02  0.18726327371E+02  0.00000000000E+00 0.  1.
         11    1    4    4    0    0 -0.25473533812E+02  0.59164036350E+01  0.15026352973E+02  0.30161167762E+02  0.51100000000E-03 0. -1.
        -11    1    3    3    0    0  0.12771905118E+02 -0.51037168772E+01 -0.47119788609E+01  0.14538646132E+02  0.51100000000E-03 0.  1.
        -12    1    4    4    0    0  0.26802065180E+02 -0.72338627646E+01  0.20330274150E+00  0.27761858735E+02  0.00000000000E+00 0.  1.
</event>
<event>
 7    1  0.1857734E-013  0.7246159E+02  0.7816164E-02  0.1226708E+00
        -11   -1    0    0    0    0  0.00000000000E+00  0.00000000000E+00  0.45593999997E+02  0.45594000000E+02  0.51100000000E-03 0.  1.
         11   -1    0    0    0    0 -0.00000000000E+00 -0.00000000000E+00 -0.45593999997E+02  0.45594000000E+02  0.51100000000E-03 0. -1.
    9900012    2    1    2    0    0 -0.54054062937E+01 -0.48436507697E+00 -0.17922763286E+02  0.72461588958E+02  0.70000024313E+02 0.  0.
        -12    1    1    2    0    0  0.54054062937E+01  0.48436507697E+00  0.17922763286E+02  0.18726411042E+02  0.00000000000E+00 0.  1.
         11    1    3    3    0    0  0.12609258418E+02 -0.27978126437E+02 -0.22531490663E+01  0.30770856955E+02  0.51100000000E-03 0. -1.
        -11    1    3    3    0    0  0.25369034975E+01  0.95815007364E+01  0.62303222264E+00  0.99312237478E+01  0.51100000000E-03 0.  1.
         12    1    3    3    0    0 -0.20551568209E+02  0.17912260624E+02 -0.16292646442E+02  0.31759508255E+02  0.00000000000E+00 0. -1.
</event>
<event>
 7    1  0.1857734E-013  0.7246131E+02  0.7816164E-02  0.1226709E+00
        -11   -1    0    0    0    0  0.00000000000E+00  0.00000000000E+00  0.45593999997E+02  0.45594000000E+02  0.51100000000E-03 0. -1.
         11   -1    0    0    0    0 -0.00000000000E+00 -0.00000000000E+00 -0.45593999997E+02  0.45594000000E+02  0.51100000000E-03 0.  1.
    9900012    2    1    2    0    0  0.63238625599E+01  0.33408322561E+01  0.17307126091E+02  0.72461307517E+02  0.69999657683E+02 0.  0.
        -12    1    1    2    0    0 -0.63238625599E+01 -0.33408322561E+01 -0.17307126091E+02  0.18726692483E+02  0.00000000000E+00 0.  1.
         11    1    3    3    0    0 -0.24942987124E+02  0.11410370934E+02  0.13174391571E+02  0.30428831148E+02  0.51100000000E-03 0. -1.
        -11    1    3    3    0    0  0.23507036992E+02 -0.11607330297E+01  0.14264067206E+02  0.27520750404E+02  0.51100000000E-03 0.  1.
        -12    1    3    3    0    0  0.77598126918E+01 -0.69088056479E+01 -0.10131332686E+02  0.14511725965E+02  0.00000000000E+00 0.  1.
</event>
<event>
 7    1  0.1857734E-013  0.7246156E+02  0.7816164E-02  0.1226708E+00
        -11   -1    0    0    0    0  0.00000000000E+00  0.00000000000E+00  0.45593999997E+02  0.45594000000E+02  0.51100000000E-03 0. -1.
         11   -1    0    0    0    0 -0.00000000000E+00 -0.00000000000E+00 -0.45593999997E+02  0.45594000000E+02  0.51100000000E-03 0.  1.
    9900012    2    1    2    0    0 -0.27733689569E+01  0.61396008570E+01  0.17472643920E+02  0.72461559878E+02  0.69999986431E+02 0.  0.
        -12    1    1    2    0    0  0.27733689569E+01 -0.61396008570E+01 -0.17472643920E+02  0.18726440122E+02  0.00000000000E+00 0.  1.
         11    1    3    3    0    0 -0.23510138467E+02 -0.89238707702E+01  0.26237381614E+01  0.25283316287E+02  0.51100000000E-03 0. -1.
        -11    1    3    3    0    0  0.17403738012E+02  0.29577211892E+01 -0.93051265606E+01  0.19955540383E+02  0.51100000000E-03 0.  1.
         12    1    3    3    0    0  0.33330314986E+01  0.12105750438E+02  0.24154032320E+02  0.27222703208E+02  0.00000000000E+00 0. -1.
</event>
<event>
 7    1  0.1857734E-013  0.7246157E+02  0.7816164E-02  0.1226708E+00
        -11   -1    0    0    0    0  0.00000000000E+00  0.00000000000E+00  0.45593999997E+02  0.45594000000E+02  0.51100000000E-03 0. -1.
         11   -1    0    0    0    0 -0.00000000000E+00 -0.00000000000E+00 -0.45593999997E+02  0.45594000000E+02  0.51100000000E-03 0.  1.
    9900012    2    1    2    0    0 -0.11578751347E+02 -0.13464808659E+02  0.59422726555E+01  0.72461570567E+02  0.70000000356E+02 0.  0.
        -12    1    1    2    0    0  0.11578751347E+02  0.13464808659E+02 -0.59422726555E+01  0.18726429433E+02  0.00000000000E+00 0.  1.
         11    1    3    3    0    0 -0.59776838844E+01 -0.18026074749E+02  0.32967751601E+02  0.38046612483E+02  0.51100000000E-03 0. -1.
        -11    1    3    3    0    0 -0.35539526621E+01 -0.52626760321E+01 -0.22550219476E+02  0.23427307511E+02  0.51100000000E-03 0.  1.
         12    1    3    3    0    0 -0.20471148000E+01  0.98239421215E+01 -0.44752594703E+01  0.10987650574E+02  0.00000000000E+00 0. -1.
</event>
<event>
 7    1  0.1857734E-013  0.7246159E+02  0.7816164E-02  0.1226708E+00
        -11   -1    0    0    0    0  0.00000000000E+00  0.00000000000E+00  0.45593999997E+02  0.45594000000E+02  0.51100000000E-03 0.  1.
         11   -1    0    0    0    0 -0.00000000000E+00 -0.00000000000E+00 -0.45593999997E+02  0.45594000000E+02  0.51100000000E-03 0. -1.
    9900012    2    1    2    0    0  0.94052684700E+01 -0.14831657684E+02 -0.64993394544E+01  0.72461586623E+02  0.70000021271E+02 0.  0.
        -12    1    1    2    0    0 -0.94052684700E+01  0.14831657684E+02  0.64993394544E+01  0.18726413377E+02  0.00000000000E+00 0.  1.
         11    1    3    3    0    0  0.10046385523E+02  0.83887823324E+01 -0.19196314457E+02  0.23233596796E+02  0.51100000000E-03 0. -1.
        -11    1    3    3    0    0 -0.18866640107E+02 -0.10898608397E+02 -0.32865696962E+01  0.22034775119E+02  0.51100000000E-03 0.  1.
        -12    1    3    3    0    0  0.18225523053E+02 -0.12321831619E+02  0.15983544698E+02  0.27193214708E+02  0.00000000000E+00 0.  1.
</event>
<event>
 7    1  0.1857734E-013  0.7246152E+02  0.7816164E-02  0.1226708E+00
        -11   -1    0    0    0    0  0.00000000000E+00  0.00000000000E+00  0.45593999997E+02  0.45594000000E+02  0.51100000000E-03 0.  1.
         11   -1    0    0    0    0 -0.00000000000E+00 -0.00000000000E+00 -0.45593999997E+02  0.45594000000E+02  0.51100000000E-03 0. -1.
    9900012    2    1    2    0    0  0.18707801026E+02  0.58493130426E+00  0.59748922768E+00  0.72461522562E+02  0.69999937820E+02 0.  0.
        -12    1    1    2    0    0 -0.18707801026E+02 -0.58493130426E+00 -0.59748922768E+00  0.18726477438E+02  0.00000000000E+00 0.  1.
         11    1    3    3    0    0 -0.14987604541E+02  0.20050907287E+02 -0.11058234666E+02  0.27366982426E+02  0.51100000000E-03 0. -1.
        -11    1    3    3    0    0  0.16142621246E+02 -0.19747909340E+01 -0.26563975259E+01  0.16478485003E+02  0.51100000000E-03 0.  1.
         12    1    3    3    0    0  0.17552784321E+02 -0.17491185048E+02  0.14312121420E+02  0.28616055133E+02  0.00000000000E+00 0. -1.
</event>
<event>
 7    1  0.1857734E-013  0.7246159E+02  0.7816164E-02  0.1226708E+00
        -11   -1    0    0    0    0  0.00000000000E+00  0.00000000000E+00  0.45593999997E+02  0.45594000000E+02  0.51100000000E-03 0. -1.
         11   -1    0    0    0    0 -0.00000000000E+00 -0.00000000000E+00 -0.45593999997E+02  0.45594000000E+02  0.51100000000E-03 0.  1.
    9900012    2    1    2    0    0 -0.10660740442E+02  0.11355073979E+02  0.10396600762E+02  0.72461590861E+02  0.70000026792E+02 0.  0.
        -12    1    1    2    0    0  0.10660740442E+02 -0.11355073979E+02 -0.10396600762E+02  0.18726409139E+02  0.00000000000E+00 0.  1.
         11    1    3    3    0    0  0.10915229467E+02 -0.12353365208E+02  0.84479123329E+01  0.18523366037E+02  0.51100000000E-03 0.  1.
        -11    1    3    3    0    0 -0.20992316189E+02  0.32261926891E+02 -0.94902141521E+01  0.39643075444E+02  0.51100000000E-03 0. -1.
         12    1    3    3    0    0 -0.58365371920E+00 -0.85534877040E+01  0.11438902581E+02  0.14295149381E+02  0.00000000000E+00 0. -1.
</event>
<event>
 7    1  0.1857734E-013  0.7246145E+02  0.7816164E-02  0.1226708E+00
        -11   -1    0    0    0    0  0.00000000000E+00  0.00000000000E+00  0.45593999997E+02  0.45594000000E+02  0.51100000000E-03 0. -1.
         11   -1    0    0    0    0 -0.00000000000E+00 -0.00000000000E+00 -0.45593999997E+02  0.45594000000E+02  0.51100000000E-03 0.  1.
    9900012    2    1    2    0    0 -0.71958604447E+01  0.88515342566E+01  0.14851046377E+02  0.72461450806E+02  0.69999844344E+02 0.  0.
        -12    1    1    2    0    0  0.71958604447E+01 -0.88515342566E+01 -0.14851046377E+02  0.18726549194E+02  0.00000000000E+00 0.  1.
         11    1    3    3    0    0  0.52970206069E+01  0.16996219555E+02  0.30867317829E+02  0.35633147724E+02  0.51100000000E-03 0. -1.
        -11    1    3    3    0    0 -0.13150440287E+02  0.71746548462E+01 -0.46288681194E+00  0.14987461972E+02  0.51100000000E-03 0.  1.
         12    1    3    3    0    0  0.65755923574E+00 -0.15319340144E+02 -0.15553384641E+02  0.21840841110E+02  0.00000000000E+00 0. -1.
</event>
<event>
 7    1  0.1857734E-013  0.7246175E+02  0.7816164E-02  0.1226708E+00
        -11   -1    0    0    0    0  0.00000000000E+00  0.00000000000E+00  0.45593999997E+02  0.45594000000E+02  0.51100000000E-03 0. -1.
         11   -1    0    0    0    0 -0.00000000000E+00 -0.00000000000E+00 -0.45593999997E+02  0.45594000000E+02  0.51100000000E-03 0.  1.
    9900012    2    1    2    0    0  0.32017885549E+01  0.15885634736E+02  0.93844259533E+01  0.72461753943E+02  0.70000239236E+02 0.  0.
        -12    1    1    2    0    0 -0.32017885549E+01 -0.15885634736E+02 -0.93844259533E+01  0.18726246057E+02  0.00000000000E+00 0.  1.
         11    1    3    3    0    0 -0.91073805879E+01 -0.58749478937E+00  0.23298156706E+02  0.25021863189E+02  0.51100000000E-03 0. -1.
        -11    1    3    3    0    0  0.14867171620E+01  0.26159335174E+02 -0.18652121369E+02  0.32162443572E+02  0.51100000000E-03 0.  1.
         12    1    3    3    0    0  0.10822451981E+02 -0.96862056495E+01  0.47383906169E+01  0.15277447182E+02  0.00000000000E+00 0. -1.
</event>
<event>
 7    1  0.1857734E-013  0.7246159E+02  0.7816164E-02  0.1226708E+00
        -11   -1    0    0    0    0  0.00000000000E+00  0.00000000000E+00  0.45593999997E+02  0.45594000000E+02  0.51100000000E-03 0.  1.
         11   -1    0    0    0    0 -0.00000000000E+00 -0.00000000000E+00 -0.45593999997E+02  0.45594000000E+02  0.51100000000E-03 0. -1.
    9900012    2    1    2    0    0 -0.79810913059E+01  0.12125448896E+02 -0.11830226900E+02  0.72461585558E+02  0.70000019883E+02 0.  0.
        -12    1    1    2    0    0  0.79810913059E+01 -0.12125448896E+02  0.11830226900E+02  0.18726414442E+02  0.00000000000E+00 0.  1.
         11    1    3    3    0    0  0.98509230040E+01  0.21585966897E+02  0.12028956644E+01  0.23757979904E+02  0.51100000000E-03 0. -1.
        -11    1    3    3    0    0 -0.28984938414E+02 -0.14969018119E+01 -0.17971038592E+02  0.34136865676E+02  0.51100000000E-03 0.  1.
        -12    1    3    3    0    0  0.11152924104E+02 -0.79636161886E+01  0.49379160275E+01  0.14566739977E+02  0.00000000000E+00 0.  1.
</event>
<event>
 7    1  0.1857734E-013  0.7246151E+02  0.7816164E-02  0.1226708E+00
        -11   -1    0    0    0    0  0.00000000000E+00  0.00000000000E+00  0.45593999997E+02  0.45594000000E+02  0.51100000000E-03 0.  1.
         11   -1    0    0    0    0 -0.00000000000E+00 -0.00000000000E+00 -0.45593999997E+02  0.45594000000E+02  0.51100000000E-03 0. -1.
    9900012    2    1    2    0    0  0.15264581317E+02  0.10370345833E+02  0.31827680129E+01  0.72461507330E+02  0.69999917978E+02 0.  0.
        -12    1    1    2    0    0 -0.15264581317E+02 -0.10370345833E+02 -0.31827680129E+01  0.18726492670E+02  0.00000000000E+00 0.  1.
         11    1    3    3    0    0 -0.66203474147E+01  0.53575074581E+01 -0.27814316999E+02  0.29088968982E+02  0.51100000000E-03 0. -1.
        -11    1    3    3    0    0  0.13291345163E+02 -0.60935090636E+01  0.86770987393E+01  0.17002433701E+02  0.51100000000E-03 0.  1.
         12    1    3    3    0    0  0.85935835688E+01  0.11106347438E+02  0.22319986272E+02  0.26370104648E+02  0.00000000000E+00 0. -1.
</event>
<event>
 7    1  0.1857734E-013  0.7246160E+02  0.7816164E-02  0.1226708E+00
        -11   -1    0    0    0    0  0.00000000000E+00  0.00000000000E+00  0.45593999997E+02  0.45594000000E+02  0.51100000000E-03 0. -1.
         11   -1    0    0    0    0 -0.00000000000E+00 -0.00000000000E+00 -0.45593999997E+02  0.45594000000E+02  0.51100000000E-03 0.  1.
    9900012    2    1    2    0    0 -0.12376892967E+02 -0.49183397482E+01  0.13164366566E+02  0.72461599052E+02  0.70000037462E+02 0.  0.
        -12    1    1    2    0    0  0.12376892967E+02  0.49183397482E+01 -0.13164366566E+02  0.18726400948E+02  0.00000000000E+00 0.  1.
         11    1    3    3    0    0  0.18657788930E+02 -0.49995910402E+01  0.81797204386E+01  0.20976578010E+02  0.51100000000E-03 0.  1.
        -11    1    3    3    0    0 -0.17953759689E+02  0.11050484586E+02 -0.14494367935E+02  0.25583928522E+02  0.51100000000E-03 0. -1.
         12    1    3    3    0    0 -0.13080922208E+02 -0.10969233294E+02  0.19479014062E+02  0.25901092519E+02  0.00000000000E+00 0. -1.
</event>
<event>
 7    1  0.1857734E-013  0.7246155E+02  0.7816164E-02  0.1226708E+00
        -11   -1    0    0    0    0  0.00000000000E+00  0.00000000000E+00  0.45593999997E+02  0.45594000000E+02  0.51100000000E-03 0.  1.
         11   -1    0    0    0    0 -0.00000000000E+00 -0.00000000000E+00 -0.45593999997E+02  0.45594000000E+02  0.51100000000E-03 0. -1.
    9900012    2    1    2    0    0 -0.56045467554E+01 -0.57376368432E+01 -0.16921836312E+02  0.72461549054E+02  0.69999972330E+02 0.  0.
        -12    1    1    2    0    0  0.56045467554E+01  0.57376368432E+01  0.16921836312E+02  0.18726450946E+02  0.00000000000E+00 0.  1.
         11    1    3    3    0    0 -0.11632732696E+02 -0.64390414338E+01 -0.68720991945E+01  0.14966879172E+02  0.51100000000E-03 0. -1.
        -11    1    3    3    0    0 -0.16527376979E+01 -0.47466146991E+01  0.22786797687E+02  0.23334524681E+02  0.51100000000E-03 0.  1.
        -12    1    3    3    0    0  0.76809236383E+01  0.54480192897E+01 -0.32836534805E+02  0.34160145200E+02  0.00000000000E+00 0.  1.
</event>
<event>
 7    1  0.1857734E-013  0.7246159E+02  0.7816164E-02  0.1226708E+00
        -11   -1    0    0    0    0  0.00000000000E+00  0.00000000000E+00  0.45593999997E+02  0.45594000000E+02  0.51100000000E-03 0.  1.
         11   -1    0    0    0    0 -0.00000000000E+00 -0.00000000000E+00 -0.45593999997E+02  0.45594000000E+02  0.51100000000E-03 0. -1.
    9900012    2    1    2    0    0  0.10469386014E+02  0.26939093349E+00 -0.15524105779E+02  0.72461588832E+02  0.70000024149E+02 0.  0.
        -12    1    1    2    0    0 -0.10469386014E+02 -0.26939093349E+00  0.15524105779E+02  0.18726411168E+02  0.00000000000E+00 0.  1.
         11    1    3    3    0    0  0.13756885109E+02 -0.11589244507E+02  0.11335407584E+02  0.21261560185E+02  0.51100000000E-03 0. -1.
        -11    1    3    3    0    0 -0.21661988095E+02  0.39122138565E+01 -0.72469268548E+01  0.23174664929E+02  0.51100000000E-03 0.  1.
        -12    1    3    3    0    0  0.18374489000E+02  0.79464215839E+01 -0.19612586508E+02  0.28025363718E+02  0.00000000000E+00 0.  1.
</event>
<event>
 7    1  0.1857734E-013  0.7246161E+02  0.7816164E-02  0.1226708E+00
        -11   -1    0    0    0    0  0.00000000000E+00  0.00000000000E+00  0.45593999997E+02  0.45594000000E+02  0.51100000000E-03 0.  1.
         11   -1    0    0    0    0 -0.00000000000E+00 -0.00000000000E+00 -0.45593999997E+02  0.45594000000E+02  0.51100000000E-03 0. -1.
    9900012    2    1    2    0    0  0.66807336787E+01  0.17254664925E+02 -0.28847651211E+01  0.72461613964E+02  0.70000056888E+02 0.  0.
        -12    1    1    2    0    0 -0.66807336787E+01 -0.17254664925E+02  0.28847651211E+01  0.18726386036E+02  0.00000000000E+00 0.  1.
         11    1    3    3    0    0 -0.20541541416E+02  0.52501197827E+01 -0.65565752263E+01  0.22192506853E+02  0.51100000000E-03 0. -1.
        -11    1    3    3    0    0  0.25681353762E+02  0.21325407026E+02  0.14065402142E+02  0.36223479314E+02  0.51100000000E-03 0.  1.
         12    1    3    3    0    0  0.15409213318E+01 -0.93208618844E+01 -0.10393592036E+02  0.14045627798E+02  0.00000000000E+00 0. -1.
</event>
<event>
 7    1  0.1857734E-013  0.7246167E+02  0.7816164E-02  0.1226708E+00
        -11   -1    0    0    0    0  0.00000000000E+00  0.00000000000E+00  0.45593999997E+02  0.45594000000E+02  0.51100000000E-03 0. -1.
         11   -1    0    0    0    0 -0.00000000000E+00 -0.00000000000E+00 -0.45593999997E+02  0.45594000000E+02  0.51100000000E-03 0.  1.
    9900012    2    1    2    0    0 -0.72263680139E+01 -0.10776626975E+02  0.13502570417E+02  0.72461668498E+02  0.70000127929E+02 0.  0.
        -12    1    1    2    0    0  0.72263680139E+01  0.10776626975E+02 -0.13502570417E+02  0.18726331502E+02  0.00000000000E+00 0.  1.
         11    1    3    3    0    0 -0.20364719834E+02  0.71045649286E+01 -0.63548111663E+01  0.22485112451E+02  0.51100000000E-03 0.  1.
        -11    1    3    3    0    0  0.27326523409E+02 -0.12096049366E+02  0.17029218789E+02  0.34395458781E+02  0.51100000000E-03 0. -1.
         12    1    3    3    0    0 -0.14188171590E+02 -0.57851425373E+01  0.28281627947E+01  0.15581097266E+02  0.00000000000E+00 0. -1.
</event>
<event>
 7    1  0.1857734E-013  0.7246162E+02  0.7816164E-02  0.1226708E+00
        -11   -1    0    0    0    0  0.00000000000E+00  0.00000000000E+00  0.45593999997E+02  0.45594000000E+02  0.51100000000E-03 0.  1.
         11   -1    0    0    0    0 -0.00000000000E+00 -0.00000000000E+00 -0.45593999997E+02  0.45594000000E+02  0.51100000000E-03 0. -1.
    9900012    2    1    2    0    0  0.61970006897E+01  0.72174501041E+01 -0.16130182896E+02  0.72461622780E+02  0.70000068372E+02 0.  0.
        -12    1    1    2    0    0 -0.61970006897E+01 -0.72174501041E+01  0.16130182896E+02  0.18726377220E+02  0.00000000000E+00 0.  1.
         11    1    3    3    0    0  0.12752742405E+02 -0.19694397393E+02 -0.21168549962E+02  0.31600779029E+02  0.51100000000E-03 0.  1.
        -11    1    3    3    0    0 -0.35148166599E+01  0.10989459081E+02  0.17119034417E+02  0.20644211941E+02  0.51100000000E-03 0. -1.
         12    1    3    3    0    0 -0.30409250553E+01  0.15922388416E+02 -0.12080667351E+02  0.20216631809E+02  0.00000000000E+00 0. -1.
</event>
<event>
 7    1  0.1857734E-013  0.7246155E+02  0.7816164E-02  0.1226708E+00
        -11   -1    0    0    0    0  0.00000000000E+00  0.00000000000E+00  0.45593999997E+02  0.45594000000E+02  0.51100000000E-03 0.  1.
         11   -1    0    0    0    0 -0.00000000000E+00 -0.00000000000E+00 -0.45593999997E+02  0.45594000000E+02  0.51100000000E-03 0. -1.
    9900012    2    1    2    0    0 -0.60041288762E+01  0.93390549475E+01 -0.15080204497E+02  0.72461546023E+02  0.69999968382E+02 0.  0.
        -12    1    1    2    0    0  0.60041288762E+01 -0.93390549475E+01  0.15080204497E+02  0.18726453977E+02  0.00000000000E+00 0.  1.
         11    1    3    3    0    0  0.81726209834E+01  0.14951218982E+02 -0.10584335345E+02  0.20058884259E+02  0.51100000000E-03 0. -1.
        -11    1    3    3    0    0 -0.14027125745E+02 -0.66052578150E+01  0.21433725570E+02  0.26453625074E+02  0.51100000000E-03 0.  1.
        -12    1    3    3    0    0 -0.14962411463E+00  0.99309378070E+00 -0.25929594723E+02  0.25949036690E+02  0.00000000000E+00 0.  1.
</event>
<event>
 7    1  0.1857734E-013  0.7246158E+02  0.7816164E-02  0.1226708E+00
        -11   -1    0    0    0    0  0.00000000000E+00  0.00000000000E+00  0.45593999997E+02  0.45594000000E+02  0.51100000000E-03 0.  1.
         11   -1    0    0    0    0 -0.00000000000E+00 -0.00000000000E+00 -0.45593999997E+02  0.45594000000E+02  0.51100000000E-03 0. -1.
    9900012    2    1    2    0    0  0.66612143825E+01 -0.10938549689E+02 -0.13662173165E+02  0.72461584915E+02  0.70000019046E+02 0.  0.
        -12    1    1    2    0    0 -0.66612143825E+01  0.10938549689E+02  0.13662173165E+02  0.18726415085E+02  0.00000000000E+00 0.  1.
         11    1    3    3    0    0 -0.22167814220E+02 -0.10874308198E+02 -0.26375909556E+02  0.36129643940E+02  0.51100000000E-03 0. -1.
        -11    1    3    3    0    0  0.14242321020E+02 -0.69332478903E+01  0.66672967028E-01  0.15840393931E+02  0.51100000000E-03 0.  1.
         12    1    3    3    0    0  0.14586707582E+02  0.68690063984E+01  0.12647063425E+02  0.20491547044E+02  0.00000000000E+00 0. -1.
</event>
<event>
 7    1  0.1857734E-013  0.7246156E+02  0.7816164E-02  0.1226708E+00
        -11   -1    0    0    0    0  0.00000000000E+00  0.00000000000E+00  0.45593999997E+02  0.45594000000E+02  0.51100000000E-03 0. -1.
         11   -1    0    0    0    0 -0.00000000000E+00 -0.00000000000E+00 -0.45593999997E+02  0.45594000000E+02  0.51100000000E-03 0.  1.
    9900012    2    1    2    0    0  0.49789824532E+01  0.15468146300E+02  0.93072874043E+01  0.72461563739E+02  0.69999991460E+02 0.  0.
        -12    1    1    2    0    0 -0.49789824532E+01 -0.15468146300E+02 -0.93072874043E+01  0.18726436261E+02  0.00000000000E+00 0.  1.
         11    1    3    3    0    0 -0.12360217143E+02  0.20396234675E+02  0.15332029973E+01  0.23898369577E+02  0.51100000000E-03 0. -1.
        -11    1    3    3    0    0  0.44115651057E+00 -0.92263493021E+01 -0.16361195336E+02  0.18788529841E+02  0.51100000000E-03 0.  1.
         12    1    3    3    0    0  0.16898043086E+02  0.42982609265E+01  0.24135279743E+02  0.29774664320E+02  0.00000000000E+00 0. -1.
</event>
<event>
 8    1  0.1857734E-013  0.7246159E+02  0.7816164E-02  0.1226708E+00
        -11   -1    0    0    0    0  0.00000000000E+00  0.00000000000E+00  0.45593999997E+02  0.45594000000E+02  0.51100000000E-03 0. -1.
         11   -1    0    0    0    0 -0.00000000000E+00 -0.00000000000E+00 -0.45593999997E+02  0.45594000000E+02  0.51100000000E-03 0.  1.
    9900012    2    1    2    0    0 -0.78413064563E+00 -0.15006984058E+02  0.11173809889E+02  0.72461589270E+02  0.70000024719E+02 0.  0.
        -24    2    3    3    0    0 -0.12239709249E+02 -0.68998289886E+01  0.21493937590E+02  0.55041449188E+02  0.48684223861E+02 0.  0.
        -12    1    1    2    0    0  0.78413064563E+00  0.15006984058E+02 -0.11173809889E+02  0.18726410730E+02  0.00000000000E+00 0.  1.
         11    1    4    4    0    0 -0.17179586852E+02  0.27317144073E+01  0.34187870423E+02  0.38358974860E+02  0.51100000000E-03 0. -1.
        -11    1    3    3    0    0  0.11455578603E+02 -0.81071550695E+01 -0.10320127701E+02  0.17420140082E+02  0.51100000000E-03 0.  1.
        -12    1    4    4    0    0  0.49398776030E+01 -0.96315433959E+01 -0.12693932833E+02  0.16682474327E+02  0.00000000000E+00 0.  1.
</event>
<event>
 7    1  0.1857734E-013  0.7246157E+02  0.7816164E-02  0.1226708E+00
        -11   -1    0    0    0    0  0.00000000000E+00  0.00000000000E+00  0.45593999997E+02  0.45594000000E+02  0.51100000000E-03 0.  1.
         11   -1    0    0    0    0 -0.00000000000E+00 -0.00000000000E+00 -0.45593999997E+02  0.45594000000E+02  0.51100000000E-03 0. -1.
    9900012    2    1    2    0    0 -0.17347160850E+02 -0.35365038932E+01 -0.61031463391E+01  0.72461568290E+02  0.69999997389E+02 0.  0.
        -12    1    1    2    0    0  0.17347160850E+02  0.35365038932E+01  0.61031463391E+01  0.18726431710E+02  0.00000000000E+00 0.  1.
         11    1    3    3    0    0 -0.47150568095E+01  0.12484216911E+02 -0.33352162196E+02  0.35922891810E+02  0.51100000000E-03 0. -1.
        -11    1    3    3    0    0  0.11082983645E+01 -0.45610152978E+01  0.12496824546E+02  0.13349225064E+02  0.51100000000E-03 0.  1.
         12    1    3    3    0    0 -0.13740402405E+02 -0.11459705506E+02  0.14752191310E+02  0.23189451416E+02  0.00000000000E+00 0. -1.
</event>
<event>
 7    1  0.1857734E-013  0.7246158E+02  0.7816164E-02  0.1226708E+00
        -11   -1    0    0    0    0  0.00000000000E+00  0.00000000000E+00  0.45593999997E+02  0.45594000000E+02  0.51100000000E-03 0.  1.
         11   -1    0    0    0    0 -0.00000000000E+00 -0.00000000000E+00 -0.45593999997E+02  0.45594000000E+02  0.51100000000E-03 0. -1.
    9900012    2    1    2    0    0 -0.14472471026E+02  0.95660397292E+01  0.70510473446E+01  0.72461580098E+02  0.70000012771E+02 0.  0.
        -12    1    1    2    0    0  0.14472471026E+02 -0.95660397292E+01 -0.70510473446E+01  0.18726419902E+02  0.00000000000E+00 0.  1.
         11    1    3    3    0    0  0.34495425006E+01 -0.17426818984E+02 -0.89570073726E+01  0.19895259352E+02  0.51100000000E-03 0. -1.
        -11    1    3    3    0    0 -0.24115951204E+02  0.32463584928E+02  0.83381152787E+01  0.41291495680E+02  0.51100000000E-03 0.  1.
        -12    1    3    3    0    0  0.61939376779E+01 -0.54707262147E+01  0.76699394385E+01  0.11274825066E+02  0.00000000000E+00 0.  1.
</event>
<event>
 7    1  0.1857734E-013  0.7246154E+02  0.7816164E-02  0.1226708E+00
        -11   -1    0    0    0    0  0.00000000000E+00  0.00000000000E+00  0.45593999997E+02  0.45594000000E+02  0.51100000000E-03 0.  1.
         11   -1    0    0    0    0 -0.00000000000E+00 -0.00000000000E+00 -0.45593999997E+02  0.45594000000E+02  0.51100000000E-03 0. -1.
    9900012    2    1    2    0    0 -0.10605511928E+02 -0.13620999795E+02 -0.72575382857E+01  0.72461537957E+02  0.69999957875E+02 0.  0.
        -12    1    1    2    0    0  0.10605511928E+02  0.13620999795E+02  0.72575382857E+01  0.18726462043E+02  0.00000000000E+00 0.  1.
         11    1    3    3    0    0 -0.31339489219E+01 -0.21830713704E+02  0.26638128518E+02  0.34583111310E+02  0.51100000000E-03 0. -1.
        -11    1    3    3    0    0 -0.12784558233E+01  0.81440475962E+01 -0.28486656053E+02  0.29655514392E+02  0.51100000000E-03 0.  1.
         12    1    3    3    0    0 -0.61931071825E+01  0.65666312222E-01 -0.54090107513E+01  0.82229122546E+01  0.00000000000E+00 0. -1.
</event>
<event>
 7    1  0.1857734E-013  0.7246158E+02  0.7816164E-02  0.1226708E+00
        -11   -1    0    0    0    0  0.00000000000E+00  0.00000000000E+00  0.45593999997E+02  0.45594000000E+02  0.51100000000E-03 0. -1.
         11   -1    0    0    0    0 -0.00000000000E+00 -0.00000000000E+00 -0.45593999997E+02  0.45594000000E+02  0.51100000000E-03 0.  1.
    9900012    2    1    2    0    0 -0.14215764010E+02 -0.43610703696E+01  0.11382963815E+02  0.72461581593E+02  0.70000014718E+02 0.  0.
        -12    1    1    2    0    0  0.14215764010E+02  0.43610703696E+01 -0.11382963815E+02  0.18726418407E+02  0.00000000000E+00 0.  1.
         11    1    3    3    0    0  0.59360997217E+01  0.41593819798E+01  0.76197824207E+01  0.10516597490E+02  0.51100000000E-03 0. -1.
        -11    1    3    3    0    0 -0.34362488251E+02  0.12186353682E+02  0.49993733864E+01  0.36800564525E+02  0.51100000000E-03 0.  1.
        -12    1    3    3    0    0  0.14210624519E+02 -0.20706806031E+02 -0.12361919919E+01  0.25144419578E+02  0.00000000000E+00 0.  1.
</event>
<event>
 7    1  0.1857734E-013  0.7246158E+02  0.7816164E-02  0.1226708E+00
        -11   -1    0    0    0    0  0.00000000000E+00  0.00000000000E+00  0.45593999997E+02  0.45594000000E+02  0.51100000000E-03 0.  1.
         11   -1    0    0    0    0 -0.00000000000E+00 -0.00000000000E+00 -0.45593999997E+02  0.45594000000E+02  0.51100000000E-03 0. -1.
    9900012    2    1    2    0    0 -0.43413931969E+01 -0.18212409386E+02 -0.37340865667E+00  0.72461575232E+02  0.70000006433E+02 0.  0.
        -12    1    1    2    0    0  0.43413931969E+01  0.18212409386E+02  0.37340865667E+00  0.18726424768E+02  0.00000000000E+00 0.  1.
         11    1    3    3    0    0  0.17667413522E+02 -0.16999310206E+02  0.75070880362E+01  0.25641185992E+02  0.51100000000E-03 0. -1.
        -11    1    3    3    0    0 -0.22561426779E+02 -0.18072536771E+02 -0.78408410170E+01  0.29951850556E+02  0.51100000000E-03 0.  1.
         12    1    3    3    0    0  0.55262005996E+00  0.16859437590E+02 -0.39655675844E-01  0.16868538684E+02  0.00000000000E+00 0. -1.
</event>
<event>
 7    1  0.1857734E-013  0.7246159E+02  0.7816164E-02  0.1226708E+00
        -11   -1    0    0    0    0  0.00000000000E+00  0.00000000000E+00  0.45593999997E+02  0.45594000000E+02  0.51100000000E-03 0. -1.
         11   -1    0    0    0    0 -0.00000000000E+00 -0.00000000000E+00 -0.45593999997E+02  0.45594000000E+02  0.51100000000E-03 0.  1.
    9900012    2    1    2    0    0 -0.13554254902E+02  0.11990590664E+02  0.48152249341E+01  0.72461588663E+02  0.70000023928E+02 0.  0.
        -12    1    1    2    0    0  0.13554254902E+02 -0.11990590664E+02 -0.48152249341E+01  0.18726411337E+02  0.00000000000E+00 0.  1.
         11    1    3    3    0    0 -0.27343280412E+02 -0.14757516390E+02  0.17108894131E+02  0.35470459996E+02  0.51100000000E-03 0. -1.
        -11    1    3    3    0    0  0.27773428531E+01  0.22557395483E+02 -0.54740324452E+01  0.23377655052E+02  0.51100000000E-03 0.  1.
         12    1    3    3    0    0  0.11011682658E+02  0.41907115712E+01 -0.68196367514E+01  0.13613473614E+02  0.00000000000E+00 0. -1.
</event>
<event>
 7    1  0.1857734E-013  0.7246163E+02  0.7816164E-02  0.1226708E+00
        -11   -1    0    0    0    0  0.00000000000E+00  0.00000000000E+00  0.45593999997E+02  0.45594000000E+02  0.51100000000E-03 0.  1.
         11   -1    0    0    0    0 -0.00000000000E+00 -0.00000000000E+00 -0.45593999997E+02  0.45594000000E+02  0.51100000000E-03 0. -1.
    9900012    2    1    2    0    0  0.12881560482E+02  0.12970263353E+02 -0.40638310311E+01  0.72461626765E+02  0.70000073563E+02 0.  0.
        -12    1    1    2    0    0 -0.12881560482E+02 -0.12970263353E+02  0.40638310311E+01  0.18726373235E+02  0.00000000000E+00 0.  1.
         11    1    3    3    0    0 -0.21976574590E+02  0.24616875002E+02 -0.57204390589E+01  0.33491548022E+02  0.51100000000E-03 0. -1.
        -11    1    3    3    0    0  0.18454915033E+02 -0.46699286635E+01  0.71228380693E+01  0.20325524471E+02  0.51100000000E-03 0.  1.
         12    1    3    3    0    0  0.16403220039E+02 -0.69766829860E+01 -0.54662300415E+01  0.18644554272E+02  0.00000000000E+00 0. -1.
</event>
<event>
 7    1  0.1857734E-013  0.7246157E+02  0.7816164E-02  0.1226708E+00
        -11   -1    0    0    0    0  0.00000000000E+00  0.00000000000E+00  0.45593999997E+02  0.45594000000E+02  0.51100000000E-03 0.  1.
         11   -1    0    0    0    0 -0.00000000000E+00 -0.00000000000E+00 -0.45593999997E+02  0.45594000000E+02  0.51100000000E-03 0. -1.
    9900012    2    1    2    0    0  0.14110141527E+02 -0.30037254766E+01 -0.11939871728E+02  0.72461574887E+02  0.70000005982E+02 0.  0.
        -12    1    1    2    0    0 -0.14110141527E+02  0.30037254766E+01  0.11939871728E+02  0.18726425113E+02  0.00000000000E+00 0.  1.
         11    1    3    3    0    0  0.86696342405E+01 -0.14769698244E+02 -0.33060409459E+02  0.37233012475E+02  0.51100000000E-03 0. -1.
        -11    1    3    3    0    0  0.88368363116E+01  0.69645801329E+01  0.25515829233E+02  0.27886423115E+02  0.51100000000E-03 0.  1.
         12    1    3    3    0    0 -0.33963290249E+01  0.48013926341E+01 -0.43952915017E+01  0.73421392970E+01  0.00000000000E+00 0. -1.
</event>
<event>
 7    1  0.1857734E-013  0.7246151E+02  0.7816164E-02  0.1226708E+00
        -11   -1    0    0    0    0  0.00000000000E+00  0.00000000000E+00  0.45593999997E+02  0.45594000000E+02  0.51100000000E-03 0. -1.
         11   -1    0    0    0    0 -0.00000000000E+00 -0.00000000000E+00 -0.45593999997E+02  0.45594000000E+02  0.51100000000E-03 0.  1.
    9900012    2    1    2    0    0  0.59911659620E+01 -0.19201608700E+01  0.17638032977E+02  0.72461513553E+02  0.69999926084E+02 0.  0.
        -12    1    1    2    0    0 -0.59911659620E+01  0.19201608700E+01 -0.17638032977E+02  0.18726486447E+02  0.00000000000E+00 0.  1.
         11    1    3    3    0    0  0.67906643768E+01  0.17549750270E+02  0.14684333729E+02  0.23869154039E+02  0.51100000000E-03 0. -1.
        -11    1    3    3    0    0 -0.20576649088E+02 -0.11707753386E+02  0.10697866461E+02  0.25979113228E+02  0.51100000000E-03 0.  1.
         12    1    3    3    0    0  0.19777150673E+02 -0.77621577539E+01 -0.77441672134E+01  0.22613246286E+02  0.00000000000E+00 0. -1.
</event>
<event>
 7    1  0.1857734E-013  0.7246156E+02  0.7816164E-02  0.1226708E+00
        -11   -1    0    0    0    0  0.00000000000E+00  0.00000000000E+00  0.45593999997E+02  0.45594000000E+02  0.51100000000E-03 0.  1.
         11   -1    0    0    0    0 -0.00000000000E+00 -0.00000000000E+00 -0.45593999997E+02  0.45594000000E+02  0.51100000000E-03 0. -1.
    9900012    2    1    2    0    0 -0.17240135226E+02  0.72665862223E+01  0.80865229142E+00  0.72461562633E+02  0.69999990020E+02 0.  0.
        -12    1    1    2    0    0  0.17240135226E+02 -0.72665862223E+01 -0.80865229142E+00  0.18726437367E+02  0.00000000000E+00 0.  1.
         11    1    3    3    0    0 -0.26091119006E+02  0.94055611497E+00  0.21978080710E+02  0.34127220349E+02  0.51100000000E-03 0. -1.
        -11    1    3    3    0    0  0.99493105507E+01  0.14808406810E+02 -0.23466536076E+02  0.29478059779E+02  0.51100000000E-03 0.  1.
        -12    1    3    3    0    0 -0.10983267700E+01 -0.84823767023E+01  0.22971076575E+01  0.88562825047E+01  0.00000000000E+00 0.  1.
</event>
<event>
 7    1  0.1857734E-013  0.7246157E+02  0.7816164E-02  0.1226708E+00
        -11   -1    0    0    0    0  0.00000000000E+00  0.00000000000E+00  0.45593999997E+02  0.45594000000E+02  0.51100000000E-03 0. -1.
         11   -1    0    0    0    0 -0.00000000000E+00 -0.00000000000E+00 -0.45593999997E+02  0.45594000000E+02  0.51100000000E-03 0.  1.
    9900012    2    1    2    0    0 -0.87393817778E+01  0.49175059520E+01  0.15815193516E+02  0.72461574698E+02  0.70000005737E+02 0.  0.
        -12    1    1    2    0    0  0.87393817778E+01 -0.49175059520E+01 -0.15815193516E+02  0.18726425302E+02  0.00000000000E+00 0.  1.
         11    1    3    3    0    0 -0.12810902068E+02  0.26923766645E+02 -0.45103308792E+01  0.30155455676E+02  0.51100000000E-03 0. -1.
        -11    1    3    3    0    0  0.15309913041E+02 -0.13144576696E+02  0.39565963398E+01  0.20562781639E+02  0.51100000000E-03 0.  1.
         12    1    3    3    0    0 -0.11238392751E+02 -0.88616839964E+01  0.16368928055E+02  0.21743337383E+02  0.00000000000E+00 0. -1.
</event>
<event>
 7    1  0.1857734E-013  0.7246156E+02  0.7816164E-02  0.1226708E+00
        -11   -1    0    0    0    0  0.00000000000E+00  0.00000000000E+00  0.45593999997E+02  0.45594000000E+02  0.51100000000E-03 0. -1.
         11   -1    0    0    0    0 -0.00000000000E+00 -0.00000000000E+00 -0.45593999997E+02  0.45594000000E+02  0.51100000000E-03 0.  1.
    9900012    2    1    2    0    0  0.18224742292E+02  0.38476795728E+01  0.19322326411E+01  0.72461564336E+02  0.69999992238E+02 0.  0.
        -12    1    1    2    0    0 -0.18224742292E+02 -0.38476795728E+01 -0.19322326411E+01  0.18726435664E+02  0.00000000000E+00 0.  1.
         11    1    3    3    0    0  0.12911362748E+02  0.61495655777E+01 -0.93469855123E+01  0.17084688561E+02  0.51100000000E-03 0. -1.
        -11    1    3    3    0    0  0.63241937619E+01 -0.61280987149E+01  0.32560717245E+02  0.33730539995E+02  0.51100000000E-03 0.  1.
        -12    1    3    3    0    0 -0.10108142176E+01  0.38262127100E+01 -0.21281499092E+02  0.21646335779E+02  0.00000000000E+00 0.  1.
</event>
<event>
 7    1  0.1857734E-013  0.7246157E+02  0.7816164E-02  0.1226708E+00
        -11   -1    0    0    0    0  0.00000000000E+00  0.00000000000E+00  0.45593999997E+02  0.45594000000E+02  0.51100000000E-03 0.  1.
         11   -1    0    0    0    0 -0.00000000000E+00 -0.00000000000E+00 -0.45593999997E+02  0.45594000000E+02  0.51100000000E-03 0. -1.
    9900012    2    1    2    0    0 -0.15224499898E+02 -0.10903823947E+02 -0.23271936795E-01  0.72461566399E+02  0.69999994926E+02 0.  0.
        -12    1    1    2    0    0  0.15224499898E+02  0.10903823947E+02  0.23271936795E-01  0.18726433601E+02  0.00000000000E+00 0.  1.
         11    1    3    3    0    0 -0.20711937444E+02 -0.69086165133E+01  0.50597927507E+01  0.22412381350E+02  0.51100000000E-03 0. -1.
        -11    1    3    3    0    0  0.65191771915E+01  0.29637219323E+01 -0.26529160406E+02  0.27478713053E+02  0.51100000000E-03 0.  1.
        -12    1    3    3    0    0 -0.10317396457E+01 -0.69589293655E+01  0.21446095718E+02  0.22570471997E+02  0.00000000000E+00 0.  1.
</event>
<event>
 7    1  0.1857734E-013  0.7246164E+02  0.7816164E-02  0.1226708E+00
        -11   -1    0    0    0    0  0.00000000000E+00  0.00000000000E+00  0.45593999997E+02  0.45594000000E+02  0.51100000000E-03 0. -1.
         11   -1    0    0    0    0 -0.00000000000E+00 -0.00000000000E+00 -0.45593999997E+02  0.45594000000E+02  0.51100000000E-03 0.  1.
    9900012    2    1    2    0    0  0.90973257297E+01 -0.16365556210E+02 -0.28935946571E+00  0.72461641721E+02  0.70000093046E+02 0.  0.
        -12    1    1    2    0    0 -0.90973257297E+01  0.16365556210E+02  0.28935946571E+00  0.18726358279E+02  0.00000000000E+00 0.  1.
         11    1    3    3    0    0 -0.69932699375E+01  0.15222972816E+02 -0.16725516661E+02  0.23672507970E+02  0.51100000000E-03 0.  1.
        -11    1    3    3    0    0  0.14215331702E+02 -0.31820118051E+02  0.23133688699E+02  0.41830169988E+02  0.51100000000E-03 0. -1.
        -12    1    3    3    0    0  0.18752639656E+01  0.23158902520E+00 -0.66975315030E+01  0.69589637627E+01  0.00000000000E+00 0.  1.
</event>
<event>
 7    1  0.1857734E-013  0.7246154E+02  0.7816164E-02  0.1226708E+00
        -11   -1    0    0    0    0  0.00000000000E+00  0.00000000000E+00  0.45593999997E+02  0.45594000000E+02  0.51100000000E-03 0.  1.
         11   -1    0    0    0    0 -0.00000000000E+00 -0.00000000000E+00 -0.45593999997E+02  0.45594000000E+02  0.51100000000E-03 0. -1.
    9900012    2    1    2    0    0  0.14375622369E+02  0.99309382118E+01 -0.67378094692E+01  0.72461544684E+02  0.69999966637E+02 0.  0.
        -12    1    1    2    0    0 -0.14375622369E+02 -0.99309382118E+01  0.67378094692E+01  0.18726455316E+02  0.00000000000E+00 0.  1.
         11    1    3    3    0    0 -0.21694773709E+02  0.45808558322E+01 -0.11543162363E+02  0.24997840788E+02  0.51100000000E-03 0. -1.
        -11    1    3    3    0    0  0.10530637830E+02 -0.35132489105E+01  0.14922253935E+02  0.18598680431E+02  0.51100000000E-03 0.  1.
         12    1    3    3    0    0  0.25539758249E+02  0.88633312901E+01 -0.10116901041E+02  0.28865023465E+02  0.00000000000E+00 0. -1.
</event>
<event>
 7    1  0.1857734E-013  0.7246163E+02  0.7816164E-02  0.1226708E+00
        -11   -1    0    0    0    0  0.00000000000E+00  0.00000000000E+00  0.45593999997E+02  0.45594000000E+02  0.51100000000E-03 0. -1.
         11   -1    0    0    0    0 -0.00000000000E+00 -0.00000000000E+00 -0.45593999997E+02  0.45594000000E+02  0.51100000000E-03 0.  1.
    9900012    2    1    2    0    0 -0.30616576555E+01 -0.17753324186E+02  0.51110177329E+01  0.72461634376E+02  0.70000083478E+02 0.  0.
        -12    1    1    2    0    0  0.30616576555E+01  0.17753324186E+02 -0.51110177329E+01  0.18726365624E+02  0.00000000000E+00 0.  1.
         11    1    3    3    0    0 -0.17124473082E+02  0.46586333841E+01 -0.22755347115E+00  0.17748302009E+02  0.51100000000E-03 0. -1.
        -11    1    3    3    0    0  0.38683406336E+01 -0.12913971470E+02 -0.20977805910E+02  0.24935979216E+02  0.51100000000E-03 0.  1.
        -12    1    3    3    0    0  0.10194474793E+02 -0.94979860994E+01  0.26316377114E+02  0.29777353151E+02  0.00000000000E+00 0.  1.
</event>
<event>
 7    1  0.1857734E-013  0.7246162E+02  0.7816164E-02  0.1226708E+00
        -11   -1    0    0    0    0  0.00000000000E+00  0.00000000000E+00  0.45593999997E+02  0.45594000000E+02  0.51100000000E-03 0.  1.
         11   -1    0    0    0    0 -0.00000000000E+00 -0.00000000000E+00 -0.45593999997E+02  0.45594000000E+02  0.51100000000E-03 0. -1.
    9900012    2    1    2    0    0 -0.12189343510E+02  0.78375416649E+01 -0.11860447141E+02  0.72461618584E+02  0.70000062906E+02 0.  0.
        -12    1    1    2    0    0  0.12189343510E+02 -0.78375416649E+01  0.11860447141E+02  0.18726381416E+02  0.00000000000E+00 0.  1.
         11    1    3    3    0    0 -0.33980634352E+00 -0.53479635998E+01 -0.37480302018E+02  0.37861447709E+02  0.51100000000E-03 0. -1.
        -11    1    3    3    0    0 -0.67246953945E+01  0.15064479440E+02  0.13532511128E+02  0.21337500478E+02  0.51100000000E-03 0.  1.
         12    1    3    3    0    0 -0.51248417724E+01 -0.18789741755E+01  0.12087343750E+02  0.13262670397E+02  0.00000000000E+00 0. -1.
</event>
<event>
 7    1  0.1857734E-013  0.7246159E+02  0.7816164E-02  0.1226708E+00
        -11   -1    0    0    0    0  0.00000000000E+00  0.00000000000E+00  0.45593999997E+02  0.45594000000E+02  0.51100000000E-03 0.  1.
         11   -1    0    0    0    0 -0.00000000000E+00 -0.00000000000E+00 -0.45593999997E+02  0.45594000000E+02  0.51100000000E-03 0. -1.
    9900012    2    1    2    0    0 -0.10243450651E+02  0.14106246590E+02 -0.68384228897E+01  0.72461588125E+02  0.70000023228E+02 0.  0.
        -12    1    1    2    0    0  0.10243450651E+02 -0.14106246590E+02  0.68384228897E+01  0.18726411875E+02  0.00000000000E+00 0.  1.
         11    1    3    3    0    0  0.29422847021E+02  0.25694320965E+01  0.21339576795E+01  0.29611816624E+02  0.51100000000E-03 0.  1.
        -11    1    3    3    0    0 -0.27709692563E+02  0.11205688703E+02 -0.73395578777E+01  0.30777648242E+02  0.51100000000E-03 0. -1.
        -12    1    3    3    0    0 -0.11956605110E+02  0.33112579084E+00 -0.16328226915E+01  0.12072123259E+02  0.00000000000E+00 0.  1.
</event>
<event>
 7    1  0.1857734E-013  0.7246148E+02  0.7816164E-02  0.1226708E+00
        -11   -1    0    0    0    0  0.00000000000E+00  0.00000000000E+00  0.45593999997E+02  0.45594000000E+02  0.51100000000E-03 0.  1.
         11   -1    0    0    0    0 -0.00000000000E+00 -0.00000000000E+00 -0.45593999997E+02  0.45594000000E+02  0.51100000000E-03 0. -1.
    9900012    2    1    2    0    0 -0.16065147288E+02  0.57991083719E+01 -0.76787866736E+01  0.72461484572E+02  0.69999888330E+02 0.  0.
        -12    1    1    2    0    0  0.16065147288E+02 -0.57991083719E+01  0.76787866736E+01  0.18726515428E+02  0.00000000000E+00 0.  1.
         11    1    3    3    0    0 -0.37761380790E+02  0.44165407636E+01  0.14424086666E+02  0.40663029743E+02  0.51100000000E-03 0. -1.
        -11    1    3    3    0    0  0.18908255623E+02  0.28785194531E+01 -0.16048631432E+02  0.24967310148E+02  0.51100000000E-03 0.  1.
         12    1    3    3    0    0  0.27879778782E+01 -0.14959518448E+01 -0.60542419076E+01  0.68311446806E+01  0.00000000000E+00 0. -1.
</event>
<event>
 7    1  0.1857734E-013  0.7246162E+02  0.7816164E-02  0.1226708E+00
        -11   -1    0    0    0    0  0.00000000000E+00  0.00000000000E+00  0.45593999997E+02  0.45594000000E+02  0.51100000000E-03 0.  1.
         11   -1    0    0    0    0 -0.00000000000E+00 -0.00000000000E+00 -0.45593999997E+02  0.45594000000E+02  0.51100000000E-03 0. -1.
    9900012    2    1    2    0    0  0.33113884133E+01 -0.65250186865E+01 -0.17237637323E+02  0.72461620143E+02  0.70000064937E+02 0.  0.
        -12    1    1    2    0    0 -0.33113884133E+01  0.65250186865E+01  0.17237637323E+02  0.18726379857E+02  0.00000000000E+00 0.  1.
         11    1    3    3    0    0  0.32635738514E-01  0.96986387870E+01 -0.11755762981E+02  0.15240164794E+02  0.51100000000E-03 0. -1.
        -11    1    3    3    0    0 -0.25905138071E+01 -0.53247452952E+01  0.24278012663E+02  0.24989709349E+02  0.51100000000E-03 0.  1.
        -12    1    3    3    0    0  0.58692664818E+01 -0.10898912178E+02 -0.29759887004E+02  0.32231746000E+02  0.00000000000E+00 0.  1.
</event>
<event>
 7    1  0.1857734E-013  0.7246145E+02  0.7816164E-02  0.1226708E+00
        -11   -1    0    0    0    0  0.00000000000E+00  0.00000000000E+00  0.45593999997E+02  0.45594000000E+02  0.51100000000E-03 0. -1.
         11   -1    0    0    0    0 -0.00000000000E+00 -0.00000000000E+00 -0.45593999997E+02  0.45594000000E+02  0.51100000000E-03 0.  1.
    9900012    2    1    2    0    0  0.53605611032E+01  0.54231885430E+01  0.17103714342E+02  0.72461451102E+02  0.69999844730E+02 0.  0.
        -12    1    1    2    0    0 -0.53605611032E+01 -0.54231885430E+01 -0.17103714342E+02  0.18726548898E+02  0.00000000000E+00 0.  1.
         11    1    3    3    0    0  0.98079747383E+01 -0.11804954601E+02 -0.44048334172E+01  0.15967337890E+02  0.51100000000E-03 0. -1.
        -11    1    3    3    0    0 -0.24227946265E+02  0.90232123340E+01 -0.40162921067E+00  0.25856779523E+02  0.51100000000E-03 0.  1.
        -12    1    3    3    0    0  0.19780532629E+02  0.82049308103E+01  0.21910176970E+02  0.30637333689E+02  0.00000000000E+00 0.  1.
</event>
<event>
 7    1  0.1857734E-013  0.7246159E+02  0.7816164E-02  0.1226708E+00
        -11   -1    0    0    0    0  0.00000000000E+00  0.00000000000E+00  0.45593999997E+02  0.45594000000E+02  0.51100000000E-03 0. -1.
         11   -1    0    0    0    0 -0.00000000000E+00 -0.00000000000E+00 -0.45593999997E+02  0.45594000000E+02  0.51100000000E-03 0.  1.
    9900012    2    1    2    0    0 -0.16406605905E+02  0.79688397377E+00  0.89925855859E+01  0.72461592525E+02  0.70000028960E+02 0.  0.
        -12    1    1    2    0    0  0.16406605905E+02 -0.79688397377E+00 -0.89925855859E+01  0.18726407475E+02  0.00000000000E+00 0.  1.
         11    1    3    3    0    0 -0.23809818946E+02 -0.12174363416E+02  0.98635150725E+01  0.28502833765E+02  0.51100000000E-03 0. -1.
        -11    1    3    3    0    0  0.21591056939E+01  0.26071383347E+02 -0.90102305333E+01  0.27668809543E+02  0.51100000000E-03 0.  1.
        -12    1    3    3    0    0  0.52441073466E+01 -0.13100135957E+02  0.81393010467E+01  0.16289949217E+02  0.00000000000E+00 0.  1.
</event>
<event>
 7    1  0.2026048E-013  0.7246158E+02  0.7816164E-02  0.1226708E+00
        -11   -1    0    0    0    0  0.00000000000E+00  0.00000000000E+00  0.45593999997E+02  0.45594000000E+02  0.51100000000E-03 0. -1.
         11   -1    0    0    0    0 -0.00000000000E+00 -0.00000000000E+00 -0.45593999997E+02  0.45594000000E+02  0.51100000000E-03 0.  1.
    9900012    2    1    2    0    0  0.10553528921E+02  0.66456957224E+01  0.13969123474E+02  0.72461584033E+02  0.70000017898E+02 0.  0.
        -12    1    1    2    0    0 -0.10553528921E+02 -0.66456957224E+01 -0.13969123474E+02  0.18726415967E+02  0.00000000000E+00 0.  1.
         11    1    3    3    0    0  0.23376145147E+02  0.72462944896E+01  0.12556455487E+02  0.27506681378E+02  0.51100000000E-03 0. -1.
        -11    1    3    3    0    0 -0.20358413510E+02 -0.31773011307E+01  0.17480973364E+02  0.27021189336E+02  0.51100000000E-03 0.  1.
        -12    1    3    3    0    0  0.75357972841E+01  0.25767023635E+01 -0.16068305376E+02  0.17933713320E+02  0.00000000000E+00 0.  1.
</event>
<event>
 7    1  0.1857734E-013  0.7246147E+02  0.7816164E-02  0.1226708E+00
        -11   -1    0    0    0    0  0.00000000000E+00  0.00000000000E+00  0.45593999997E+02  0.45594000000E+02  0.51100000000E-03 0. -1.
         11   -1    0    0    0    0 -0.00000000000E+00 -0.00000000000E+00 -0.45593999997E+02  0.45594000000E+02  0.51100000000E-03 0.  1.
    9900012    2    1    2    0    0  0.93982952041E+01  0.15046863162E+02 -0.59955683609E+01  0.72461471124E+02  0.69999870812E+02 0.  0.
        -12    1    1    2    0    0 -0.93982952041E+01 -0.15046863162E+02  0.59955683609E+01  0.18726528876E+02  0.00000000000E+00 0.  1.
         11    1    3    3    0    0  0.19691948267E+02  0.14246749739E+02 -0.48016169578E+01  0.24774951672E+02  0.51100000000E-03 0. -1.
        -11    1    3    3    0    0 -0.26808230819E+02  0.14270183841E+01 -0.10374832901E+02  0.28781153193E+02  0.51100000000E-03 0.  1.
        -12    1    3    3    0    0  0.16514577757E+02 -0.62690496110E+00  0.91808814982E+01  0.18905366259E+02  0.00000000000E+00 0.  1.
</event>
<event>
 7    1  0.1857734E-013  0.7246159E+02  0.7816164E-02  0.1226708E+00
        -11   -1    0    0    0    0  0.00000000000E+00  0.00000000000E+00  0.45593999997E+02  0.45594000000E+02  0.51100000000E-03 0. -1.
         11   -1    0    0    0    0 -0.00000000000E+00 -0.00000000000E+00 -0.45593999997E+02  0.45594000000E+02  0.51100000000E-03 0.  1.
    9900012    2    1    2    0    0  0.18476409670E+02 -0.29303532885E+01  0.84480475764E+00  0.72461591381E+02  0.70000027469E+02 0.  0.
        -12    1    1    2    0    0 -0.18476409670E+02  0.29303532885E+01 -0.84480475764E+00  0.18726408619E+02  0.00000000000E+00 0.  1.
         11    1    3    3    0    0  0.29596503655E+02  0.35204105374E+01  0.21566038722E+02  0.36789133523E+02  0.51100000000E-03 0. -1.
        -11    1    3    3    0    0 -0.14293723272E+02 -0.14426562985E+02 -0.16149521431E+02  0.25946932136E+02  0.51100000000E-03 0.  1.
         12    1    3    3    0    0  0.31736292876E+01  0.79757991586E+01 -0.45717125335E+01  0.97255257217E+01  0.00000000000E+00 0. -1.
</event>
<event>
 7    1  0.1857734E-013  0.7246159E+02  0.7816164E-02  0.1226708E+00
        -11   -1    0    0    0    0  0.00000000000E+00  0.00000000000E+00  0.45593999997E+02  0.45594000000E+02  0.51100000000E-03 0.  1.
         11   -1    0    0    0    0 -0.00000000000E+00 -0.00000000000E+00 -0.45593999997E+02  0.45594000000E+02  0.51100000000E-03 0. -1.
    9900012    2    1    2    0    0  0.92512736442E+01  0.75606453867E+01 -0.14419748860E+02  0.72461586038E+02  0.70000020508E+02 0.  0.
        -12    1    1    2    0    0 -0.92512736442E+01 -0.75606453867E+01  0.14419748860E+02  0.18726413962E+02  0.00000000000E+00 0.  1.
         11    1    3    3    0    0 -0.19181117414E+02  0.45960486399E+01  0.16134847092E+02  0.25482782801E+02  0.51100000000E-03 0.  1.
        -11    1    3    3    0    0  0.28112016232E+02  0.86186331864E+01 -0.22013911682E+02  0.36731166636E+02  0.51100000000E-03 0. -1.
        -12    1    3    3    0    0  0.32037482617E+00 -0.56540364396E+01 -0.85406842707E+01  0.10247636601E+02  0.00000000000E+00 0.  1.
</event>
<event>
 7    1  0.1857734E-013  0.7246157E+02  0.7816164E-02  0.1226708E+00
        -11   -1    0    0    0    0  0.00000000000E+00  0.00000000000E+00  0.45593999997E+02  0.45594000000E+02  0.51100000000E-03 0. -1.
         11   -1    0    0    0    0 -0.00000000000E+00 -0.00000000000E+00 -0.45593999997E+02  0.45594000000E+02  0.51100000000E-03 0.  1.
    9900012    2    1    2    0    0  0.14472770174E+02  0.36456695122E+01  0.11310487092E+02  0.72461572125E+02  0.70000002385E+02 0.  0.
        -12    1    1    2    0    0 -0.14472770174E+02 -0.36456695122E+01 -0.11310487092E+02  0.18726427875E+02  0.00000000000E+00 0.  1.
         11    1    3    3    0    0  0.64868699493E+01  0.26438020479E+02  0.17485037821E+02  0.32353901719E+02  0.51100000000E-03 0. -1.
        -11    1    3    3    0    0 -0.11234632887E+02 -0.11778836253E+02  0.21993237440E+01  0.16425437125E+02  0.51100000000E-03 0.  1.
         12    1    3    3    0    0  0.19220533112E+02 -0.11013514714E+02 -0.83738744733E+01  0.23682233280E+02  0.00000000000E+00 0. -1.
</event>
<event>
 7    1  0.1857734E-013  0.7246167E+02  0.7816164E-02  0.1226708E+00
        -11   -1    0    0    0    0  0.00000000000E+00  0.00000000000E+00  0.45593999997E+02  0.45594000000E+02  0.51100000000E-03 0. -1.
         11   -1    0    0    0    0 -0.00000000000E+00 -0.00000000000E+00 -0.45593999997E+02  0.45594000000E+02  0.51100000000E-03 0.  1.
    9900012    2    1    2    0    0  0.15370079522E+02  0.81596421327E+00  0.10666312812E+02  0.72461671713E+02  0.70000132117E+02 0.  0.
        -12    1    1    2    0    0 -0.15370079522E+02 -0.81596421327E+00 -0.10666312812E+02  0.18726328287E+02  0.00000000000E+00 0.  1.
         11    1    3    3    0    0 -0.11621981800E+01 -0.97348388478E+01  0.18697116180E+02  0.21111606896E+02  0.51100000000E-03 0. -1.
        -11    1    3    3    0    0  0.97764999485E+01  0.26339137105E+02  0.65197721947E+01  0.28841593653E+02  0.51100000000E-03 0.  1.
        -12    1    3    3    0    0  0.67557777537E+01 -0.15788334044E+02 -0.14550575563E+02  0.22508471165E+02  0.00000000000E+00 0.  1.
</event>
<event>
 7    1  0.1857734E-013  0.7246159E+02  0.7816164E-02  0.1226708E+00
        -11   -1    0    0    0    0  0.00000000000E+00  0.00000000000E+00  0.45593999997E+02  0.45594000000E+02  0.51100000000E-03 0. -1.
         11   -1    0    0    0    0 -0.00000000000E+00 -0.00000000000E+00 -0.45593999997E+02  0.45594000000E+02  0.51100000000E-03 0.  1.
    9900012    2    1    2    0    0 -0.44283109814E+01  0.14673173363E+02  0.10759490158E+02  0.72461585950E+02  0.70000020395E+02 0.  0.
        -12    1    1    2    0    0  0.44283109814E+01 -0.14673173363E+02 -0.10759490158E+02  0.18726414050E+02  0.00000000000E+00 0.  1.
         11    1    3    3    0    0 -0.49010244595E+01  0.16075337795E+01  0.65732266540E+01  0.83553285100E+01  0.51100000000E-03 0. -1.
        -11    1    3    3    0    0 -0.15657325682E+02  0.33018182997E+01 -0.24807662864E+02  0.29520738280E+02  0.51100000000E-03 0.  1.
        -12    1    3    3    0    0  0.16130039160E+02  0.97638212842E+01  0.28993926368E+02  0.34585519160E+02  0.00000000000E+00 0.  1.
</event>
<event>
 7    1  0.1857734E-013  0.7246157E+02  0.7816164E-02  0.1226708E+00
        -11   -1    0    0    0    0  0.00000000000E+00  0.00000000000E+00  0.45593999997E+02  0.45594000000E+02  0.51100000000E-03 0.  1.
         11   -1    0    0    0    0 -0.00000000000E+00 -0.00000000000E+00 -0.45593999997E+02  0.45594000000E+02  0.51100000000E-03 0. -1.
    9900012    2    1    2    0    0  0.70103603753E+01  0.12824306940E+02 -0.11707742247E+02  0.72461568690E+02  0.69999997910E+02 0.  0.
        -12    1    1    2    0    0 -0.70103603753E+01 -0.12824306940E+02  0.11707742247E+02  0.18726431310E+02  0.00000000000E+00 0.  1.
         11    1    3    3    0    0  0.22452122788E+01  0.22612491210E+02 -0.29753807505E+02  0.37438680509E+02  0.51100000000E-03 0. -1.
        -11    1    3    3    0    0  0.15618210559E+02 -0.98710813653E+01  0.76611686807E+01  0.20001506298E+02  0.51100000000E-03 0.  1.
        -12    1    3    3    0    0 -0.10853062463E+02  0.82897095264E-01  0.10384896578E+02  0.15021381883E+02  0.00000000000E+00 0.  1.
</event>
<event>
 7    1  0.1857734E-013  0.7246157E+02  0.7816164E-02  0.1226708E+00
        -11   -1    0    0    0    0  0.00000000000E+00  0.00000000000E+00  0.45593999997E+02  0.45594000000E+02  0.51100000000E-03 0.  1.
         11   -1    0    0    0    0 -0.00000000000E+00 -0.00000000000E+00 -0.45593999997E+02  0.45594000000E+02  0.51100000000E-03 0. -1.
    9900012    2    1    2    0    0 -0.84186767824E+01 -0.12190829757E+02  0.11453762548E+02  0.72461571471E+02  0.70000001533E+02 0.  0.
        -12    1    1    2    0    0  0.84186767824E+01  0.12190829757E+02 -0.11453762548E+02  0.18726428529E+02  0.00000000000E+00 0.  1.
         11    1    3    3    0    0 -0.21044323208E+02 -0.10455738919E+02 -0.19473801042E+02  0.30519091450E+02  0.51100000000E-03 0. -1.
        -11    1    3    3    0    0  0.11424137511E+02  0.10657272741E+02  0.14377085978E+02  0.21231791767E+02  0.51100000000E-03 0.  1.
        -12    1    3    3    0    0  0.12015089145E+01 -0.12392363579E+02  0.16550477613E+02  0.20710688254E+02  0.00000000000E+00 0.  1.
</event>
<event>
 7    1  0.1857734E-013  0.7246157E+02  0.7816164E-02  0.1226708E+00
        -11   -1    0    0    0    0  0.00000000000E+00  0.00000000000E+00  0.45593999997E+02  0.45594000000E+02  0.51100000000E-03 0.  1.
         11   -1    0    0    0    0 -0.00000000000E+00 -0.00000000000E+00 -0.45593999997E+02  0.45594000000E+02  0.51100000000E-03 0. -1.
    9900012    2    1    2    0    0 -0.12937867950E+02 -0.74473791487E+01 -0.11306077752E+02  0.72461567414E+02  0.69999996248E+02 0.  0.
        -12    1    1    2    0    0  0.12937867950E+02  0.74473791487E+01  0.11306077752E+02  0.18726432586E+02  0.00000000000E+00 0.  1.
         11    1    3    3    0    0 -0.37633363712E+01 -0.20908238773E+02 -0.27545244490E+01  0.21422057661E+02  0.51100000000E-03 0. -1.
        -11    1    3    3    0    0 -0.17941225945E+01  0.20271366063E+02 -0.24711932403E+02  0.32012915539E+02  0.51100000000E-03 0.  1.
        -12    1    3    3    0    0 -0.73804089839E+01 -0.68105064381E+01  0.16160379100E+02  0.19026594214E+02  0.00000000000E+00 0.  1.
</event>
<event>
 7    1  0.1857734E-013  0.7246160E+02  0.7816164E-02  0.1226708E+00
        -11   -1    0    0    0    0  0.00000000000E+00  0.00000000000E+00  0.45593999997E+02  0.45594000000E+02  0.51100000000E-03 0.  1.
         11   -1    0    0    0    0 -0.00000000000E+00 -0.00000000000E+00 -0.45593999997E+02  0.45594000000E+02  0.51100000000E-03 0. -1.
    9900012    2    1    2    0    0  0.22582712581E+01  0.16258006377E+02 -0.90141870959E+01  0.72461598065E+02  0.70000036177E+02 0.  0.
        -12    1    1    2    0    0 -0.22582712581E+01 -0.16258006377E+02  0.90141870959E+01  0.18726401935E+02  0.00000000000E+00 0.  1.
         11    1    3    3    0    0 -0.16554670967E+01  0.51670764419E+01 -0.15512890268E+02  0.16434385142E+02  0.51100000000E-03 0. -1.
        -11    1    3    3    0    0  0.16182147173E+02 -0.16414186275E+02  0.11061294811E+02  0.25566377165E+02  0.51100000000E-03 0.  1.
        -12    1    3    3    0    0 -0.12268408818E+02  0.27505116210E+02 -0.45625916383E+01  0.30460835758E+02  0.00000000000E+00 0.  1.
</event>
<event>
 7    1  0.1857734E-013  0.7246108E+02  0.7816164E-02  0.1226709E+00
        -11   -1    0    0    0    0  0.00000000000E+00  0.00000000000E+00  0.45593999997E+02  0.45594000000E+02  0.51100000000E-03 0. -1.
         11   -1    0    0    0    0 -0.00000000000E+00 -0.00000000000E+00 -0.45593999997E+02  0.45594000000E+02  0.51100000000E-03 0.  1.
    9900012    2    1    2    0    0  0.12782251119E+02  0.86307376799E+01  0.10621769131E+02  0.72461079376E+02  0.69999360485E+02 0.  0.
        -12    1    1    2    0    0 -0.12782251119E+02 -0.86307376799E+01 -0.10621769131E+02  0.18726920624E+02  0.00000000000E+00 0.  1.
         11    1    3    3    0    0  0.19855851453E+02  0.30989586264E+01 -0.71669291112E+01  0.21335961536E+02  0.51100000000E-03 0. -1.
        -11    1    3    3    0    0 -0.27513085169E+01 -0.20505648882E+02  0.12606103377E+02  0.24227364225E+02  0.51100000000E-03 0.  1.
         12    1    3    3    0    0 -0.43222918170E+01  0.26037427936E+02  0.51825948643E+01  0.26897753616E+02  0.00000000000E+00 0. -1.
</event>
<event>
 7    1  0.1857734E-013  0.7246154E+02  0.7816164E-02  0.1226708E+00
        -11   -1    0    0    0    0  0.00000000000E+00  0.00000000000E+00  0.45593999997E+02  0.45594000000E+02  0.51100000000E-03 0.  1.
         11   -1    0    0    0    0 -0.00000000000E+00 -0.00000000000E+00 -0.45593999997E+02  0.45594000000E+02  0.51100000000E-03 0. -1.
    9900012    2    1    2    0    0 -0.18681772679E+02 -0.52755260877E+00 -0.11803551594E+01  0.72461543302E+02  0.69999964837E+02 0.  0.
        -12    1    1    2    0    0  0.18681772679E+02  0.52755260877E+00  0.11803551594E+01  0.18726456698E+02  0.00000000000E+00 0.  1.
         11    1    3    3    0    0 -0.88394214621E+01  0.28055556828E+01 -0.37756260701E+01  0.10013084787E+02  0.51100000000E-03 0. -1.
        -11    1    3    3    0    0  0.23402401679E+02  0.11322474898E+02 -0.32432181425E+00  0.25999538978E+02  0.51100000000E-03 0.  1.
        -12    1    3    3    0    0 -0.33244752896E+02 -0.14655583189E+02  0.29195927250E+01  0.36448919537E+02  0.00000000000E+00 0.  1.
</event>
<event>
 7    1  0.1857734E-013  0.7246161E+02  0.7816164E-02  0.1226708E+00
        -11   -1    0    0    0    0  0.00000000000E+00  0.00000000000E+00  0.45593999997E+02  0.45594000000E+02  0.51100000000E-03 0. -1.
         11   -1    0    0    0    0 -0.00000000000E+00 -0.00000000000E+00 -0.45593999997E+02  0.45594000000E+02  0.51100000000E-03 0.  1.
    9900012    2    1    2    0    0  0.16170743487E+02  0.72687141897E+01 -0.60291378447E+01  0.72461610758E+02  0.70000052711E+02 0.  0.
        -12    1    1    2    0    0 -0.16170743487E+02 -0.72687141897E+01  0.60291378447E+01  0.18726389242E+02  0.00000000000E+00 0.  1.
         11    1    3    3    0    0  0.15319405639E+02  0.28485595639E+02  0.15647434952E+02  0.35929870148E+02  0.51100000000E-03 0.  1.
        -11    1    3    3    0    0  0.34492133671E+00 -0.21457309468E+02 -0.80911078900E+01  0.22934714463E+02  0.51100000000E-03 0. -1.
        -12    1    3    3    0    0  0.50641651107E+00  0.24042801938E+00 -0.13585464906E+02  0.13597026147E+02  0.00000000000E+00 0.  1.
</event>
<event>
 7    1  0.1857734E-013  0.7246157E+02  0.7816164E-02  0.1226708E+00
        -11   -1    0    0    0    0  0.00000000000E+00  0.00000000000E+00  0.45593999997E+02  0.45594000000E+02  0.51100000000E-03 0. -1.
         11   -1    0    0    0    0 -0.00000000000E+00 -0.00000000000E+00 -0.45593999997E+02  0.45594000000E+02  0.51100000000E-03 0.  1.
    9900012    2    1    2    0    0  0.12229769262E+02  0.12925565767E+02  0.58345281718E+01  0.72461568798E+02  0.69999998051E+02 0.  0.
        -12    1    1    2    0    0 -0.12229769262E+02 -0.12925565767E+02 -0.58345281718E+01  0.18726431202E+02  0.00000000000E+00 0.  1.
         11    1    3    3    0    0  0.11636981972E+02  0.13492136681E+02  0.35897644180E+02  0.40076152005E+02  0.51100000000E-03 0. -1.
        -11    1    3    3    0    0 -0.25867628911E+01 -0.45636735505E+01 -0.69099025295E+01  0.86755525334E+01  0.51100000000E-03 0.  1.
         12    1    3    3    0    0  0.31795501807E+01  0.39971026362E+01 -0.23153213478E+02  0.23709864259E+02  0.00000000000E+00 0. -1.
</event>
<event>
 7    1  0.1857734E-013  0.7246155E+02  0.7816164E-02  0.1226708E+00
        -11   -1    0    0    0    0  0.00000000000E+00  0.00000000000E+00  0.45593999997E+02  0.45594000000E+02  0.51100000000E-03 0. -1.
         11   -1    0    0    0    0 -0.00000000000E+00 -0.00000000000E+00 -0.45593999997E+02  0.45594000000E+02  0.51100000000E-03 0.  1.
    9900012    2    1    2    0    0 -0.12728712751E+02 -0.82333983122E+01  0.10994138727E+02  0.72461546454E+02  0.69999968944E+02 0.  0.
        -12    1    1    2    0    0  0.12728712751E+02  0.82333983122E+01 -0.10994138727E+02  0.18726453546E+02  0.00000000000E+00 0.  1.
         11    1    3    3    0    0 -0.60055840379E+01 -0.19700362831E+02  0.14859976575E+02  0.25396658036E+02  0.51100000000E-03 0. -1.
        -11    1    3    3    0    0 -0.18927088679E+02  0.22513677958E+01 -0.18017888649E+02  0.26228756251E+02  0.51100000000E-03 0.  1.
        -12    1    3    3    0    0  0.12203959967E+02  0.92155967232E+01  0.14152050801E+02  0.20836132168E+02  0.00000000000E+00 0.  1.
</event>
<event>
 7    1  0.1857734E-013  0.7246156E+02  0.7816164E-02  0.1226708E+00
        -11   -1    0    0    0    0  0.00000000000E+00  0.00000000000E+00  0.45593999997E+02  0.45594000000E+02  0.51100000000E-03 0.  1.
         11   -1    0    0    0    0 -0.00000000000E+00 -0.00000000000E+00 -0.45593999997E+02  0.45594000000E+02  0.51100000000E-03 0. -1.
    9900012    2    1    2    0    0  0.14709987127E+02 -0.88981117551E+01 -0.74242400874E+01  0.72461562673E+02  0.69999990072E+02 0.  0.
        -12    1    1    2    0    0 -0.14709987127E+02  0.88981117551E+01  0.74242400874E+01  0.18726437327E+02  0.00000000000E+00 0.  1.
         11    1    3    3    0    0  0.26030466652E+02 -0.26197528582E+02  0.20513818613E+01  0.36987888095E+02  0.51100000000E-03 0.  1.
        -11    1    3    3    0    0 -0.11357607242E+02  0.82156536330E+01  0.77370693045E+01  0.16011072686E+02  0.51100000000E-03 0. -1.
         12    1    3    3    0    0  0.37127716628E-01  0.90837631936E+01 -0.17212691253E+02  0.19462601892E+02  0.00000000000E+00 0. -1.
</event>
<event>
 7    1  0.1857734E-013  0.7246144E+02  0.7816164E-02  0.1226708E+00
        -11   -1    0    0    0    0  0.00000000000E+00  0.00000000000E+00  0.45593999997E+02  0.45594000000E+02  0.51100000000E-03 0. -1.
         11   -1    0    0    0    0 -0.00000000000E+00 -0.00000000000E+00 -0.45593999997E+02  0.45594000000E+02  0.51100000000E-03 0.  1.
    9900012    2    1    2    0    0  0.88071062149E+01 -0.15877230945E+02  0.45861097368E+01  0.72461441723E+02  0.69999832512E+02 0.  0.
        -12    1    1    2    0    0 -0.88071062149E+01  0.15877230945E+02 -0.45861097368E+01  0.18726558277E+02  0.00000000000E+00 0.  1.
         11    1    3    3    0    0  0.50131417416E+01 -0.22097743987E+02  0.25718060729E+02  0.34276238525E+02  0.51100000000E-03 0. -1.
        -11    1    3    3    0    0 -0.12297723908E+02 -0.11859169659E+01 -0.15014835034E+02  0.19444425518E+02  0.51100000000E-03 0.  1.
        -12    1    3    3    0    0  0.16091688381E+02  0.74064300079E+01 -0.61171159585E+01  0.18740777681E+02  0.00000000000E+00 0.  1.
</event>
<event>
 7    1  0.1910120E-013  0.7246153E+02  0.7816164E-02  0.1226708E+00
        -11   -1    0    0    0    0  0.00000000000E+00  0.00000000000E+00  0.45593999997E+02  0.45594000000E+02  0.51100000000E-03 0. -1.
         11   -1    0    0    0    0 -0.00000000000E+00 -0.00000000000E+00 -0.45593999997E+02  0.45594000000E+02  0.51100000000E-03 0.  1.
    9900012    2    1    2    0    0 -0.77089577382E+01  0.60802457800E+01  0.15946257442E+02  0.72461533581E+02  0.69999952173E+02 0.  0.
        -12    1    1    2    0    0  0.77089577382E+01 -0.60802457800E+01 -0.15946257442E+02  0.18726466419E+02  0.00000000000E+00 0.  1.
         11    1    3    3    0    0 -0.86797412279E+01  0.13024074100E+02  0.16405465519E+02  0.22673855277E+02  0.51100000000E-03 0. -1.
        -11    1    3    3    0    0  0.22031097192E+02 -0.97429391112E+01 -0.10513010004E+02  0.26283407040E+02  0.51100000000E-03 0.  1.
        -12    1    3    3    0    0 -0.21060313702E+02  0.27991107909E+01  0.10053801927E+02  0.23504271264E+02  0.00000000000E+00 0.  1.
</event>
<event>
 7    1  0.1857734E-013  0.7246140E+02  0.7816164E-02  0.1226708E+00
        -11   -1    0    0    0    0  0.00000000000E+00  0.00000000000E+00  0.45593999997E+02  0.45594000000E+02  0.51100000000E-03 0.  1.
         11   -1    0    0    0    0 -0.00000000000E+00 -0.00000000000E+00 -0.45593999997E+02  0.45594000000E+02  0.51100000000E-03 0. -1.
    9900012    2    1    2    0    0 -0.39948795645E+01 -0.16948433626E+02 -0.68903673215E+01  0.72461397880E+02  0.69999775398E+02 0.  0.
        -12    1    1    2    0    0  0.39948795645E+01  0.16948433626E+02  0.68903673215E+01  0.18726602120E+02  0.00000000000E+00 0.  1.
         11    1    3    3    0    0 -0.19864269673E+02  0.13621484688E+02 -0.94661864904E+01  0.25879388356E+02  0.51100000000E-03 0. -1.
        -11    1    3    3    0    0  0.21843489543E+02 -0.27309703757E+02  0.10135626985E+02  0.36410010840E+02  0.51100000000E-03 0.  1.
        -12    1    3    3    0    0 -0.59740994349E+01 -0.32602145574E+01 -0.75598078162E+01  0.10171998684E+02  0.00000000000E+00 0.  1.
</event>
<event>
 7    1  0.1857734E-013  0.7246192E+02  0.7816164E-02  0.1226707E+00
        -11   -1    0    0    0    0  0.00000000000E+00  0.00000000000E+00  0.45593999997E+02  0.45594000000E+02  0.51100000000E-03 0.  1.
         11   -1    0    0    0    0 -0.00000000000E+00 -0.00000000000E+00 -0.45593999997E+02  0.45594000000E+02  0.51100000000E-03 0. -1.
    9900012    2    1    2    0    0  0.10290402129E+02 -0.42414645246E+01 -0.15059342174E+02  0.72461917014E+02  0.70000451665E+02 0.  0.
        -12    1    1    2    0    0 -0.10290402129E+02  0.42414645246E+01  0.15059342174E+02  0.18726082986E+02  0.00000000000E+00 0.  1.
         11    1    3    3    0    0  0.24312433721E+02 -0.13324666539E+02 -0.68982144104E+01  0.28569678579E+02  0.51100000000E-03 0. -1.
        -11    1    3    3    0    0 -0.15306674079E+02  0.13605871654E+02 -0.21533701994E+02  0.29717239721E+02  0.51100000000E-03 0.  1.
        -12    1    3    3    0    0  0.12846424871E+01 -0.45226696392E+01  0.13372574230E+02  0.14174998713E+02  0.00000000000E+00 0.  1.
</event>
<event>
 7    1  0.1857734E-013  0.7246163E+02  0.7816164E-02  0.1226708E+00
        -11   -1    0    0    0    0  0.00000000000E+00  0.00000000000E+00  0.45593999997E+02  0.45594000000E+02  0.51100000000E-03 0. -1.
         11   -1    0    0    0    0 -0.00000000000E+00 -0.00000000000E+00 -0.45593999997E+02  0.45594000000E+02  0.51100000000E-03 0.  1.
    9900012    2    1    2    0    0  0.12109185069E+02 -0.12461996658E+02  0.69816216487E+01  0.72461634507E+02  0.70000083649E+02 0.  0.
        -12    1    1    2    0    0 -0.12109185069E+02  0.12461996658E+02 -0.69816216487E+01  0.18726365493E+02  0.00000000000E+00 0.  1.
         11    1    3    3    0    0  0.71625760667E+01  0.15031259420E+02  0.15107281573E+02  0.22482686949E+02  0.51100000000E-03 0. -1.
        -11    1    3    3    0    0 -0.17590376198E+02 -0.15796186016E+02 -0.12601933284E+01  0.23675491862E+02  0.51100000000E-03 0.  1.
        -12    1    3    3    0    0  0.22536985200E+02 -0.11697070062E+02 -0.68654665962E+01  0.26303455696E+02  0.00000000000E+00 0.  1.
</event>
<event>
 7    1  0.1857734E-013  0.7246155E+02  0.7816164E-02  0.1226708E+00
        -11   -1    0    0    0    0  0.00000000000E+00  0.00000000000E+00  0.45593999997E+02  0.45594000000E+02  0.51100000000E-03 0.  1.
         11   -1    0    0    0    0 -0.00000000000E+00 -0.00000000000E+00 -0.45593999997E+02  0.45594000000E+02  0.51100000000E-03 0. -1.
    9900012    2    1    2    0    0  0.14522913046E+02 -0.77766554105E+01 -0.89044019139E+01  0.72461554898E+02  0.69999979943E+02 0.  0.
        -12    1    1    2    0    0 -0.14522913046E+02  0.77766554105E+01  0.89044019139E+01  0.18726445102E+02  0.00000000000E+00 0.  1.
         11    1    3    3    0    0  0.50291005901E+01  0.24742717340E+02  0.79982586464E+01  0.26485204469E+02  0.51100000000E-03 0. -1.
        -11    1    3    3    0    0  0.45306815989E+01 -0.32574219369E+02 -0.52415445268E+01  0.33302862228E+02  0.51100000000E-03 0.  1.
         12    1    3    3    0    0  0.49631308569E+01  0.54846618548E-01 -0.11661116033E+02  0.12673488202E+02  0.00000000000E+00 0. -1.
</event>
<event>
 7    1  0.1857734E-013  0.7246162E+02  0.7816164E-02  0.1226708E+00
        -11   -1    0    0    0    0  0.00000000000E+00  0.00000000000E+00  0.45593999997E+02  0.45594000000E+02  0.51100000000E-03 0.  1.
         11   -1    0    0    0    0 -0.00000000000E+00 -0.00000000000E+00 -0.45593999997E+02  0.45594000000E+02  0.51100000000E-03 0. -1.
    9900012    2    1    2    0    0 -0.16056153579E+02 -0.80024472493E+01 -0.53700955645E+01  0.72461624053E+02  0.70000070031E+02 0.  0.
        -12    1    1    2    0    0  0.16056153579E+02  0.80024472493E+01  0.53700955645E+01  0.18726375947E+02  0.00000000000E+00 0.  1.
         11    1    3    3    0    0  0.15504858602E+01 -0.22728331295E+01 -0.11545709943E+02  0.11869001440E+02  0.51100000000E-03 0. -1.
        -11    1    3    3    0    0  0.10610175905E+02  0.17965639964E+02  0.10736385023E+02  0.23465080773E+02  0.51100000000E-03 0.  1.
        -12    1    3    3    0    0 -0.28216815344E+02 -0.23695254084E+02 -0.45607706443E+01  0.37127541841E+02  0.00000000000E+00 0.  1.
</event>
<event>
 7    1  0.1857734E-013  0.7246157E+02  0.7816164E-02  0.1226708E+00
        -11   -1    0    0    0    0  0.00000000000E+00  0.00000000000E+00  0.45593999997E+02  0.45594000000E+02  0.51100000000E-03 0.  1.
         11   -1    0    0    0    0 -0.00000000000E+00 -0.00000000000E+00 -0.45593999997E+02  0.45594000000E+02  0.51100000000E-03 0. -1.
    9900012    2    1    2    0    0  0.14840745516E+02  0.47267892359E+01 -0.10396589368E+02  0.72461565891E+02  0.69999994264E+02 0.  0.
        -12    1    1    2    0    0 -0.14840745516E+02 -0.47267892359E+01  0.10396589368E+02  0.18726434109E+02  0.00000000000E+00 0.  1.
         11    1    3    3    0    0 -0.72516545607E+01 -0.21925977602E+02 -0.14797154648E+02  0.27427919601E+02  0.51100000000E-03 0.  1.
        -11    1    3    3    0    0  0.27037515111E+02  0.27325898878E+02  0.93532706721E-01  0.38441393335E+02  0.51100000000E-03 0. -1.
         12    1    3    3    0    0 -0.49451150345E+01 -0.67313204067E+00  0.43070325733E+01  0.65922529561E+01  0.00000000000E+00 0. -1.
</event>
<event>
 7    1  0.1857734E-013  0.7246138E+02  0.7816164E-02  0.1226709E+00
        -11   -1    0    0    0    0  0.00000000000E+00  0.00000000000E+00  0.45593999997E+02  0.45594000000E+02  0.51100000000E-03 0.  1.
         11   -1    0    0    0    0 -0.00000000000E+00 -0.00000000000E+00 -0.45593999997E+02  0.45594000000E+02  0.51100000000E-03 0. -1.
    9900012    2    1    2    0    0  0.13269330937E+02 -0.61448867123E+01 -0.11698350140E+02  0.72461383322E+02  0.69999756433E+02 0.  0.
        -12    1    1    2    0    0 -0.13269330937E+02  0.61448867123E+01  0.11698350140E+02  0.18726616678E+02  0.00000000000E+00 0.  1.
         11    1    3    3    0    0  0.35643747833E+02  0.11223232855E+02  0.23934625261E+01  0.37445512127E+02  0.51100000000E-03 0. -1.
        -11    1    3    3    0    0 -0.38637431929E+01 -0.11384547242E+02 -0.86644886502E+01  0.14819237200E+02  0.51100000000E-03 0.  1.
         12    1    3    3    0    0 -0.18510673704E+02 -0.59835723256E+01 -0.54273240159E+01  0.20196633995E+02  0.00000000000E+00 0. -1.
</event>
<event>
 7    1  0.1857734E-013  0.7246153E+02  0.7816164E-02  0.1226708E+00
        -11   -1    0    0    0    0  0.00000000000E+00  0.00000000000E+00  0.45593999997E+02  0.45594000000E+02  0.51100000000E-03 0.  1.
         11   -1    0    0    0    0 -0.00000000000E+00 -0.00000000000E+00 -0.45593999997E+02  0.45594000000E+02  0.51100000000E-03 0. -1.
    9900012    2    1    2    0    0 -0.55998344372E+01 -0.25919926343E+01 -0.17680612721E+02  0.72461531093E+02  0.69999948933E+02 0.  0.
        -12    1    1    2    0    0  0.55998344372E+01  0.25919926343E+01  0.17680612721E+02  0.18726468907E+02  0.00000000000E+00 0.  1.
         11    1    3    3    0    0 -0.16962083079E+01 -0.29632694458E+02 -0.25113252026E+02  0.38879932241E+02  0.51100000000E-03 0. -1.
        -11    1    3    3    0    0 -0.71655100457E+00  0.62519057007E+01 -0.59441040611E+01  0.86563354593E+01  0.51100000000E-03 0.  1.
         12    1    3    3    0    0 -0.31870751247E+01  0.20788796123E+02  0.13376743367E+02  0.24925263393E+02  0.00000000000E+00 0. -1.
</event>
<event>
 7    1  0.1857734E-013  0.7246159E+02  0.7816164E-02  0.1226708E+00
        -11   -1    0    0    0    0  0.00000000000E+00  0.00000000000E+00  0.45593999997E+02  0.45594000000E+02  0.51100000000E-03 0.  1.
         11   -1    0    0    0    0 -0.00000000000E+00 -0.00000000000E+00 -0.45593999997E+02  0.45594000000E+02  0.51100000000E-03 0. -1.
    9900012    2    1    2    0    0  0.38275046378E+01 -0.18247301652E+02 -0.17505648261E+01  0.72461593870E+02  0.70000030712E+02 0.  0.
        -12    1    1    2    0    0 -0.38275046378E+01  0.18247301652E+02  0.17505648261E+01  0.18726406130E+02  0.00000000000E+00 0.  1.
         11    1    3    3    0    0 -0.18793723878E+00  0.20636751050E+02  0.19616923043E+01  0.20730630749E+02  0.51100000000E-03 0. -1.
        -11    1    3    3    0    0  0.11320819860E+02 -0.40400001241E+02 -0.85772624526E+01  0.42823947670E+02  0.51100000000E-03 0.  1.
         12    1    3    3    0    0 -0.73053779838E+01  0.15159485401E+01  0.48650053222E+01  0.89070154512E+01  0.00000000000E+00 0. -1.
</event>
<event>
 7    1  0.1857734E-013  0.7246151E+02  0.7816164E-02  0.1226708E+00
        -11   -1    0    0    0    0  0.00000000000E+00  0.00000000000E+00  0.45593999997E+02  0.45594000000E+02  0.51100000000E-03 0.  1.
         11   -1    0    0    0    0 -0.00000000000E+00 -0.00000000000E+00 -0.45593999997E+02  0.45594000000E+02  0.51100000000E-03 0. -1.
    9900012    2    1    2    0    0 -0.11258171594E+02  0.31281192288E+01 -0.14633858726E+02  0.72461511307E+02  0.69999923158E+02 0.  0.
        -12    1    1    2    0    0  0.11258171594E+02 -0.31281192288E+01  0.14633858726E+02  0.18726488693E+02  0.00000000000E+00 0.  1.
         11    1    3    3    0    0 -0.35272346636E+02 -0.40269347327E+01 -0.58323050446E+01  0.35977359867E+02  0.51100000000E-03 0. -1.
        -11    1    3    3    0    0  0.18571530280E+02 -0.96401734596E+00  0.52901013999E+01  0.19334328006E+02  0.51100000000E-03 0.  1.
         12    1    3    3    0    0  0.54426447624E+01  0.81190713075E+01 -0.14091655081E+02  0.17149823434E+02  0.00000000000E+00 0. -1.
</event>
<event>
 7    1  0.1857734E-013  0.7246155E+02  0.7816164E-02  0.1226708E+00
        -11   -1    0    0    0    0  0.00000000000E+00  0.00000000000E+00  0.45593999997E+02  0.45594000000E+02  0.51100000000E-03 0.  1.
         11   -1    0    0    0    0 -0.00000000000E+00 -0.00000000000E+00 -0.45593999997E+02  0.45594000000E+02  0.51100000000E-03 0. -1.
    9900012    2    1    2    0    0  0.43315988291E+01  0.11064967809E+02 -0.14473545652E+02  0.72461553867E+02  0.69999978601E+02 0.  0.
        -12    1    1    2    0    0 -0.43315988291E+01 -0.11064967809E+02  0.14473545652E+02  0.18726446133E+02  0.00000000000E+00 0.  1.
         11    1    3    3    0    0 -0.18393719627E+02 -0.51316175486E+01 -0.90442283886E+01  0.21129611634E+02  0.51100000000E-03 0. -1.
        -11    1    3    3    0    0  0.32098928136E+02  0.16503074801E+02 -0.13916851926E+02  0.38682960501E+02  0.51100000000E-03 0.  1.
        -12    1    3    3    0    0 -0.93736096800E+01 -0.30648944273E+00  0.84875346626E+01  0.12648981732E+02  0.00000000000E+00 0.  1.
</event>
<event>
 7    1  0.1857734E-013  0.7246142E+02  0.7816164E-02  0.1226708E+00
        -11   -1    0    0    0    0  0.00000000000E+00  0.00000000000E+00  0.45593999997E+02  0.45594000000E+02  0.51100000000E-03 0.  1.
         11   -1    0    0    0    0 -0.00000000000E+00 -0.00000000000E+00 -0.45593999997E+02  0.45594000000E+02  0.51100000000E-03 0. -1.
    9900012    2    1    2    0    0  0.33720558935E+01  0.43990903594E+01 -0.17887485266E+02  0.72461417662E+02  0.69999801168E+02 0.  0.
        -12    1    1    2    0    0 -0.33720558935E+01 -0.43990903594E+01  0.17887485266E+02  0.18726582338E+02  0.00000000000E+00 0.  1.
         11    1    3    3    0    0  0.30802107749E+01  0.24706768109E+02 -0.23525391872E+02  0.34254286619E+02  0.51100000000E-03 0. -1.
        -11    1    3    3    0    0 -0.41760090081E+01 -0.44186657074E+01  0.17075962002E+02  0.18126007184E+02  0.51100000000E-03 0.  1.
         12    1    3    3    0    0  0.44678541266E+01 -0.15889012042E+02 -0.11438055396E+02  0.20081123858E+02  0.00000000000E+00 0. -1.
</event>
<event>
 7    1  0.1857734E-013  0.7246158E+02  0.7816164E-02  0.1226708E+00
        -11   -1    0    0    0    0  0.00000000000E+00  0.00000000000E+00  0.45593999997E+02  0.45594000000E+02  0.51100000000E-03 0. -1.
         11   -1    0    0    0    0 -0.00000000000E+00 -0.00000000000E+00 -0.45593999997E+02  0.45594000000E+02  0.51100000000E-03 0.  1.
    9900012    2    1    2    0    0 -0.31717218101E+00 -0.18511249419E+02  0.28128052363E+01  0.72461579451E+02  0.70000011929E+02 0.  0.
        -12    1    1    2    0    0  0.31717218101E+00  0.18511249419E+02 -0.28128052363E+01  0.18726420549E+02  0.00000000000E+00 0.  1.
         11    1    3    3    0    0 -0.13507283349E+02  0.10189583276E+01  0.20972072668E+02  0.24966233432E+02  0.51100000000E-03 0. -1.
        -11    1    3    3    0    0 -0.77976376360E+01 -0.80737424844E+01 -0.20600598457E+02  0.23460032555E+02  0.51100000000E-03 0.  1.
         12    1    3    3    0    0  0.20987748804E+02 -0.11456465263E+02  0.24413310255E+01  0.24035313465E+02  0.00000000000E+00 0. -1.
</event>
<event>
 7    1  0.1857734E-013  0.7246151E+02  0.7816164E-02  0.1226708E+00
        -11   -1    0    0    0    0  0.00000000000E+00  0.00000000000E+00  0.45593999997E+02  0.45594000000E+02  0.51100000000E-03 0. -1.
         11   -1    0    0    0    0 -0.00000000000E+00 -0.00000000000E+00 -0.45593999997E+02  0.45594000000E+02  0.51100000000E-03 0.  1.
    9900012    2    1    2    0    0 -0.11801098002E+02 -0.62400001245E+01  0.13133082390E+02  0.72461511577E+02  0.69999923509E+02 0.  0.
        -12    1    1    2    0    0  0.11801098002E+02  0.62400001245E+01 -0.13133082390E+02  0.18726488423E+02  0.00000000000E+00 0.  1.
         11    1    3    3    0    0 -0.24818408739E+02 -0.30374453609E+01  0.30675760919E+02  0.39575014780E+02  0.51100000000E-03 0. -1.
        -11    1    3    3    0    0 -0.10792307104E+01 -0.26925230352E+00 -0.18427308789E+02  0.18460848984E+02  0.51100000000E-03 0.  1.
        -12    1    3    3    0    0  0.14096541448E+02 -0.29333024601E+01  0.88463026118E+00  0.14425647812E+02  0.00000000000E+00 0.  1.
</event>
<event>
 7    1  0.1857734E-013  0.7246156E+02  0.7816164E-02  0.1226708E+00
        -11   -1    0    0    0    0  0.00000000000E+00  0.00000000000E+00  0.45593999997E+02  0.45594000000E+02  0.51100000000E-03 0. -1.
         11   -1    0    0    0    0 -0.00000000000E+00 -0.00000000000E+00 -0.45593999997E+02  0.45594000000E+02  0.51100000000E-03 0.  1.
    9900012    2    1    2    0    0 -0.90781173222E+01  0.23928732232E+01  0.16203135538E+02  0.72461557261E+02  0.69999983022E+02 0.  0.
        -12    1    1    2    0    0  0.90781173222E+01 -0.23928732232E+01 -0.16203135538E+02  0.18726442739E+02  0.00000000000E+00 0.  1.
         11    1    3    3    0    0  0.89607670881E+01  0.22189152542E+02  0.63221447020E+01  0.24751229288E+02  0.51100000000E-03 0. -1.
        -11    1    3    3    0    0  0.36645474622E+01 -0.23693976035E+02  0.91040565717E+01  0.25645998806E+02  0.51100000000E-03 0.  1.
        -12    1    3    3    0    0 -0.21703431872E+02  0.38976967158E+01  0.77693426485E+00  0.22064329167E+02  0.00000000000E+00 0.  1.
</event>
<event>
 7    1  0.1857734E-013  0.7246231E+02  0.7816164E-02  0.1226706E+00
        -11   -1    0    0    0    0  0.00000000000E+00  0.00000000000E+00  0.45593999997E+02  0.45594000000E+02  0.51100000000E-03 0.  1.
         11   -1    0    0    0    0 -0.00000000000E+00 -0.00000000000E+00 -0.45593999997E+02  0.45594000000E+02  0.51100000000E-03 0. -1.
    9900012    2    1    2    0    0 -0.65609048959E+01  0.17431472866E+02 -0.19364229635E+01  0.72462310340E+02  0.70000964041E+02 0.  0.
        -12    1    1    2    0    0  0.65609048959E+01 -0.17431472866E+02  0.19364229635E+01  0.18725689660E+02  0.00000000000E+00 0.  1.
         11    1    3    3    0    0  0.51081401660E+01  0.26190773923E+02 -0.16290501174E+02  0.31263879533E+02  0.51100000000E-03 0. -1.
        -11    1    3    3    0    0  0.47614842603E+01 -0.79111058374E+01  0.21395222656E+02  0.23302636776E+02  0.51100000000E-03 0.  1.
         12    1    3    3    0    0 -0.16430529322E+02 -0.84819521966E+00 -0.70411444453E+01  0.17895794032E+02  0.00000000000E+00 0. -1.
</event>
<event>
 7    1  0.1857734E-013  0.7246166E+02  0.7816164E-02  0.1226708E+00
        -11   -1    0    0    0    0  0.00000000000E+00  0.00000000000E+00  0.45593999997E+02  0.45594000000E+02  0.51100000000E-03 0.  1.
         11   -1    0    0    0    0 -0.00000000000E+00 -0.00000000000E+00 -0.45593999997E+02  0.45594000000E+02  0.51100000000E-03 0. -1.
    9900012    2    1    2    0    0  0.21128303843E+01  0.17897546689E+02  0.50881657400E+01  0.72461663991E+02  0.70000122057E+02 0.  0.
        -12    1    1    2    0    0 -0.21128303843E+01 -0.17897546689E+02 -0.50881657400E+01  0.18726336009E+02  0.00000000000E+00 0.  1.
         11    1    3    3    0    0  0.16228882342E+02 -0.13025552604E+02 -0.62763884167E+01  0.21735562899E+02  0.51100000000E-03 0. -1.
        -11    1    3    3    0    0  0.43943752683E+01  0.24352162500E+02  0.17315755788E+02  0.30202214343E+02  0.51100000000E-03 0.  1.
         12    1    3    3    0    0 -0.18510427226E+02  0.65709367934E+01 -0.59512016316E+01  0.20523886749E+02  0.00000000000E+00 0. -1.
</event>
<event>
 7    1  0.1857734E-013  0.7246162E+02  0.7816164E-02  0.1226708E+00
        -11   -1    0    0    0    0  0.00000000000E+00  0.00000000000E+00  0.45593999997E+02  0.45594000000E+02  0.51100000000E-03 0.  1.
         11   -1    0    0    0    0 -0.00000000000E+00 -0.00000000000E+00 -0.45593999997E+02  0.45594000000E+02  0.51100000000E-03 0. -1.
    9900012    2    1    2    0    0  0.13634311214E+01  0.14406177882E+02 -0.11886136324E+02  0.72461624422E+02  0.70000070511E+02 0.  0.
        -12    1    1    2    0    0 -0.13634311214E+01 -0.14406177882E+02  0.11886136324E+02  0.18726375578E+02  0.00000000000E+00 0.  1.
         11    1    3    3    0    0 -0.71819053805E+01  0.29105391850E+02 -0.48308676219E+01  0.30365126080E+02  0.51100000000E-03 0. -1.
        -11    1    3    3    0    0 -0.39724744268E+01 -0.18779616913E+02  0.91105766311E+01  0.21247521533E+02  0.51100000000E-03 0.  1.
         12    1    3    3    0    0  0.12517810929E+02  0.40804029456E+01 -0.16165845333E+02  0.20848976809E+02  0.00000000000E+00 0. -1.
</event>
<event>
 7    1  0.1857734E-013  0.7246160E+02  0.7816164E-02  0.1226708E+00
        -11   -1    0    0    0    0  0.00000000000E+00  0.00000000000E+00  0.45593999997E+02  0.45594000000E+02  0.51100000000E-03 0.  1.
         11   -1    0    0    0    0 -0.00000000000E+00 -0.00000000000E+00 -0.45593999997E+02  0.45594000000E+02  0.51100000000E-03 0. -1.
    9900012    2    1    2    0    0 -0.10077605569E+02 -0.68075642828E+01 -0.14239985080E+02  0.72461595098E+02  0.70000032311E+02 0.  0.
        -12    1    1    2    0    0  0.10077605569E+02  0.68075642828E+01  0.14239985080E+02  0.18726404902E+02  0.00000000000E+00 0.  1.
         11    1    3    3    0    0  0.14741500849E+02 -0.27480229056E+01 -0.29326997777E+02  0.32938370877E+02  0.51100000000E-03 0. -1.
        -11    1    3    3    0    0 -0.23443228312E+02 -0.11617699152E+02  0.46664266796E+01  0.26576896461E+02  0.51100000000E-03 0.  1.
         12    1    3    3    0    0 -0.13758781056E+01  0.75581577749E+01  0.10420586017E+02  0.12946327759E+02  0.00000000000E+00 0. -1.
</event>
<event>
 7    1  0.1857734E-013  0.7246160E+02  0.7816164E-02  0.1226708E+00
        -11   -1    0    0    0    0  0.00000000000E+00  0.00000000000E+00  0.45593999997E+02  0.45594000000E+02  0.51100000000E-03 0. -1.
         11   -1    0    0    0    0 -0.00000000000E+00 -0.00000000000E+00 -0.45593999997E+02  0.45594000000E+02  0.51100000000E-03 0.  1.
    9900012    2    1    2    0    0  0.77318151713E+00  0.13180873247E+02  0.13279487020E+02  0.72461601395E+02  0.70000040514E+02 0.  0.
        -12    1    1    2    0    0 -0.77318151713E+00 -0.13180873247E+02 -0.13279487020E+02  0.18726398605E+02  0.00000000000E+00 0.  1.
         11    1    3    3    0    0 -0.10873466622E+02 -0.25093068950E+02  0.92402283307E+01  0.28866523960E+02  0.51100000000E-03 0. -1.
        -11    1    3    3    0    0  0.33647669996E+01  0.24172060945E+02  0.97386254283E+01  0.26276434552E+02  0.51100000000E-03 0.  1.
        -12    1    3    3    0    0  0.82818811393E+01  0.14101881252E+02 -0.56993667390E+01  0.17318642882E+02  0.00000000000E+00 0.  1.
</event>
<event>
 7    1  0.1857734E-013  0.7246153E+02  0.7816164E-02  0.1226708E+00
        -11   -1    0    0    0    0  0.00000000000E+00  0.00000000000E+00  0.45593999997E+02  0.45594000000E+02  0.51100000000E-03 0. -1.
         11   -1    0    0    0    0 -0.00000000000E+00 -0.00000000000E+00 -0.45593999997E+02  0.45594000000E+02  0.51100000000E-03 0.  1.
    9900012    2    1    2    0    0  0.95995563781E+01  0.15766581186E+01 -0.16001353980E+02  0.72461530427E+02  0.69999948065E+02 0.  0.
        -12    1    1    2    0    0 -0.95995563781E+01 -0.15766581186E+01  0.16001353980E+02  0.18726469573E+02  0.00000000000E+00 0.  1.
         11    1    3    3    0    0  0.19491658448E+02  0.22020490372E+02 -0.26114037009E+01  0.29523654497E+02  0.51100000000E-03 0. -1.
        -11    1    3    3    0    0  0.11482533906E+02 -0.11023786880E+02 -0.11228953644E+02  0.19479780858E+02  0.51100000000E-03 0.  1.
         12    1    3    3    0    0 -0.21374635976E+02 -0.94200453740E+01 -0.21609966351E+01  0.23458095072E+02  0.00000000000E+00 0. -1.
</event>
<event>
 7    1  0.1857734E-013  0.7246163E+02  0.7816164E-02  0.1226708E+00
        -11   -1    0    0    0    0  0.00000000000E+00  0.00000000000E+00  0.45593999997E+02  0.45594000000E+02  0.51100000000E-03 0. -1.
         11   -1    0    0    0    0 -0.00000000000E+00 -0.00000000000E+00 -0.45593999997E+02  0.45594000000E+02  0.51100000000E-03 0.  1.
    9900012    2    1    2    0    0  0.57091313140E+01  0.95727123729E+01  0.15048123918E+02  0.72461627260E+02  0.70000074209E+02 0.  0.
        -12    1    1    2    0    0 -0.57091313140E+01 -0.95727123729E+01 -0.15048123918E+02  0.18726372740E+02  0.00000000000E+00 0.  1.
         11    1    3    3    0    0  0.28914934012E+01 -0.58494905929E+01  0.16134945931E+02  0.17404417679E+02  0.51100000000E-03 0. -1.
        -11    1    3    3    0    0  0.12974992084E+02  0.23156597781E+02 -0.19297408418E+02  0.32817196899E+02  0.51100000000E-03 0.  1.
        -12    1    3    3    0    0 -0.10157354171E+02 -0.77343948152E+01  0.18210586405E+02  0.22240012682E+02  0.00000000000E+00 0.  1.
</event>
<event>
 7    1  0.1857734E-013  0.7246154E+02  0.7816164E-02  0.1226708E+00
        -11   -1    0    0    0    0  0.00000000000E+00  0.00000000000E+00  0.45593999997E+02  0.45594000000E+02  0.51100000000E-03 0. -1.
         11   -1    0    0    0    0 -0.00000000000E+00 -0.00000000000E+00 -0.45593999997E+02  0.45594000000E+02  0.51100000000E-03 0.  1.
    9900012    2    1    2    0    0 -0.99072392942E+01 -0.10516102605E+02  0.11913797080E+02  0.72461538367E+02  0.69999958409E+02 0.  0.
        -12    1    1    2    0    0  0.99072392942E+01  0.10516102605E+02 -0.11913797080E+02  0.18726461633E+02  0.00000000000E+00 0.  1.
         11    1    3    3    0    0 -0.12239074661E+02  0.25959706109E+01  0.15234997336E+02  0.19713933044E+02  0.51100000000E-03 0. -1.
        -11    1    3    3    0    0  0.24295904162E+02  0.34772423519E+01  0.23118230950E+01  0.24652113494E+02  0.51100000000E-03 0.  1.
        -12    1    3    3    0    0 -0.21964068796E+02 -0.16589315568E+02 -0.56330233512E+01  0.28095491830E+02  0.00000000000E+00 0.  1.
</event>
<event>
 7    1  0.1857734E-013  0.7246155E+02  0.7816164E-02  0.1226708E+00
        -11   -1    0    0    0    0  0.00000000000E+00  0.00000000000E+00  0.45593999997E+02  0.45594000000E+02  0.51100000000E-03 0.  1.
         11   -1    0    0    0    0 -0.00000000000E+00 -0.00000000000E+00 -0.45593999997E+02  0.45594000000E+02  0.51100000000E-03 0. -1.
    9900012    2    1    2    0    0  0.12474836579E+02  0.79215840535E+00 -0.13943841391E+02  0.72461554119E+02  0.69999978928E+02 0.  0.
        -12    1    1    2    0    0 -0.12474836579E+02 -0.79215840535E+00  0.13943841391E+02  0.18726445881E+02  0.00000000000E+00 0.  1.
         11    1    3    3    0    0 -0.16324013028E+02 -0.17101291579E+02 -0.95357528948E+01  0.25492315676E+02  0.51100000000E-03 0. -1.
        -11    1    3    3    0    0  0.16467207305E+02  0.52422366597E+01  0.13412364418E+02  0.21875590990E+02  0.51100000000E-03 0.  1.
        -12    1    3    3    0    0  0.12331642301E+02  0.12651213324E+02 -0.17820452914E+02  0.25093647453E+02  0.00000000000E+00 0.  1.
</event>
<event>
 7    1  0.1857734E-013  0.7246158E+02  0.7816164E-02  0.1226708E+00
        -11   -1    0    0    0    0  0.00000000000E+00  0.00000000000E+00  0.45593999997E+02  0.45594000000E+02  0.51100000000E-03 0.  1.
         11   -1    0    0    0    0 -0.00000000000E+00 -0.00000000000E+00 -0.45593999997E+02  0.45594000000E+02  0.51100000000E-03 0. -1.
    9900012    2    1    2    0    0  0.95595968137E+01 -0.12563101817E+02 -0.10072800041E+02  0.72461582319E+02  0.70000015664E+02 0.  0.
        -12    1    1    2    0    0 -0.95595968137E+01  0.12563101817E+02  0.10072800041E+02  0.18726417681E+02  0.00000000000E+00 0.  1.
         11    1    3    3    0    0  0.62799206500E+01 -0.36355713899E+02  0.71037992106E+01  0.37571788618E+02  0.51100000000E-03 0. -1.
        -11    1    3    3    0    0 -0.43904071521E+01  0.12958038316E+02 -0.65689404599E+00  0.13697369894E+02  0.51100000000E-03 0.  1.
         12    1    3    3    0    0  0.76700833159E+01  0.10834573765E+02 -0.16519705205E+02  0.21192423807E+02  0.00000000000E+00 0. -1.
</event>
<event>
 7    1  0.1857734E-013  0.7246145E+02  0.7816164E-02  0.1226708E+00
        -11   -1    0    0    0    0  0.00000000000E+00  0.00000000000E+00  0.45593999997E+02  0.45594000000E+02  0.51100000000E-03 0.  1.
         11   -1    0    0    0    0 -0.00000000000E+00 -0.00000000000E+00 -0.45593999997E+02  0.45594000000E+02  0.51100000000E-03 0. -1.
    9900012    2    1    2    0    0  0.12072757310E+02 -0.25736283399E+01 -0.14082212798E+02  0.72461448017E+02  0.69999840710E+02 0.  0.
        -12    1    1    2    0    0 -0.12072757310E+02  0.25736283399E+01  0.14082212798E+02  0.18726551983E+02  0.00000000000E+00 0.  1.
         11    1    3    3    0    0  0.28870367012E+02  0.97815923816E+01 -0.28271131781E+00  0.30483726263E+02  0.51100000000E-03 0. -1.
        -11    1    3    3    0    0 -0.21330639562E+02 -0.11517178605E+02 -0.21892570975E+02  0.32663837057E+02  0.51100000000E-03 0.  1.
        -12    1    3    3    0    0  0.45330298602E+01 -0.83804211638E+00  0.80930694942E+01  0.93138846966E+01  0.00000000000E+00 0.  1.
</event>
<event>
 7    1  0.1857734E-013  0.7246158E+02  0.7816164E-02  0.1226708E+00
        -11   -1    0    0    0    0  0.00000000000E+00  0.00000000000E+00  0.45593999997E+02  0.45594000000E+02  0.51100000000E-03 0. -1.
         11   -1    0    0    0    0 -0.00000000000E+00 -0.00000000000E+00 -0.45593999997E+02  0.45594000000E+02  0.51100000000E-03 0.  1.
    9900012    2    1    2    0    0  0.69631897890E+01 -0.16042905779E+02  0.66946291002E+01  0.72461577580E+02  0.70000009491E+02 0.  0.
        -12    1    1    2    0    0 -0.69631897890E+01  0.16042905779E+02 -0.66946291002E+01  0.18726422420E+02  0.00000000000E+00 0.  1.
         11    1    3    3    0    0 -0.29626305422E+02 -0.11786308119E+02  0.39418286875E+01  0.32127450034E+02  0.51100000000E-03 0. -1.
        -11    1    3    3    0    0  0.35436062749E+02 -0.17215040868E+01  0.60800151547E+01  0.35995064996E+02  0.51100000000E-03 0.  1.
         12    1    3    3    0    0  0.11534324619E+01 -0.25350935735E+01 -0.33272147420E+01  0.43390625497E+01  0.00000000000E+00 0. -1.
</event>
<event>
 7    1  0.1857734E-013  0.7246160E+02  0.7816164E-02  0.1226708E+00
        -11   -1    0    0    0    0  0.00000000000E+00  0.00000000000E+00  0.45593999997E+02  0.45594000000E+02  0.51100000000E-03 0. -1.
         11   -1    0    0    0    0 -0.00000000000E+00 -0.00000000000E+00 -0.45593999997E+02  0.45594000000E+02  0.51100000000E-03 0.  1.
    9900012    2    1    2    0    0 -0.32731909596E+01 -0.15954957214E+02 -0.92414146153E+01  0.72461596639E+02  0.70000034318E+02 0.  0.
        -12    1    1    2    0    0  0.32731909596E+01  0.15954957214E+02  0.92414146153E+01  0.18726403361E+02  0.00000000000E+00 0.  1.
         11    1    3    3    0    0  0.26574428804E+02 -0.41682012654E+01 -0.22629162022E+02  0.35151858303E+02  0.51100000000E-03 0. -1.
        -11    1    3    3    0    0 -0.18747031683E+02 -0.78425749169E+01  0.11962881882E+01  0.20356529270E+02  0.51100000000E-03 0.  1.
         12    1    3    3    0    0 -0.11100588080E+02 -0.39441810317E+01  0.12191459219E+02  0.16953209066E+02  0.00000000000E+00 0. -1.
</event>
<event>
 7    1  0.1857734E-013  0.7246152E+02  0.7816164E-02  0.1226708E+00
        -11   -1    0    0    0    0  0.00000000000E+00  0.00000000000E+00  0.45593999997E+02  0.45594000000E+02  0.51100000000E-03 0.  1.
         11   -1    0    0    0    0 -0.00000000000E+00 -0.00000000000E+00 -0.45593999997E+02  0.45594000000E+02  0.51100000000E-03 0. -1.
    9900012    2    1    2    0    0 -0.65111015882E+01 -0.16555595379E+02 -0.58479686842E+01  0.72461523557E+02  0.69999939115E+02 0.  0.
        -12    1    1    2    0    0  0.65111015882E+01  0.16555595379E+02  0.58479686842E+01  0.18726476443E+02  0.00000000000E+00 0.  1.
         11    1    3    3    0    0 -0.66174497028E+01 -0.13356852915E+02  0.28374601572E+01  0.15173903281E+02  0.51100000000E-03 0. -1.
        -11    1    3    3    0    0  0.13385244184E+02  0.23364209056E+02 -0.43377379096E+01  0.27273925223E+02  0.51100000000E-03 0.  1.
        -12    1    3    3    0    0 -0.13278896069E+02 -0.26562951520E+02 -0.43476909318E+01  0.30013695052E+02  0.00000000000E+00 0.  1.
</event>
<event>
 7    1  0.1857734E-013  0.7246164E+02  0.7816164E-02  0.1226708E+00
        -11   -1    0    0    0    0  0.00000000000E+00  0.00000000000E+00  0.45593999997E+02  0.45594000000E+02  0.51100000000E-03 0. -1.
         11   -1    0    0    0    0 -0.00000000000E+00 -0.00000000000E+00 -0.45593999997E+02  0.45594000000E+02  0.51100000000E-03 0.  1.
    9900012    2    1    2    0    0  0.11093449877E+01 -0.98273628245E+01  0.15901849261E+02  0.72461641136E+02  0.70000092284E+02 0.  0.
        -12    1    1    2    0    0 -0.11093449877E+01  0.98273628245E+01 -0.15901849261E+02  0.18726358864E+02  0.00000000000E+00 0.  1.
         11    1    3    3    0    0  0.21117559126E+02 -0.11031398113E+02  0.92616177061E+01  0.25562093235E+02  0.51100000000E-03 0. -1.
        -11    1    3    3    0    0 -0.48261041411E+01  0.14663737667E+02 -0.11840242490E+02  0.19455277588E+02  0.51100000000E-03 0.  1.
         12    1    3    3    0    0 -0.15182109997E+02 -0.13459702378E+02  0.18480474045E+02  0.27444270313E+02  0.00000000000E+00 0. -1.
</event>
<event>
 7    1  0.1857734E-013  0.7246159E+02  0.7816164E-02  0.1226708E+00
        -11   -1    0    0    0    0  0.00000000000E+00  0.00000000000E+00  0.45593999997E+02  0.45594000000E+02  0.51100000000E-03 0.  1.
         11   -1    0    0    0    0 -0.00000000000E+00 -0.00000000000E+00 -0.45593999997E+02  0.45594000000E+02  0.51100000000E-03 0. -1.
    9900012    2    1    2    0    0 -0.10847050959E+02 -0.15164320215E+02  0.17502167659E+01  0.72461591353E+02  0.70000027433E+02 0.  0.
        -12    1    1    2    0    0  0.10847050959E+02  0.15164320215E+02 -0.17502167659E+01  0.18726408647E+02  0.00000000000E+00 0.  1.
         11    1    3    3    0    0 -0.10583966845E+01 -0.14788988899E+02 -0.34868853967E+01  0.15231308750E+02  0.51100000000E-03 0. -1.
        -11    1    3    3    0    0  0.17946553712E+02  0.14588583215E+02 -0.57909347626E+01  0.23841989767E+02  0.51100000000E-03 0.  1.
        -12    1    3    3    0    0 -0.27735207987E+02 -0.14963914530E+02  0.11028036925E+02  0.33388292837E+02  0.00000000000E+00 0.  1.
</event>
<event>
 7    1  0.1857734E-013  0.7246156E+02  0.7816164E-02  0.1226708E+00
        -11   -1    0    0    0    0  0.00000000000E+00  0.00000000000E+00  0.45593999997E+02  0.45594000000E+02  0.51100000000E-03 0.  1.
         11   -1    0    0    0    0 -0.00000000000E+00 -0.00000000000E+00 -0.45593999997E+02  0.45594000000E+02  0.51100000000E-03 0. -1.
    9900012    2    1    2    0    0 -0.82841567303E+01  0.52883143491E+01 -0.15940075525E+02  0.72461560693E+02  0.69999987493E+02 0.  0.
        -12    1    1    2    0    0  0.82841567303E+01 -0.52883143491E+01  0.15940075525E+02  0.18726439307E+02  0.00000000000E+00 0.  1.
         11    1    3    3    0    0  0.39639044516E+01 -0.12611703578E+01  0.25294145362E+02  0.25633900972E+02  0.51100000000E-03 0.  1.
        -11    1    3    3    0    0 -0.15553446776E+02  0.13992312220E+01 -0.33533644049E+02  0.36991523868E+02  0.51100000000E-03 0. -1.
        -12    1    3    3    0    0  0.33053855939E+01  0.51502534849E+01 -0.77005768378E+01  0.98361358529E+01  0.00000000000E+00 0.  1.
</event>
<event>
 7    1  0.1857734E-013  0.7246156E+02  0.7816164E-02  0.1226708E+00
        -11   -1    0    0    0    0  0.00000000000E+00  0.00000000000E+00  0.45593999997E+02  0.45594000000E+02  0.51100000000E-03 0. -1.
         11   -1    0    0    0    0 -0.00000000000E+00 -0.00000000000E+00 -0.45593999997E+02  0.45594000000E+02  0.51100000000E-03 0.  1.
    9900012    2    1    2    0    0  0.11864033549E+02  0.43747380612E+01  0.13812525468E+02  0.72461561872E+02  0.69999989029E+02 0.  0.
        -12    1    1    2    0    0 -0.11864033549E+02 -0.43747380612E+01 -0.13812525468E+02  0.18726438128E+02  0.00000000000E+00 0.  1.
         11    1    3    3    0    0 -0.43385322740E+01  0.13051729317E+02  0.16806830030E+02  0.21717275067E+02  0.51100000000E-03 0.  1.
        -11    1    3    3    0    0  0.11376547250E+02 -0.14381124377E+02 -0.22984770108E+02  0.29403098865E+02  0.51100000000E-03 0. -1.
         12    1    3    3    0    0  0.48260185729E+01  0.57041331213E+01  0.19990465547E+02  0.21341187940E+02  0.00000000000E+00 0. -1.
</event>
<event>
 7    1  0.1857734E-013  0.7246156E+02  0.7816164E-02  0.1226708E+00
        -11   -1    0    0    0    0  0.00000000000E+00  0.00000000000E+00  0.45593999997E+02  0.45594000000E+02  0.51100000000E-03 0. -1.
         11   -1    0    0    0    0 -0.00000000000E+00 -0.00000000000E+00 -0.45593999997E+02  0.45594000000E+02  0.51100000000E-03 0.  1.
    9900012    2    1    2    0    0 -0.51357262097E+01  0.10064054232E+02  0.14933810585E+02  0.72461559605E+02  0.69999986075E+02 0.  0.
        -12    1    1    2    0    0  0.51357262097E+01 -0.10064054232E+02 -0.14933810585E+02  0.18726440395E+02  0.00000000000E+00 0.  1.
         11    1    3    3    0    0 -0.12551823573E+02 -0.11478409884E+01 -0.19477981891E+02  0.23200379151E+02  0.51100000000E-03 0.  1.
        -11    1    3    3    0    0  0.14296226189E+02  0.19654148004E+02  0.22475270655E+02  0.33102951656E+02  0.51100000000E-03 0. -1.
        -12    1    3    3    0    0 -0.68801288260E+01 -0.84422527841E+01  0.11936521820E+02  0.16158228798E+02  0.00000000000E+00 0.  1.
</event>
<event>
 7    1  0.1857734E-013  0.7246160E+02  0.7816164E-02  0.1226708E+00
        -11   -1    0    0    0    0  0.00000000000E+00  0.00000000000E+00  0.45593999997E+02  0.45594000000E+02  0.51100000000E-03 0.  1.
         11   -1    0    0    0    0 -0.00000000000E+00 -0.00000000000E+00 -0.45593999997E+02  0.45594000000E+02  0.51100000000E-03 0. -1.
    9900012    2    1    2    0    0  0.13471023799E+01 -0.96629510055E+01 -0.15984083769E+02  0.72461595089E+02  0.70000032299E+02 0.  0.
        -12    1    1    2    0    0 -0.13471023799E+01  0.96629510055E+01  0.15984083769E+02  0.18726404911E+02  0.00000000000E+00 0.  1.
         11    1    3    3    0    0  0.13185877420E+02 -0.17405121651E+02  0.16579571016E+02  0.27416925399E+02  0.51100000000E-03 0. -1.
        -11    1    3    3    0    0 -0.16232545724E+02 -0.53864878706E+01 -0.20352441100E+02  0.26584424975E+02  0.51100000000E-03 0.  1.
        -12    1    3    3    0    0  0.43937706841E+01  0.13128658516E+02 -0.12211213685E+02  0.18460244714E+02  0.00000000000E+00 0.  1.
</event>
<event>
 7    1  0.1857734E-013  0.7246155E+02  0.7816164E-02  0.1226708E+00
        -11   -1    0    0    0    0  0.00000000000E+00  0.00000000000E+00  0.45593999997E+02  0.45594000000E+02  0.51100000000E-03 0.  1.
         11   -1    0    0    0    0 -0.00000000000E+00 -0.00000000000E+00 -0.45593999997E+02  0.45594000000E+02  0.51100000000E-03 0. -1.
    9900012    2    1    2    0    0 -0.16924652429E+02 -0.73734715033E+01 -0.31413074356E+01  0.72461554682E+02  0.69999979662E+02 0.  0.
        -12    1    1    2    0    0  0.16924652429E+02  0.73734715033E+01  0.31413074356E+01  0.18726445318E+02  0.00000000000E+00 0.  1.
         11    1    3    3    0    0 -0.32021802970E+02 -0.49736077136E+01  0.12892521752E+02  0.34876206166E+02  0.51100000000E-03 0. -1.
        -11    1    3    3    0    0  0.22276053919E+02  0.58169740925E+01 -0.98292017267E+01  0.25033437092E+02  0.51100000000E-03 0.  1.
         12    1    3    3    0    0 -0.71789033773E+01 -0.82168378822E+01 -0.62046274604E+01  0.12551911424E+02  0.00000000000E+00 0. -1.
</event>
<event>
 7    1  0.1857734E-013  0.7246228E+02  0.7816164E-02  0.1226706E+00
        -11   -1    0    0    0    0  0.00000000000E+00  0.00000000000E+00  0.45593999997E+02  0.45594000000E+02  0.51100000000E-03 0.  1.
         11   -1    0    0    0    0 -0.00000000000E+00 -0.00000000000E+00 -0.45593999997E+02  0.45594000000E+02  0.51100000000E-03 0. -1.
    9900012    2    1    2    0    0 -0.14773575960E+02 -0.10860451486E+02 -0.38005960656E+01  0.72462282829E+02  0.70000928202E+02 0.  0.
        -12    1    1    2    0    0  0.14773575960E+02  0.10860451486E+02  0.38005960656E+01  0.18725717171E+02  0.00000000000E+00 0.  1.
         11    1    3    3    0    0 -0.50494934200E+00  0.19790087111E+02 -0.79341183701E+01  0.21327277283E+02  0.51100000000E-03 0. -1.
        -11    1    3    3    0    0 -0.52171518657E+01 -0.33714402693E+02  0.14470508121E+02  0.37057728318E+02  0.51100000000E-03 0.  1.
        -12    1    3    3    0    0 -0.90514747523E+01  0.30638640956E+01 -0.10336985817E+02  0.14077277228E+02  0.00000000000E+00 0.  1.
</event>
<event>
 7    1  0.1857734E-013  0.7246158E+02  0.7816164E-02  0.1226708E+00
        -11   -1    0    0    0    0  0.00000000000E+00  0.00000000000E+00  0.45593999997E+02  0.45594000000E+02  0.51100000000E-03 0. -1.
         11   -1    0    0    0    0 -0.00000000000E+00 -0.00000000000E+00 -0.45593999997E+02  0.45594000000E+02  0.51100000000E-03 0.  1.
    9900012    2    1    2    0    0  0.60376583404E+01  0.17509710244E+02 -0.27632198885E+01  0.72461584026E+02  0.70000017888E+02 0.  0.
        -12    1    1    2    0    0 -0.60376583404E+01 -0.17509710244E+02  0.27632198885E+01  0.18726415974E+02  0.00000000000E+00 0.  1.
         11    1    3    3    0    0 -0.22459149641E+02  0.14198473969E+02  0.14069411396E+02  0.30065901000E+02  0.51100000000E-03 0. -1.
        -11    1    3    3    0    0  0.74807467175E+01 -0.43903636142E+01 -0.18001631910E+02  0.19982382635E+02  0.51100000000E-03 0.  1.
         12    1    3    3    0    0  0.21016061264E+02  0.77015998895E+01  0.11690006248E+01  0.22413300390E+02  0.00000000000E+00 0. -1.
</event>
<event>
 7    1  0.1857734E-013  0.7246156E+02  0.7816164E-02  0.1226708E+00
        -11   -1    0    0    0    0  0.00000000000E+00  0.00000000000E+00  0.45593999997E+02  0.45594000000E+02  0.51100000000E-03 0. -1.
         11   -1    0    0    0    0 -0.00000000000E+00 -0.00000000000E+00 -0.45593999997E+02  0.45594000000E+02  0.51100000000E-03 0.  1.
    9900012    2    1    2    0    0  0.74522442154E+01 -0.51251988638E+01  0.16397436121E+02  0.72461560974E+02  0.69999987859E+02 0.  0.
        -12    1    1    2    0    0 -0.74522442154E+01  0.51251988638E+01 -0.16397436121E+02  0.18726439026E+02  0.00000000000E+00 0.  1.
         11    1    3    3    0    0  0.30790166506E+02 -0.14306614152E+02  0.74214964636E+01  0.34753304476E+02  0.51100000000E-03 0. -1.
        -11    1    3    3    0    0 -0.10703226555E+01  0.48252797061E+01  0.13671762115E+02  0.14537743787E+02  0.51100000000E-03 0.  1.
         12    1    3    3    0    0 -0.22267599636E+02  0.43561355819E+01 -0.46958224573E+01  0.23170512711E+02  0.00000000000E+00 0. -1.
</event>
<event>
 7    1  0.1857734E-013  0.7246176E+02  0.7816164E-02  0.1226708E+00
        -11   -1    0    0    0    0  0.00000000000E+00  0.00000000000E+00  0.45593999997E+02  0.45594000000E+02  0.51100000000E-03 0.  1.
         11   -1    0    0    0    0 -0.00000000000E+00 -0.00000000000E+00 -0.45593999997E+02  0.45594000000E+02  0.51100000000E-03 0. -1.
    9900012    2    1    2    0    0 -0.10750037653E+02 -0.15831056529E+01 -0.15251317678E+02  0.72461755743E+02  0.70000241581E+02 0.  0.
        -12    1    1    2    0    0  0.10750037653E+02  0.15831056529E+01  0.15251317678E+02  0.18726244257E+02  0.00000000000E+00 0.  1.
         11    1    3    3    0    0 -0.13445571856E+02 -0.31453447514E+02 -0.51522316473E+01  0.34592604040E+02  0.51100000000E-03 0. -1.
        -11    1    3    3    0    0  0.29888040274E+01  0.10619556062E+02  0.61898165534E+01  0.12649970344E+02  0.51100000000E-03 0.  1.
         12    1    3    3    0    0 -0.29326982422E+00  0.19250785799E+02 -0.16288902584E+02  0.25219181360E+02  0.00000000000E+00 0. -1.
</event>
<event>
 7    1  0.1857734E-013  0.7246159E+02  0.7816164E-02  0.1226708E+00
        -11   -1    0    0    0    0  0.00000000000E+00  0.00000000000E+00  0.45593999997E+02  0.45594000000E+02  0.51100000000E-03 0.  1.
         11   -1    0    0    0    0 -0.00000000000E+00 -0.00000000000E+00 -0.45593999997E+02  0.45594000000E+02  0.51100000000E-03 0. -1.
    9900012    2    1    2    0    0  0.48063496409E+01 -0.94480187041E+00 -0.18074418482E+02  0.72461594822E+02  0.70000031951E+02 0.  0.
        -12    1    1    2    0    0 -0.48063496409E+01  0.94480187041E+00  0.18074418482E+02  0.18726405178E+02  0.00000000000E+00 0.  1.
         11    1    3    3    0    0 -0.15352590414E+01  0.21935385629E+02  0.21746069231E+01  0.22096313687E+02  0.51100000000E-03 0.  1.
        -11    1    3    3    0    0  0.87954017565E+01 -0.26635171837E+02 -0.29115323983E+02  0.40428870399E+02  0.51100000000E-03 0. -1.
         12    1    3    3    0    0 -0.24537930743E+01  0.37549843383E+01  0.88662985781E+01  0.99364107356E+01  0.00000000000E+00 0. -1.
</event>
<event>
 7    1  0.1857734E-013  0.7246160E+02  0.7816164E-02  0.1226708E+00
        -11   -1    0    0    0    0  0.00000000000E+00  0.00000000000E+00  0.45593999997E+02  0.45594000000E+02  0.51100000000E-03 0. -1.
         11   -1    0    0    0    0 -0.00000000000E+00 -0.00000000000E+00 -0.45593999997E+02  0.45594000000E+02  0.51100000000E-03 0.  1.
    9900012    2    1    2    0    0 -0.51708903429E+01  0.17310374761E+02  0.49285676962E+01  0.72461602566E+02  0.70000042040E+02 0.  0.
        -12    1    1    2    0    0  0.51708903429E+01 -0.17310374761E+02 -0.49285676962E+01  0.18726397434E+02  0.00000000000E+00 0.  1.
         11    1    3    3    0    0 -0.17777257074E+02 -0.29968178213E+01 -0.21708916145E+02  0.28218590089E+02  0.51100000000E-03 0. -1.
        -11    1    3    3    0    0  0.18221200057E+02  0.22565780532E+02  0.19833066471E+02  0.35136549467E+02  0.51100000000E-03 0.  1.
         12    1    3    3    0    0 -0.56148333263E+01 -0.22585879495E+01  0.68044173707E+01  0.91064630106E+01  0.00000000000E+00 0. -1.
</event>
<event>
 7    1  0.1857734E-013  0.7246161E+02  0.7816164E-02  0.1226708E+00
        -11   -1    0    0    0    0  0.00000000000E+00  0.00000000000E+00  0.45593999997E+02  0.45594000000E+02  0.51100000000E-03 0. -1.
         11   -1    0    0    0    0 -0.00000000000E+00 -0.00000000000E+00 -0.45593999997E+02  0.45594000000E+02  0.51100000000E-03 0.  1.
    9900012    2    1    2    0    0 -0.43776231841E+01 -0.10201051116E+02  0.15081534500E+02  0.72461609224E+02  0.70000050714E+02 0.  0.
        -12    1    1    2    0    0  0.43776231841E+01  0.10201051116E+02 -0.15081534500E+02  0.18726390776E+02  0.00000000000E+00 0.  1.
         11    1    3    3    0    0 -0.30300561072E+02 -0.21169660230E+02  0.21964055419E+01  0.37028404139E+02  0.51100000000E-03 0. -1.
        -11    1    3    3    0    0  0.14649115040E+02  0.95637129651E+01 -0.96301435582E+00  0.17521089408E+02  0.51100000000E-03 0.  1.
         12    1    3    3    0    0  0.11273822848E+02  0.14048961484E+01  0.13848143313E+02  0.17912115677E+02  0.00000000000E+00 0. -1.
</event>
<event>
 7    1  0.1857734E-013  0.7246158E+02  0.7816164E-02  0.1226708E+00
        -11   -1    0    0    0    0  0.00000000000E+00  0.00000000000E+00  0.45593999997E+02  0.45594000000E+02  0.51100000000E-03 0.  1.
         11   -1    0    0    0    0 -0.00000000000E+00 -0.00000000000E+00 -0.45593999997E+02  0.45594000000E+02  0.51100000000E-03 0. -1.
    9900012    2    1    2    0    0 -0.43270717303E+01 -0.17953183777E+02 -0.31046084775E+01  0.72461576121E+02  0.70000007591E+02 0.  0.
        -12    1    1    2    0    0  0.43270717303E+01  0.17953183777E+02  0.31046084775E+01  0.18726423879E+02  0.00000000000E+00 0.  1.
         11    1    3    3    0    0 -0.23468023364E+02 -0.27617208049E+02 -0.22962037075E+02  0.42903536543E+02  0.51100000000E-03 0. -1.
        -11    1    3    3    0    0  0.91575965517E+01  0.37378911434E+01  0.11943970975E+02  0.15507799577E+02  0.51100000000E-03 0.  1.
         12    1    3    3    0    0  0.99833550816E+01  0.59261331288E+01  0.79134576231E+01  0.14050240001E+02  0.00000000000E+00 0. -1.
</event>
<event>
 8    1  0.1857734E-013  0.7246159E+02  0.7816164E-02  0.1226708E+00
        -11   -1    0    0    0    0  0.00000000000E+00  0.00000000000E+00  0.45593999997E+02  0.45594000000E+02  0.51100000000E-03 0.  1.
         11   -1    0    0    0    0 -0.00000000000E+00 -0.00000000000E+00 -0.45593999997E+02  0.45594000000E+02  0.51100000000E-03 0. -1.
    9900012    2    1    2    0    0  0.90540017039E+01 -0.15527587376E+02 -0.52533450750E+01  0.72461586808E+02  0.70000021512E+02 0.  0.
        -24    2    3    3    0    0  0.15738194479E+02 -0.22020005547E+02 -0.14819131289E+02  0.59107404208E+02  0.50413363013E+02 0.  0.
        -12    1    1    2    0    0 -0.90540017039E+01  0.15527587376E+02  0.52533450750E+01  0.18726413192E+02  0.00000000000E+00 0.  1.
         11    1    4    4    0    0  0.92528686320E+01 -0.81594108384E+01 -0.33066391223E+02  0.35292744182E+02  0.51100000000E-03 0. -1.
        -11    1    3    3    0    0 -0.66841927755E+01  0.64924181713E+01  0.95657862138E+01  0.13354182600E+02  0.51100000000E-03 0.  1.
        -12    1    4    4    0    0  0.64853258475E+01 -0.13860594709E+02  0.18247259934E+02  0.23814660025E+02  0.00000000000E+00 0.  1.
</event>
<event>
 7    1  0.1857734E-013  0.7246156E+02  0.7816164E-02  0.1226708E+00
        -11   -1    0    0    0    0  0.00000000000E+00  0.00000000000E+00  0.45593999997E+02  0.45594000000E+02  0.51100000000E-03 0.  1.
         11   -1    0    0    0    0 -0.00000000000E+00 -0.00000000000E+00 -0.45593999997E+02  0.45594000000E+02  0.51100000000E-03 0. -1.
    9900012    2    1    2    0    0  0.10067848199E+02 -0.14167886455E+02 -0.69705842478E+01  0.72461558301E+02  0.69999984376E+02 0.  0.
        -12    1    1    2    0    0 -0.10067848199E+02  0.14167886455E+02  0.69705842478E+01  0.18726441699E+02  0.00000000000E+00 0.  1.
         11    1    3    3    0    0  0.33641053657E+02 -0.25746433319E+02 -0.19233253116E+01  0.42406349764E+02  0.51100000000E-03 0. -1.
        -11    1    3    3    0    0 -0.66230128662E+01  0.10787877732E+02 -0.22821138931E+01  0.12862762124E+02  0.51100000000E-03 0.  1.
         12    1    3    3    0    0 -0.16950192591E+02  0.79066913306E+00 -0.27651450431E+01  0.17192446413E+02  0.00000000000E+00 0. -1.
</event>
<event>
 7    1  0.1857734E-013  0.7246161E+02  0.7816164E-02  0.1226708E+00
        -11   -1    0    0    0    0  0.00000000000E+00  0.00000000000E+00  0.45593999997E+02  0.45594000000E+02  0.51100000000E-03 0.  1.
         11   -1    0    0    0    0 -0.00000000000E+00 -0.00000000000E+00 -0.45593999997E+02  0.45594000000E+02  0.51100000000E-03 0. -1.
    9900012    2    1    2    0    0 -0.12540154803E+02  0.13423215415E+02  0.36386126791E+01  0.72461609616E+02  0.70000051224E+02 0.  0.
        -12    1    1    2    0    0  0.12540154803E+02 -0.13423215415E+02 -0.36386126791E+01  0.18726390384E+02  0.00000000000E+00 0.  1.
         11    1    3    3    0    0 -0.14655533802E+02  0.75898765091E+01 -0.27961082986E+02  0.32468647315E+02  0.51100000000E-03 0. -1.
        -11    1    3    3    0    0  0.91670473866E+01 -0.57277985448E+01  0.16329670606E+02  0.19583170742E+02  0.51100000000E-03 0.  1.
        -12    1    3    3    0    0 -0.70516683874E+01  0.11561137451E+02  0.15270025059E+02  0.20409791560E+02  0.00000000000E+00 0.  1.
</event>
<event>
 7    1  0.1857734E-013  0.7246156E+02  0.7816164E-02  0.1226708E+00
        -11   -1    0    0    0    0  0.00000000000E+00  0.00000000000E+00  0.45593999997E+02  0.45594000000E+02  0.51100000000E-03 0.  1.
         11   -1    0    0    0    0 -0.00000000000E+00 -0.00000000000E+00 -0.45593999997E+02  0.45594000000E+02  0.51100000000E-03 0. -1.
    9900012    2    1    2    0    0  0.15889805568E+02 -0.96412870489E+01 -0.22889744969E+01  0.72461555030E+02  0.69999980116E+02 0.  0.
        -12    1    1    2    0    0 -0.15889805568E+02  0.96412870489E+01  0.22889744969E+01  0.18726444970E+02  0.00000000000E+00 0.  1.
         11    1    3    3    0    0 -0.13098643893E+02 -0.20594074124E+01 -0.29978495652E+01  0.13594216895E+02  0.51100000000E-03 0. -1.
        -11    1    3    3    0    0  0.26671513482E+02 -0.26575690342E+02  0.78182762931E+01  0.38454679728E+02  0.51100000000E-03 0.  1.
        -12    1    3    3    0    0  0.23169359794E+01  0.18993810705E+02 -0.71094012248E+01  0.20412658406E+02  0.00000000000E+00 0.  1.
</event>
<event>
 7    1  0.1857734E-013  0.7246156E+02  0.7816164E-02  0.1226708E+00
        -11   -1    0    0    0    0  0.00000000000E+00  0.00000000000E+00  0.45593999997E+02  0.45594000000E+02  0.51100000000E-03 0. -1.
         11   -1    0    0    0    0 -0.00000000000E+00 -0.00000000000E+00 -0.45593999997E+02  0.45594000000E+02  0.51100000000E-03 0.  1.
    9900012    2    1    2    0    0  0.28105746077E+01  0.12004725261E+02 -0.14094916854E+02  0.72461563090E+02  0.69999990615E+02 0.  0.
        -12    1    1    2    0    0 -0.28105746077E+01 -0.12004725261E+02  0.14094916854E+02  0.18726436910E+02  0.00000000000E+00 0.  1.
         11    1    3    3    0    0 -0.30401533195E+01 -0.97963998556E+00 -0.25510946158E+02  0.25710126426E+02  0.51100000000E-03 0. -1.
        -11    1    3    3    0    0  0.21284672156E+02  0.37183370515E+01  0.17441321721E+02  0.27768021227E+02  0.51100000000E-03 0.  1.
        -12    1    3    3    0    0 -0.15433944228E+02  0.92660281952E+01 -0.60252924176E+01  0.18983415438E+02  0.00000000000E+00 0.  1.
</event>
<event>
 7    1  0.1857734E-013  0.7246159E+02  0.7816164E-02  0.1226708E+00
        -11   -1    0    0    0    0  0.00000000000E+00  0.00000000000E+00  0.45593999997E+02  0.45594000000E+02  0.51100000000E-03 0. -1.
         11   -1    0    0    0    0 -0.00000000000E+00 -0.00000000000E+00 -0.45593999997E+02  0.45594000000E+02  0.51100000000E-03 0.  1.
    9900012    2    1    2    0    0  0.50698737302E+01  0.17998223175E+02  0.10192600073E+01  0.72461586888E+02  0.70000021616E+02 0.  0.
        -12    1    1    2    0    0 -0.50698737302E+01 -0.17998223175E+02 -0.10192600073E+01  0.18726413112E+02  0.00000000000E+00 0.  1.
         11    1    3    3    0    0 -0.93882926101E+01  0.31935497581E+02 -0.10907435274E+02  0.35028391176E+02  0.51100000000E-03 0.  1.
        -11    1    3    3    0    0  0.19411071626E+02 -0.64163188150E+01  0.17441742887E+02  0.26873281229E+02  0.51100000000E-03 0. -1.
        -12    1    3    3    0    0 -0.49529052858E+01 -0.75209555915E+01 -0.55150476058E+01  0.10559914482E+02  0.00000000000E+00 0.  1.
</event>
<event>
 7    1  0.1857734E-013  0.7246159E+02  0.7816164E-02  0.1226708E+00
        -11   -1    0    0    0    0  0.00000000000E+00  0.00000000000E+00  0.45593999997E+02  0.45594000000E+02  0.51100000000E-03 0.  1.
         11   -1    0    0    0    0 -0.00000000000E+00 -0.00000000000E+00 -0.45593999997E+02  0.45594000000E+02  0.51100000000E-03 0. -1.
    9900012    2    1    2    0    0 -0.12614848911E+02  0.13110251042E+02  0.44345578421E+01  0.72461590876E+02  0.70000026811E+02 0.  0.
        -12    1    1    2    0    0  0.12614848911E+02 -0.13110251042E+02 -0.44345578421E+01  0.18726409124E+02  0.00000000000E+00 0.  1.
         11    1    3    3    0    0 -0.15388765736E+02 -0.23574605539E+02 -0.13263094711E+02  0.31120504797E+02  0.51100000000E-03 0. -1.
        -11    1    3    3    0    0  0.41126284348E+01  0.17325601556E+02  0.66295520884E+01  0.19001082682E+02  0.51100000000E-03 0.  1.
         12    1    3    3    0    0 -0.13387116096E+01  0.19359255025E+02  0.11068100465E+02  0.22340003397E+02  0.00000000000E+00 0. -1.
</event>
<event>
 7    1  0.1857734E-013  0.7246162E+02  0.7816164E-02  0.1226708E+00
        -11   -1    0    0    0    0  0.00000000000E+00  0.00000000000E+00  0.45593999997E+02  0.45594000000E+02  0.51100000000E-03 0. -1.
         11   -1    0    0    0    0 -0.00000000000E+00 -0.00000000000E+00 -0.45593999997E+02  0.45594000000E+02  0.51100000000E-03 0.  1.
    9900012    2    1    2    0    0 -0.18541104246E+02  0.78974787087E+00 -0.25062362150E+01  0.72461615717E+02  0.70000059171E+02 0.  0.
        -12    1    1    2    0    0  0.18541104246E+02 -0.78974787087E+00  0.25062362150E+01  0.18726384283E+02  0.00000000000E+00 0.  1.
         11    1    3    3    0    0 -0.20049162043E+02 -0.80418319981E+01  0.21178549226E+02  0.30251791817E+02  0.51100000000E-03 0. -1.
        -11    1    3    3    0    0  0.16933451425E+02 -0.37552310303E+00 -0.12461145413E+02  0.21027670818E+02  0.51100000000E-03 0.  1.
        -12    1    3    3    0    0 -0.15425393628E+02  0.92071029720E+01 -0.11223640028E+02  0.21182153082E+02  0.00000000000E+00 0.  1.
</event>
<event>
 7    1  0.1857734E-013  0.7246155E+02  0.7816164E-02  0.1226708E+00
        -11   -1    0    0    0    0  0.00000000000E+00  0.00000000000E+00  0.45593999997E+02  0.45594000000E+02  0.51100000000E-03 0.  1.
         11   -1    0    0    0    0 -0.00000000000E+00 -0.00000000000E+00 -0.45593999997E+02  0.45594000000E+02  0.51100000000E-03 0. -1.
    9900012    2    1    2    0    0 -0.34776792067E+01 -0.17315858099E+02  0.62247023549E+01  0.72461545082E+02  0.69999967157E+02 0.  0.
        -12    1    1    2    0    0  0.34776792067E+01  0.17315858099E+02 -0.62247023549E+01  0.18726454918E+02  0.00000000000E+00 0.  1.
         11    1    3    3    0    0 -0.46157459343E+01 -0.27560148455E+02 -0.24875832376E+02  0.37412216321E+02  0.51100000000E-03 0. -1.
        -11    1    3    3    0    0  0.30393335020E+01  0.17083042677E+01  0.22552455451E+02  0.22820365877E+02  0.51100000000E-03 0.  1.
         12    1    3    3    0    0 -0.19012667744E+01  0.85359860885E+01  0.85480792794E+01  0.12228962884E+02  0.00000000000E+00 0. -1.
</event>
<event>
 7    1  0.1857734E-013  0.7246154E+02  0.7816164E-02  0.1226708E+00
        -11   -1    0    0    0    0  0.00000000000E+00  0.00000000000E+00  0.45593999997E+02  0.45594000000E+02  0.51100000000E-03 0.  1.
         11   -1    0    0    0    0 -0.00000000000E+00 -0.00000000000E+00 -0.45593999997E+02  0.45594000000E+02  0.51100000000E-03 0. -1.
    9900012    2    1    2    0    0  0.10554570262E+02 -0.89545357420E+01 -0.12613393624E+02  0.72461538442E+02  0.69999958506E+02 0.  0.
        -12    1    1    2    0    0 -0.10554570262E+02  0.89545357420E+01  0.12613393624E+02  0.18726461558E+02  0.00000000000E+00 0.  1.
         11    1    3    3    0    0  0.24920157237E+02  0.10632405317E+01  0.12068137028E+02  0.27708927239E+02  0.51100000000E-03 0.  1.
        -11    1    3    3    0    0 -0.24180553455E+02 -0.65264367030E+01 -0.10504053108E+02  0.27159320194E+02  0.51100000000E-03 0. -1.
         12    1    3    3    0    0  0.98149664800E+01 -0.34913395707E+01 -0.14177477544E+02  0.17593291009E+02  0.00000000000E+00 0. -1.
</event>
<event>
 7    1  0.1857734E-013  0.7246155E+02  0.7816164E-02  0.1226708E+00
        -11   -1    0    0    0    0  0.00000000000E+00  0.00000000000E+00  0.45593999997E+02  0.45594000000E+02  0.51100000000E-03 0. -1.
         11   -1    0    0    0    0 -0.00000000000E+00 -0.00000000000E+00 -0.45593999997E+02  0.45594000000E+02  0.51100000000E-03 0.  1.
    9900012    2    1    2    0    0 -0.11502690673E+02  0.14325735994E+02  0.36250848284E+01  0.72461552272E+02  0.69999976522E+02 0.  0.
        -12    1    1    2    0    0  0.11502690673E+02 -0.14325735994E+02 -0.36250848284E+01  0.18726447728E+02  0.00000000000E+00 0.  1.
         11    1    3    3    0    0 -0.23092913115E+02  0.67426086827E+01 -0.20594319739E+02  0.31668145095E+02  0.51100000000E-03 0. -1.
        -11    1    3    3    0    0  0.16475563524E+02 -0.22352273199E+01  0.24747508287E+02  0.29814083942E+02  0.51100000000E-03 0.  1.
        -12    1    3    3    0    0 -0.48853410821E+01  0.98183546316E+01 -0.52810371974E+00  0.10979323235E+02  0.00000000000E+00 0.  1.
</event>
<event>
 7    1  0.1857734E-013  0.7246165E+02  0.7816164E-02  0.1226708E+00
        -11   -1    0    0    0    0  0.00000000000E+00  0.00000000000E+00  0.45593999997E+02  0.45594000000E+02  0.51100000000E-03 0.  1.
         11   -1    0    0    0    0 -0.00000000000E+00 -0.00000000000E+00 -0.45593999997E+02  0.45594000000E+02  0.51100000000E-03 0. -1.
    9900012    2    1    2    0    0  0.86514263421E+01 -0.61397722003E+01 -0.15431533956E+02  0.72461649030E+02  0.70000102568E+02 0.  0.
        -12    1    1    2    0    0 -0.86514263421E+01  0.61397722003E+01  0.15431533956E+02  0.18726350970E+02  0.00000000000E+00 0.  1.
         11    1    3    3    0    0  0.14534910351E+02 -0.25408096262E+01 -0.39762177264E+02  0.42411673788E+02  0.51100000000E-03 0. -1.
        -11    1    3    3    0    0 -0.56447145480E+01 -0.83569113741E+00  0.14734042197E+00  0.57081425583E+01  0.51100000000E-03 0.  1.
         12    1    3    3    0    0 -0.23876946088E+00 -0.27632714367E+01  0.24183302886E+02  0.24341832683E+02  0.00000000000E+00 0. -1.
</event>
<event>
 7    1  0.1857734E-013  0.7246156E+02  0.7816164E-02  0.1226708E+00
        -11   -1    0    0    0    0  0.00000000000E+00  0.00000000000E+00  0.45593999997E+02  0.45594000000E+02  0.51100000000E-03 0.  1.
         11   -1    0    0    0    0 -0.00000000000E+00 -0.00000000000E+00 -0.45593999997E+02  0.45594000000E+02  0.51100000000E-03 0. -1.
    9900012    2    1    2    0    0  0.13208936989E+02  0.10090325113E+02 -0.86249075116E+01  0.72461555948E+02  0.69999981311E+02 0.  0.
        -12    1    1    2    0    0 -0.13208936989E+02 -0.10090325113E+02  0.86249075116E+01  0.18726444052E+02  0.00000000000E+00 0.  1.
         11    1    3    3    0    0  0.69365605124E+01 -0.19856001171E+02 -0.18642372974E+02  0.28105421623E+02  0.51100000000E-03 0. -1.
        -11    1    3    3    0    0 -0.78866862198E+01  0.25301133352E+02  0.18403399434E+00  0.26502472285E+02  0.51100000000E-03 0.  1.
         12    1    3    3    0    0  0.14159062696E+02  0.46451929319E+01  0.98334314680E+01  0.17853662040E+02  0.00000000000E+00 0. -1.
</event>
<event>
 7    1  0.1857734E-013  0.7246156E+02  0.7816164E-02  0.1226708E+00
        -11   -1    0    0    0    0  0.00000000000E+00  0.00000000000E+00  0.45593999997E+02  0.45594000000E+02  0.51100000000E-03 0.  1.
         11   -1    0    0    0    0 -0.00000000000E+00 -0.00000000000E+00 -0.45593999997E+02  0.45594000000E+02  0.51100000000E-03 0. -1.
    9900012    2    1    2    0    0  0.99143221585E+01  0.20733769094E+01 -0.15750775281E+02  0.72461558864E+02  0.69999985109E+02 0.  0.
        -12    1    1    2    0    0 -0.99143221585E+01 -0.20733769094E+01  0.15750775281E+02  0.18726441136E+02  0.00000000000E+00 0.  1.
         11    1    3    3    0    0  0.63599135732E+01 -0.29967745620E+02 -0.10750159248E+02  0.32466601337E+02  0.51100000000E-03 0. -1.
        -11    1    3    3    0    0 -0.71251167768E+01  0.27739582981E+01  0.23226764679E+01  0.79910549966E+01  0.51100000000E-03 0.  1.
         12    1    3    3    0    0  0.10679525362E+02  0.29267164232E+02 -0.73232925010E+01  0.32003902530E+02  0.00000000000E+00 0. -1.
</event>
<event>
 7    1  0.1857734E-013  0.7246153E+02  0.7816164E-02  0.1226708E+00
        -11   -1    0    0    0    0  0.00000000000E+00  0.00000000000E+00  0.45593999997E+02  0.45594000000E+02  0.51100000000E-03 0.  1.
         11   -1    0    0    0    0 -0.00000000000E+00 -0.00000000000E+00 -0.45593999997E+02  0.45594000000E+02  0.51100000000E-03 0. -1.
    9900012    2    1    2    0    0  0.33629352771E+01 -0.18302700348E+02 -0.20934052884E+01  0.72461534253E+02  0.69999953049E+02 0.  0.
        -12    1    1    2    0    0 -0.33629352771E+01  0.18302700348E+02  0.20934052884E+01  0.18726465747E+02  0.00000000000E+00 0.  1.
         11    1    3    3    0    0  0.20733394499E+02 -0.16505333617E+02 -0.29699032363E+01  0.26666833535E+02  0.51100000000E-03 0. -1.
        -11    1    3    3    0    0 -0.83492563022E+01  0.90662525975E+01  0.19105571318E+02  0.22736091850E+02  0.51100000000E-03 0.  1.
         12    1    3    3    0    0 -0.90212029197E+01 -0.10863619328E+02 -0.18229073370E+02  0.23058608868E+02  0.00000000000E+00 0. -1.
</event>
<event>
 7    1  0.1857734E-013  0.7246157E+02  0.7816164E-02  0.1226708E+00
        -11   -1    0    0    0    0  0.00000000000E+00  0.00000000000E+00  0.45593999997E+02  0.45594000000E+02  0.51100000000E-03 0.  1.
         11   -1    0    0    0    0 -0.00000000000E+00 -0.00000000000E+00 -0.45593999997E+02  0.45594000000E+02  0.51100000000E-03 0. -1.
    9900012    2    1    2    0    0  0.13548252910E+02 -0.51992141131E+01 -0.11836051201E+02  0.72461572355E+02  0.70000002684E+02 0.  0.
        -12    1    1    2    0    0 -0.13548252910E+02  0.51992141131E+01  0.11836051201E+02  0.18726427645E+02  0.00000000000E+00 0.  1.
         11    1    3    3    0    0  0.14512722278E+02 -0.19479815999E+02 -0.15183046969E+02  0.28646243292E+02  0.51100000000E-03 0. -1.
        -11    1    3    3    0    0 -0.14176213815E+02  0.15491736945E+02 -0.11469380574E+02  0.23927090143E+02  0.51100000000E-03 0.  1.
        -12    1    3    3    0    0  0.13211744447E+02 -0.12111350593E+01  0.14816376341E+02  0.19888238920E+02  0.00000000000E+00 0.  1.
</event>
<event>
 7    1  0.1857734E-013  0.7246187E+02  0.7816164E-02  0.1226707E+00
        -11   -1    0    0    0    0  0.00000000000E+00  0.00000000000E+00  0.45593999997E+02  0.45594000000E+02  0.51100000000E-03 0.  1.
         11   -1    0    0    0    0 -0.00000000000E+00 -0.00000000000E+00 -0.45593999997E+02  0.45594000000E+02  0.51100000000E-03 0. -1.
    9900012    2    1    2    0    0 -0.15400867128E+02  0.70926561176E+01 -0.79483076364E+01  0.72461866566E+02  0.70000385948E+02 0.  0.
        -12    1    1    2    0    0  0.15400867128E+02 -0.70926561176E+01  0.79483076364E+01  0.18726133434E+02  0.00000000000E+00 0.  1.
         11    1    3    3    0    0 -0.19630881974E+02  0.23568071299E+02  0.99356860727E+01  0.32241950465E+02  0.51100000000E-03 0. -1.
        -11    1    3    3    0    0 -0.33217549238E+01 -0.11209555154E+02  0.70417864929E+01  0.13648257757E+02  0.51100000000E-03 0.  1.
         12    1    3    3    0    0  0.75517697698E+01 -0.52658600271E+01 -0.24925780202E+02  0.26571658344E+02  0.00000000000E+00 0. -1.
</event>
<event>
 7    1  0.1857734E-013  0.7246144E+02  0.7816164E-02  0.1226708E+00
        -11   -1    0    0    0    0  0.00000000000E+00  0.00000000000E+00  0.45593999997E+02  0.45594000000E+02  0.51100000000E-03 0.  1.
         11   -1    0    0    0    0 -0.00000000000E+00 -0.00000000000E+00 -0.45593999997E+02  0.45594000000E+02  0.51100000000E-03 0. -1.
    9900012    2    1    2    0    0 -0.72466677942E+01  0.70878575883E+01 -0.15745854794E+02  0.72461444991E+02  0.69999836768E+02 0.  0.
        -12    1    1    2    0    0  0.72466677942E+01 -0.70878575883E+01  0.15745854794E+02  0.18726555009E+02  0.00000000000E+00 0.  1.
         11    1    3    3    0    0  0.18990271481E+02 -0.15696920175E+02 -0.15462479407E+02  0.29088004118E+02  0.51100000000E-03 0. -1.
        -11    1    3    3    0    0 -0.37784840832E+01  0.20142993922E+02 -0.25251361859E+01  0.20649296819E+02  0.51100000000E-03 0.  1.
         12    1    3    3    0    0 -0.22458455192E+02  0.26417838419E+01  0.22417607981E+01  0.22724144053E+02  0.00000000000E+00 0. -1.
</event>
<event>
 7    1  0.1857734E-013  0.7246156E+02  0.7816164E-02  0.1226708E+00
        -11   -1    0    0    0    0  0.00000000000E+00  0.00000000000E+00  0.45593999997E+02  0.45594000000E+02  0.51100000000E-03 0. -1.
         11   -1    0    0    0    0 -0.00000000000E+00 -0.00000000000E+00 -0.45593999997E+02  0.45594000000E+02  0.51100000000E-03 0.  1.
    9900012    2    1    2    0    0  0.10256527034E+02  0.64133667119E+00  0.15654768338E+02  0.72461563307E+02  0.69999990897E+02 0.  0.
        -12    1    1    2    0    0 -0.10256527034E+02 -0.64133667119E+00 -0.15654768338E+02  0.18726436693E+02  0.00000000000E+00 0.  1.
         11    1    3    3    0    0  0.18967891311E+02  0.24482887078E+01  0.26497275447E+02  0.32678442814E+02  0.51100000000E-03 0. -1.
        -11    1    3    3    0    0 -0.10531307708E+02 -0.18007756398E+02 -0.10776633726E+02  0.23480280392E+02  0.51100000000E-03 0.  1.
        -12    1    3    3    0    0  0.18199434315E+01  0.16200804362E+02 -0.65873383172E-01  0.16302840101E+02  0.00000000000E+00 0.  1.
</event>
<event>
 7    1  0.1857734E-013  0.7246136E+02  0.7816164E-02  0.1226709E+00
        -11   -1    0    0    0    0  0.00000000000E+00  0.00000000000E+00  0.45593999997E+02  0.45594000000E+02  0.51100000000E-03 0. -1.
         11   -1    0    0    0    0 -0.00000000000E+00 -0.00000000000E+00 -0.45593999997E+02  0.45594000000E+02  0.51100000000E-03 0.  1.
    9900012    2    1    2    0    0  0.50505710201E+01 -0.37955494262E+01 -0.17628746937E+02  0.72461356370E+02  0.69999721323E+02 0.  0.
        -12    1    1    2    0    0 -0.50505710201E+01  0.37955494262E+01  0.17628746937E+02  0.18726643630E+02  0.00000000000E+00 0.  1.
         11    1    3    3    0    0  0.31232621423E+01  0.17214682878E+01 -0.27429264621E+02  0.27660129742E+02  0.51100000000E-03 0. -1.
        -11    1    3    3    0    0 -0.20826010010E+01  0.17299353342E+02  0.12548815579E+02  0.21472718172E+02  0.51100000000E-03 0.  1.
         12    1    3    3    0    0  0.40099098789E+01 -0.22816371056E+02 -0.27482978960E+01  0.23328508455E+02  0.00000000000E+00 0. -1.
</event>
<event>
 7    1  0.1857734E-013  0.7246143E+02  0.7816164E-02  0.1226708E+00
        -11   -1    0    0    0    0  0.00000000000E+00  0.00000000000E+00  0.45593999997E+02  0.45594000000E+02  0.51100000000E-03 0. -1.
         11   -1    0    0    0    0 -0.00000000000E+00 -0.00000000000E+00 -0.45593999997E+02  0.45594000000E+02  0.51100000000E-03 0.  1.
    9900012    2    1    2    0    0 -0.51051334598E+01  0.17606134867E+02  0.38270376259E+01  0.72461425578E+02  0.69999811480E+02 0.  0.
        -12    1    1    2    0    0  0.51051334598E+01 -0.17606134867E+02 -0.38270376259E+01  0.18726574422E+02  0.00000000000E+00 0.  1.
         11    1    3    3    0    0  0.20352615894E+02  0.31188313066E+01  0.18431818476E+02  0.27634905736E+02  0.51100000000E-03 0. -1.
        -11    1    3    3    0    0 -0.17969793300E+02  0.21585435024E+02 -0.14711652175E+01  0.28124878734E+02  0.51100000000E-03 0.  1.
        -12    1    3    3    0    0 -0.74879560536E+01 -0.70981314640E+01 -0.13133615632E+02  0.16701641109E+02  0.00000000000E+00 0.  1.
</event>
<event>
 7    1  0.1857734E-013  0.7246159E+02  0.7816164E-02  0.1226708E+00
        -11   -1    0    0    0    0  0.00000000000E+00  0.00000000000E+00  0.45593999997E+02  0.45594000000E+02  0.51100000000E-03 0.  1.
         11   -1    0    0    0    0 -0.00000000000E+00 -0.00000000000E+00 -0.45593999997E+02  0.45594000000E+02  0.51100000000E-03 0. -1.
    9900012    2    1    2    0    0  0.25953352762E+01  0.18469644163E+02 -0.16777477503E+01  0.72461591956E+02  0.70000028218E+02 0.  0.
        -12    1    1    2    0    0 -0.25953352762E+01 -0.18469644163E+02  0.16777477503E+01  0.18726408044E+02  0.00000000000E+00 0.  1.
         11    1    3    3    0    0  0.13726325138E+02 -0.10931202596E+02 -0.21428507080E+02  0.27696283287E+02  0.51100000000E-03 0. -1.
        -11    1    3    3    0    0 -0.77498127501E-01  0.17136600337E+02  0.22231420115E+02  0.28069647623E+02  0.51100000000E-03 0.  1.
        -12    1    3    3    0    0 -0.11053491734E+02  0.12264246423E+02 -0.24806607859E+01  0.16695661046E+02  0.00000000000E+00 0.  1.
</event>
<event>
 7    1  0.1857734E-013  0.7246155E+02  0.7816164E-02  0.1226708E+00
        -11   -1    0    0    0    0  0.00000000000E+00  0.00000000000E+00  0.45593999997E+02  0.45594000000E+02  0.51100000000E-03 0.  1.
         11   -1    0    0    0    0 -0.00000000000E+00 -0.00000000000E+00 -0.45593999997E+02  0.45594000000E+02  0.51100000000E-03 0. -1.
    9900012    2    1    2    0    0  0.68100920985E+01 -0.14803108158E+02 -0.92287809138E+01  0.72461554457E+02  0.69999979368E+02 0.  0.
        -12    1    1    2    0    0 -0.68100920985E+01  0.14803108158E+02  0.92287809138E+01  0.18726445543E+02  0.00000000000E+00 0.  1.
         11    1    3    3    0    0  0.13546203845E+02  0.17943372671E+02 -0.17226826424E+02  0.28323626363E+02  0.51100000000E-03 0. -1.
        -11    1    3    3    0    0  0.29002961084E+01 -0.18340098725E+02  0.16493578482E+02  0.24835641127E+02  0.51100000000E-03 0.  1.
         12    1    3    3    0    0 -0.96364078551E+01 -0.14406382104E+02 -0.84955329718E+01  0.19302286967E+02  0.00000000000E+00 0. -1.
</event>
<event>
 7    1  0.1857734E-013  0.7246158E+02  0.7816164E-02  0.1226708E+00
        -11   -1    0    0    0    0  0.00000000000E+00  0.00000000000E+00  0.45593999997E+02  0.45594000000E+02  0.51100000000E-03 0.  1.
         11   -1    0    0    0    0 -0.00000000000E+00 -0.00000000000E+00 -0.45593999997E+02  0.45594000000E+02  0.51100000000E-03 0. -1.
    9900012    2    1    2    0    0 -0.98112416753E+01  0.74516468844E+01 -0.14102882527E+02  0.72461580159E+02  0.70000012850E+02 0.  0.
        -12    1    1    2    0    0  0.98112416753E+01 -0.74516468844E+01  0.14102882527E+02  0.18726419841E+02  0.00000000000E+00 0.  1.
         11    1    3    3    0    0  0.12363938065E+02 -0.14291258436E+02  0.70606201469E+01  0.20173234478E+02  0.51100000000E-03 0.  1.
        -11    1    3    3    0    0 -0.14536168416E+02  0.30985633003E+02 -0.94059304936E+01  0.35494804881E+02  0.51100000000E-03 0. -1.
         12    1    3    3    0    0 -0.76390113242E+01 -0.92427276829E+01 -0.11757572180E+02  0.16793540800E+02  0.00000000000E+00 0. -1.
</event>
<event>
 7    1  0.1857734E-013  0.7246155E+02  0.7816164E-02  0.1226708E+00
        -11   -1    0    0    0    0  0.00000000000E+00  0.00000000000E+00  0.45593999997E+02  0.45594000000E+02  0.51100000000E-03 0.  1.
         11   -1    0    0    0    0 -0.00000000000E+00 -0.00000000000E+00 -0.45593999997E+02  0.45594000000E+02  0.51100000000E-03 0. -1.
    9900012    2    1    2    0    0  0.15639522204E+02  0.39376678103E+01 -0.95173467139E+01  0.72461554234E+02  0.69999979078E+02 0.  0.
        -12    1    1    2    0    0 -0.15639522204E+02 -0.39376678103E+01  0.95173467139E+01  0.18726445766E+02  0.00000000000E+00 0.  1.
         11    1    3    3    0    0  0.50179668757E+01  0.30425691689E+02  0.13234021886E+02  0.33556549910E+02  0.51100000000E-03 0. -1.
        -11    1    3    3    0    0  0.10740189874E+02 -0.18959109468E+02 -0.97308316282E+01  0.23863960165E+02  0.51100000000E-03 0.  1.
         12    1    3    3    0    0 -0.11863454579E+00 -0.75289144109E+01 -0.13020536971E+02  0.15041044159E+02  0.00000000000E+00 0. -1.
</event>
<event>
 7    1  0.1857734E-013  0.7246159E+02  0.7816164E-02  0.1226708E+00
        -11   -1    0    0    0    0  0.00000000000E+00  0.00000000000E+00  0.45593999997E+02  0.45594000000E+02  0.51100000000E-03 0.  1.
         11   -1    0    0    0    0 -0.00000000000E+00 -0.00000000000E+00 -0.45593999997E+02  0.45594000000E+02  0.51100000000E-03 0. -1.
    9900012    2    1    2    0    0 -0.19537492776E+01 -0.17755897415E+02 -0.56204572980E+01  0.72461586315E+02  0.70000020870E+02 0.  0.
        -12    1    1    2    0    0  0.19537492776E+01  0.17755897415E+02  0.56204572980E+01  0.18726413685E+02  0.00000000000E+00 0.  1.
         11    1    3    3    0    0  0.16544377733E+02 -0.82761269733E+01 -0.22454842359E+02  0.29093481364E+02  0.51100000000E-03 0. -1.
        -11    1    3    3    0    0 -0.70662977001E+01 -0.21877102898E+02  0.80875609535E+01  0.24371065566E+02  0.51100000000E-03 0.  1.
        -12    1    3    3    0    0 -0.11431829310E+02  0.12397332456E+02  0.87468241076E+01  0.18997039385E+02  0.00000000000E+00 0.  1.
</event>
<event>
 7    1  0.1857734E-013  0.7246153E+02  0.7816164E-02  0.1226708E+00
        -11   -1    0    0    0    0  0.00000000000E+00  0.00000000000E+00  0.45593999997E+02  0.45594000000E+02  0.51100000000E-03 0.  1.
         11   -1    0    0    0    0 -0.00000000000E+00 -0.00000000000E+00 -0.45593999997E+02  0.45594000000E+02  0.51100000000E-03 0. -1.
    9900012    2    1    2    0    0  0.80292965507E+01 -0.13531592949E+02 -0.10154168895E+02  0.72461527914E+02  0.69999944791E+02 0.  0.
        -12    1    1    2    0    0 -0.80292965507E+01  0.13531592949E+02  0.10154168895E+02  0.18726472086E+02  0.00000000000E+00 0.  1.
         11    1    3    3    0    0  0.25931174115E+02  0.12104113090E+01 -0.14153647233E+02  0.29567154357E+02  0.51100000000E-03 0. -1.
        -11    1    3    3    0    0 -0.12668551193E+02 -0.24124472049E+02  0.11722623469E+02  0.29663146196E+02  0.51100000000E-03 0.  1.
         12    1    3    3    0    0 -0.52333263711E+01  0.93824677911E+01 -0.77231451317E+01  0.13231227361E+02  0.00000000000E+00 0. -1.
</event>
<event>
 7    1  0.1857734E-013  0.7246157E+02  0.7816164E-02  0.1226708E+00
        -11   -1    0    0    0    0  0.00000000000E+00  0.00000000000E+00  0.45593999997E+02  0.45594000000E+02  0.51100000000E-03 0. -1.
         11   -1    0    0    0    0 -0.00000000000E+00 -0.00000000000E+00 -0.45593999997E+02  0.45594000000E+02  0.51100000000E-03 0.  1.
    9900012    2    1    2    0    0  0.12496410731E+02  0.26466617886E-01  0.13946972747E+02  0.72461574008E+02  0.70000004838E+02 0.  0.
        -12    1    1    2    0    0 -0.12496410731E+02 -0.26466617886E-01 -0.13946972747E+02  0.18726425992E+02  0.00000000000E+00 0.  1.
         11    1    3    3    0    0 -0.13814510872E+02  0.95931140451E+01 -0.14849669928E+02  0.22436159319E+02  0.51100000000E-03 0. -1.
        -11    1    3    3    0    0  0.24763520680E+02  0.47324600960E+01  0.24146886199E+02  0.34909887545E+02  0.51100000000E-03 0.  1.
         12    1    3    3    0    0  0.15474009233E+01 -0.14299107523E+02  0.46497564765E+01  0.15115527145E+02  0.00000000000E+00 0. -1.
</event>
<event>
 7    1  0.1857734E-013  0.7246158E+02  0.7816164E-02  0.1226708E+00
        -11   -1    0    0    0    0  0.00000000000E+00  0.00000000000E+00  0.45593999997E+02  0.45594000000E+02  0.51100000000E-03 0. -1.
         11   -1    0    0    0    0 -0.00000000000E+00 -0.00000000000E+00 -0.45593999997E+02  0.45594000000E+02  0.51100000000E-03 0.  1.
    9900012    2    1    2    0    0  0.12425198690E+02  0.34412133966E+01  0.13581278627E+02  0.72461584399E+02  0.70000018374E+02 0.  0.
        -12    1    1    2    0    0 -0.12425198690E+02 -0.34412133966E+01 -0.13581278627E+02  0.18726415601E+02  0.00000000000E+00 0.  1.
         11    1    3    3    0    0  0.18399755574E+02  0.22492179223E+02  0.23687923343E+02  0.37490890146E+02  0.51100000000E-03 0. -1.
        -11    1    3    3    0    0 -0.59998604803E+01 -0.24833938461E+02 -0.28729025988E+01  0.25709461194E+02  0.51100000000E-03 0.  1.
        -12    1    3    3    0    0  0.25303596316E-01  0.57829726347E+01 -0.72337421170E+01  0.92612330594E+01  0.00000000000E+00 0.  1.
</event>
<event>
 7    1  0.1857734E-013  0.7246157E+02  0.7816164E-02  0.1226708E+00
        -11   -1    0    0    0    0  0.00000000000E+00  0.00000000000E+00  0.45593999997E+02  0.45594000000E+02  0.51100000000E-03 0.  1.
         11   -1    0    0    0    0 -0.00000000000E+00 -0.00000000000E+00 -0.45593999997E+02  0.45594000000E+02  0.51100000000E-03 0. -1.
    9900012    2    1    2    0    0  0.61489729309E+00 -0.14028288023E+02  0.12389850132E+02  0.72461565480E+02  0.69999993728E+02 0.  0.
        -12    1    1    2    0    0 -0.61489729309E+00  0.14028288023E+02 -0.12389850132E+02  0.18726434520E+02  0.00000000000E+00 0.  1.
         11    1    3    3    0    0 -0.14719915842E+02  0.14265451212E+02  0.54132267777E+00  0.20505415167E+02  0.51100000000E-03 0.  1.
        -11    1    3    3    0    0  0.18817288986E+02 -0.59072347217E+01 -0.85257311984E+01  0.21486597673E+02  0.51100000000E-03 0. -1.
        -12    1    3    3    0    0 -0.34824758509E+01 -0.22386504513E+02  0.20374258653E+02  0.30469552639E+02  0.00000000000E+00 0.  1.
</event>
<event>
 7    1  0.1857734E-013  0.7246163E+02  0.7816164E-02  0.1226708E+00
        -11   -1    0    0    0    0  0.00000000000E+00  0.00000000000E+00  0.45593999997E+02  0.45594000000E+02  0.51100000000E-03 0. -1.
         11   -1    0    0    0    0 -0.00000000000E+00 -0.00000000000E+00 -0.45593999997E+02  0.45594000000E+02  0.51100000000E-03 0.  1.
    9900012    2    1    2    0    0 -0.43378591771E+01 -0.16279360427E+02  0.81757215936E+01  0.72461627641E+02  0.70000074705E+02 0.  0.
        -12    1    1    2    0    0  0.43378591771E+01  0.16279360427E+02 -0.81757215936E+01  0.18726372359E+02  0.00000000000E+00 0.  1.
         11    1    3    3    0    0  0.22326978485E+01 -0.42603811434E+02  0.32942003834E+01  0.42789267869E+02  0.51100000000E-03 0. -1.
        -11    1    3    3    0    0 -0.58408529394E+01  0.19984929829E+02  0.83221242339E+01  0.22422549707E+02  0.51100000000E-03 0.  1.
         12    1    3    3    0    0 -0.72970408624E+00  0.63395211780E+01 -0.34406030237E+01  0.72498100655E+01  0.00000000000E+00 0. -1.
</event>
<event>
 8    1  0.1857734E-013  0.7246156E+02  0.7816164E-02  0.1226708E+00
        -11   -1    0    0    0    0  0.00000000000E+00  0.00000000000E+00  0.45593999997E+02  0.45594000000E+02  0.51100000000E-03 0. -1.
         11   -1    0    0    0    0 -0.00000000000E+00 -0.00000000000E+00 -0.45593999997E+02  0.45594000000E+02  0.51100000000E-03 0.  1.
    9900012    2    1    2    0    0 -0.56995666097E+01 -0.11272667086E+02  0.13824663271E+02  0.72461564212E+02  0.69999992076E+02 0.  0.
         24    2    3    3    0    0 -0.30404240647E+01  0.60075061034E+01  0.11025280028E+02  0.54755294945E+02  0.53209503068E+02 0.  0.
        -12    1    1    2    0    0  0.56995666097E+01  0.11272667086E+02 -0.13824663271E+02  0.18726435788E+02  0.00000000000E+00 0.  1.
         11    1    3    3    0    0 -0.26591425450E+01 -0.17280173190E+02  0.27993832427E+01  0.17706269267E+02  0.51100000000E-03 0. -1.
        -11    1    4    4    0    0 -0.31816720759E+01  0.15927946708E+02  0.29562061761E+02  0.33730372357E+02  0.51100000000E-03 0.  1.
         12    1    4    4    0    0  0.14124801115E+00 -0.99204406045E+01 -0.18536781733E+02  0.21024922587E+02  0.00000000000E+00 0. -1.
</event>
<event>
 7    1  0.1857734E-013  0.7246170E+02  0.7816164E-02  0.1226708E+00
        -11   -1    0    0    0    0  0.00000000000E+00  0.00000000000E+00  0.45593999997E+02  0.45594000000E+02  0.51100000000E-03 0. -1.
         11   -1    0    0    0    0 -0.00000000000E+00 -0.00000000000E+00 -0.45593999997E+02  0.45594000000E+02  0.51100000000E-03 0.  1.
    9900012    2    1    2    0    0  0.43350603268E+01 -0.18107659214E+02  0.19986014308E+01  0.72461695562E+02  0.70000163184E+02 0.  0.
        -12    1    1    2    0    0 -0.43350603268E+01  0.18107659214E+02 -0.19986014308E+01  0.18726304438E+02  0.00000000000E+00 0.  1.
         11    1    3    3    0    0  0.13080488572E+02 -0.28845583353E+02  0.27894014866E+02  0.42204773733E+02  0.51100000000E-03 0. -1.
        -11    1    3    3    0    0 -0.25466259979E+01  0.81958810236E+01 -0.17703781059E+02  0.19674390303E+02  0.51100000000E-03 0.  1.
         12    1    3    3    0    0 -0.61988022477E+01  0.25420431160E+01 -0.81916323759E+01  0.10582531526E+02  0.00000000000E+00 0. -1.
</event>
<event>
 7    1  0.1857734E-013  0.7246162E+02  0.7816164E-02  0.1226708E+00
        -11   -1    0    0    0    0  0.00000000000E+00  0.00000000000E+00  0.45593999997E+02  0.45594000000E+02  0.51100000000E-03 0. -1.
         11   -1    0    0    0    0 -0.00000000000E+00 -0.00000000000E+00 -0.45593999997E+02  0.45594000000E+02  0.51100000000E-03 0.  1.
    9900012    2    1    2    0    0  0.31536886189E+01 -0.17220884451E+02  0.66462628277E+01  0.72461616933E+02  0.70000060756E+02 0.  0.
        -12    1    1    2    0    0 -0.31536886189E+01  0.17220884451E+02 -0.66462628277E+01  0.18726383067E+02  0.00000000000E+00 0.  1.
         11    1    3    3    0    0  0.15771641482E+02 -0.15422354787E+02  0.12862746063E+02  0.25535151043E+02  0.51100000000E-03 0. -1.
        -11    1    3    3    0    0 -0.10863341549E+02  0.15408528998E+02 -0.17945483632E+02  0.26028356431E+02  0.51100000000E-03 0.  1.
        -12    1    3    3    0    0 -0.17546113149E+01 -0.17207058662E+02  0.11729000397E+02  0.20898109459E+02  0.00000000000E+00 0.  1.
</event>
<event>
 7    1  0.1857734E-013  0.7246162E+02  0.7816164E-02  0.1226708E+00
        -11   -1    0    0    0    0  0.00000000000E+00  0.00000000000E+00  0.45593999997E+02  0.45594000000E+02  0.51100000000E-03 0. -1.
         11   -1    0    0    0    0 -0.00000000000E+00 -0.00000000000E+00 -0.45593999997E+02  0.45594000000E+02  0.51100000000E-03 0.  1.
    9900012    2    1    2    0    0  0.88623359740E+01 -0.78506234324E+01  0.14508753361E+02  0.72461622580E+02  0.70000068111E+02 0.  0.
        -12    1    1    2    0    0 -0.88623359740E+01  0.78506234324E+01 -0.14508753361E+02  0.18726377420E+02  0.00000000000E+00 0.  1.
         11    1    3    3    0    0 -0.35105402090E+01 -0.28005043444E+02  0.21569850851E+02  0.35522736619E+02  0.51100000000E-03 0. -1.
        -11    1    3    3    0    0  0.10462696057E+01  0.90560578653E+01 -0.16234550393E+02  0.18619008858E+02  0.51100000000E-03 0.  1.
         12    1    3    3    0    0  0.11326606577E+02  0.11098362147E+02  0.91734529029E+01  0.18319877103E+02  0.00000000000E+00 0. -1.
</event>
<event>
 7    1  0.1857734E-013  0.7246147E+02  0.7816164E-02  0.1226708E+00
        -11   -1    0    0    0    0  0.00000000000E+00  0.00000000000E+00  0.45593999997E+02  0.45594000000E+02  0.51100000000E-03 0.  1.
         11   -1    0    0    0    0 -0.00000000000E+00 -0.00000000000E+00 -0.45593999997E+02  0.45594000000E+02  0.51100000000E-03 0. -1.
    9900012    2    1    2    0    0  0.15132283155E+02 -0.89057332285E+01 -0.65103641620E+01  0.72461470173E+02  0.69999869573E+02 0.  0.
        -12    1    1    2    0    0 -0.15132283155E+02  0.89057332285E+01  0.65103641620E+01  0.18726529827E+02  0.00000000000E+00 0.  1.
         11    1    3    3    0    0  0.69695757303E+01  0.16485692130E+02  0.61214037238E+01  0.18916252659E+02  0.51100000000E-03 0. -1.
        -11    1    3    3    0    0 -0.18624577707E+01 -0.19445619337E+02  0.14293431237E+02  0.24205434041E+02  0.51100000000E-03 0.  1.
         12    1    3    3    0    0  0.10025165196E+02 -0.59458060214E+01 -0.26925199122E+02  0.29339783473E+02  0.00000000000E+00 0. -1.
</event>
<event>
 7    1  0.1857734E-013  0.7246160E+02  0.7816164E-02  0.1226708E+00
        -11   -1    0    0    0    0  0.00000000000E+00  0.00000000000E+00  0.45593999997E+02  0.45594000000E+02  0.51100000000E-03 0.  1.
         11   -1    0    0    0    0 -0.00000000000E+00 -0.00000000000E+00 -0.45593999997E+02  0.45594000000E+02  0.51100000000E-03 0. -1.
    9900012    2    1    2    0    0  0.69202891064E+01  0.70903006291E+01 -0.15890728297E+02  0.72461601250E+02  0.70000040326E+02 0.  0.
        -12    1    1    2    0    0 -0.69202891064E+01 -0.70903006291E+01  0.15890728297E+02  0.18726398750E+02  0.00000000000E+00 0.  1.
         11    1    3    3    0    0 -0.14535634261E+02  0.10487576890E+02 -0.23317800050E+02  0.29410775777E+02  0.51100000000E-03 0. -1.
        -11    1    3    3    0    0  0.31528331995E+02 -0.57075217228E+01  0.63154021699E+01  0.32657247701E+02  0.51100000000E-03 0.  1.
        -12    1    3    3    0    0 -0.10072408627E+02  0.23102454619E+01  0.11116695832E+01  0.10393577772E+02  0.00000000000E+00 0.  1.
</event>
<event>
 7    1  0.1857734E-013  0.7246158E+02  0.7816164E-02  0.1226708E+00
        -11   -1    0    0    0    0  0.00000000000E+00  0.00000000000E+00  0.45593999997E+02  0.45594000000E+02  0.51100000000E-03 0.  1.
         11   -1    0    0    0    0 -0.00000000000E+00 -0.00000000000E+00 -0.45593999997E+02  0.45594000000E+02  0.51100000000E-03 0. -1.
    9900012    2    1    2    0    0  0.38350897508E+01  0.10514747580E+02 -0.15013697206E+02  0.72461576586E+02  0.70000008196E+02 0.  0.
        -12    1    1    2    0    0 -0.38350897508E+01 -0.10514747580E+02  0.15013697206E+02  0.18726423414E+02  0.00000000000E+00 0.  1.
         11    1    3    3    0    0 -0.75174589561E+01  0.19279600640E+02  0.14007287199E+02  0.24988383000E+02  0.51100000000E-03 0. -1.
        -11    1    3    3    0    0  0.45667443419E+01 -0.11011816358E+01 -0.35203022663E+02  0.35515075106E+02  0.51100000000E-03 0.  1.
        -12    1    3    3    0    0  0.67858043649E+01 -0.76636714238E+01  0.61820382577E+01  0.11958118480E+02  0.00000000000E+00 0.  1.
</event>
<event>
 7    1  0.1857734E-013  0.7246159E+02  0.7816164E-02  0.1226708E+00
        -11   -1    0    0    0    0  0.00000000000E+00  0.00000000000E+00  0.45593999997E+02  0.45594000000E+02  0.51100000000E-03 0.  1.
         11   -1    0    0    0    0 -0.00000000000E+00 -0.00000000000E+00 -0.45593999997E+02  0.45594000000E+02  0.51100000000E-03 0. -1.
    9900012    2    1    2    0    0 -0.13806397615E+02  0.44680589041E+01 -0.11836316143E+02  0.72461586960E+02  0.70000021711E+02 0.  0.
        -12    1    1    2    0    0  0.13806397615E+02 -0.44680589041E+01  0.11836316143E+02  0.18726413040E+02  0.00000000000E+00 0.  1.
         11    1    3    3    0    0 -0.12010074969E+02  0.98367905513E+01 -0.33019730260E+02  0.36487079025E+02  0.51100000000E-03 0. -1.
        -11    1    3    3    0    0  0.12883666866E+02  0.65431800154E+00  0.12121572105E+02  0.17701681121E+02  0.51100000000E-03 0.  1.
        -12    1    3    3    0    0 -0.14679989512E+02 -0.60230496487E+01  0.90618420113E+01  0.18272826814E+02  0.00000000000E+00 0.  1.
</event>
<event>
 7    1  0.1857734E-013  0.7246154E+02  0.7816164E-02  0.1226708E+00
        -11   -1    0    0    0    0  0.00000000000E+00  0.00000000000E+00  0.45593999997E+02  0.45594000000E+02  0.51100000000E-03 0.  1.
         11   -1    0    0    0    0 -0.00000000000E+00 -0.00000000000E+00 -0.45593999997E+02  0.45594000000E+02  0.51100000000E-03 0. -1.
    9900012    2    1    2    0    0  0.17052861841E+02  0.14168491355E+01 -0.76074192228E+01  0.72461537823E+02  0.69999957699E+02 0.  0.
        -12    1    1    2    0    0 -0.17052861841E+02 -0.14168491355E+01  0.76074192228E+01  0.18726462177E+02  0.00000000000E+00 0.  1.
         11    1    3    3    0    0  0.10833839878E+02 -0.59763325789E+01  0.76162476962E+01  0.14529138544E+02  0.51100000000E-03 0. -1.
        -11    1    3    3    0    0 -0.23193478894E+02 -0.43982932307E+01 -0.23298782661E+01  0.23721525658E+02  0.51100000000E-03 0.  1.
        -12    1    3    3    0    0  0.29412500858E+02  0.11791474945E+02 -0.12893788653E+02  0.34210873621E+02  0.00000000000E+00 0.  1.
</event>
<event>
 7    1  0.1857734E-013  0.7246186E+02  0.7816164E-02  0.1226707E+00
        -11   -1    0    0    0    0  0.00000000000E+00  0.00000000000E+00  0.45593999997E+02  0.45594000000E+02  0.51100000000E-03 0.  1.
         11   -1    0    0    0    0 -0.00000000000E+00 -0.00000000000E+00 -0.45593999997E+02  0.45594000000E+02  0.51100000000E-03 0. -1.
    9900012    2    1    2    0    0 -0.17980770358E+02 -0.16619673094E+00  0.52280537658E+01  0.72461861311E+02  0.70000379103E+02 0.  0.
        -12    1    1    2    0    0  0.17980770358E+02  0.16619673094E+00 -0.52280537658E+01  0.18726138689E+02  0.00000000000E+00 0.  1.
         11    1    3    3    0    0 -0.40237801593E+01  0.30132284238E+01 -0.32765073560E+01  0.60004877318E+01  0.51100000000E-03 0. -1.
        -11    1    3    3    0    0 -0.26466359689E+02 -0.27743728276E+02  0.45071717519E+01  0.38606958586E+02  0.51100000000E-03 0.  1.
        -12    1    3    3    0    0  0.12509369490E+02  0.24564303121E+02  0.39973893699E+01  0.27854414994E+02  0.00000000000E+00 0.  1.
</event>
<event>
 7    1  0.1857734E-013  0.7246160E+02  0.7816164E-02  0.1226708E+00
        -11   -1    0    0    0    0  0.00000000000E+00  0.00000000000E+00  0.45593999997E+02  0.45594000000E+02  0.51100000000E-03 0. -1.
         11   -1    0    0    0    0 -0.00000000000E+00 -0.00000000000E+00 -0.45593999997E+02  0.45594000000E+02  0.51100000000E-03 0.  1.
    9900012    2    1    2    0    0  0.14436971509E+02 -0.72780158592E+01  0.94489354160E+01  0.72461600408E+02  0.70000039228E+02 0.  0.
        -12    1    1    2    0    0 -0.14436971509E+02  0.72780158592E+01 -0.94489354160E+01  0.18726399592E+02  0.00000000000E+00 0.  1.
         11    1    3    3    0    0  0.45185106284E+01 -0.52715241942E+01 -0.24685874585E+02  0.25643679726E+02  0.51100000000E-03 0.  1.
        -11    1    3    3    0    0 -0.25700890334E+01  0.94251823822E+01  0.26503859219E+02  0.28247017087E+02  0.51100000000E-03 0. -1.
        -12    1    3    3    0    0  0.12488549914E+02 -0.11431674047E+02  0.76309507816E+01  0.18570903594E+02  0.00000000000E+00 0.  1.
</event>
<event>
 7    1  0.1857734E-013  0.7246158E+02  0.7816164E-02  0.1226708E+00
        -11   -1    0    0    0    0  0.00000000000E+00  0.00000000000E+00  0.45593999997E+02  0.45594000000E+02  0.51100000000E-03 0.  1.
         11   -1    0    0    0    0 -0.00000000000E+00 -0.00000000000E+00 -0.45593999997E+02  0.45594000000E+02  0.51100000000E-03 0. -1.
    9900012    2    1    2    0    0  0.16839346070E+02  0.80453320536E+01  0.15453084041E+01  0.72461576904E+02  0.70000008610E+02 0.  0.
        -12    1    1    2    0    0 -0.16839346070E+02 -0.80453320536E+01 -0.15453084041E+01  0.18726423096E+02  0.00000000000E+00 0.  1.
         11    1    3    3    0    0 -0.98018255559E+01  0.13330874043E+02  0.25832615833E+02  0.30677549250E+02  0.51100000000E-03 0.  1.
        -11    1    3    3    0    0  0.90133390191E+01 -0.46319010993E+01 -0.21707509102E+02  0.23956434203E+02  0.51100000000E-03 0. -1.
        -12    1    3    3    0    0  0.17627832607E+02 -0.65364088985E+00 -0.25797983269E+01  0.17827593450E+02  0.00000000000E+00 0.  1.
</event>
<event>
 7    1  0.1857734E-013  0.7246162E+02  0.7816164E-02  0.1226708E+00
        -11   -1    0    0    0    0  0.00000000000E+00  0.00000000000E+00  0.45593999997E+02  0.45594000000E+02  0.51100000000E-03 0. -1.
         11   -1    0    0    0    0 -0.00000000000E+00 -0.00000000000E+00 -0.45593999997E+02  0.45594000000E+02  0.51100000000E-03 0.  1.
    9900012    2    1    2    0    0  0.47957497747E+01 -0.17707892920E+02 -0.37561266920E+01  0.72461623541E+02  0.70000069364E+02 0.  0.
        -12    1    1    2    0    0 -0.47957497747E+01  0.17707892920E+02  0.37561266920E+01  0.18726376459E+02  0.00000000000E+00 0.  1.
         11    1    3    3    0    0 -0.14030395175E+02  0.18647800911E+02  0.59080961369E+01  0.24072766102E+02  0.51100000000E-03 0.  1.
        -11    1    3    3    0    0 -0.33846520555E+01 -0.14938858224E+02 -0.84877855360E+01  0.17511934734E+02  0.51100000000E-03 0. -1.
         12    1    3    3    0    0  0.22210797005E+02 -0.21416835607E+02 -0.11764372929E+01  0.30876922705E+02  0.00000000000E+00 0. -1.
</event>
<event>
 7    1  0.1857734E-013  0.7246172E+02  0.7816164E-02  0.1226708E+00
        -11   -1    0    0    0    0  0.00000000000E+00  0.00000000000E+00  0.45593999997E+02  0.45594000000E+02  0.51100000000E-03 0.  1.
         11   -1    0    0    0    0 -0.00000000000E+00 -0.00000000000E+00 -0.45593999997E+02  0.45594000000E+02  0.51100000000E-03 0. -1.
    9900012    2    1    2    0    0  0.50036750043E+01  0.15762027047E+01 -0.17976437637E+02  0.72461721976E+02  0.70000197593E+02 0.  0.
        -12    1    1    2    0    0 -0.50036750043E+01 -0.15762027047E+01  0.17976437637E+02  0.18726278024E+02  0.00000000000E+00 0.  1.
         11    1    3    3    0    0  0.22360327913E+02 -0.26024529405E+02 -0.10882478875E+02  0.35995676710E+02  0.51100000000E-03 0. -1.
        -11    1    3    3    0    0 -0.84161022466E+01  0.27735223224E+01  0.86630746294E+00  0.89035774821E+01  0.51100000000E-03 0.  1.
         12    1    3    3    0    0 -0.89405506617E+01  0.24827209787E+02 -0.79602662253E+01  0.27562467784E+02  0.00000000000E+00 0. -1.
</event>
<event>
 7    1  0.1857734E-013  0.7246121E+02  0.7816164E-02  0.1226709E+00
        -11   -1    0    0    0    0  0.00000000000E+00  0.00000000000E+00  0.45593999997E+02  0.45594000000E+02  0.51100000000E-03 0. -1.
         11   -1    0    0    0    0 -0.00000000000E+00 -0.00000000000E+00 -0.45593999997E+02  0.45594000000E+02  0.51100000000E-03 0.  1.
    9900012    2    1    2    0    0 -0.22116920200E+01 -0.31711730209E+01  0.18323338770E+02  0.72461210003E+02  0.69999530652E+02 0.  0.
        -12    1    1    2    0    0  0.22116920200E+01  0.31711730209E+01 -0.18323338770E+02  0.18726789997E+02  0.00000000000E+00 0.  1.
         11    1    3    3    0    0 -0.88290050193E+01  0.23006998305E+02  0.15067107221E+02  0.28884096332E+02  0.51100000000E-03 0. -1.
        -11    1    3    3    0    0  0.10555458220E+02 -0.30985774661E+02 -0.51355254313E+01  0.33134718217E+02  0.51100000000E-03 0.  1.
        -12    1    3    3    0    0 -0.39381452211E+01  0.48076033348E+01  0.83917569802E+01  0.10442395454E+02  0.00000000000E+00 0.  1.
</event>
<event>
 7    1  0.1857734E-013  0.7246157E+02  0.7816164E-02  0.1226708E+00
        -11   -1    0    0    0    0  0.00000000000E+00  0.00000000000E+00  0.45593999997E+02  0.45594000000E+02  0.51100000000E-03 0.  1.
         11   -1    0    0    0    0 -0.00000000000E+00 -0.00000000000E+00 -0.45593999997E+02  0.45594000000E+02  0.51100000000E-03 0. -1.
    9900012    2    1    2    0    0 -0.60309768887E+01  0.59194511919E+01 -0.16711271867E+02  0.72461569692E+02  0.69999999216E+02 0.  0.
        -12    1    1    2    0    0  0.60309768887E+01 -0.59194511919E+01  0.16711271867E+02  0.18726430308E+02  0.00000000000E+00 0.  1.
         11    1    3    3    0    0 -0.13080593214E+02  0.24638320377E+02 -0.30128164214E+02  0.41059164982E+02  0.51100000000E-03 0. -1.
        -11    1    3    3    0    0  0.87100659962E+01 -0.35681029724E+00  0.20401426774E+00  0.87197583297E+01  0.51100000000E-03 0.  1.
         12    1    3    3    0    0 -0.16604496706E+01 -0.18362058888E+02  0.13212878079E+02  0.22682646381E+02  0.00000000000E+00 0. -1.
</event>
<event>
 7    1  0.1857734E-013  0.7246165E+02  0.7816164E-02  0.1226708E+00
        -11   -1    0    0    0    0  0.00000000000E+00  0.00000000000E+00  0.45593999997E+02  0.45594000000E+02  0.51100000000E-03 0.  1.
         11   -1    0    0    0    0 -0.00000000000E+00 -0.00000000000E+00 -0.45593999997E+02  0.45594000000E+02  0.51100000000E-03 0. -1.
    9900012    2    1    2    0    0 -0.26428273167E+01 -0.38472652506E+01 -0.18135330443E+02  0.72461649677E+02  0.70000103411E+02 0.  0.
        -12    1    1    2    0    0  0.26428273167E+01  0.38472652506E+01  0.18135330443E+02  0.18726350323E+02  0.00000000000E+00 0.  1.
         11    1    3    3    0    0 -0.65222504897E+01 -0.75600850256E+01 -0.26663846599E+02  0.28472009988E+02  0.51100000000E-03 0. -1.
        -11    1    3    3    0    0 -0.85999935463E+00  0.31800061046E+00  0.25771490637E+02  0.25787796595E+02  0.51100000000E-03 0.  1.
        -12    1    3    3    0    0  0.47394225276E+01  0.33948191645E+01 -0.17242974482E+02  0.18201843095E+02  0.00000000000E+00 0.  1.
</event>
<event>
 7    1  0.1857734E-013  0.7246156E+02  0.7816164E-02  0.1226708E+00
        -11   -1    0    0    0    0  0.00000000000E+00  0.00000000000E+00  0.45593999997E+02  0.45594000000E+02  0.51100000000E-03 0.  1.
         11   -1    0    0    0    0 -0.00000000000E+00 -0.00000000000E+00 -0.45593999997E+02  0.45594000000E+02  0.51100000000E-03 0. -1.
    9900012    2    1    2    0    0  0.13576752854E+02  0.72548416540E+01 -0.10663899705E+02  0.72461556066E+02  0.69999981466E+02 0.  0.
        -12    1    1    2    0    0 -0.13576752854E+02 -0.72548416540E+01  0.10663899705E+02  0.18726443934E+02  0.00000000000E+00 0.  1.
         11    1    3    3    0    0 -0.13634182324E+02 -0.13308207488E+02 -0.17624267437E+02  0.25954077081E+02  0.51100000000E-03 0. -1.
        -11    1    3    3    0    0  0.83337471932E+01 -0.71671675703E+00  0.14800687422E+02  0.17000746266E+02  0.51100000000E-03 0.  1.
         12    1    3    3    0    0  0.18877187985E+02  0.21279765899E+02 -0.78403196895E+01  0.29506732719E+02  0.00000000000E+00 0. -1.
</event>
<event>
 7    1  0.1857734E-013  0.7246157E+02  0.7816164E-02  0.1226708E+00
        -11   -1    0    0    0    0  0.00000000000E+00  0.00000000000E+00  0.45593999997E+02  0.45594000000E+02  0.51100000000E-03 0.  1.
         11   -1    0    0    0    0 -0.00000000000E+00 -0.00000000000E+00 -0.45593999997E+02  0.45594000000E+02  0.51100000000E-03 0. -1.
    9900012    2    1    2    0    0  0.72132310036E+01 -0.16714237734E+02  0.43911949813E+01  0.72461573808E+02  0.70000004577E+02 0.  0.
        -12    1    1    2    0    0 -0.72132310036E+01  0.16714237734E+02 -0.43911949813E+01  0.18726426192E+02  0.00000000000E+00 0.  1.
         11    1    3    3    0    0  0.16822088218E+02 -0.20619050786E+02 -0.27355636818E+02  0.38163579147E+02  0.51100000000E-03 0. -1.
        -11    1    3    3    0    0 -0.74152154681E+01  0.28332554880E+00  0.12053106049E+02  0.14154259412E+02  0.51100000000E-03 0.  1.
         12    1    3    3    0    0 -0.21936417466E+01  0.36214875029E+01  0.19693725750E+02  0.20143735249E+02  0.00000000000E+00 0. -1.
</event>
<event>
 7    1  0.1857734E-013  0.7246158E+02  0.7816164E-02  0.1226708E+00
        -11   -1    0    0    0    0  0.00000000000E+00  0.00000000000E+00  0.45593999997E+02  0.45594000000E+02  0.51100000000E-03 0.  1.
         11   -1    0    0    0    0 -0.00000000000E+00 -0.00000000000E+00 -0.45593999997E+02  0.45594000000E+02  0.51100000000E-03 0. -1.
    9900012    2    1    2    0    0  0.15484296342E+02  0.34221283941E+00 -0.10526082670E+02  0.72461575910E+02  0.70000007315E+02 0.  0.
        -12    1    1    2    0    0 -0.15484296342E+02 -0.34221283941E+00  0.10526082670E+02  0.18726424090E+02  0.00000000000E+00 0.  1.
         11    1    3    3    0    0 -0.10852645584E+02  0.92600502090E+01 -0.24381614774E+02  0.28248744845E+02  0.51100000000E-03 0. -1.
        -11    1    3    3    0    0  0.32481642396E+02 -0.29624191533E+01  0.72747704258E+01  0.33417888996E+02  0.51100000000E-03 0.  1.
         12    1    3    3    0    0 -0.61447004690E+01 -0.59554182163E+01  0.65807616786E+01  0.10794942068E+02  0.00000000000E+00 0. -1.
</event>
<event>
 7    1  0.1857734E-013  0.7246167E+02  0.7816164E-02  0.1226708E+00
        -11   -1    0    0    0    0  0.00000000000E+00  0.00000000000E+00  0.45593999997E+02  0.45594000000E+02  0.51100000000E-03 0.  1.
         11   -1    0    0    0    0 -0.00000000000E+00 -0.00000000000E+00 -0.45593999997E+02  0.45594000000E+02  0.51100000000E-03 0. -1.
    9900012    2    1    2    0    0 -0.34604689793E+01  0.53091474926E+01 -0.17621395287E+02  0.72461669219E+02  0.70000128867E+02 0.  0.
        -12    1    1    2    0    0  0.34604689793E+01 -0.53091474926E+01  0.17621395287E+02  0.18726330781E+02  0.00000000000E+00 0.  1.
         11    1    3    3    0    0 -0.88211620834E+01 -0.24082947467E+02  0.14075678611E+01  0.25686231852E+02  0.51100000000E-03 0. -1.
        -11    1    3    3    0    0 -0.27826476846E+01  0.16092392642E+02  0.59052518328E+01  0.17366065431E+02  0.51100000000E-03 0.  1.
         12    1    3    3    0    0  0.81433407887E+01  0.13299702318E+02 -0.24934214981E+02  0.29409371936E+02  0.00000000000E+00 0. -1.
</event>
<event>
 7    1  0.1857734E-013  0.7246155E+02  0.7816164E-02  0.1226708E+00
        -11   -1    0    0    0    0  0.00000000000E+00  0.00000000000E+00  0.45593999997E+02  0.45594000000E+02  0.51100000000E-03 0. -1.
         11   -1    0    0    0    0 -0.00000000000E+00 -0.00000000000E+00 -0.45593999997E+02  0.45594000000E+02  0.51100000000E-03 0.  1.
    9900012    2    1    2    0    0  0.56585519956E+01  0.17253280101E+02 -0.45809400682E+01  0.72461550875E+02  0.69999974702E+02 0.  0.
        -12    1    1    2    0    0 -0.56585519956E+01 -0.17253280101E+02  0.45809400682E+01  0.18726449125E+02  0.00000000000E+00 0.  1.
         11    1    3    3    0    0  0.14229235336E+02  0.19751340207E+01 -0.20197561718E+02  0.24785354390E+02  0.51100000000E-03 0.  1.
        -11    1    3    3    0    0 -0.71668458546E+01  0.34479974263E+01  0.28817347405E+02  0.29894679752E+02  0.51100000000E-03 0. -1.
         12    1    3    3    0    0 -0.14038374860E+01  0.11830148654E+02 -0.13200725755E+02  0.17781516733E+02  0.00000000000E+00 0. -1.
</event>
<event>
 7    1  0.1857734E-013  0.7246156E+02  0.7816164E-02  0.1226708E+00
        -11   -1    0    0    0    0  0.00000000000E+00  0.00000000000E+00  0.45593999997E+02  0.45594000000E+02  0.51100000000E-03 0. -1.
         11   -1    0    0    0    0 -0.00000000000E+00 -0.00000000000E+00 -0.45593999997E+02  0.45594000000E+02  0.51100000000E-03 0.  1.
    9900012    2    1    2    0    0 -0.35529110249E+01 -0.17736070105E+02  0.48464667736E+01  0.72461558808E+02  0.69999985037E+02 0.  0.
        -12    1    1    2    0    0  0.35529110249E+01  0.17736070105E+02 -0.48464667736E+01  0.18726441192E+02  0.00000000000E+00 0.  1.
         11    1    3    3    0    0 -0.11045102323E+02 -0.17921137483E+02  0.16620493435E+02  0.26821675121E+02  0.51100000000E-03 0. -1.
        -11    1    3    3    0    0  0.22482323454E+01 -0.16445985599E+02 -0.20305409261E+02  0.26226601696E+02  0.51100000000E-03 0.  1.
        -12    1    3    3    0    0  0.52439589529E+01  0.16631052977E+02  0.85313825997E+01  0.19413281992E+02  0.00000000000E+00 0.  1.
</event>
<event>
 7    1  0.1857734E-013  0.7246163E+02  0.7816164E-02  0.1226708E+00
        -11   -1    0    0    0    0  0.00000000000E+00  0.00000000000E+00  0.45593999997E+02  0.45594000000E+02  0.51100000000E-03 0.  1.
         11   -1    0    0    0    0 -0.00000000000E+00 -0.00000000000E+00 -0.45593999997E+02  0.45594000000E+02  0.51100000000E-03 0. -1.
    9900012    2    1    2    0    0  0.15255728904E+01  0.20608115352E+01 -0.18550002061E+02  0.72461631070E+02  0.70000079172E+02 0.  0.
        -12    1    1    2    0    0 -0.15255728904E+01 -0.20608115352E+01  0.18550002061E+02  0.18726368930E+02  0.00000000000E+00 0.  1.
         11    1    3    3    0    0  0.19715310989E+02  0.22033924759E+02 -0.26849570145E+02  0.39938537090E+02  0.51100000000E-03 0. -1.
        -11    1    3    3    0    0 -0.12799563219E+02 -0.53191957612E+01  0.95916125670E+01  0.16855909766E+02  0.51100000000E-03 0.  1.
         12    1    3    3    0    0 -0.53901748791E+01 -0.14653917463E+02 -0.12920444834E+01  0.15667184214E+02  0.00000000000E+00 0. -1.
</event>
<event>
 7    1  0.1857734E-013  0.7246158E+02  0.7816164E-02  0.1226708E+00
        -11   -1    0    0    0    0  0.00000000000E+00  0.00000000000E+00  0.45593999997E+02  0.45594000000E+02  0.51100000000E-03 0. -1.
         11   -1    0    0    0    0 -0.00000000000E+00 -0.00000000000E+00 -0.45593999997E+02  0.45594000000E+02  0.51100000000E-03 0.  1.
    9900012    2    1    2    0    0  0.14694013680E+01  0.13946840711E+02  0.12409885964E+02  0.72461580806E+02  0.70000013693E+02 0.  0.
        -12    1    1    2    0    0 -0.14694013680E+01 -0.13946840711E+02 -0.12409885964E+02  0.18726419194E+02  0.00000000000E+00 0.  1.
         11    1    3    3    0    0  0.24782029842E+02 -0.10137411454E+02  0.19375819281E+00  0.26775990300E+02  0.51100000000E-03 0. -1.
        -11    1    3    3    0    0 -0.72176852008E+01  0.10818605044E+02 -0.90921605476E+01  0.15868351472E+02  0.51100000000E-03 0.  1.
         12    1    3    3    0    0 -0.16094943273E+02  0.13265647121E+02  0.21308288319E+02  0.29817239033E+02  0.00000000000E+00 0. -1.
</event>
<event>
 7    1  0.2102837E-013  0.7246144E+02  0.7816164E-02  0.1226708E+00
        -11   -1    0    0    0    0  0.00000000000E+00  0.00000000000E+00  0.45593999997E+02  0.45594000000E+02  0.51100000000E-03 0. -1.
         11   -1    0    0    0    0 -0.00000000000E+00 -0.00000000000E+00 -0.45593999997E+02  0.45594000000E+02  0.51100000000E-03 0.  1.
    9900012    2    1    2    0    0  0.18923887895E+01  0.70729414030E+01  0.17235900820E+02  0.72461443657E+02  0.69999835031E+02 0.  0.
        -12    1    1    2    0    0 -0.18923887895E+01 -0.70729414030E+01 -0.17235900820E+02  0.18726556343E+02  0.00000000000E+00 0.  1.
         11    1    3    3    0    0  0.10372228838E+02 -0.16127197016E+02  0.24445626768E+02  0.31068606068E+02  0.51100000000E-03 0. -1.
        -11    1    3    3    0    0 -0.16851347900E+02  0.11185172528E+02  0.65892093969E+01  0.21271899099E+02  0.51100000000E-03 0.  1.
         12    1    3    3    0    0  0.83715078515E+01  0.12014965891E+02 -0.13798935345E+02  0.20120938490E+02  0.00000000000E+00 0. -1.
</event>
<event>
 7    1  0.1857734E-013  0.7246158E+02  0.7816164E-02  0.1226708E+00
        -11   -1    0    0    0    0  0.00000000000E+00  0.00000000000E+00  0.45593999997E+02  0.45594000000E+02  0.51100000000E-03 0. -1.
         11   -1    0    0    0    0 -0.00000000000E+00 -0.00000000000E+00 -0.45593999997E+02  0.45594000000E+02  0.51100000000E-03 0.  1.
    9900012    2    1    2    0    0 -0.78451693184E+01  0.13531980321E+02  0.10296491535E+02  0.72461577198E+02  0.70000008993E+02 0.  0.
        -12    1    1    2    0    0  0.78451693184E+01 -0.13531980321E+02 -0.10296491535E+02  0.18726422802E+02  0.00000000000E+00 0.  1.
         11    1    3    3    0    0 -0.29740386981E+02 -0.32300390000E+01  0.18864008539E+02  0.35366291693E+02  0.51100000000E-03 0. -1.
        -11    1    3    3    0    0  0.14729893355E+02 -0.20271151232E+01 -0.82063040283E+01  0.16983002680E+02  0.51100000000E-03 0.  1.
         12    1    3    3    0    0  0.71653243076E+01  0.18789134444E+02 -0.36121297575E+00  0.20112282825E+02  0.00000000000E+00 0. -1.
</event>
<event>
 7    1  0.1860959E-013  0.7246145E+02  0.7816164E-02  0.1226708E+00
        -11   -1    0    0    0    0  0.00000000000E+00  0.00000000000E+00  0.45593999997E+02  0.45594000000E+02  0.51100000000E-03 0. -1.
         11   -1    0    0    0    0 -0.00000000000E+00 -0.00000000000E+00 -0.45593999997E+02  0.45594000000E+02  0.51100000000E-03 0.  1.
    9900012    2    1    2    0    0 -0.39006480621E+01  0.12969730852E+02  0.12932701187E+02  0.72461448431E+02  0.69999841250E+02 0.  0.
        -12    1    1    2    0    0  0.39006480621E+01 -0.12969730852E+02 -0.12932701187E+02  0.18726551569E+02  0.00000000000E+00 0.  1.
         11    1    3    3    0    0 -0.19670481622E+02 -0.42278026378E+01  0.30040519848E+02  0.36155704881E+02  0.51100000000E-03 0. -1.
        -11    1    3    3    0    0 -0.46830038986E+01  0.35003257086E+01 -0.83192128466E+01  0.10168191001E+02  0.51100000000E-03 0.  1.
         12    1    3    3    0    0  0.20452837459E+02  0.13697207781E+02 -0.87886058145E+01  0.26137552549E+02  0.00000000000E+00 0. -1.
</event>
<event>
 7    1  0.1857734E-013  0.7246169E+02  0.7816164E-02  0.1226708E+00
        -11   -1    0    0    0    0  0.00000000000E+00  0.00000000000E+00  0.45593999997E+02  0.45594000000E+02  0.51100000000E-03 0.  1.
         11   -1    0    0    0    0 -0.00000000000E+00 -0.00000000000E+00 -0.45593999997E+02  0.45594000000E+02  0.51100000000E-03 0. -1.
    9900012    2    1    2    0    0 -0.17016022252E+02  0.75656917856E+01 -0.19722613410E+01  0.72461694431E+02  0.70000161711E+02 0.  0.
        -12    1    1    2    0    0  0.17016022252E+02 -0.75656917856E+01  0.19722613410E+01  0.18726305569E+02  0.00000000000E+00 0.  1.
         11    1    3    3    0    0 -0.17516042785E+02  0.26492452242E+02 -0.23261585033E+02  0.39367030866E+02  0.51100000000E-03 0. -1.
        -11    1    3    3    0    0 -0.61297076213E+01 -0.31301111801E+01  0.11391975623E+02  0.13309696479E+02  0.51100000000E-03 0.  1.
         12    1    3    3    0    0  0.66297281545E+01 -0.15796649277E+02  0.98973480699E+01  0.19784967086E+02  0.00000000000E+00 0. -1.
</event>
<event>
 7    1  0.1857734E-013  0.7246148E+02  0.7816164E-02  0.1226708E+00
        -11   -1    0    0    0    0  0.00000000000E+00  0.00000000000E+00  0.45593999997E+02  0.45594000000E+02  0.51100000000E-03 0. -1.
         11   -1    0    0    0    0 -0.00000000000E+00 -0.00000000000E+00 -0.45593999997E+02  0.45594000000E+02  0.51100000000E-03 0.  1.
    9900012    2    1    2    0    0  0.15755203617E+02 -0.18053439358E+01  0.99597531689E+01  0.72461484282E+02  0.69999887953E+02 0.  0.
        -12    1    1    2    0    0 -0.15755203617E+02  0.18053439358E+01 -0.99597531689E+01  0.18726515718E+02  0.00000000000E+00 0.  1.
         11    1    3    3    0    0  0.85151080714E+01  0.28201185972E+02  0.99857826093E+01  0.31105141219E+02  0.51100000000E-03 0. -1.
        -11    1    3    3    0    0 -0.55539293154E+01 -0.17256640927E+02  0.99942254340E+01  0.20700780884E+02  0.51100000000E-03 0.  1.
        -12    1    3    3    0    0  0.12794024861E+02 -0.12749888981E+02 -0.10020254874E+02  0.20655562179E+02  0.00000000000E+00 0.  1.
</event>
<event>
 7    1  0.1857734E-013  0.7246161E+02  0.7816164E-02  0.1226708E+00
        -11   -1    0    0    0    0  0.00000000000E+00  0.00000000000E+00  0.45593999997E+02  0.45594000000E+02  0.51100000000E-03 0.  1.
         11   -1    0    0    0    0 -0.00000000000E+00 -0.00000000000E+00 -0.45593999997E+02  0.45594000000E+02  0.51100000000E-03 0. -1.
    9900012    2    1    2    0    0 -0.13757323293E+02 -0.87389301052E+01 -0.92219754073E+01  0.72461610225E+02  0.70000052018E+02 0.  0.
        -12    1    1    2    0    0  0.13757323293E+02  0.87389301052E+01  0.92219754073E+01  0.18726389775E+02  0.00000000000E+00 0.  1.
         11    1    3    3    0    0  0.20995660493E+02  0.34374097616E+01 -0.19462963494E+02  0.28834709877E+02  0.51100000000E-03 0. -1.
        -11    1    3    3    0    0 -0.24781343417E+02  0.81292943743E+00  0.97980353550E+00  0.24814025289E+02  0.51100000000E-03 0.  1.
        -12    1    3    3    0    0 -0.99716403695E+01 -0.12989269304E+02  0.92611845517E+01  0.18812875060E+02  0.00000000000E+00 0.  1.
</event>
<event>
 7    1  0.1857734E-013  0.7246156E+02  0.7816164E-02  0.1226708E+00
        -11   -1    0    0    0    0  0.00000000000E+00  0.00000000000E+00  0.45593999997E+02  0.45594000000E+02  0.51100000000E-03 0.  1.
         11   -1    0    0    0    0 -0.00000000000E+00 -0.00000000000E+00 -0.45593999997E+02  0.45594000000E+02  0.51100000000E-03 0. -1.
    9900012    2    1    2    0    0 -0.14323782297E+01  0.96104544909E+00 -0.18646825656E+02  0.72461563532E+02  0.69999991191E+02 0.  0.
        -12    1    1    2    0    0  0.14323782297E+01 -0.96104544909E+00  0.18646825656E+02  0.18726436468E+02  0.00000000000E+00 0.  1.
         11    1    3    3    0    0  0.20020433369E+02 -0.44621940915E+01 -0.29805771713E+02  0.36181666021E+02  0.51100000000E-03 0. -1.
        -11    1    3    3    0    0 -0.25774916586E+02  0.10481373497E+02  0.97149748031E+01  0.29471787375E+02  0.51100000000E-03 0.  1.
        -12    1    3    3    0    0  0.43221049875E+01 -0.50581339568E+01  0.14439712537E+01  0.68081101364E+01  0.00000000000E+00 0.  1.
</event>
<event>
 7    1  0.1857734E-013  0.7246160E+02  0.7816164E-02  0.1226708E+00
        -11   -1    0    0    0    0  0.00000000000E+00  0.00000000000E+00  0.45593999997E+02  0.45594000000E+02  0.51100000000E-03 0.  1.
         11   -1    0    0    0    0 -0.00000000000E+00 -0.00000000000E+00 -0.45593999997E+02  0.45594000000E+02  0.51100000000E-03 0. -1.
    9900012    2    1    2    0    0  0.34864791748E+01  0.88876506140E+01 -0.16110006500E+02  0.72461596718E+02  0.70000034421E+02 0.  0.
        -12    1    1    2    0    0 -0.34864791748E+01 -0.88876506140E+01  0.16110006500E+02  0.18726403282E+02  0.00000000000E+00 0.  1.
         11    1    3    3    0    0 -0.19588225817E+02 -0.18614431961E+01 -0.14849577330E+02  0.24651034635E+02  0.51100000000E-03 0. -1.
        -11    1    3    3    0    0  0.14324940321E+02 -0.54186088400E+01 -0.17518396053E+02  0.23269280984E+02  0.51100000000E-03 0.  1.
        -12    1    3    3    0    0  0.87497646707E+01  0.16167702650E+02  0.16257966884E+02  0.24541281099E+02  0.00000000000E+00 0.  1.
</event>
<event>
 7    1  0.1857734E-013  0.7246155E+02  0.7816164E-02  0.1226708E+00
        -11   -1    0    0    0    0  0.00000000000E+00  0.00000000000E+00  0.45593999997E+02  0.45594000000E+02  0.51100000000E-03 0. -1.
         11   -1    0    0    0    0 -0.00000000000E+00 -0.00000000000E+00 -0.45593999997E+02  0.45594000000E+02  0.51100000000E-03 0.  1.
    9900012    2    1    2    0    0 -0.11214261960E+01 -0.15954619968E+02  0.97402400751E+01  0.72461554215E+02  0.69999979053E+02 0.  0.
        -12    1    1    2    0    0  0.11214261960E+01  0.15954619968E+02 -0.97402400751E+01  0.18726445785E+02  0.00000000000E+00 0.  1.
         11    1    3    3    0    0  0.99169158378E+01  0.38977959918E+01  0.11824028675E+02  0.15916836611E+02  0.51100000000E-03 0. -1.
        -11    1    3    3    0    0 -0.43267423226E+01 -0.34941550987E+02 -0.12100673073E+02  0.37229812967E+02  0.51100000000E-03 0.  1.
        -12    1    3    3    0    0 -0.67115997112E+01  0.15089135028E+02  0.10016884474E+02  0.19314904637E+02  0.00000000000E+00 0.  1.
</event>
<event>
 7    1  0.1857734E-013  0.7246155E+02  0.7816164E-02  0.1226708E+00
        -11   -1    0    0    0    0  0.00000000000E+00  0.00000000000E+00  0.45593999997E+02  0.45594000000E+02  0.51100000000E-03 0.  1.
         11   -1    0    0    0    0 -0.00000000000E+00 -0.00000000000E+00 -0.45593999997E+02  0.45594000000E+02  0.51100000000E-03 0. -1.
    9900012    2    1    2    0    0 -0.15698127077E+02 -0.74727006852E+01 -0.69575459025E+01  0.72461550944E+02  0.69999974793E+02 0.  0.
        -12    1    1    2    0    0  0.15698127077E+02  0.74727006852E+01  0.69575459025E+01  0.18726449056E+02  0.00000000000E+00 0.  1.
         11    1    3    3    0    0 -0.28580112920E+02  0.20380207598E+02 -0.78925661460E+01  0.35978720334E+02  0.51100000000E-03 0. -1.
        -11    1    3    3    0    0 -0.34511632368E+01 -0.13513248845E+02  0.40569396232E+01  0.14525053577E+02  0.51100000000E-03 0.  1.
         12    1    3    3    0    0  0.16333149080E+02 -0.14339659437E+02 -0.31219193797E+01  0.21957777034E+02  0.00000000000E+00 0. -1.
</event>
<event>
 7    1  0.1857734E-013  0.7246156E+02  0.7816164E-02  0.1226708E+00
        -11   -1    0    0    0    0  0.00000000000E+00  0.00000000000E+00  0.45593999997E+02  0.45594000000E+02  0.51100000000E-03 0. -1.
         11   -1    0    0    0    0 -0.00000000000E+00 -0.00000000000E+00 -0.45593999997E+02  0.45594000000E+02  0.51100000000E-03 0.  1.
    9900012    2    1    2    0    0 -0.14294910955E+02  0.11799339118E+02 -0.26666193554E+01  0.72461555019E+02  0.69999980101E+02 0.  0.
        -12    1    1    2    0    0  0.14294910955E+02 -0.11799339118E+02  0.26666193554E+01  0.18726444981E+02  0.00000000000E+00 0.  1.
         11    1    3    3    0    0 -0.31310962696E+02 -0.11788049422E+02  0.99815612850E+01  0.34913694449E+02  0.51100000000E-03 0. -1.
        -11    1    3    3    0    0  0.15387737547E+02  0.20513133818E+02 -0.12974182941E+01  0.25675950233E+02  0.51100000000E-03 0.  1.
        -12    1    3    3    0    0  0.16283141927E+01  0.30742547228E+01 -0.11350762346E+02  0.11871910337E+02  0.00000000000E+00 0.  1.
</event>
<event>
 7    1  0.1857734E-013  0.7246155E+02  0.7816164E-02  0.1226708E+00
        -11   -1    0    0    0    0  0.00000000000E+00  0.00000000000E+00  0.45593999997E+02  0.45594000000E+02  0.51100000000E-03 0. -1.
         11   -1    0    0    0    0 -0.00000000000E+00 -0.00000000000E+00 -0.45593999997E+02  0.45594000000E+02  0.51100000000E-03 0.  1.
    9900012    2    1    2    0    0 -0.12036269834E+02 -0.81835098981E+01  0.11782973963E+02  0.72461545419E+02  0.69999967595E+02 0.  0.
        -12    1    1    2    0    0  0.12036269834E+02  0.81835098981E+01 -0.11782973963E+02  0.18726454581E+02  0.00000000000E+00 0.  1.
         11    1    3    3    0    0 -0.82040075129E+01  0.17142012904E+02  0.96871854636E+01  0.21330633093E+02  0.51100000000E-03 0. -1.
        -11    1    3    3    0    0 -0.16155960698E+02 -0.27521987984E+02 -0.10279731750E+02  0.33528313017E+02  0.51100000000E-03 0.  1.
         12    1    3    3    0    0  0.12323698377E+02  0.21964651822E+01  0.12375520249E+02  0.17602599309E+02  0.00000000000E+00 0. -1.
</event>
<event>
 7    1  0.1857734E-013  0.7246155E+02  0.7816164E-02  0.1226708E+00
        -11   -1    0    0    0    0  0.00000000000E+00  0.00000000000E+00  0.45593999997E+02  0.45594000000E+02  0.51100000000E-03 0. -1.
         11   -1    0    0    0    0 -0.00000000000E+00 -0.00000000000E+00 -0.45593999997E+02  0.45594000000E+02  0.51100000000E-03 0.  1.
    9900012    2    1    2    0    0  0.29810948726E+01 -0.13273111792E+02  0.12869253330E+02  0.72461545329E+02  0.69999967478E+02 0.  0.
        -12    1    1    2    0    0 -0.29810948726E+01  0.13273111792E+02 -0.12869253330E+02  0.18726454671E+02  0.00000000000E+00 0.  1.
         11    1    3    3    0    0 -0.18806232301E+02  0.95209531393E+01  0.12319742750E+02  0.24415138413E+02  0.51100000000E-03 0. -1.
        -11    1    3    3    0    0  0.22055522000E+02  0.13551126692E+01 -0.62367606253E+01  0.22960391208E+02  0.51100000000E-03 0.  1.
        -12    1    3    3    0    0 -0.26819482622E+00 -0.24149177601E+02  0.67862712053E+01  0.25086015708E+02  0.00000000000E+00 0.  1.
</event>
<event>
 7    1  0.1857734E-013  0.7246153E+02  0.7816164E-02  0.1226708E+00
        -11   -1    0    0    0    0  0.00000000000E+00  0.00000000000E+00  0.45593999997E+02  0.45594000000E+02  0.51100000000E-03 0. -1.
         11   -1    0    0    0    0 -0.00000000000E+00 -0.00000000000E+00 -0.45593999997E+02  0.45594000000E+02  0.51100000000E-03 0.  1.
    9900012    2    1    2    0    0 -0.16986724953E+02  0.63994328415E+01  0.46020888656E+01  0.72461527101E+02  0.69999943732E+02 0.  0.
        -12    1    1    2    0    0  0.16986724953E+02 -0.63994328415E+01 -0.46020888656E+01  0.18726472899E+02  0.00000000000E+00 0.  1.
         11    1    3    3    0    0 -0.89899205114E+01 -0.19578183543E+02  0.24767836014E+02  0.32826355917E+02  0.51100000000E-03 0. -1.
        -11    1    3    3    0    0 -0.98588543303E+01  0.23812401423E+02 -0.77753727764E+01  0.26919953423E+02  0.51100000000E-03 0.  1.
         12    1    3    3    0    0  0.18620498888E+01  0.21652149617E+01 -0.12390374372E+02  0.12715217761E+02  0.00000000000E+00 0. -1.
</event>
<event>
 7    1  0.1857734E-013  0.7246154E+02  0.7816164E-02  0.1226708E+00
        -11   -1    0    0    0    0  0.00000000000E+00  0.00000000000E+00  0.45593999997E+02  0.45594000000E+02  0.51100000000E-03 0.  1.
         11   -1    0    0    0    0 -0.00000000000E+00 -0.00000000000E+00 -0.45593999997E+02  0.45594000000E+02  0.51100000000E-03 0. -1.
    9900012    2    1    2    0    0 -0.17168347608E+02  0.58792939885E+01 -0.46219050054E+01  0.72461541091E+02  0.69999961957E+02 0.  0.
        -12    1    1    2    0    0  0.17168347608E+02 -0.58792939885E+01  0.46219050054E+01  0.18726458909E+02  0.00000000000E+00 0.  1.
         11    1    3    3    0    0  0.51293810245E+01 -0.81052265055E+01 -0.20085869283E+02  0.22258647567E+02  0.51100000000E-03 0. -1.
        -11    1    3    3    0    0  0.28776100034E+00 -0.75902260367E+01  0.17321304723E+02  0.18913538411E+02  0.51100000000E-03 0.  1.
         12    1    3    3    0    0 -0.22585489633E+02  0.21574746531E+02 -0.18573404451E+01  0.31289355113E+02  0.00000000000E+00 0. -1.
</event>
<event>
 7    1  0.1857734E-013  0.7246160E+02  0.7816164E-02  0.1226708E+00
        -11   -1    0    0    0    0  0.00000000000E+00  0.00000000000E+00  0.45593999997E+02  0.45594000000E+02  0.51100000000E-03 0. -1.
         11   -1    0    0    0    0 -0.00000000000E+00 -0.00000000000E+00 -0.45593999997E+02  0.45594000000E+02  0.51100000000E-03 0.  1.
    9900012    2    1    2    0    0  0.90507517177E+00 -0.92183023679E-01  0.18704286940E+02  0.72461601288E+02  0.70000040375E+02 0.  0.
        -12    1    1    2    0    0 -0.90507517177E+00  0.92183023679E-01 -0.18704286940E+02  0.18726398712E+02  0.00000000000E+00 0.  1.
         11    1    3    3    0    0 -0.90789817984E+01  0.21567389311E+02  0.15718555436E+01  0.23453164441E+02  0.51100000000E-03 0. -1.
        -11    1    3    3    0    0  0.12601738548E+02 -0.32416239148E+02  0.14109150766E+02  0.37532446104E+02  0.51100000000E-03 0.  1.
        -12    1    3    3    0    0 -0.26176815773E+01  0.10756666813E+02  0.30232806304E+01  0.11475990743E+02  0.00000000000E+00 0.  1.
</event>
<event>
 7    1  0.1857734E-013  0.7246154E+02  0.7816164E-02  0.1226708E+00
        -11   -1    0    0    0    0  0.00000000000E+00  0.00000000000E+00  0.45593999997E+02  0.45594000000E+02  0.51100000000E-03 0. -1.
         11   -1    0    0    0    0 -0.00000000000E+00 -0.00000000000E+00 -0.45593999997E+02  0.45594000000E+02  0.51100000000E-03 0.  1.
    9900012    2    1    2    0    0 -0.15212015660E+02  0.22265987298E+01  0.10691927444E+02  0.72461535443E+02  0.69999954599E+02 0.  0.
        -12    1    1    2    0    0  0.15212015660E+02 -0.22265987298E+01 -0.10691927444E+02  0.18726464557E+02  0.00000000000E+00 0.  1.
         11    1    3    3    0    0 -0.19455721743E+02 -0.24113142629E+02 -0.45003686742E+01  0.31308498438E+02  0.51100000000E-03 0. -1.
        -11    1    3    3    0    0  0.15660720155E+02  0.19213726750E+02  0.98982255653E+01  0.26690828406E+02  0.51100000000E-03 0.  1.
        -12    1    3    3    0    0 -0.11417014072E+02  0.71260146093E+01  0.52940705533E+01  0.14462208599E+02  0.00000000000E+00 0.  1.
</event>
<event>
 7    1  0.1857734E-013  0.7246164E+02  0.7816164E-02  0.1226708E+00
        -11   -1    0    0    0    0  0.00000000000E+00  0.00000000000E+00  0.45593999997E+02  0.45594000000E+02  0.51100000000E-03 0.  1.
         11   -1    0    0    0    0 -0.00000000000E+00 -0.00000000000E+00 -0.45593999997E+02  0.45594000000E+02  0.51100000000E-03 0. -1.
    9900012    2    1    2    0    0  0.13006185064E+02 -0.17087575592E+01 -0.13363978946E+02  0.72461637951E+02  0.70000088135E+02 0.  0.
        -12    1    1    2    0    0 -0.13006185064E+02  0.17087575592E+01  0.13363978946E+02  0.18726362049E+02  0.00000000000E+00 0.  1.
         11    1    3    3    0    0  0.12060609664E+02 -0.16193794228E+02 -0.25680299545E+02  0.32667645491E+02  0.51100000000E-03 0. -1.
        -11    1    3    3    0    0 -0.90039907911E+01  0.21314243267E+02  0.85955557928E+00  0.23153998624E+02  0.51100000000E-03 0.  1.
         12    1    3    3    0    0  0.99495661915E+01 -0.68292065985E+01  0.11456765019E+02  0.16639993836E+02  0.00000000000E+00 0. -1.
</event>
<event>
 7    1  0.1857734E-013  0.7246157E+02  0.7816164E-02  0.1226708E+00
        -11   -1    0    0    0    0  0.00000000000E+00  0.00000000000E+00  0.45593999997E+02  0.45594000000E+02  0.51100000000E-03 0.  1.
         11   -1    0    0    0    0 -0.00000000000E+00 -0.00000000000E+00 -0.45593999997E+02  0.45594000000E+02  0.51100000000E-03 0. -1.
    9900012    2    1    2    0    0 -0.12232178293E+02 -0.14097248479E+02 -0.15233476567E+01  0.72461569786E+02  0.69999999338E+02 0.  0.
        -12    1    1    2    0    0  0.12232178293E+02  0.14097248479E+02  0.15233476567E+01  0.18726430214E+02  0.00000000000E+00 0.  1.
         11    1    3    3    0    0  0.26406898416E+02 -0.10403260696E+02 -0.54283093740E+01  0.28896689429E+02  0.51100000000E-03 0. -1.
        -11    1    3    3    0    0 -0.20667757504E+02 -0.10057833453E+02  0.74722300978E+01  0.24169204309E+02  0.51100000000E-03 0.  1.
         12    1    3    3    0    0 -0.17971319204E+02  0.63638456700E+01 -0.35672683806E+01  0.19395676048E+02  0.00000000000E+00 0. -1.
</event>
<event>
 7    1  0.1857734E-013  0.7246157E+02  0.7816164E-02  0.1226708E+00
        -11   -1    0    0    0    0  0.00000000000E+00  0.00000000000E+00  0.45593999997E+02  0.45594000000E+02  0.51100000000E-03 0. -1.
         11   -1    0    0    0    0 -0.00000000000E+00 -0.00000000000E+00 -0.45593999997E+02  0.45594000000E+02  0.51100000000E-03 0.  1.
    9900012    2    1    2    0    0  0.25567279081E+00  0.18358306705E+02 -0.36859791484E+01  0.72461568522E+02  0.69999997691E+02 0.  0.
        -12    1    1    2    0    0 -0.25567279081E+00 -0.18358306705E+02  0.36859791484E+01  0.18726431478E+02  0.00000000000E+00 0.  1.
         11    1    3    3    0    0 -0.20929307971E+02  0.20756167589E+02 -0.24933194022E+02  0.38607234937E+02  0.51100000000E-03 0. -1.
        -11    1    3    3    0    0  0.52853106552E+01 -0.78153284791E+01  0.92487686663E+01  0.13211873072E+02  0.51100000000E-03 0.  1.
         12    1    3    3    0    0  0.15899670106E+02  0.54174675945E+01  0.11998446207E+02  0.20642460513E+02  0.00000000000E+00 0. -1.
</event>
<event>
 7    1  0.1857734E-013  0.7246159E+02  0.7816164E-02  0.1226708E+00
        -11   -1    0    0    0    0  0.00000000000E+00  0.00000000000E+00  0.45593999997E+02  0.45594000000E+02  0.51100000000E-03 0. -1.
         11   -1    0    0    0    0 -0.00000000000E+00 -0.00000000000E+00 -0.45593999997E+02  0.45594000000E+02  0.51100000000E-03 0.  1.
    9900012    2    1    2    0    0 -0.13644311919E+02 -0.25648727254E+01  0.12567131428E+02  0.72461585176E+02  0.70000019386E+02 0.  0.
        -12    1    1    2    0    0  0.13644311919E+02  0.25648727254E+01 -0.12567131428E+02  0.18726414824E+02  0.00000000000E+00 0.  1.
         11    1    3    3    0    0 -0.32657139161E+02 -0.13873008278E+02  0.32883029676E+01  0.35633720456E+02  0.51100000000E-03 0. -1.
        -11    1    3    3    0    0  0.17122786837E+02  0.11934799631E+02 -0.57646413906E+01  0.21653183644E+02  0.51100000000E-03 0.  1.
        -12    1    3    3    0    0  0.18900404040E+01 -0.62666407895E+00  0.15043469851E+02  0.15174681076E+02  0.00000000000E+00 0.  1.
</event>
<event>
 7    1  0.1857734E-013  0.7246147E+02  0.7816164E-02  0.1226708E+00
        -11   -1    0    0    0    0  0.00000000000E+00  0.00000000000E+00  0.45593999997E+02  0.45594000000E+02  0.51100000000E-03 0.  1.
         11   -1    0    0    0    0 -0.00000000000E+00 -0.00000000000E+00 -0.45593999997E+02  0.45594000000E+02  0.51100000000E-03 0. -1.
    9900012    2    1    2    0    0 -0.54879254422E+01 -0.43983443363E+00 -0.17898943406E+02  0.72461469220E+02  0.69999868332E+02 0.  0.
        -12    1    1    2    0    0  0.54879254422E+01  0.43983443363E+00  0.17898943406E+02  0.18726530780E+02  0.00000000000E+00 0.  1.
         11    1    3    3    0    0  0.27740568858E+02  0.14498891072E+02 -0.15556121636E+02  0.34953539499E+02  0.51100000000E-03 0.  1.
        -11    1    3    3    0    0 -0.28133333761E+02 -0.13470361765E+02  0.10557191199E+01  0.31209768626E+02  0.51100000000E-03 0. -1.
        -12    1    3    3    0    0 -0.50951605398E+01 -0.14683637397E+01 -0.33985408906E+01  0.62981610954E+01  0.00000000000E+00 0.  1.
</event>
<event>
 7    1  0.1857734E-013  0.7246155E+02  0.7816164E-02  0.1226708E+00
        -11   -1    0    0    0    0  0.00000000000E+00  0.00000000000E+00  0.45593999997E+02  0.45594000000E+02  0.51100000000E-03 0. -1.
         11   -1    0    0    0    0 -0.00000000000E+00 -0.00000000000E+00 -0.45593999997E+02  0.45594000000E+02  0.51100000000E-03 0.  1.
    9900012    2    1    2    0    0 -0.12773779035E+02  0.12838197142E+02 -0.47635234532E+01  0.72461550994E+02  0.69999974857E+02 0.  0.
        -12    1    1    2    0    0  0.12773779035E+02 -0.12838197142E+02  0.47635234532E+01  0.18726449006E+02  0.00000000000E+00 0.  1.
         11    1    3    3    0    0 -0.37006686166E+02  0.32426477829E+01 -0.18987728103E+02  0.41719820283E+02  0.51100000000E-03 0. -1.
        -11    1    3    3    0    0  0.62358135796E+01  0.14886547508E+01 -0.13101838115E-02  0.64110425006E+01  0.51100000000E-03 0.  1.
         12    1    3    3    0    0  0.17997093551E+02  0.81068946080E+01  0.14225514834E+02  0.24330688210E+02  0.00000000000E+00 0. -1.
</event>
<event>
 7    1  0.1857734E-013  0.7246155E+02  0.7816164E-02  0.1226708E+00
        -11   -1    0    0    0    0  0.00000000000E+00  0.00000000000E+00  0.45593999997E+02  0.45594000000E+02  0.51100000000E-03 0.  1.
         11   -1    0    0    0    0 -0.00000000000E+00 -0.00000000000E+00 -0.45593999997E+02  0.45594000000E+02  0.51100000000E-03 0. -1.
    9900012    2    1    2    0    0  0.21369111560E+01  0.14073261236E+02 -0.12167857748E+02  0.72461552572E+02  0.69999976913E+02 0.  0.
        -12    1    1    2    0    0 -0.21369111560E+01 -0.14073261236E+02  0.12167857748E+02  0.18726447428E+02  0.00000000000E+00 0.  1.
         11    1    3    3    0    0  0.15737570477E+02 -0.39324817098E+01  0.13083379667E+02  0.20840114220E+02  0.51100000000E-03 0. -1.
        -11    1    3    3    0    0 -0.17333329385E+02  0.15810621859E+02  0.24455807321E+01  0.23588152461E+02  0.51100000000E-03 0.  1.
         12    1    3    3    0    0  0.37326700637E+01  0.21951210877E+01 -0.27696818147E+02  0.28033285891E+02  0.00000000000E+00 0. -1.
</event>
<event>
 7    1  0.1857734E-013  0.7246157E+02  0.7816164E-02  0.1226708E+00
        -11   -1    0    0    0    0  0.00000000000E+00  0.00000000000E+00  0.45593999997E+02  0.45594000000E+02  0.51100000000E-03 0. -1.
         11   -1    0    0    0    0 -0.00000000000E+00 -0.00000000000E+00 -0.45593999997E+02  0.45594000000E+02  0.51100000000E-03 0.  1.
    9900012    2    1    2    0    0 -0.10092668946E+02  0.10028493722E+02  0.12175649635E+02  0.72461572236E+02  0.70000002529E+02 0.  0.
        -12    1    1    2    0    0  0.10092668946E+02 -0.10028493722E+02 -0.12175649635E+02  0.18726427764E+02  0.00000000000E+00 0.  1.
         11    1    3    3    0    0  0.12115992889E+02 -0.35979168853E+01  0.71745672651E+01  0.14533296436E+02  0.51100000000E-03 0. -1.
        -11    1    3    3    0    0 -0.11591769832E+02  0.25100626493E+02 -0.15849146147E+02  0.31868574051E+02  0.51100000000E-03 0.  1.
        -12    1    3    3    0    0 -0.10616892003E+02 -0.11474215886E+02  0.20850228517E+02  0.26059701748E+02  0.00000000000E+00 0.  1.
</event>
<event>
 7    1  0.1857734E-013  0.7246158E+02  0.7816164E-02  0.1226708E+00
        -11   -1    0    0    0    0  0.00000000000E+00  0.00000000000E+00  0.45593999997E+02  0.45594000000E+02  0.51100000000E-03 0.  1.
         11   -1    0    0    0    0 -0.00000000000E+00 -0.00000000000E+00 -0.45593999997E+02  0.45594000000E+02  0.51100000000E-03 0. -1.
    9900012    2    1    2    0    0 -0.19193174953E+01 -0.12552667536E+02 -0.13763189674E+02  0.72461584648E+02  0.70000018699E+02 0.  0.
        -12    1    1    2    0    0  0.19193174953E+01  0.12552667536E+02  0.13763189674E+02  0.18726415352E+02  0.00000000000E+00 0.  1.
         11    1    3    3    0    0  0.16124290041E+02 -0.80319986755E+01 -0.24836266778E+02  0.30681360461E+02  0.51100000000E-03 0. -1.
        -11    1    3    3    0    0 -0.24713987456E+01  0.14938836189E+02  0.20796003551E+01  0.15284023565E+02  0.51100000000E-03 0.  1.
         12    1    3    3    0    0 -0.15572208791E+02 -0.19459505049E+02  0.89934767483E+01  0.26496200622E+02  0.00000000000E+00 0. -1.
</event>
<event>
 7    1  0.1857734E-013  0.7246154E+02  0.7816164E-02  0.1226708E+00
        -11   -1    0    0    0    0  0.00000000000E+00  0.00000000000E+00  0.45593999997E+02  0.45594000000E+02  0.51100000000E-03 0.  1.
         11   -1    0    0    0    0 -0.00000000000E+00 -0.00000000000E+00 -0.45593999997E+02  0.45594000000E+02  0.51100000000E-03 0. -1.
    9900012    2    1    2    0    0 -0.99714599784E+01  0.91215265341E+00 -0.15824605727E+02  0.72461543235E+02  0.69999964750E+02 0.  0.
        -12    1    1    2    0    0  0.99714599784E+01 -0.91215265341E+00  0.15824605727E+02  0.18726456765E+02  0.00000000000E+00 0.  1.
         11    1    3    3    0    0  0.10999034331E+02  0.23899226025E+02 -0.78121645544E+01  0.27444155591E+02  0.51100000000E-03 0. -1.
        -11    1    3    3    0    0 -0.25261912720E+02 -0.27980132605E+02 -0.63631606291E+01  0.38230117294E+02  0.51100000000E-03 0.  1.
        -12    1    3    3    0    0  0.42914184102E+01  0.49930592343E+01 -0.16492805438E+01  0.67872703497E+01  0.00000000000E+00 0.  1.
</event>
<event>
 7    1  0.1945354E-013  0.7246160E+02  0.7816164E-02  0.1226708E+00
        -11   -1    0    0    0    0  0.00000000000E+00  0.00000000000E+00  0.45593999997E+02  0.45594000000E+02  0.51100000000E-03 0. -1.
         11   -1    0    0    0    0 -0.00000000000E+00 -0.00000000000E+00 -0.45593999997E+02  0.45594000000E+02  0.51100000000E-03 0.  1.
    9900012    2    1    2    0    0 -0.23271221147E+00 -0.82289625393E+01  0.16819871190E+02  0.72461600285E+02  0.70000039068E+02 0.  0.
        -12    1    1    2    0    0  0.23271221147E+00  0.82289625393E+01 -0.16819871190E+02  0.18726399715E+02  0.00000000000E+00 0.  1.
         11    1    3    3    0    0  0.60787448447E+01  0.35518741835E+01  0.13291107123E+02  0.15040627577E+02  0.51100000000E-03 0. -1.
        -11    1    3    3    0    0 -0.27729761087E+02 -0.11918167249E+02 -0.10339649546E+02  0.31904399595E+02  0.51100000000E-03 0.  1.
        -12    1    3    3    0    0  0.21418304031E+02  0.13733052604E+00  0.13868413614E+02  0.25516573113E+02  0.00000000000E+00 0.  1.
</event>
<event>
 7    1  0.1857734E-013  0.7246156E+02  0.7816164E-02  0.1226708E+00
        -11   -1    0    0    0    0  0.00000000000E+00  0.00000000000E+00  0.45593999997E+02  0.45594000000E+02  0.51100000000E-03 0.  1.
         11   -1    0    0    0    0 -0.00000000000E+00 -0.00000000000E+00 -0.45593999997E+02  0.45594000000E+02  0.51100000000E-03 0. -1.
    9900012    2    1    2    0    0 -0.14681547403E+02 -0.11618272551E+02  0.38392927889E+00  0.72461561660E+02  0.69999988753E+02 0.  0.
        -12    1    1    2    0    0  0.14681547403E+02  0.11618272551E+02 -0.38392927889E+00  0.18726438340E+02  0.00000000000E+00 0.  1.
         11    1    3    3    0    0  0.10547401824E+02  0.16747182778E+02  0.13836026876E+02  0.24148529069E+02  0.51100000000E-03 0. -1.
        -11    1    3    3    0    0 -0.15389392174E+02 -0.19945879619E+02  0.50846749393E+01  0.25700689188E+02  0.51100000000E-03 0.  1.
         12    1    3    3    0    0 -0.98395570519E+01 -0.84195757101E+01 -0.18536772536E+02  0.22612343403E+02  0.00000000000E+00 0. -1.
</event>
<event>
 7    1  0.1857734E-013  0.7246158E+02  0.7816164E-02  0.1226708E+00
        -11   -1    0    0    0    0  0.00000000000E+00  0.00000000000E+00  0.45593999997E+02  0.45594000000E+02  0.51100000000E-03 0.  1.
         11   -1    0    0    0    0 -0.00000000000E+00 -0.00000000000E+00 -0.45593999997E+02  0.45594000000E+02  0.51100000000E-03 0. -1.
    9900012    2    1    2    0    0  0.10558931689E+02  0.14872444785E+02 -0.42424374883E+01  0.72461576739E+02  0.70000008395E+02 0.  0.
        -12    1    1    2    0    0 -0.10558931689E+02 -0.14872444785E+02  0.42424374883E+01  0.18726423261E+02  0.00000000000E+00 0.  1.
         11    1    3    3    0    0  0.17183664006E+02 -0.45543230547E+01  0.23090563179E+02  0.29140938134E+02  0.51100000000E-03 0.  1.
        -11    1    3    3    0    0 -0.16066952567E+02  0.68240180955E+01 -0.17703856822E+02  0.24862436212E+02  0.51100000000E-03 0. -1.
        -12    1    3    3    0    0  0.94422202505E+01  0.12602749744E+02 -0.96291438449E+01  0.18458202392E+02  0.00000000000E+00 0.  1.
</event>
<event>
 7    1  0.1857734E-013  0.7246155E+02  0.7816164E-02  0.1226708E+00
        -11   -1    0    0    0    0  0.00000000000E+00  0.00000000000E+00  0.45593999997E+02  0.45594000000E+02  0.51100000000E-03 0.  1.
         11   -1    0    0    0    0 -0.00000000000E+00 -0.00000000000E+00 -0.45593999997E+02  0.45594000000E+02  0.51100000000E-03 0. -1.
    9900012    2    1    2    0    0 -0.15224400336E+02 -0.10903861816E+02 -0.58069513226E-01  0.72461549718E+02  0.69999973196E+02 0.  0.
        -12    1    1    2    0    0  0.15224400336E+02  0.10903861816E+02  0.58069513226E-01  0.18726450282E+02  0.00000000000E+00 0.  1.
         11    1    3    3    0    0  0.85996318476E+01  0.49343032655E+01 -0.16691486506E+02  0.19414086089E+02  0.51100000000E-03 0. -1.
        -11    1    3    3    0    0 -0.54101014858E+01  0.81034297596E+01  0.20402196247E+02  0.22609387075E+02  0.51100000000E-03 0.  1.
        -12    1    3    3    0    0 -0.18413930698E+02 -0.23941594841E+02 -0.37687792542E+01  0.30438076554E+02  0.00000000000E+00 0.  1.
</event>
<event>
 7    1  0.1857734E-013  0.7246150E+02  0.7816164E-02  0.1226708E+00
        -11   -1    0    0    0    0  0.00000000000E+00  0.00000000000E+00  0.45593999997E+02  0.45594000000E+02  0.51100000000E-03 0. -1.
         11   -1    0    0    0    0 -0.00000000000E+00 -0.00000000000E+00 -0.45593999997E+02  0.45594000000E+02  0.51100000000E-03 0.  1.
    9900012    2    1    2    0    0 -0.26127779743E+01  0.14883414641E+02  0.11060700633E+02  0.72461501699E+02  0.69999910642E+02 0.  0.
        -12    1    1    2    0    0  0.26127779743E+01 -0.14883414641E+02 -0.11060700633E+02  0.18726498301E+02  0.00000000000E+00 0.  1.
         11    1    3    3    0    0  0.21550866422E+01  0.20162010473E+02 -0.14281365865E+02  0.24801380526E+02  0.51100000000E-03 0.  1.
        -11    1    3    3    0    0 -0.15979664422E+02 -0.14238915506E+02  0.25519288637E+02  0.33306613197E+02  0.51100000000E-03 0. -1.
         12    1    3    3    0    0  0.11211799806E+02  0.89603196738E+01 -0.17722213896E+00  0.14353507977E+02  0.00000000000E+00 0. -1.
</event>
<event>
 7    1  0.1857734E-013  0.7246136E+02  0.7816164E-02  0.1226709E+00
        -11   -1    0    0    0    0  0.00000000000E+00  0.00000000000E+00  0.45593999997E+02  0.45594000000E+02  0.51100000000E-03 0. -1.
         11   -1    0    0    0    0 -0.00000000000E+00 -0.00000000000E+00 -0.45593999997E+02  0.45594000000E+02  0.51100000000E-03 0.  1.
    9900012    2    1    2    0    0  0.18679242393E+01 -0.18610320172E+02  0.92401313599E+00  0.72461362338E+02  0.69999729098E+02 0.  0.
        -12    1    1    2    0    0 -0.18679242393E+01  0.18610320172E+02 -0.92401313599E+00  0.18726637662E+02  0.00000000000E+00 0.  1.
         11    1    3    3    0    0 -0.25488074603E+01 -0.25552936213E+01  0.25015113911E+02  0.25274134391E+02  0.51100000000E-03 0. -1.
        -11    1    3    3    0    0  0.16218709606E+02 -0.73425651881E+01 -0.26893521732E+02  0.32252462173E+02  0.51100000000E-03 0.  1.
        -12    1    3    3    0    0 -0.11801977907E+02 -0.87124613622E+01  0.28024209574E+01  0.14934765774E+02  0.00000000000E+00 0.  1.
</event>
<event>
 7    1  0.1857734E-013  0.7246152E+02  0.7816164E-02  0.1226708E+00
        -11   -1    0    0    0    0  0.00000000000E+00  0.00000000000E+00  0.45593999997E+02  0.45594000000E+02  0.51100000000E-03 0. -1.
         11   -1    0    0    0    0 -0.00000000000E+00 -0.00000000000E+00 -0.45593999997E+02  0.45594000000E+02  0.51100000000E-03 0.  1.
    9900012    2    1    2    0    0  0.17481188758E+02 -0.38250383500E+01  0.55188909700E+01  0.72461520451E+02  0.69999935069E+02 0.  0.
        -12    1    1    2    0    0 -0.17481188758E+02  0.38250383500E+01 -0.55188909700E+01  0.18726479549E+02  0.00000000000E+00 0.  1.
         11    1    3    3    0    0  0.55229904395E+01  0.10690872796E+02 -0.19560463223E+02  0.22965406731E+02  0.51100000000E-03 0.  1.
        -11    1    3    3    0    0  0.58769396436E+00  0.86599832885E+01  0.21811541077E+02  0.23475178789E+02  0.51100000000E-03 0. -1.
         12    1    3    3    0    0  0.11370504354E+02 -0.23175894435E+02  0.32678131162E+01  0.26020934931E+02  0.00000000000E+00 0. -1.
</event>
<event>
 7    1  0.1857734E-013  0.7246161E+02  0.7816164E-02  0.1226708E+00
        -11   -1    0    0    0    0  0.00000000000E+00  0.00000000000E+00  0.45593999997E+02  0.45594000000E+02  0.51100000000E-03 0. -1.
         11   -1    0    0    0    0 -0.00000000000E+00 -0.00000000000E+00 -0.45593999997E+02  0.45594000000E+02  0.51100000000E-03 0.  1.
    9900012    2    1    2    0    0 -0.17334646806E+02 -0.10343200659E+01  0.70084231756E+01  0.72461607040E+02  0.70000047868E+02 0.  0.
        -12    1    1    2    0    0  0.17334646806E+02  0.10343200659E+01 -0.70084231756E+01  0.18726392960E+02  0.00000000000E+00 0.  1.
         11    1    3    3    0    0 -0.19945799919E+02  0.15255028390E+02  0.31323931264E+02  0.40146475508E+02  0.51100000000E-03 0. -1.
        -11    1    3    3    0    0  0.17245787311E+01 -0.67098080948E+01 -0.88217608840E+00  0.69838335734E+01  0.51100000000E-03 0.  1.
         12    1    3    3    0    0  0.88657438222E+00 -0.95795403607E+01 -0.23433332000E+02  0.25331297959E+02  0.00000000000E+00 0. -1.
</event>
<event>
 7    1  0.1857734E-013  0.7246157E+02  0.7816164E-02  0.1226708E+00
        -11   -1    0    0    0    0  0.00000000000E+00  0.00000000000E+00  0.45593999997E+02  0.45594000000E+02  0.51100000000E-03 0. -1.
         11   -1    0    0    0    0 -0.00000000000E+00 -0.00000000000E+00 -0.45593999997E+02  0.45594000000E+02  0.51100000000E-03 0.  1.
    9900012    2    1    2    0    0 -0.57699538953E+01 -0.90270738955E+01  0.15358994857E+02  0.72461570706E+02  0.70000000537E+02 0.  0.
        -12    1    1    2    0    0  0.57699538953E+01  0.90270738955E+01 -0.15358994857E+02  0.18726429294E+02  0.00000000000E+00 0.  1.
         11    1    3    3    0    0 -0.15268170283E+02 -0.24624197350E+02  0.10984982085E+02  0.30986092857E+02  0.51100000000E-03 0. -1.
        -11    1    3    3    0    0  0.14535276570E+02  0.17948666339E+02 -0.10666771121E+02  0.25440300602E+02  0.51100000000E-03 0.  1.
         12    1    3    3    0    0 -0.50370601825E+01 -0.23515428851E+01  0.15040783893E+02  0.16035177247E+02  0.00000000000E+00 0. -1.
</event>
<event>
 7    1  0.1857734E-013  0.7246160E+02  0.7816164E-02  0.1226708E+00
        -11   -1    0    0    0    0  0.00000000000E+00  0.00000000000E+00  0.45593999997E+02  0.45594000000E+02  0.51100000000E-03 0.  1.
         11   -1    0    0    0    0 -0.00000000000E+00 -0.00000000000E+00 -0.45593999997E+02  0.45594000000E+02  0.51100000000E-03 0. -1.
    9900012    2    1    2    0    0 -0.16703630814E+02 -0.79239683699E+01  0.29795439105E+01  0.72461595139E+02  0.70000032365E+02 0.  0.
        -12    1    1    2    0    0  0.16703630814E+02  0.79239683699E+01 -0.29795439105E+01  0.18726404861E+02  0.00000000000E+00 0.  1.
         11    1    3    3    0    0 -0.10731598665E+02 -0.24088740103E+02  0.21066642546E+02  0.33752600464E+02  0.51100000000E-03 0. -1.
        -11    1    3    3    0    0 -0.10063087549E+02  0.21806104109E+02 -0.59956283625E+01  0.24753170851E+02  0.51100000000E-03 0.  1.
         12    1    3    3    0    0  0.40910553997E+01 -0.56413323760E+01 -0.12091470273E+02  0.13955823825E+02  0.00000000000E+00 0. -1.
</event>
<event>
 7    1  0.1857734E-013  0.7246150E+02  0.7816164E-02  0.1226708E+00
        -11   -1    0    0    0    0  0.00000000000E+00  0.00000000000E+00  0.45593999997E+02  0.45594000000E+02  0.51100000000E-03 0. -1.
         11   -1    0    0    0    0 -0.00000000000E+00 -0.00000000000E+00 -0.45593999997E+02  0.45594000000E+02  0.51100000000E-03 0.  1.
    9900012    2    1    2    0    0 -0.60618684566E+01 -0.17258681121E+02  0.40091619390E+01  0.72461502659E+02  0.69999911892E+02 0.  0.
        -12    1    1    2    0    0  0.60618684566E+01  0.17258681121E+02 -0.40091619390E+01  0.18726497341E+02  0.00000000000E+00 0.  1.
         11    1    3    3    0    0 -0.10002206944E+02  0.19437390572E+01 -0.22149887773E+01  0.10427293072E+02  0.51100000000E-03 0. -1.
        -11    1    3    3    0    0  0.27250510955E+02 -0.91549752672E+01  0.18141053037E+02  0.33992671636E+02  0.51100000000E-03 0.  1.
        -12    1    3    3    0    0 -0.23310172467E+02 -0.10047444911E+02 -0.11916902321E+02  0.28041537950E+02  0.00000000000E+00 0.  1.
</event>
<event>
 7    1  0.1857734E-013  0.7246157E+02  0.7816164E-02  0.1226708E+00
        -11   -1    0    0    0    0  0.00000000000E+00  0.00000000000E+00  0.45593999997E+02  0.45594000000E+02  0.51100000000E-03 0.  1.
         11   -1    0    0    0    0 -0.00000000000E+00 -0.00000000000E+00 -0.45593999997E+02  0.45594000000E+02  0.51100000000E-03 0. -1.
    9900012    2    1    2    0    0 -0.10653071886E+02  0.39119038652E+01 -0.14895911963E+02  0.72461571465E+02  0.70000001525E+02 0.  0.
        -12    1    1    2    0    0  0.10653071886E+02 -0.39119038652E+01  0.14895911963E+02  0.18726428535E+02  0.00000000000E+00 0.  1.
         11    1    3    3    0    0 -0.25335110645E+02  0.16275329999E+02  0.22973370952E+01  0.30199866820E+02  0.51100000000E-03 0. -1.
        -11    1    3    3    0    0  0.28733317118E+01 -0.16979626605E+02  0.38944524953E+01  0.17655891801E+02  0.51100000000E-03 0.  1.
        -12    1    3    3    0    0  0.11808707047E+02  0.46162004717E+01 -0.21087701554E+02  0.24605812844E+02  0.00000000000E+00 0.  1.
</event>
<event>
 7    1  0.1857734E-013  0.7246155E+02  0.7816164E-02  0.1226708E+00
        -11   -1    0    0    0    0  0.00000000000E+00  0.00000000000E+00  0.45593999997E+02  0.45594000000E+02  0.51100000000E-03 0. -1.
         11   -1    0    0    0    0 -0.00000000000E+00 -0.00000000000E+00 -0.45593999997E+02  0.45594000000E+02  0.51100000000E-03 0.  1.
    9900012    2    1    2    0    0  0.99991658112E+01  0.68260492988E+01  0.14286418756E+02  0.72461547405E+02  0.69999970182E+02 0.  0.
        -12    1    1    2    0    0 -0.99991658112E+01 -0.68260492988E+01 -0.14286418756E+02  0.18726452595E+02  0.00000000000E+00 0.  1.
         11    1    3    3    0    0 -0.18905039244E+01 -0.15325414161E+02  0.24692975114E+02  0.29123621763E+02  0.51100000000E-03 0. -1.
        -11    1    3    3    0    0  0.56348307623E+01 -0.16025769864E+01 -0.16936486035E+02  0.17921052709E+02  0.51100000000E-03 0.  1.
         12    1    3    3    0    0  0.62548389733E+01  0.23754040447E+02  0.65299296762E+01  0.25416872933E+02  0.00000000000E+00 0. -1.
</event>
<event>
 7    1  0.1857734E-013  0.7246160E+02  0.7816164E-02  0.1226708E+00
        -11   -1    0    0    0    0  0.00000000000E+00  0.00000000000E+00  0.45593999997E+02  0.45594000000E+02  0.51100000000E-03 0.  1.
         11   -1    0    0    0    0 -0.00000000000E+00 -0.00000000000E+00 -0.45593999997E+02  0.45594000000E+02  0.51100000000E-03 0. -1.
    9900012    2    1    2    0    0 -0.65959021954E+01  0.41451507937E+01 -0.17029084064E+02  0.72461604059E+02  0.70000043985E+02 0.  0.
        -12    1    1    2    0    0  0.65959021954E+01 -0.41451507937E+01  0.17029084064E+02  0.18726395941E+02  0.00000000000E+00 0.  1.
         11    1    3    3    0    0 -0.27897304456E+02 -0.39897976333E+01 -0.27829287189E+02  0.39606152385E+02  0.51100000000E-03 0. -1.
        -11    1    3    3    0    0  0.17871905723E+02 -0.19761602589E+01  0.45179122524E+00  0.17986504360E+02  0.51100000000E-03 0.  1.
        -12    1    3    3    0    0  0.34294965373E+01  0.10111108686E+02  0.10348411900E+02  0.14868947314E+02  0.00000000000E+00 0.  1.
</event>
<event>
 7    1  0.1857734E-013  0.7246159E+02  0.7816164E-02  0.1226708E+00
        -11   -1    0    0    0    0  0.00000000000E+00  0.00000000000E+00  0.45593999997E+02  0.45594000000E+02  0.51100000000E-03 0. -1.
         11   -1    0    0    0    0 -0.00000000000E+00 -0.00000000000E+00 -0.45593999997E+02  0.45594000000E+02  0.51100000000E-03 0.  1.
    9900012    2    1    2    0    0 -0.51737654854E+01  0.14200886314E+02  0.11056456510E+02  0.72461594794E+02  0.70000031915E+02 0.  0.
        -12    1    1    2    0    0  0.51737654854E+01 -0.14200886314E+02 -0.11056456510E+02  0.18726405206E+02  0.00000000000E+00 0.  1.
         11    1    3    3    0    0 -0.19329885023E+01  0.13440693864E+02  0.12258428446E+02  0.18293653663E+02  0.51100000000E-03 0. -1.
        -11    1    3    3    0    0  0.54666252336E+01 -0.12010509079E+02 -0.23550172057E+02  0.26995313000E+02  0.51100000000E-03 0.  1.
        -12    1    3    3    0    0 -0.87074022167E+01  0.12770701529E+02  0.22348200121E+02  0.27172628131E+02  0.00000000000E+00 0.  1.
</event>
<event>
 7    1  0.1857734E-013  0.7246162E+02  0.7816164E-02  0.1226708E+00
        -11   -1    0    0    0    0  0.00000000000E+00  0.00000000000E+00  0.45593999997E+02  0.45594000000E+02  0.51100000000E-03 0.  1.
         11   -1    0    0    0    0 -0.00000000000E+00 -0.00000000000E+00 -0.45593999997E+02  0.45594000000E+02  0.51100000000E-03 0. -1.
    9900012    2    1    2    0    0 -0.74788334443E+01  0.55870049003E+01 -0.16233603207E+02  0.72461616299E+02  0.70000059929E+02 0.  0.
        -12    1    1    2    0    0  0.74788334443E+01 -0.55870049003E+01  0.16233603207E+02  0.18726383701E+02  0.00000000000E+00 0.  1.
         11    1    3    3    0    0 -0.37646248715E+01 -0.15350739063E+02 -0.11782277988E+02  0.19713945953E+02  0.51100000000E-03 0. -1.
        -11    1    3    3    0    0 -0.16219550332E+02  0.14131166934E+02  0.16712097372E+02  0.27240739540E+02  0.51100000000E-03 0.  1.
        -12    1    3    3    0    0  0.12505341759E+02  0.68065770288E+01 -0.21163422591E+02  0.25506930806E+02  0.00000000000E+00 0.  1.
</event>
<event>
 7    1  0.1857734E-013  0.7246150E+02  0.7816164E-02  0.1226708E+00
        -11   -1    0    0    0    0  0.00000000000E+00  0.00000000000E+00  0.45593999997E+02  0.45594000000E+02  0.51100000000E-03 0. -1.
         11   -1    0    0    0    0 -0.00000000000E+00 -0.00000000000E+00 -0.45593999997E+02  0.45594000000E+02  0.51100000000E-03 0.  1.
    9900012    2    1    2    0    0  0.15504219084E+02  0.54649809825E+01  0.89685627242E+01  0.72461496218E+02  0.69999903502E+02 0.  0.
        -12    1    1    2    0    0 -0.15504219084E+02 -0.54649809825E+01 -0.89685627242E+01  0.18726503782E+02  0.00000000000E+00 0.  1.
         11    1    3    3    0    0  0.31732539873E+02  0.21192050447E+02  0.48972084756E+01  0.38471284616E+02  0.51100000000E-03 0. -1.
        -11    1    3    3    0    0 -0.19039772965E+02 -0.20881563491E+01 -0.97412529530E+00  0.19178693174E+02  0.51100000000E-03 0.  1.
         12    1    3    3    0    0  0.28114521769E+01 -0.13638913115E+02  0.50454795439E+01  0.14811518428E+02  0.00000000000E+00 0. -1.
</event>
<event>
 7    1  0.1857734E-013  0.7246156E+02  0.7816164E-02  0.1226708E+00
        -11   -1    0    0    0    0  0.00000000000E+00  0.00000000000E+00  0.45593999997E+02  0.45594000000E+02  0.51100000000E-03 0.  1.
         11   -1    0    0    0    0 -0.00000000000E+00 -0.00000000000E+00 -0.45593999997E+02  0.45594000000E+02  0.51100000000E-03 0. -1.
    9900012    2    1    2    0    0  0.16662064037E+01 -0.15740814314E+02 -0.10006493232E+02  0.72461564519E+02  0.69999992476E+02 0.  0.
        -12    1    1    2    0    0 -0.16662064037E+01  0.15740814314E+02  0.10006493232E+02  0.18726435481E+02  0.00000000000E+00 0.  1.
         11    1    3    3    0    0 -0.17414317616E+02 -0.76265278597E+00 -0.69742482326E+01  0.18774457008E+02  0.51100000000E-03 0.  1.
        -11    1    3    3    0    0  0.24402971591E+02  0.60374531920E+01  0.11441912880E+02  0.27620159923E+02  0.51100000000E-03 0. -1.
        -12    1    3    3    0    0 -0.53224475718E+01 -0.21015614720E+02 -0.14474157879E+02  0.26066947588E+02  0.00000000000E+00 0.  1.
</event>
<event>
 7    1  0.1857734E-013  0.7246154E+02  0.7816164E-02  0.1226708E+00
        -11   -1    0    0    0    0  0.00000000000E+00  0.00000000000E+00  0.45593999997E+02  0.45594000000E+02  0.51100000000E-03 0.  1.
         11   -1    0    0    0    0 -0.00000000000E+00 -0.00000000000E+00 -0.45593999997E+02  0.45594000000E+02  0.51100000000E-03 0. -1.
    9900012    2    1    2    0    0  0.57740139101E+01 -0.17530334556E+02 -0.31667924253E+01  0.72461536358E+02  0.69999955791E+02 0.  0.
        -12    1    1    2    0    0 -0.57740139101E+01  0.17530334556E+02  0.31667924253E+01  0.18726463642E+02  0.00000000000E+00 0.  1.
         11    1    3    3    0    0  0.30965466258E+01  0.25034566638E+02 -0.68444183957E+01  0.26137409802E+02  0.51100000000E-03 0.  1.
        -11    1    3    3    0    0 -0.44915713728E+01 -0.35357040523E+02  0.40222592796E+00  0.35643461026E+02  0.51100000000E-03 0. -1.
        -12    1    3    3    0    0  0.71690386570E+01 -0.72078606705E+01  0.32754000424E+01  0.10680665529E+02  0.00000000000E+00 0.  1.
</event>
<event>
 7    1  0.1857734E-013  0.7246181E+02  0.7816164E-02  0.1226707E+00
        -11   -1    0    0    0    0  0.00000000000E+00  0.00000000000E+00  0.45593999997E+02  0.45594000000E+02  0.51100000000E-03 0. -1.
         11   -1    0    0    0    0 -0.00000000000E+00 -0.00000000000E+00 -0.45593999997E+02  0.45594000000E+02  0.51100000000E-03 0.  1.
    9900012    2    1    2    0    0  0.12415524595E+02  0.85842177693E+01  0.11083139610E+02  0.72461814342E+02  0.70000317916E+02 0.  0.
        -12    1    1    2    0    0 -0.12415524595E+02 -0.85842177693E+01 -0.11083139610E+02  0.18726185658E+02  0.00000000000E+00 0.  1.
         11    1    3    3    0    0  0.30790558462E+01 -0.88584934361E+00  0.71239636392E+01  0.78112849236E+01  0.51100000000E-03 0. -1.
        -11    1    3    3    0    0  0.30999021889E+02 -0.33426391555E+01 -0.13545103742E+02  0.33993858713E+02  0.51100000000E-03 0.  1.
        -12    1    3    3    0    0 -0.21662553140E+02  0.12812706268E+02  0.17504279713E+02  0.30656670705E+02  0.00000000000E+00 0.  1.
</event>
<event>
 7    1  0.1857734E-013  0.7246158E+02  0.7816164E-02  0.1226708E+00
        -11   -1    0    0    0    0  0.00000000000E+00  0.00000000000E+00  0.45593999997E+02  0.45594000000E+02  0.51100000000E-03 0.  1.
         11   -1    0    0    0    0 -0.00000000000E+00 -0.00000000000E+00 -0.45593999997E+02  0.45594000000E+02  0.51100000000E-03 0. -1.
    9900012    2    1    2    0    0 -0.15059292267E+02  0.33546723878E+01 -0.10613323920E+02  0.72461581361E+02  0.70000014416E+02 0.  0.
        -12    1    1    2    0    0  0.15059292267E+02 -0.33546723878E+01  0.10613323920E+02  0.18726418639E+02  0.00000000000E+00 0.  1.
         11    1    3    3    0    0 -0.21815861133E+02  0.24999763529E+02  0.77611169536E+01  0.34075723178E+02  0.51100000000E-03 0. -1.
        -11    1    3    3    0    0  0.10359992828E+02 -0.11031619592E+02  0.18669681488E+01  0.15248332779E+02  0.51100000000E-03 0.  1.
         12    1    3    3    0    0 -0.36034239612E+01 -0.10613471549E+02 -0.20241409023E+02  0.23137525403E+02  0.00000000000E+00 0. -1.
</event>
<event>
 7    1  0.1857734E-013  0.7246162E+02  0.7816164E-02  0.1226708E+00
        -11   -1    0    0    0    0  0.00000000000E+00  0.00000000000E+00  0.45593999997E+02  0.45594000000E+02  0.51100000000E-03 0.  1.
         11   -1    0    0    0    0 -0.00000000000E+00 -0.00000000000E+00 -0.45593999997E+02  0.45594000000E+02  0.51100000000E-03 0. -1.
    9900012    2    1    2    0    0  0.18028805664E+02  0.37917403332E+01 -0.33559121908E+01  0.72461620877E+02  0.70000065893E+02 0.  0.
        -12    1    1    2    0    0 -0.18028805664E+02 -0.37917403332E+01  0.33559121908E+01  0.18726379123E+02  0.00000000000E+00 0.  1.
         11    1    3    3    0    0 -0.21034926194E+02  0.17369080595E+02 -0.74362501074E+01  0.28274562713E+02  0.51100000000E-03 0. -1.
        -11    1    3    3    0    0  0.84401037413E+01 -0.66268065727E+01  0.67403529976E+01  0.12672106191E+02  0.51100000000E-03 0.  1.
         12    1    3    3    0    0  0.30623628117E+02 -0.69505336894E+01 -0.26600150810E+01  0.31514951973E+02  0.00000000000E+00 0. -1.
</event>
<event>
 7    1  0.1857734E-013  0.7246155E+02  0.7816164E-02  0.1226708E+00
        -11   -1    0    0    0    0  0.00000000000E+00  0.00000000000E+00  0.45593999997E+02  0.45594000000E+02  0.51100000000E-03 0. -1.
         11   -1    0    0    0    0 -0.00000000000E+00 -0.00000000000E+00 -0.45593999997E+02  0.45594000000E+02  0.51100000000E-03 0.  1.
    9900012    2    1    2    0    0 -0.12469320919E+01 -0.91261496472E+01  0.16304548637E+02  0.72461554708E+02  0.69999979696E+02 0.  0.
        -12    1    1    2    0    0  0.12469320919E+01  0.91261496472E+01 -0.16304548637E+02  0.18726445292E+02  0.00000000000E+00 0.  1.
         11    1    3    3    0    0 -0.17512277995E+02 -0.47443765999E+01 -0.15928594724E+02  0.24143510930E+02  0.51100000000E-03 0.  1.
        -11    1    3    3    0    0  0.22998023541E+02  0.41870865923E+01  0.28361113981E+02  0.36753143640E+02  0.51100000000E-03 0. -1.
         12    1    3    3    0    0 -0.67326776374E+01 -0.85688596397E+01  0.38720293796E+01  0.11564900138E+02  0.00000000000E+00 0. -1.
</event>
<event>
 7    1  0.1857734E-013  0.7246158E+02  0.7816164E-02  0.1226708E+00
        -11   -1    0    0    0    0  0.00000000000E+00  0.00000000000E+00  0.45593999997E+02  0.45594000000E+02  0.51100000000E-03 0. -1.
         11   -1    0    0    0    0 -0.00000000000E+00 -0.00000000000E+00 -0.45593999997E+02  0.45594000000E+02  0.51100000000E-03 0.  1.
    9900012    2    1    2    0    0 -0.89370540652E+01 -0.46295183769E+01  0.15791626384E+02  0.72461579102E+02  0.70000011474E+02 0.  0.
        -12    1    1    2    0    0  0.89370540652E+01  0.46295183769E+01 -0.15791626384E+02  0.18726420898E+02  0.00000000000E+00 0.  1.
         11    1    3    3    0    0 -0.13368329416E+02 -0.16298830438E+02  0.68189295562E+01  0.22155403530E+02  0.51100000000E-03 0. -1.
        -11    1    3    3    0    0  0.19026378676E+02  0.14896097288E+01 -0.12198465615E+02  0.22650046055E+02  0.51100000000E-03 0.  1.
        -12    1    3    3    0    0 -0.14595103325E+02  0.10179702333E+02  0.21171162444E+02  0.27656129517E+02  0.00000000000E+00 0.  1.
</event>
<event>
 7    1  0.1857734E-013  0.7246164E+02  0.7816164E-02  0.1226708E+00
        -11   -1    0    0    0    0  0.00000000000E+00  0.00000000000E+00  0.45593999997E+02  0.45594000000E+02  0.51100000000E-03 0. -1.
         11   -1    0    0    0    0 -0.00000000000E+00 -0.00000000000E+00 -0.45593999997E+02  0.45594000000E+02  0.51100000000E-03 0.  1.
    9900012    2    1    2    0    0  0.52419046166E+00 -0.53172571760E+01  0.17947944477E+02  0.72461635951E+02  0.70000085530E+02 0.  0.
        -12    1    1    2    0    0 -0.52419046166E+00  0.53172571760E+01 -0.17947944477E+02  0.18726364049E+02  0.00000000000E+00 0.  1.
         11    1    3    3    0    0  0.77031067067E+00  0.22901459781E+02  0.12400337118E+02  0.26054531266E+02  0.51100000000E-03 0. -1.
        -11    1    3    3    0    0  0.90850778616E+01 -0.23069839017E+02 -0.10676836111E+02  0.26995387414E+02  0.51100000000E-03 0.  1.
         12    1    3    3    0    0 -0.93311980706E+01 -0.51488779395E+01  0.16224443471E+02  0.19411717271E+02  0.00000000000E+00 0. -1.
</event>
<event>
 7    1  0.1857734E-013  0.7246086E+02  0.7816164E-02  0.1226710E+00
        -11   -1    0    0    0    0  0.00000000000E+00  0.00000000000E+00  0.45593999997E+02  0.45594000000E+02  0.51100000000E-03 0.  1.
         11   -1    0    0    0    0 -0.00000000000E+00 -0.00000000000E+00 -0.45593999997E+02  0.45594000000E+02  0.51100000000E-03 0. -1.
    9900012    2    1    2    0    0  0.93033165070E+01  0.71421859882E+01 -0.14599428305E+02  0.72460858586E+02  0.69999072861E+02 0.  0.
        -12    1    1    2    0    0 -0.93033165070E+01 -0.71421859882E+01  0.14599428305E+02  0.18727141414E+02  0.00000000000E+00 0.  1.
         11    1    3    3    0    0 -0.17114943670E+02 -0.15612898481E+01 -0.15931623408E+01  0.17259695516E+02  0.51100000000E-03 0.  1.
        -11    1    3    3    0    0  0.31103500927E+02  0.22462725069E+02 -0.13459371430E+02  0.40659026882E+02  0.51100000000E-03 0. -1.
        -12    1    3    3    0    0 -0.46852407500E+01 -0.13759249233E+02  0.45310546520E+00  0.14542136188E+02  0.00000000000E+00 0.  1.
</event>
<event>
 7    1  0.1857734E-013  0.7246158E+02  0.7816164E-02  0.1226708E+00
        -11   -1    0    0    0    0  0.00000000000E+00  0.00000000000E+00  0.45593999997E+02  0.45594000000E+02  0.51100000000E-03 0.  1.
         11   -1    0    0    0    0 -0.00000000000E+00 -0.00000000000E+00 -0.45593999997E+02  0.45594000000E+02  0.51100000000E-03 0. -1.
    9900012    2    1    2    0    0 -0.51663419282E+01 -0.17068158450E+02 -0.57153873140E+01  0.72461580857E+02  0.70000013759E+02 0.  0.
        -12    1    1    2    0    0  0.51663419282E+01  0.17068158450E+02  0.57153873140E+01  0.18726419143E+02  0.00000000000E+00 0.  1.
         11    1    3    3    0    0 -0.66511821949E+01 -0.29645238865E+02 -0.25180144577E+02  0.39460335695E+02  0.51100000000E-03 0. -1.
        -11    1    3    3    0    0 -0.86790045421E+01  0.97495602394E+01  0.18169700244E+02  0.22372238420E+02  0.51100000000E-03 0.  1.
        -12    1    3    3    0    0  0.10163844809E+02  0.28275201755E+01  0.12950570194E+01  0.10629006742E+02  0.00000000000E+00 0.  1.
</event>
<event>
 7    1  0.1857734E-013  0.7246164E+02  0.7816164E-02  0.1226708E+00
        -11   -1    0    0    0    0  0.00000000000E+00  0.00000000000E+00  0.45593999997E+02  0.45594000000E+02  0.51100000000E-03 0. -1.
         11   -1    0    0    0    0 -0.00000000000E+00 -0.00000000000E+00 -0.45593999997E+02  0.45594000000E+02  0.51100000000E-03 0.  1.
    9900012    2    1    2    0    0  0.62113614445E+01  0.15720841691E+02  0.80591973334E+01  0.72461640607E+02  0.70000091595E+02 0.  0.
        -12    1    1    2    0    0 -0.62113614445E+01 -0.15720841691E+02 -0.80591973334E+01  0.18726359393E+02  0.00000000000E+00 0.  1.
         11    1    3    3    0    0 -0.62539913568E+00  0.86724351909E+01  0.13279104585E+00  0.86959697529E+01  0.51100000000E-03 0. -1.
        -11    1    3    3    0    0 -0.22265550322E+02 -0.11378993061E+02 -0.73816054838E+01  0.26071523047E+02  0.51100000000E-03 0.  1.
        -12    1    3    3    0    0  0.29102310903E+02  0.18427399561E+02  0.15308011771E+02  0.37694147806E+02  0.00000000000E+00 0.  1.
</event>
<event>
 7    1  0.1857734E-013  0.7246157E+02  0.7816164E-02  0.1226708E+00
        -11   -1    0    0    0    0  0.00000000000E+00  0.00000000000E+00  0.45593999997E+02  0.45594000000E+02  0.51100000000E-03 0.  1.
         11   -1    0    0    0    0 -0.00000000000E+00 -0.00000000000E+00 -0.45593999997E+02  0.45594000000E+02  0.51100000000E-03 0. -1.
    9900012    2    1    2    0    0 -0.17316031567E+02  0.14782736021E+01 -0.69748728592E+01  0.72461572325E+02  0.70000002646E+02 0.  0.
        -12    1    1    2    0    0  0.17316031567E+02 -0.14782736021E+01  0.69748728592E+01  0.18726427675E+02  0.00000000000E+00 0.  1.
         11    1    3    3    0    0 -0.29645040062E+02  0.13435810384E+02 -0.24011056239E+02  0.40446016156E+02  0.51100000000E-03 0. -1.
        -11    1    3    3    0    0  0.22764435664E+01 -0.15775515368E+02  0.12859754635E+02  0.20479803953E+02  0.51100000000E-03 0.  1.
        -12    1    3    3    0    0  0.10052564929E+02  0.38179785861E+01  0.41764287447E+01  0.11535752216E+02  0.00000000000E+00 0.  1.
</event>
<event>
 7    1  0.1857734E-013  0.7246154E+02  0.7816164E-02  0.1226708E+00
        -11   -1    0    0    0    0  0.00000000000E+00  0.00000000000E+00  0.45593999997E+02  0.45594000000E+02  0.51100000000E-03 0.  1.
         11   -1    0    0    0    0 -0.00000000000E+00 -0.00000000000E+00 -0.45593999997E+02  0.45594000000E+02  0.51100000000E-03 0. -1.
    9900012    2    1    2    0    0  0.13705195016E+02 -0.90240848403E+00 -0.12729244876E+02  0.72461537797E+02  0.69999957667E+02 0.  0.
        -12    1    1    2    0    0 -0.13705195016E+02  0.90240848403E+00  0.12729244876E+02  0.18726462203E+02  0.00000000000E+00 0.  1.
         11    1    3    3    0    0 -0.17121957150E+02 -0.22133757376E+02 -0.58142268726E+01  0.28580935370E+02  0.51100000000E-03 0. -1.
        -11    1    3    3    0    0  0.18140964453E+02  0.21634494659E+02 -0.11358196269E+02  0.30432787799E+02  0.51100000000E-03 0.  1.
         12    1    3    3    0    0  0.12686187713E+02 -0.40314576769E+00  0.44431782649E+01  0.13447814629E+02  0.00000000000E+00 0. -1.
</event>
<event>
 7    1  0.1857734E-013  0.7246158E+02  0.7816164E-02  0.1226708E+00
        -11   -1    0    0    0    0  0.00000000000E+00  0.00000000000E+00  0.45593999997E+02  0.45594000000E+02  0.51100000000E-03 0.  1.
         11   -1    0    0    0    0 -0.00000000000E+00 -0.00000000000E+00 -0.45593999997E+02  0.45594000000E+02  0.51100000000E-03 0. -1.
    9900012    2    1    2    0    0  0.85575565424E+01 -0.14893906129E+01 -0.16590024794E+02  0.72461575327E+02  0.70000006556E+02 0.  0.
        -12    1    1    2    0    0 -0.85575565424E+01  0.14893906129E+01  0.16590024794E+02  0.18726424673E+02  0.00000000000E+00 0.  1.
         11    1    3    3    0    0 -0.30658194562E+01  0.29385260651E+02  0.71662936472E+01  0.30401456501E+02  0.51100000000E-03 0. -1.
        -11    1    3    3    0    0  0.10603051048E+01 -0.15470750503E+02 -0.71846848935E+01  0.17090584113E+02  0.51100000000E-03 0.  1.
         12    1    3    3    0    0  0.10563070894E+02 -0.15403900761E+02 -0.16571633548E+02  0.24969534714E+02  0.00000000000E+00 0. -1.
</event>
<event>
 7    1  0.1857734E-013  0.7246147E+02  0.7816164E-02  0.1226708E+00
        -11   -1    0    0    0    0  0.00000000000E+00  0.00000000000E+00  0.45593999997E+02  0.45594000000E+02  0.51100000000E-03 0. -1.
         11   -1    0    0    0    0 -0.00000000000E+00 -0.00000000000E+00 -0.45593999997E+02  0.45594000000E+02  0.51100000000E-03 0.  1.
    9900012    2    1    2    0    0  0.10301319878E+02  0.55269285050E+01  0.14629375453E+02  0.72461474533E+02  0.69999875253E+02 0.  0.
        -12    1    1    2    0    0 -0.10301319878E+02 -0.55269285050E+01 -0.14629375453E+02  0.18726525467E+02  0.00000000000E+00 0.  1.
         11    1    3    3    0    0 -0.12416993671E+02  0.35025612623E+01  0.30203620979E+02  0.32843696316E+02  0.51100000000E-03 0. -1.
        -11    1    3    3    0    0  0.21832045932E+02 -0.10064009614E+02 -0.12579894889E+02  0.27132568525E+02  0.51100000000E-03 0.  1.
         12    1    3    3    0    0  0.88626761699E+00  0.12088376856E+02 -0.29943506365E+01  0.12485209692E+02  0.00000000000E+00 0. -1.
</event>
<event>
 7    1  0.1857734E-013  0.7246157E+02  0.7816164E-02  0.1226708E+00
        -11   -1    0    0    0    0  0.00000000000E+00  0.00000000000E+00  0.45593999997E+02  0.45594000000E+02  0.51100000000E-03 0.  1.
         11   -1    0    0    0    0 -0.00000000000E+00 -0.00000000000E+00 -0.45593999997E+02  0.45594000000E+02  0.51100000000E-03 0. -1.
    9900012    2    1    2    0    0  0.38685852765E+01 -0.52010159792E+01 -0.17568797158E+02  0.72461570740E+02  0.70000000581E+02 0.  0.
        -12    1    1    2    0    0 -0.38685852765E+01  0.52010159792E+01  0.17568797158E+02  0.18726429260E+02  0.00000000000E+00 0.  1.
         11    1    3    3    0    0  0.11609989516E+02 -0.10250989311E+01 -0.41801353611E+02  0.43395804501E+02  0.51100000000E-03 0. -1.
        -11    1    3    3    0    0  0.26209476397E+01  0.19068466608E+01  0.95973503325E+01  0.10129884717E+02  0.51100000000E-03 0.  1.
         12    1    3    3    0    0 -0.10362351879E+02 -0.60827637089E+01  0.14635206121E+02  0.18935881521E+02  0.00000000000E+00 0. -1.
</event>
<event>
 7    1  0.1857734E-013  0.7246168E+02  0.7816164E-02  0.1226708E+00
        -11   -1    0    0    0    0  0.00000000000E+00  0.00000000000E+00  0.45593999997E+02  0.45594000000E+02  0.51100000000E-03 0.  1.
         11   -1    0    0    0    0 -0.00000000000E+00 -0.00000000000E+00 -0.45593999997E+02  0.45594000000E+02  0.51100000000E-03 0. -1.
    9900012    2    1    2    0    0  0.10115604947E+02  0.67538599568E+01 -0.14238505812E+02  0.72461678004E+02  0.70000140311E+02 0.  0.
        -12    1    1    2    0    0 -0.10115604947E+02 -0.67538599568E+01  0.14238505812E+02  0.18726321996E+02  0.00000000000E+00 0.  1.
         11    1    3    3    0    0 -0.20217742352E+02  0.53736827536E+01 -0.21520983441E+02  0.30013102150E+02  0.51100000000E-03 0. -1.
        -11    1    3    3    0    0  0.12987109820E+02 -0.98060721558E+01  0.13225208184E+02  0.20969744976E+02  0.51100000000E-03 0.  1.
         12    1    3    3    0    0  0.17346237479E+02  0.11186249359E+02 -0.59427305552E+01  0.21478830877E+02  0.00000000000E+00 0. -1.
</event>
<event>
 7    1  0.1857734E-013  0.7246163E+02  0.7816164E-02  0.1226708E+00
        -11   -1    0    0    0    0  0.00000000000E+00  0.00000000000E+00  0.45593999997E+02  0.45594000000E+02  0.51100000000E-03 0.  1.
         11   -1    0    0    0    0 -0.00000000000E+00 -0.00000000000E+00 -0.45593999997E+02  0.45594000000E+02  0.51100000000E-03 0. -1.
    9900012    2    1    2    0    0 -0.12188397358E+02 -0.13768814053E+02  0.35411650470E+01  0.72461625004E+02  0.70000071270E+02 0.  0.
        -12    1    1    2    0    0  0.12188397358E+02  0.13768814053E+02 -0.35411650470E+01  0.18726374996E+02  0.00000000000E+00 0.  1.
         11    1    3    3    0    0 -0.10328149588E+02  0.49978137658E+00 -0.26954292426E+02  0.28869609208E+02  0.51100000000E-03 0. -1.
        -11    1    3    3    0    0  0.76325669459E+01 -0.17892494767E+02  0.13119357367E+02  0.23463055750E+02  0.51100000000E-03 0.  1.
        -12    1    3    3    0    0 -0.94928147157E+01  0.36238993371E+01  0.17376100106E+02  0.20128960046E+02  0.00000000000E+00 0.  1.
</event>
<event>
 7    1  0.1857734E-013  0.7246161E+02  0.7816164E-02  0.1226708E+00
        -11   -1    0    0    0    0  0.00000000000E+00  0.00000000000E+00  0.45593999997E+02  0.45594000000E+02  0.51100000000E-03 0. -1.
         11   -1    0    0    0    0 -0.00000000000E+00 -0.00000000000E+00 -0.45593999997E+02  0.45594000000E+02  0.51100000000E-03 0.  1.
    9900012    2    1    2    0    0 -0.49638209462E+01  0.16750354227E+02  0.67426904606E+01  0.72461607936E+02  0.70000049035E+02 0.  0.
        -12    1    1    2    0    0  0.49638209462E+01 -0.16750354227E+02 -0.67426904606E+01  0.18726392064E+02  0.00000000000E+00 0.  1.
         11    1    3    3    0    0 -0.25357401239E+02  0.21645950397E+01 -0.81883272743E+01  0.26734471626E+02  0.51100000000E-03 0.  1.
        -11    1    3    3    0    0  0.30268128975E+02  0.78808313420E+01  0.11192680883E+02  0.33219621309E+02  0.51100000000E-03 0. -1.
         12    1    3    3    0    0 -0.98745486823E+01  0.67049278449E+01  0.37383368516E+01  0.12507515001E+02  0.00000000000E+00 0. -1.
</event>
<event>
 7    1  0.1857734E-013  0.7246150E+02  0.7816164E-02  0.1226708E+00
        -11   -1    0    0    0    0  0.00000000000E+00  0.00000000000E+00  0.45593999997E+02  0.45594000000E+02  0.51100000000E-03 0. -1.
         11   -1    0    0    0    0 -0.00000000000E+00 -0.00000000000E+00 -0.45593999997E+02  0.45594000000E+02  0.51100000000E-03 0.  1.
    9900012    2    1    2    0    0 -0.12393964027E+02  0.90269835949E+01  0.10751039602E+02  0.72461504608E+02  0.69999914431E+02 0.  0.
        -12    1    1    2    0    0  0.12393964027E+02 -0.90269835949E+01 -0.10751039602E+02  0.18726495392E+02  0.00000000000E+00 0.  1.
         11    1    3    3    0    0 -0.85183972404E+01  0.22895321621E+02  0.27042797562E+02  0.36442718668E+02  0.51100000000E-03 0. -1.
        -11    1    3    3    0    0  0.92984824911E+01 -0.16027279103E+02 -0.72601211137E+01  0.19900874628E+02  0.51100000000E-03 0.  1.
         12    1    3    3    0    0 -0.13174049278E+02  0.21589410771E+01 -0.90316368460E+01  0.16117911312E+02  0.00000000000E+00 0. -1.
</event>
<event>
 7    1  0.1857734E-013  0.7246154E+02  0.7816164E-02  0.1226708E+00
        -11   -1    0    0    0    0  0.00000000000E+00  0.00000000000E+00  0.45593999997E+02  0.45594000000E+02  0.51100000000E-03 0.  1.
         11   -1    0    0    0    0 -0.00000000000E+00 -0.00000000000E+00 -0.45593999997E+02  0.45594000000E+02  0.51100000000E-03 0. -1.
    9900012    2    1    2    0    0 -0.13950796778E+01 -0.15464998755E+02  0.10467465791E+02  0.72461540808E+02  0.69999961589E+02 0.  0.
        -12    1    1    2    0    0  0.13950796778E+01  0.15464998755E+02 -0.10467465791E+02  0.18726459192E+02  0.00000000000E+00 0.  1.
         11    1    3    3    0    0 -0.11606807305E+02 -0.28373127423E+02  0.37557106954E+01  0.30884586749E+02  0.51100000000E-03 0. -1.
        -11    1    3    3    0    0 -0.22535848838E+01  0.18529078592E+02  0.16377209869E+02  0.24831802223E+02  0.51100000000E-03 0.  1.
         12    1    3    3    0    0  0.12465312511E+02 -0.56209499235E+01 -0.96654547736E+01  0.16745151836E+02  0.00000000000E+00 0. -1.
</event>
<event>
 7    1  0.1857734E-013  0.7246152E+02  0.7816164E-02  0.1226708E+00
        -11   -1    0    0    0    0  0.00000000000E+00  0.00000000000E+00  0.45593999997E+02  0.45594000000E+02  0.51100000000E-03 0. -1.
         11   -1    0    0    0    0 -0.00000000000E+00 -0.00000000000E+00 -0.45593999997E+02  0.45594000000E+02  0.51100000000E-03 0.  1.
    9900012    2    1    2    0    0  0.12368205036E+00 -0.89352145069E+01  0.16456840596E+02  0.72461522543E+02  0.69999937795E+02 0.  0.
        -12    1    1    2    0    0 -0.12368205036E+00  0.89352145069E+01 -0.16456840596E+02  0.18726477457E+02  0.00000000000E+00 0.  1.
         11    1    3    3    0    0 -0.79309897461E+01  0.93857648631E+01  0.26650525136E+02  0.29346953346E+02  0.51100000000E-03 0. -1.
        -11    1    3    3    0    0 -0.37526301964E+00  0.58951709568E+01 -0.15799320594E+02  0.16867495203E+02  0.51100000000E-03 0.  1.
         12    1    3    3    0    0  0.84299348161E+01 -0.24216150327E+02  0.56056360538E+01  0.26247073993E+02  0.00000000000E+00 0. -1.
</event>
<event>
 7    1  0.1857734E-013  0.7246158E+02  0.7816164E-02  0.1226708E+00
        -11   -1    0    0    0    0  0.00000000000E+00  0.00000000000E+00  0.45593999997E+02  0.45594000000E+02  0.51100000000E-03 0.  1.
         11   -1    0    0    0    0 -0.00000000000E+00 -0.00000000000E+00 -0.45593999997E+02  0.45594000000E+02  0.51100000000E-03 0. -1.
    9900012    2    1    2    0    0  0.10606337575E+02 -0.14537529241E+02 -0.51811677198E+01  0.72461584109E+02  0.70000017996E+02 0.  0.
        -12    1    1    2    0    0 -0.10606337575E+02  0.14537529241E+02  0.51811677198E+01  0.18726415891E+02  0.00000000000E+00 0.  1.
         11    1    3    3    0    0  0.19402359411E+02 -0.14887889728E+02 -0.31490126097E+02  0.39871403952E+02  0.51100000000E-03 0. -1.
        -11    1    3    3    0    0 -0.57549738903E+01 -0.43164677006E+01  0.26037873635E+02  0.27013375975E+02  0.51100000000E-03 0.  1.
         12    1    3    3    0    0 -0.30410479451E+01  0.46668281880E+01  0.27108474211E+00  0.55768041814E+01  0.00000000000E+00 0. -1.
</event>
<event>
 7    1  0.1857734E-013  0.7246165E+02  0.7816164E-02  0.1226708E+00
        -11   -1    0    0    0    0  0.00000000000E+00  0.00000000000E+00  0.45593999997E+02  0.45594000000E+02  0.51100000000E-03 0. -1.
         11   -1    0    0    0    0 -0.00000000000E+00 -0.00000000000E+00 -0.45593999997E+02  0.45594000000E+02  0.51100000000E-03 0.  1.
    9900012    2    1    2    0    0 -0.88512728264E+01 -0.80742449115E+01  0.14392283120E+02  0.72461647580E+02  0.70000100679E+02 0.  0.
        -12    1    1    2    0    0  0.88512728264E+01  0.80742449115E+01 -0.14392283120E+02  0.18726352420E+02  0.00000000000E+00 0.  1.
         11    1    3    3    0    0 -0.16369254903E+02  0.11928873486E+02  0.20458063623E+02  0.28788589688E+02  0.51100000000E-03 0. -1.
        -11    1    3    3    0    0  0.13249739850E+02 -0.21455930972E+02 -0.17572437298E+02  0.30736023374E+02  0.51100000000E-03 0.  1.
        -12    1    3    3    0    0 -0.57317577732E+01  0.14528125746E+01  0.11506656795E+02  0.12937034519E+02  0.00000000000E+00 0.  1.
</event>
<event>
 7    1  0.1857734E-013  0.7246176E+02  0.7816164E-02  0.1226708E+00
        -11   -1    0    0    0    0  0.00000000000E+00  0.00000000000E+00  0.45593999997E+02  0.45594000000E+02  0.51100000000E-03 0. -1.
         11   -1    0    0    0    0 -0.00000000000E+00 -0.00000000000E+00 -0.45593999997E+02  0.45594000000E+02  0.51100000000E-03 0.  1.
    9900012    2    1    2    0    0  0.15982773462E+02 -0.93889405741E+01  0.26591322197E+01  0.72461755400E+02  0.70000241134E+02 0.  0.
        -12    1    1    2    0    0 -0.15982773462E+02  0.93889405741E+01 -0.26591322197E+01  0.18726244600E+02  0.00000000000E+00 0.  1.
         11    1    3    3    0    0  0.89313701944E+01 -0.68239039803E+01 -0.67858853077E+01  0.13129481283E+02  0.51100000000E-03 0. -1.
        -11    1    3    3    0    0 -0.47632896250E-01  0.27559199573E+02  0.30330431815E+01  0.27725639780E+02  0.51100000000E-03 0.  1.
        -12    1    3    3    0    0  0.70990361642E+01 -0.30124236167E+02  0.64119743459E+01  0.31606634337E+02  0.00000000000E+00 0.  1.
</event>
<event>
 7    1  0.1857734E-013  0.7246159E+02  0.7816164E-02  0.1226708E+00
        -11   -1    0    0    0    0  0.00000000000E+00  0.00000000000E+00  0.45593999997E+02  0.45594000000E+02  0.51100000000E-03 0. -1.
         11   -1    0    0    0    0 -0.00000000000E+00 -0.00000000000E+00 -0.45593999997E+02  0.45594000000E+02  0.51100000000E-03 0.  1.
    9900012    2    1    2    0    0 -0.12166188155E+02  0.50080719447E+01  0.13325968188E+02  0.72461592257E+02  0.70000028610E+02 0.  0.
        -12    1    1    2    0    0  0.12166188155E+02 -0.50080719447E+01 -0.13325968188E+02  0.18726407743E+02  0.00000000000E+00 0.  1.
         11    1    3    3    0    0 -0.18929634532E+02  0.25682804844E+01 -0.87916687791E+01  0.21029041070E+02  0.51100000000E-03 0. -1.
        -11    1    3    3    0    0  0.15568474035E+02  0.20579810861E+02  0.15991535486E+02  0.30358445387E+02  0.51100000000E-03 0.  1.
         12    1    3    3    0    0 -0.88050276584E+01 -0.18140019400E+02  0.61261014810E+01  0.21074105800E+02  0.00000000000E+00 0. -1.
</event>
<event>
 7    1  0.1857734E-013  0.7246157E+02  0.7816164E-02  0.1226708E+00
        -11   -1    0    0    0    0  0.00000000000E+00  0.00000000000E+00  0.45593999997E+02  0.45594000000E+02  0.51100000000E-03 0.  1.
         11   -1    0    0    0    0 -0.00000000000E+00 -0.00000000000E+00 -0.45593999997E+02  0.45594000000E+02  0.51100000000E-03 0. -1.
    9900012    2    1    2    0    0  0.18660102474E+00 -0.74951525714E+00 -0.18710490880E+02  0.72461573165E+02  0.70000003739E+02 0.  0.
        -12    1    1    2    0    0 -0.18660102474E+00  0.74951525714E+00  0.18710490880E+02  0.18726426835E+02  0.00000000000E+00 0.  1.
         11    1    3    3    0    0  0.17337641156E+02 -0.17570220688E+02 -0.19605063121E+01  0.24761866673E+02  0.51100000000E-03 0.  1.
        -11    1    3    3    0    0 -0.13539450084E+02  0.20867400265E+02 -0.26622599201E+02  0.36435256152E+02  0.51100000000E-03 0. -1.
         12    1    3    3    0    0 -0.36115900474E+01 -0.40466948345E+01  0.98726146332E+01  0.11264450339E+02  0.00000000000E+00 0. -1.
</event>
<event>
 7    1  0.1857734E-013  0.7246166E+02  0.7816164E-02  0.1226708E+00
        -11   -1    0    0    0    0  0.00000000000E+00  0.00000000000E+00  0.45593999997E+02  0.45594000000E+02  0.51100000000E-03 0.  1.
         11   -1    0    0    0    0 -0.00000000000E+00 -0.00000000000E+00 -0.45593999997E+02  0.45594000000E+02  0.51100000000E-03 0. -1.
    9900012    2    1    2    0    0  0.13719423502E+02  0.10032992134E+02 -0.78607960998E+01  0.72461664862E+02  0.70000123192E+02 0.  0.
        -12    1    1    2    0    0 -0.13719423502E+02 -0.10032992134E+02  0.78607960998E+01  0.18726335138E+02  0.00000000000E+00 0.  1.
         11    1    3    3    0    0  0.59236345077E+01  0.19920878967E+02 -0.14747049100E+02  0.25483451925E+02  0.51100000000E-03 0. -1.
        -11    1    3    3    0    0  0.19336660973E+02 -0.22193067869E+02  0.24664084491E+01  0.29538481510E+02  0.51100000000E-03 0.  1.
        -12    1    3    3    0    0 -0.11540871979E+02  0.12305181037E+02  0.44198445514E+01  0.17439731427E+02  0.00000000000E+00 0.  1.
</event>
<event>
 7    1  0.1857734E-013  0.7246161E+02  0.7816164E-02  0.1226708E+00
        -11   -1    0    0    0    0  0.00000000000E+00  0.00000000000E+00  0.45593999997E+02  0.45594000000E+02  0.51100000000E-03 0. -1.
         11   -1    0    0    0    0 -0.00000000000E+00 -0.00000000000E+00 -0.45593999997E+02  0.45594000000E+02  0.51100000000E-03 0.  1.
    9900012    2    1    2    0    0  0.43510206263E+01  0.14040321186E+02  0.11602392684E+02  0.72461614458E+02  0.70000057531E+02 0.  0.
        -12    1    1    2    0    0 -0.43510206263E+01 -0.14040321186E+02 -0.11602392684E+02  0.18726385542E+02  0.00000000000E+00 0.  1.
         11    1    3    3    0    0 -0.88836029779E+01 -0.11505647839E+02  0.75874076116E+01  0.16397167091E+02  0.51100000000E-03 0. -1.
        -11    1    3    3    0    0  0.11877498007E+02  0.39638220301E+02  0.58410206133E+01  0.41789723492E+02  0.51100000000E-03 0.  1.
        -12    1    3    3    0    0  0.13571255975E+01 -0.14092251275E+02 -0.18260355412E+01  0.14274723875E+02  0.00000000000E+00 0.  1.
</event>
<event>
 7    1  0.1857734E-013  0.7246145E+02  0.7816164E-02  0.1226708E+00
        -11   -1    0    0    0    0  0.00000000000E+00  0.00000000000E+00  0.45593999997E+02  0.45594000000E+02  0.51100000000E-03 0.  1.
         11   -1    0    0    0    0 -0.00000000000E+00 -0.00000000000E+00 -0.45593999997E+02  0.45594000000E+02  0.51100000000E-03 0. -1.
    9900012    2    1    2    0    0 -0.56231958736E+01  0.12312741542E+02 -0.12940625936E+02  0.72461448376E+02  0.69999841178E+02 0.  0.
        -12    1    1    2    0    0  0.56231958736E+01 -0.12312741542E+02  0.12940625936E+02  0.18726551624E+02  0.00000000000E+00 0.  1.
         11    1    3    3    0    0  0.12058121586E+02  0.16699217544E+02 -0.17653063637E+02  0.27127344485E+02  0.51100000000E-03 0. -1.
        -11    1    3    3    0    0 -0.30759405485E+02 -0.11623856928E+01  0.72593567831E+01  0.31625787381E+02  0.51100000000E-03 0.  1.
        -12    1    3    3    0    0  0.13078088026E+02 -0.32240903095E+01 -0.25469190823E+01  0.13708316510E+02  0.00000000000E+00 0.  1.
</event>
<event>
 7    1  0.1857734E-013  0.7246155E+02  0.7816164E-02  0.1226708E+00
        -11   -1    0    0    0    0  0.00000000000E+00  0.00000000000E+00  0.45593999997E+02  0.45594000000E+02  0.51100000000E-03 0. -1.
         11   -1    0    0    0    0 -0.00000000000E+00 -0.00000000000E+00 -0.45593999997E+02  0.45594000000E+02  0.51100000000E-03 0.  1.
    9900012    2    1    2    0    0 -0.20724552223E+01 -0.52488979945E+00  0.18604019190E+02  0.72461545184E+02  0.69999967289E+02 0.  0.
        -12    1    1    2    0    0  0.20724552223E+01  0.52488979945E+00 -0.18604019190E+02  0.18726454816E+02  0.00000000000E+00 0.  1.
         11    1    3    3    0    0 -0.24564160084E+02  0.86550358189E+01  0.13723379053E+02  0.29438728549E+02  0.51100000000E-03 0. -1.
        -11    1    3    3    0    0  0.22169804754E+02  0.63866923795E+01  0.11881766698E+02  0.25951232389E+02  0.51100000000E-03 0.  1.
        -12    1    3    3    0    0  0.32190010820E+00 -0.15566617998E+02 -0.70011265604E+01  0.17071584247E+02  0.00000000000E+00 0.  1.
</event>
<event>
 7    1  0.1857734E-013  0.7246158E+02  0.7816164E-02  0.1226708E+00
        -11   -1    0    0    0    0  0.00000000000E+00  0.00000000000E+00  0.45593999997E+02  0.45594000000E+02  0.51100000000E-03 0.  1.
         11   -1    0    0    0    0 -0.00000000000E+00 -0.00000000000E+00 -0.45593999997E+02  0.45594000000E+02  0.51100000000E-03 0. -1.
    9900012    2    1    2    0    0  0.76255234947E+01 -0.99473710655E+01 -0.13913297045E+02  0.72461584583E+02  0.70000018614E+02 0.  0.
        -12    1    1    2    0    0 -0.76255234947E+01  0.99473710655E+01  0.13913297045E+02  0.18726415417E+02  0.00000000000E+00 0.  1.
         11    1    3    3    0    0  0.31660637132E+02 -0.14484239472E+02 -0.17538838683E+02  0.38984612340E+02  0.51100000000E-03 0.  1.
        -11    1    3    3    0    0 -0.24600997727E+02  0.47890351926E+00  0.94481505074E+01  0.26357275770E+02  0.51100000000E-03 0. -1.
         12    1    3    3    0    0  0.56588408969E+00  0.40579648874E+01 -0.58226088697E+01  0.71196964739E+01  0.00000000000E+00 0. -1.
</event>
<event>
 7    1  0.1857734E-013  0.7246159E+02  0.7816164E-02  0.1226708E+00
        -11   -1    0    0    0    0  0.00000000000E+00  0.00000000000E+00  0.45593999997E+02  0.45594000000E+02  0.51100000000E-03 0. -1.
         11   -1    0    0    0    0 -0.00000000000E+00 -0.00000000000E+00 -0.45593999997E+02  0.45594000000E+02  0.51100000000E-03 0.  1.
    9900012    2    1    2    0    0 -0.16348508188E+02  0.11171249813E+01  0.90640398481E+01  0.72461587996E+02  0.70000023059E+02 0.  0.
        -12    1    1    2    0    0  0.16348508188E+02 -0.11171249813E+01 -0.90640398481E+01  0.18726412004E+02  0.00000000000E+00 0.  1.
         11    1    3    3    0    0 -0.12532261220E+02 -0.20974704357E+02  0.71774764810E+01  0.25465898041E+02  0.51100000000E-03 0.  1.
        -11    1    3    3    0    0 -0.14857252872E+02  0.24398432215E+02 -0.10322430980E+02  0.30373903915E+02  0.51100000000E-03 0. -1.
        -12    1    3    3    0    0  0.11041005903E+02 -0.23066028766E+01  0.12208994347E+02  0.16621786040E+02  0.00000000000E+00 0.  1.
</event>
<event>
 7    1  0.1857734E-013  0.7246157E+02  0.7816164E-02  0.1226708E+00
        -11   -1    0    0    0    0  0.00000000000E+00  0.00000000000E+00  0.45593999997E+02  0.45594000000E+02  0.51100000000E-03 0. -1.
         11   -1    0    0    0    0 -0.00000000000E+00 -0.00000000000E+00 -0.45593999997E+02  0.45594000000E+02  0.51100000000E-03 0.  1.
    9900012    2    1    2    0    0 -0.15299636685E+02 -0.93768164860E+01  0.53549546822E+01  0.72461571890E+02  0.70000002079E+02 0.  0.
        -12    1    1    2    0    0  0.15299636685E+02  0.93768164860E+01 -0.53549546822E+01  0.18726428110E+02  0.00000000000E+00 0.  1.
         11    1    3    3    0    0  0.66053690711E+01  0.47400817038E+01  0.74367967125E+01  0.11018403729E+02  0.51100000000E-03 0. -1.
        -11    1    3    3    0    0 -0.26746690410E+02  0.10018291581E+02 -0.16430820746E+02  0.32950318431E+02  0.51100000000E-03 0.  1.
        -12    1    3    3    0    0  0.48416846539E+01 -0.24135189771E+02  0.14348978715E+02  0.28492849730E+02  0.00000000000E+00 0.  1.
</event>
<event>
 7    1  0.1857734E-013  0.7246158E+02  0.7816164E-02  0.1226708E+00
        -11   -1    0    0    0    0  0.00000000000E+00  0.00000000000E+00  0.45593999997E+02  0.45594000000E+02  0.51100000000E-03 0.  1.
         11   -1    0    0    0    0 -0.00000000000E+00 -0.00000000000E+00 -0.45593999997E+02  0.45594000000E+02  0.51100000000E-03 0. -1.
    9900012    2    1    2    0    0 -0.40694937143E+01  0.28699847886E+01 -0.18052181321E+02  0.72461579033E+02  0.70000011384E+02 0.  0.
        -12    1    1    2    0    0  0.40694937143E+01 -0.28699847886E+01  0.18052181321E+02  0.18726420967E+02  0.00000000000E+00 0.  1.
         11    1    3    3    0    0  0.47260561455E+01  0.26680784273E+02  0.29002504176E+01  0.27250895561E+02  0.51100000000E-03 0. -1.
        -11    1    3    3    0    0  0.82090842943E+01 -0.20895854204E+02 -0.14818371321E+02  0.26899998452E+02  0.51100000000E-03 0.  1.
         12    1    3    3    0    0 -0.17004634154E+02 -0.29149452809E+01 -0.61340604172E+01  0.18310685020E+02  0.00000000000E+00 0. -1.
</event>
<event>
 7    1  0.1857734E-013  0.7246158E+02  0.7816164E-02  0.1226708E+00
        -11   -1    0    0    0    0  0.00000000000E+00  0.00000000000E+00  0.45593999997E+02  0.45594000000E+02  0.51100000000E-03 0.  1.
         11   -1    0    0    0    0 -0.00000000000E+00 -0.00000000000E+00 -0.45593999997E+02  0.45594000000E+02  0.51100000000E-03 0. -1.
    9900012    2    1    2    0    0 -0.13821936379E+02  0.97583784164E+01 -0.80253915676E+01  0.72461580577E+02  0.70000013396E+02 0.  0.
        -12    1    1    2    0    0  0.13821936379E+02 -0.97583784164E+01  0.80253915676E+01  0.18726419423E+02  0.00000000000E+00 0.  1.
         11    1    3    3    0    0 -0.19019266160E+02 -0.86623545068E+01  0.17862155985E+02  0.27492280509E+02  0.51100000000E-03 0. -1.
        -11    1    3    3    0    0  0.12186110750E+02  0.16549691568E+01  0.11988957538E+01  0.12356276519E+02  0.51100000000E-03 0.  1.
         12    1    3    3    0    0 -0.69887809685E+01  0.16765763766E+02 -0.27086443306E+02  0.32613023550E+02  0.00000000000E+00 0. -1.
</event>
<event>
 7    1  0.1857734E-013  0.7246157E+02  0.7816164E-02  0.1226708E+00
        -11   -1    0    0    0    0  0.00000000000E+00  0.00000000000E+00  0.45593999997E+02  0.45594000000E+02  0.51100000000E-03 0. -1.
         11   -1    0    0    0    0 -0.00000000000E+00 -0.00000000000E+00 -0.45593999997E+02  0.45594000000E+02  0.51100000000E-03 0.  1.
    9900012    2    1    2    0    0 -0.71661324206E+01  0.34756659257E+01  0.16948314030E+02  0.72461573327E+02  0.70000003950E+02 0.  0.
        -12    1    1    2    0    0  0.71661324206E+01 -0.34756659257E+01 -0.16948314030E+02  0.18726426673E+02  0.00000000000E+00 0.  1.
         11    1    3    3    0    0  0.14437690626E+02  0.24747567538E+01 -0.19381419328E+02  0.24294253375E+02  0.51100000000E-03 0.  1.
        -11    1    3    3    0    0  0.17028351112E+01  0.59288323809E+01  0.14894034696E+02  0.16120886161E+02  0.51100000000E-03 0. -1.
         12    1    3    3    0    0 -0.23306658158E+02 -0.49279232090E+01  0.21435698661E+02  0.32046433791E+02  0.00000000000E+00 0. -1.
</event>
<event>
 7    1  0.1857734E-013  0.7246158E+02  0.7816164E-02  0.1226708E+00
        -11   -1    0    0    0    0  0.00000000000E+00  0.00000000000E+00  0.45593999997E+02  0.45594000000E+02  0.51100000000E-03 0.  1.
         11   -1    0    0    0    0 -0.00000000000E+00 -0.00000000000E+00 -0.45593999997E+02  0.45594000000E+02  0.51100000000E-03 0. -1.
    9900012    2    1    2    0    0  0.72670776650E+01  0.14157919782E+02 -0.98702349805E+01  0.72461584194E+02  0.70000018107E+02 0.  0.
        -12    1    1    2    0    0 -0.72670776650E+01 -0.14157919782E+02  0.98702349805E+01  0.18726415806E+02  0.00000000000E+00 0.  1.
         11    1    3    3    0    0 -0.43562667911E+01  0.33486974667E+02  0.55571748142E+00  0.33773708042E+02  0.51100000000E-03 0.  1.
        -11    1    3    3    0    0  0.10546885144E+02 -0.26183211017E+02 -0.13267803656E+02  0.31190253919E+02  0.51100000000E-03 0. -1.
         12    1    3    3    0    0  0.10764593117E+01  0.68541561327E+01  0.28418511943E+01  0.74976222332E+01  0.00000000000E+00 0. -1.
</event>
<event>
 7    1  0.1857734E-013  0.7246156E+02  0.7816164E-02  0.1226708E+00
        -11   -1    0    0    0    0  0.00000000000E+00  0.00000000000E+00  0.45593999997E+02  0.45594000000E+02  0.51100000000E-03 0.  1.
         11   -1    0    0    0    0 -0.00000000000E+00 -0.00000000000E+00 -0.45593999997E+02  0.45594000000E+02  0.51100000000E-03 0. -1.
    9900012    2    1    2    0    0 -0.24422153180E+01  0.17721223257E+02  0.55383630202E+01  0.72461557884E+02  0.69999983833E+02 0.  0.
        -12    1    1    2    0    0  0.24422153180E+01 -0.17721223257E+02 -0.55383630202E+01  0.18726442116E+02  0.00000000000E+00 0.  1.
         11    1    3    3    0    0 -0.10346732085E+02  0.23011544476E+02  0.20612184134E+02  0.32579873834E+02  0.51100000000E-03 0. -1.
        -11    1    3    3    0    0 -0.11432382126E+02 -0.11780780478E+02 -0.51965687987E+01  0.17218898840E+02  0.51100000000E-03 0.  1.
        -12    1    3    3    0    0  0.19336898892E+02  0.64904592588E+01 -0.98772523152E+01  0.22662785210E+02  0.00000000000E+00 0.  1.
</event>
<event>
 7    1  0.1857734E-013  0.7246169E+02  0.7816164E-02  0.1226708E+00
        -11   -1    0    0    0    0  0.00000000000E+00  0.00000000000E+00  0.45593999997E+02  0.45594000000E+02  0.51100000000E-03 0. -1.
         11   -1    0    0    0    0 -0.00000000000E+00 -0.00000000000E+00 -0.45593999997E+02  0.45594000000E+02  0.51100000000E-03 0.  1.
    9900012    2    1    2    0    0 -0.35051329635E+01 -0.12758829388E+02  0.13251458047E+02  0.72461686299E+02  0.70000151117E+02 0.  0.
        -12    1    1    2    0    0  0.35051329635E+01  0.12758829388E+02 -0.13251458047E+02  0.18726313701E+02  0.00000000000E+00 0.  1.
         11    1    3    3    0    0  0.13350687098E+02 -0.23802804789E+02  0.25175118641E+02  0.37129516031E+02  0.51100000000E-03 0. -1.
        -11    1    3    3    0    0 -0.16209490709E+02 -0.42684663723E+01 -0.10852770258E+02  0.19968725967E+02  0.51100000000E-03 0.  1.
         12    1    3    3    0    0 -0.64632935342E+00  0.15312441773E+02 -0.10708903356E+01  0.15363444301E+02  0.00000000000E+00 0. -1.
</event>
<event>
 7    1  0.1857734E-013  0.7246159E+02  0.7816164E-02  0.1226708E+00
        -11   -1    0    0    0    0  0.00000000000E+00  0.00000000000E+00  0.45593999997E+02  0.45594000000E+02  0.51100000000E-03 0.  1.
         11   -1    0    0    0    0 -0.00000000000E+00 -0.00000000000E+00 -0.45593999997E+02  0.45594000000E+02  0.51100000000E-03 0. -1.
    9900012    2    1    2    0    0  0.50644664473E+01 -0.72663531598E+01 -0.16499389958E+02  0.72461586098E+02  0.70000020587E+02 0.  0.
        -12    1    1    2    0    0 -0.50644664473E+01  0.72663531598E+01  0.16499389958E+02  0.18726413902E+02  0.00000000000E+00 0.  1.
         11    1    3    3    0    0 -0.12045845126E+02 -0.55539422263E+01 -0.19903040772E+02  0.23918187458E+02  0.51100000000E-03 0. -1.
        -11    1    3    3    0    0  0.23552415718E+02  0.16720630359E+02  0.14701033129E+01  0.28921565825E+02  0.51100000000E-03 0.  1.
        -12    1    3    3    0    0 -0.64421041444E+01 -0.18433041292E+02  0.19335475004E+01  0.19621832815E+02  0.00000000000E+00 0.  1.
</event>
<event>
 7    1  0.1857734E-013  0.7246161E+02  0.7816164E-02  0.1226708E+00
        -11   -1    0    0    0    0  0.00000000000E+00  0.00000000000E+00  0.45593999997E+02  0.45594000000E+02  0.51100000000E-03 0. -1.
         11   -1    0    0    0    0 -0.00000000000E+00 -0.00000000000E+00 -0.45593999997E+02  0.45594000000E+02  0.51100000000E-03 0.  1.
    9900012    2    1    2    0    0 -0.11307328727E+02  0.10538310884E+02 -0.10571947891E+02  0.72461607890E+02  0.70000048975E+02 0.  0.
        -12    1    1    2    0    0  0.11307328727E+02 -0.10538310884E+02  0.10571947891E+02  0.18726392110E+02  0.00000000000E+00 0.  1.
         11    1    3    3    0    0  0.74658942684E+01  0.30024790962E+02  0.12101184606E+02  0.33221473758E+02  0.51100000000E-03 0. -1.
        -11    1    3    3    0    0 -0.46621107843E+01 -0.11342574847E+02 -0.18877857956E+02  0.22511392724E+02  0.51100000000E-03 0.  1.
         12    1    3    3    0    0 -0.14111112211E+02 -0.81439052302E+01 -0.37952745416E+01  0.16728741407E+02  0.00000000000E+00 0. -1.
</event>
<event>
 7    1  0.1857734E-013  0.7246158E+02  0.7816164E-02  0.1226708E+00
        -11   -1    0    0    0    0  0.00000000000E+00  0.00000000000E+00  0.45593999997E+02  0.45594000000E+02  0.51100000000E-03 0.  1.
         11   -1    0    0    0    0 -0.00000000000E+00 -0.00000000000E+00 -0.45593999997E+02  0.45594000000E+02  0.51100000000E-03 0. -1.
    9900012    2    1    2    0    0 -0.14041084319E+02 -0.13488857707E+00 -0.12389864131E+02  0.72461575436E+02  0.70000006698E+02 0.  0.
        -12    1    1    2    0    0  0.14041084319E+02  0.13488857707E+00  0.12389864131E+02  0.18726424564E+02  0.00000000000E+00 0.  1.
         11    1    3    3    0    0 -0.13953497850E+02  0.17962939785E+02 -0.45332174175E+01  0.23193045690E+02  0.51100000000E-03 0.  1.
        -11    1    3    3    0    0  0.73890075057E+01 -0.22125888589E+02 -0.22455572486E+02  0.32379084510E+02  0.51100000000E-03 0. -1.
         12    1    3    3    0    0 -0.74765939746E+01  0.40280602260E+01  0.14598925773E+02  0.16889445236E+02  0.00000000000E+00 0. -1.
</event>
<event>
 7    1  0.1857734E-013  0.7246160E+02  0.7816164E-02  0.1226708E+00
        -11   -1    0    0    0    0  0.00000000000E+00  0.00000000000E+00  0.45593999997E+02  0.45594000000E+02  0.51100000000E-03 0.  1.
         11   -1    0    0    0    0 -0.00000000000E+00 -0.00000000000E+00 -0.45593999997E+02  0.45594000000E+02  0.51100000000E-03 0. -1.
    9900012    2    1    2    0    0 -0.12392222083E+02 -0.35569535215E+01 -0.13581569510E+02  0.72461598400E+02  0.70000036613E+02 0.  0.
        -12    1    1    2    0    0  0.12392222083E+02  0.35569535215E+01  0.13581569510E+02  0.18726401600E+02  0.00000000000E+00 0.  1.
         11    1    3    3    0    0  0.55959798407E+01  0.74110240490E+01 -0.30193957807E+02  0.31589766637E+02  0.51100000000E-03 0. -1.
        -11    1    3    3    0    0 -0.22117636378E+02 -0.27071335087E+01  0.48584381289E+00  0.22287989036E+02  0.51100000000E-03 0.  1.
        -12    1    3    3    0    0  0.41294344546E+01 -0.82608440618E+01  0.16126544484E+02  0.18583842727E+02  0.00000000000E+00 0.  1.
</event>
<event>
 7    1  0.1857734E-013  0.7246142E+02  0.7816164E-02  0.1226708E+00
        -11   -1    0    0    0    0  0.00000000000E+00  0.00000000000E+00  0.45593999997E+02  0.45594000000E+02  0.51100000000E-03 0. -1.
         11   -1    0    0    0    0 -0.00000000000E+00 -0.00000000000E+00 -0.45593999997E+02  0.45594000000E+02  0.51100000000E-03 0.  1.
    9900012    2    1    2    0    0  0.12459322466E+02  0.54100387091E+01  0.12891144455E+02  0.72461418878E+02  0.69999802752E+02 0.  0.
        -12    1    1    2    0    0 -0.12459322466E+02 -0.54100387091E+01 -0.12891144455E+02  0.18726581122E+02  0.00000000000E+00 0.  1.
         11    1    3    3    0    0  0.28449976721E+01 -0.19047241910E+01  0.13764630626E+02  0.14184041827E+02  0.51100000000E-03 0. -1.
        -11    1    3    3    0    0  0.33022303592E+02  0.21931560037E+01 -0.63476720285E+01  0.33698299782E+02  0.51100000000E-03 0.  1.
        -12    1    3    3    0    0 -0.23407978798E+02  0.51216068963E+01  0.54741858574E+01  0.24579077269E+02  0.00000000000E+00 0.  1.
</event>
<event>
 7    1  0.1857734E-013  0.7246157E+02  0.7816164E-02  0.1226708E+00
        -11   -1    0    0    0    0  0.00000000000E+00  0.00000000000E+00  0.45593999997E+02  0.45594000000E+02  0.51100000000E-03 0.  1.
         11   -1    0    0    0    0 -0.00000000000E+00 -0.00000000000E+00 -0.45593999997E+02  0.45594000000E+02  0.51100000000E-03 0. -1.
    9900012    2    1    2    0    0 -0.69638999712E+00 -0.14304780464E+02 -0.12065127121E+02  0.72461574938E+02  0.70000006049E+02 0.  0.
        -12    1    1    2    0    0  0.69638999712E+00  0.14304780464E+02  0.12065127121E+02  0.18726425062E+02  0.00000000000E+00 0.  1.
         11    1    3    3    0    0  0.21027436280E+02 -0.15322897704E+02  0.85573431451E+01  0.27389275137E+02  0.51100000000E-03 0. -1.
        -11    1    3    3    0    0 -0.19537737569E+02  0.14981689931E+02 -0.73767060119E+01  0.25701945731E+02  0.51100000000E-03 0.  1.
         12    1    3    3    0    0 -0.21860887077E+01 -0.13963572691E+02 -0.13245764255E+02  0.19370354071E+02  0.00000000000E+00 0. -1.
</event>
<event>
 7    1  0.1857734E-013  0.7246154E+02  0.7816164E-02  0.1226708E+00
        -11   -1    0    0    0    0  0.00000000000E+00  0.00000000000E+00  0.45593999997E+02  0.45594000000E+02  0.51100000000E-03 0.  1.
         11   -1    0    0    0    0 -0.00000000000E+00 -0.00000000000E+00 -0.45593999997E+02  0.45594000000E+02  0.51100000000E-03 0. -1.
    9900012    2    1    2    0    0 -0.11181447383E+02 -0.77648367789E+01  0.12859348490E+02  0.72461540127E+02  0.69999960702E+02 0.  0.
        -12    1    1    2    0    0  0.11181447383E+02  0.77648367789E+01 -0.12859348490E+02  0.18726459873E+02  0.00000000000E+00 0.  1.
         11    1    3    3    0    0  0.25501410313E+01  0.25864385183E+02  0.75645856400E+01  0.27068295039E+02  0.51100000000E-03 0. -1.
        -11    1    3    3    0    0 -0.11020205551E+02 -0.94134177499E+01  0.13374566885E+02  0.19721470629E+02  0.51100000000E-03 0.  1.
         12    1    3    3    0    0 -0.27113828629E+01 -0.24215804212E+02 -0.80798040352E+01  0.25671774459E+02  0.00000000000E+00 0. -1.
</event>
<event>
 7    1  0.1857734E-013  0.7246136E+02  0.7816164E-02  0.1226709E+00
        -11   -1    0    0    0    0  0.00000000000E+00  0.00000000000E+00  0.45593999997E+02  0.45594000000E+02  0.51100000000E-03 0.  1.
         11   -1    0    0    0    0 -0.00000000000E+00 -0.00000000000E+00 -0.45593999997E+02  0.45594000000E+02  0.51100000000E-03 0. -1.
    9900012    2    1    2    0    0  0.14016063343E+02  0.77816090702E+01  0.96790308609E+01  0.72461358289E+02  0.69999723824E+02 0.  0.
        -12    1    1    2    0    0 -0.14016063343E+02 -0.77816090702E+01 -0.96790308609E+01  0.18726641711E+02  0.00000000000E+00 0.  1.
         11    1    3    3    0    0  0.13472986978E+02  0.46250595428E+01 -0.13469480327E+02  0.19604577385E+02  0.51100000000E-03 0. -1.
        -11    1    3    3    0    0 -0.13149837251E+02 -0.11768024684E+02  0.26984546556E+02  0.32242369295E+02  0.51100000000E-03 0.  1.
        -12    1    3    3    0    0  0.13692913615E+02  0.14924574211E+02 -0.38360353674E+01  0.20614411610E+02  0.00000000000E+00 0.  1.
</event>
<event>
 7    1  0.1857734E-013  0.7246156E+02  0.7816164E-02  0.1226708E+00
        -11   -1    0    0    0    0  0.00000000000E+00  0.00000000000E+00  0.45593999997E+02  0.45594000000E+02  0.51100000000E-03 0. -1.
         11   -1    0    0    0    0 -0.00000000000E+00 -0.00000000000E+00 -0.45593999997E+02  0.45594000000E+02  0.51100000000E-03 0.  1.
    9900012    2    1    2    0    0  0.11305336237E+01  0.17100972387E+02  0.75470594219E+01  0.72461562304E+02  0.69999989592E+02 0.  0.
        -12    1    1    2    0    0 -0.11305336237E+01 -0.17100972387E+02 -0.75470594219E+01  0.18726437696E+02  0.00000000000E+00 0.  1.
         11    1    3    3    0    0 -0.43887047147E+01 -0.25542411624E+01  0.63810862308E+01  0.81549456610E+01  0.51100000000E-03 0. -1.
        -11    1    3    3    0    0 -0.20761232139E+02  0.28143845884E+02  0.79566944440E+01  0.35866611324E+02  0.51100000000E-03 0.  1.
        -12    1    3    3    0    0  0.26280470478E+02 -0.84886323349E+01 -0.67907212529E+01  0.28440005320E+02  0.00000000000E+00 0.  1.
</event>
<event>
 7    1  0.1857734E-013  0.7246156E+02  0.7816164E-02  0.1226708E+00
        -11   -1    0    0    0    0  0.00000000000E+00  0.00000000000E+00  0.45593999997E+02  0.45594000000E+02  0.51100000000E-03 0.  1.
         11   -1    0    0    0    0 -0.00000000000E+00 -0.00000000000E+00 -0.45593999997E+02  0.45594000000E+02  0.51100000000E-03 0. -1.
    9900012    2    1    2    0    0 -0.18651985024E+02 -0.17794669960E+00 -0.16587410498E+01  0.72461557940E+02  0.69999983906E+02 0.  0.
        -12    1    1    2    0    0  0.18651985024E+02  0.17794669960E+00  0.16587410498E+01  0.18726442060E+02  0.00000000000E+00 0.  1.
         11    1    3    3    0    0 -0.19662427077E+02  0.24408422856E+02 -0.17665198962E+02  0.35978346259E+02  0.51100000000E-03 0. -1.
        -11    1    3    3    0    0 -0.95260407473E+01 -0.91762732513E+01  0.25486679797E+01  0.13470157825E+02  0.51100000000E-03 0.  1.
         12    1    3    3    0    0  0.10536482801E+02 -0.15410096304E+02  0.13457789932E+02  0.23013053856E+02  0.00000000000E+00 0. -1.
</event>
<event>
 7    1  0.1857734E-013  0.7246152E+02  0.7816164E-02  0.1226708E+00
        -11   -1    0    0    0    0  0.00000000000E+00  0.00000000000E+00  0.45593999997E+02  0.45594000000E+02  0.51100000000E-03 0.  1.
         11   -1    0    0    0    0 -0.00000000000E+00 -0.00000000000E+00 -0.45593999997E+02  0.45594000000E+02  0.51100000000E-03 0. -1.
    9900012    2    1    2    0    0 -0.16921349040E+02  0.87406892958E+00  0.79740262801E+01  0.72461517550E+02  0.69999931290E+02 0.  0.
        -12    1    1    2    0    0  0.16921349040E+02 -0.87406892958E+00 -0.79740262801E+01  0.18726482450E+02  0.00000000000E+00 0.  1.
         11    1    3    3    0    0 -0.28011342884E+02 -0.22998400699E+02  0.55872405137E+01  0.36671228799E+02  0.51100000000E-03 0. -1.
        -11    1    3    3    0    0  0.48595403422E+01  0.58912422152E+01 -0.10371058195E+02  0.12879468759E+02  0.51100000000E-03 0.  1.
         12    1    3    3    0    0  0.62304535008E+01  0.17981227413E+02  0.12757843962E+02  0.22910819991E+02  0.00000000000E+00 0. -1.
</event>
<event>
 7    1  0.1857734E-013  0.7246162E+02  0.7816164E-02  0.1226708E+00
        -11   -1    0    0    0    0  0.00000000000E+00  0.00000000000E+00  0.45593999997E+02  0.45594000000E+02  0.51100000000E-03 0.  1.
         11   -1    0    0    0    0 -0.00000000000E+00 -0.00000000000E+00 -0.45593999997E+02  0.45594000000E+02  0.51100000000E-03 0. -1.
    9900012    2    1    2    0    0  0.69123579718E+01  0.17592317735E+01 -0.17314783930E+02  0.72461619365E+02  0.70000063923E+02 0.  0.
        -12    1    1    2    0    0 -0.69123579718E+01 -0.17592317735E+01  0.17314783930E+02  0.18726380635E+02  0.00000000000E+00 0.  1.
         11    1    3    3    0    0  0.10601427019E+02 -0.15711715915E+02 -0.35114230665E+02  0.39903100974E+02  0.51100000000E-03 0. -1.
        -11    1    3    3    0    0 -0.69070434062E+01  0.78495439294E+01 -0.16853681237E+01  0.10590706043E+02  0.51100000000E-03 0.  1.
         12    1    3    3    0    0  0.32179743590E+01  0.96214037587E+01  0.19484814859E+02  0.21967812348E+02  0.00000000000E+00 0. -1.
</event>
<event>
 7    1  0.1857734E-013  0.7246158E+02  0.7816164E-02  0.1226708E+00
        -11   -1    0    0    0    0  0.00000000000E+00  0.00000000000E+00  0.45593999997E+02  0.45594000000E+02  0.51100000000E-03 0.  1.
         11   -1    0    0    0    0 -0.00000000000E+00 -0.00000000000E+00 -0.45593999997E+02  0.45594000000E+02  0.51100000000E-03 0. -1.
    9900012    2    1    2    0    0 -0.51701189315E+01 -0.61212927225E+01 -0.16925674266E+02  0.72461580061E+02  0.70000012723E+02 0.  0.
        -12    1    1    2    0    0  0.51701189315E+01  0.61212927225E+01  0.16925674266E+02  0.18726419939E+02  0.00000000000E+00 0.  1.
         11    1    3    3    0    0 -0.34091375547E+02 -0.10719639193E+02 -0.64557536689E+01  0.36315414177E+02  0.51100000000E-03 0.  1.
        -11    1    3    3    0    0  0.28592696484E+02  0.33075233410E+01 -0.34365589354E+01  0.28987789506E+02  0.51100000000E-03 0. -1.
        -12    1    3    3    0    0  0.32856013211E+00  0.12908231291E+01 -0.70333616619E+01  0.71583763786E+01  0.00000000000E+00 0.  1.
</event>
<event>
 7    1  0.1857734E-013  0.7246158E+02  0.7816164E-02  0.1226708E+00
        -11   -1    0    0    0    0  0.00000000000E+00  0.00000000000E+00  0.45593999997E+02  0.45594000000E+02  0.51100000000E-03 0. -1.
         11   -1    0    0    0    0 -0.00000000000E+00 -0.00000000000E+00 -0.45593999997E+02  0.45594000000E+02  0.51100000000E-03 0.  1.
    9900012    2    1    2    0    0  0.18222661464E+02  0.19675770751E+01  0.38395165772E+01  0.72461584488E+02  0.70000018490E+02 0.  0.
        -12    1    1    2    0    0 -0.18222661464E+02 -0.19675770751E+01 -0.38395165772E+01  0.18726415512E+02  0.00000000000E+00 0.  1.
         11    1    3    3    0    0  0.25918345756E+01 -0.11523727932E+02  0.23902699698E+02  0.26661825988E+02  0.51100000000E-03 0. -1.
        -11    1    3    3    0    0  0.16570273893E+02 -0.88616550965E+01 -0.96003565877E+01  0.21101415943E+02  0.51100000000E-03 0.  1.
         12    1    3    3    0    0 -0.93944700458E+00  0.22352960103E+02 -0.10462826533E+02  0.24698342558E+02  0.00000000000E+00 0. -1.
</event>
<event>
 7    1  0.1857734E-013  0.7246157E+02  0.7816164E-02  0.1226708E+00
        -11   -1    0    0    0    0  0.00000000000E+00  0.00000000000E+00  0.45593999997E+02  0.45594000000E+02  0.51100000000E-03 0.  1.
         11   -1    0    0    0    0 -0.00000000000E+00 -0.00000000000E+00 -0.45593999997E+02  0.45594000000E+02  0.51100000000E-03 0. -1.
    9900012    2    1    2    0    0 -0.41167068247E+01 -0.48001664924E+01 -0.17626410264E+02  0.72461569154E+02  0.69999998515E+02 0.  0.
        -12    1    1    2    0    0  0.41167068247E+01  0.48001664924E+01  0.17626410264E+02  0.18726430846E+02  0.00000000000E+00 0.  1.
         11    1    3    3    0    0 -0.13932314121E+02  0.25189796911E+01 -0.23247119770E+02  0.27219169960E+02  0.51100000000E-03 0. -1.
        -11    1    3    3    0    0  0.10315886598E+02  0.10378352526E+02  0.18325492111E+02  0.23451042169E+02  0.51100000000E-03 0.  1.
        -12    1    3    3    0    0 -0.50027930151E+00 -0.17697498709E+02 -0.12704782605E+02  0.21791357025E+02  0.00000000000E+00 0.  1.
</event>
<event>
 7    1  0.1857734E-013  0.7246158E+02  0.7816164E-02  0.1226708E+00
        -11   -1    0    0    0    0  0.00000000000E+00  0.00000000000E+00  0.45593999997E+02  0.45594000000E+02  0.51100000000E-03 0. -1.
         11   -1    0    0    0    0 -0.00000000000E+00 -0.00000000000E+00 -0.45593999997E+02  0.45594000000E+02  0.51100000000E-03 0.  1.
    9900012    2    1    2    0    0  0.16452774256E+02 -0.77801368312E+01 -0.44107172455E+01  0.72461581857E+02  0.70000015063E+02 0.  0.
        -12    1    1    2    0    0 -0.16452774256E+02  0.77801368312E+01  0.44107172455E+01  0.18726418143E+02  0.00000000000E+00 0.  1.
         11    1    3    3    0    0 -0.22878254232E+02 -0.63950316500E+01  0.61080841369E+01  0.24527935881E+02  0.51100000000E-03 0. -1.
        -11    1    3    3    0    0  0.15528510777E+02 -0.13003802662E+02 -0.53223933622E+01  0.20941857654E+02  0.51100000000E-03 0.  1.
         12    1    3    3    0    0  0.23802517711E+02  0.11618697481E+02 -0.51964080202E+01  0.26991788322E+02  0.00000000000E+00 0. -1.
</event>
<event>
 7    1  0.1857734E-013  0.7246157E+02  0.7816164E-02  0.1226708E+00
        -11   -1    0    0    0    0  0.00000000000E+00  0.00000000000E+00  0.45593999997E+02  0.45594000000E+02  0.51100000000E-03 0.  1.
         11   -1    0    0    0    0 -0.00000000000E+00 -0.00000000000E+00 -0.45593999997E+02  0.45594000000E+02  0.51100000000E-03 0. -1.
    9900012    2    1    2    0    0 -0.62350104794E+01 -0.81717717512E+01 -0.15653310914E+02  0.72461565428E+02  0.69999993660E+02 0.  0.
        -12    1    1    2    0    0  0.62350104794E+01  0.81717717512E+01  0.15653310914E+02  0.18726434572E+02  0.00000000000E+00 0.  1.
         11    1    3    3    0    0  0.17959230140E+02 -0.83236357148E+01 -0.13100918725E+02  0.23737121359E+02  0.51100000000E-03 0. -1.
        -11    1    3    3    0    0 -0.35590840603E+02 -0.47264164895E+01 -0.44690561177E+01  0.36180373278E+02  0.51100000000E-03 0.  1.
         12    1    3    3    0    0  0.11396599984E+02  0.48782804530E+01  0.19166639293E+01  0.12544070790E+02  0.00000000000E+00 0. -1.
</event>
<event>
 7    1  0.1857734E-013  0.7246163E+02  0.7816164E-02  0.1226708E+00
        -11   -1    0    0    0    0  0.00000000000E+00  0.00000000000E+00  0.45593999997E+02  0.45594000000E+02  0.51100000000E-03 0. -1.
         11   -1    0    0    0    0 -0.00000000000E+00 -0.00000000000E+00 -0.45593999997E+02  0.45594000000E+02  0.51100000000E-03 0.  1.
    9900012    2    1    2    0    0  0.17659021234E+02  0.35761663978E+01  0.51036150918E+01  0.72461631317E+02  0.70000079493E+02 0.  0.
        -12    1    1    2    0    0 -0.17659021234E+02 -0.35761663978E+01 -0.51036150918E+01  0.18726368683E+02  0.00000000000E+00 0.  1.
         11    1    3    3    0    0  0.35154374133E+01 -0.11850201691E+02  0.24039043347E+02  0.27030745192E+02  0.51100000000E-03 0. -1.
        -11    1    3    3    0    0  0.18714903458E+02  0.10031949123E+01 -0.23091625186E+02  0.29740160818E+02  0.51100000000E-03 0.  1.
        -12    1    3    3    0    0 -0.45713196374E+01  0.14423173177E+02  0.41561969311E+01  0.15690725307E+02  0.00000000000E+00 0.  1.
</event>
<event>
 7    1  0.1887238E-013  0.7246153E+02  0.7816164E-02  0.1226708E+00
        -11   -1    0    0    0    0  0.00000000000E+00  0.00000000000E+00  0.45593999997E+02  0.45594000000E+02  0.51100000000E-03 0.  1.
         11   -1    0    0    0    0 -0.00000000000E+00 -0.00000000000E+00 -0.45593999997E+02  0.45594000000E+02  0.51100000000E-03 0. -1.
    9900012    2    1    2    0    0  0.12800305318E+02 -0.55223095767E+01  0.12503478090E+02  0.72461529867E+02  0.69999947336E+02 0.  0.
        -12    1    1    2    0    0 -0.12800305318E+02  0.55223095767E+01 -0.12503478090E+02  0.18726470133E+02  0.00000000000E+00 0.  1.
         11    1    3    3    0    0  0.18108451301E+02 -0.88023210860E+01  0.20702904289E+02  0.28879181278E+02  0.51100000000E-03 0. -1.
        -11    1    3    3    0    0 -0.45327184896E+01 -0.11137428709E+02 -0.21057342916E+02  0.24248701946E+02  0.51100000000E-03 0.  1.
         12    1    3    3    0    0 -0.77542749311E+00  0.14417440218E+02  0.12857916717E+02  0.19333646643E+02  0.00000000000E+00 0. -1.
</event>
<event>
 7    1  0.1857734E-013  0.7246159E+02  0.7816164E-02  0.1226708E+00
        -11   -1    0    0    0    0  0.00000000000E+00  0.00000000000E+00  0.45593999997E+02  0.45594000000E+02  0.51100000000E-03 0.  1.
         11   -1    0    0    0    0 -0.00000000000E+00 -0.00000000000E+00 -0.45593999997E+02  0.45594000000E+02  0.51100000000E-03 0. -1.
    9900012    2    1    2    0    0 -0.91320780504E+01  0.14775124011E+02 -0.69985100569E+01  0.72461593989E+02  0.70000030867E+02 0.  0.
        -12    1    1    2    0    0  0.91320780504E+01 -0.14775124011E+02  0.69985100569E+01  0.18726406011E+02  0.00000000000E+00 0.  1.
         11    1    3    3    0    0 -0.30079613366E+02 -0.21215785984E+01  0.17100831773E+02  0.34665872029E+02  0.51100000000E-03 0. -1.
        -11    1    3    3    0    0  0.12208560078E+01  0.61905347378E+01 -0.29839933374E+01  0.69797869760E+01  0.51100000000E-03 0.  1.
         12    1    3    3    0    0  0.19726679308E+02  0.10706167872E+02 -0.21115348492E+02  0.30815934984E+02  0.00000000000E+00 0. -1.
</event>
<event>
 7    1  0.1857734E-013  0.7246160E+02  0.7816164E-02  0.1226708E+00
        -11   -1    0    0    0    0  0.00000000000E+00  0.00000000000E+00  0.45593999997E+02  0.45594000000E+02  0.51100000000E-03 0. -1.
         11   -1    0    0    0    0 -0.00000000000E+00 -0.00000000000E+00 -0.45593999997E+02  0.45594000000E+02  0.51100000000E-03 0.  1.
    9900012    2    1    2    0    0 -0.88689869753E+01 -0.13264464597E+02  0.98016851877E+01  0.72461601961E+02  0.70000041251E+02 0.  0.
        -12    1    1    2    0    0  0.88689869753E+01  0.13264464597E+02 -0.98016851877E+01  0.18726398039E+02  0.00000000000E+00 0.  1.
         11    1    3    3    0    0  0.28356601349E+02  0.34530725322E+01 -0.10073795875E+01  0.28583830462E+02  0.51100000000E-03 0.  1.
        -11    1    3    3    0    0 -0.21337958101E+02 -0.13493734878E+02  0.11297414409E+02  0.27659011361E+02  0.51100000000E-03 0. -1.
        -12    1    3    3    0    0 -0.15887630223E+02 -0.32238022514E+01 -0.48834963342E+00  0.16218760138E+02  0.00000000000E+00 0.  1.
</event>
<event>
 7    1  0.1857734E-013  0.7246156E+02  0.7816164E-02  0.1226708E+00
        -11   -1    0    0    0    0  0.00000000000E+00  0.00000000000E+00  0.45593999997E+02  0.45594000000E+02  0.51100000000E-03 0.  1.
         11   -1    0    0    0    0 -0.00000000000E+00 -0.00000000000E+00 -0.45593999997E+02  0.45594000000E+02  0.51100000000E-03 0. -1.
    9900012    2    1    2    0    0  0.89712806370E+01 -0.96544828281E+01 -0.13303633279E+02  0.72461559512E+02  0.69999985953E+02 0.  0.
        -12    1    1    2    0    0 -0.89712806370E+01  0.96544828281E+01  0.13303633279E+02  0.18726440488E+02  0.00000000000E+00 0.  1.
         11    1    3    3    0    0  0.11297624879E+01 -0.16636177222E+02 -0.21233054629E+02  0.26997802965E+02  0.51100000000E-03 0. -1.
        -11    1    3    3    0    0 -0.15871996457E+02 -0.46795949514E+01  0.93382088601E+01  0.19000553293E+02  0.51100000000E-03 0.  1.
         12    1    3    3    0    0  0.23713514606E+02  0.11661289345E+02 -0.14087875105E+01  0.26463203253E+02  0.00000000000E+00 0. -1.
</event>
<event>
 7    1  0.1857734E-013  0.7246159E+02  0.7816164E-02  0.1226708E+00
        -11   -1    0    0    0    0  0.00000000000E+00  0.00000000000E+00  0.45593999997E+02  0.45594000000E+02  0.51100000000E-03 0.  1.
         11   -1    0    0    0    0 -0.00000000000E+00 -0.00000000000E+00 -0.45593999997E+02  0.45594000000E+02  0.51100000000E-03 0. -1.
    9900012    2    1    2    0    0 -0.36280881228E+01 -0.18183020500E+02 -0.26254939198E+01  0.72461588805E+02  0.70000024114E+02 0.  0.
        -12    1    1    2    0    0  0.36280881228E+01  0.18183020500E+02  0.26254939198E+01  0.18726411195E+02  0.00000000000E+00 0.  1.
         11    1    3    3    0    0  0.23238420310E+02 -0.41149961704E+01 -0.12856402383E+02  0.26874606127E+02  0.51100000000E-03 0. -1.
        -11    1    3    3    0    0 -0.14449066951E+02 -0.94784712466E+01  0.21929744001E+02  0.27920075665E+02  0.51100000000E-03 0.  1.
        -12    1    3    3    0    0 -0.12417441482E+02 -0.45895530827E+01 -0.11698835538E+02  0.17666907013E+02  0.00000000000E+00 0.  1.
</event>
<event>
 7    1  0.1857734E-013  0.7246157E+02  0.7816164E-02  0.1226708E+00
        -11   -1    0    0    0    0  0.00000000000E+00  0.00000000000E+00  0.45593999997E+02  0.45594000000E+02  0.51100000000E-03 0. -1.
         11   -1    0    0    0    0 -0.00000000000E+00 -0.00000000000E+00 -0.45593999997E+02  0.45594000000E+02  0.51100000000E-03 0.  1.
    9900012    2    1    2    0    0 -0.51371455411E+00  0.18671435039E+02  0.13389801766E+01  0.72461567960E+02  0.69999996959E+02 0.  0.
        -12    1    1    2    0    0  0.51371455411E+00 -0.18671435039E+02 -0.13389801766E+01  0.18726432040E+02  0.00000000000E+00 0.  1.
         11    1    3    3    0    0  0.15514084192E+01  0.24638949887E+02  0.15942236049E+02  0.29387745918E+02  0.51100000000E-03 0. -1.
        -11    1    3    3    0    0  0.14244943789E+02 -0.15676935805E+02 -0.10552091963E+02  0.23664982249E+02  0.51100000000E-03 0.  1.
        -12    1    3    3    0    0 -0.16310066762E+02  0.97094209566E+01 -0.40511639099E+01  0.19408839793E+02  0.00000000000E+00 0.  1.
</event>
<event>
 7    1  0.1857734E-013  0.7246154E+02  0.7816164E-02  0.1226708E+00
        -11   -1    0    0    0    0  0.00000000000E+00  0.00000000000E+00  0.45593999997E+02  0.45594000000E+02  0.51100000000E-03 0.  1.
         11   -1    0    0    0    0 -0.00000000000E+00 -0.00000000000E+00 -0.45593999997E+02  0.45594000000E+02  0.51100000000E-03 0. -1.
    9900012    2    1    2    0    0 -0.20578241984E+01 -0.17969878107E+02  0.48506726351E+01  0.72461543191E+02  0.69999964693E+02 0.  0.
        -12    1    1    2    0    0  0.20578241984E+01  0.17969878107E+02 -0.48506726351E+01  0.18726456809E+02  0.00000000000E+00 0.  1.
         11    1    3    3    0    0  0.19332430119E+02 -0.33427546316E+02  0.17342273087E+02  0.42330817888E+02  0.51100000000E-03 0. -1.
        -11    1    3    3    0    0 -0.10373250431E+02  0.32619987819E+01 -0.36622233664E+01  0.11474181487E+02  0.51100000000E-03 0.  1.
         12    1    3    3    0    0 -0.11017003886E+02  0.12195669428E+02 -0.88293770853E+01  0.18656543816E+02  0.00000000000E+00 0. -1.
</event>
<event>
 7    1  0.1857734E-013  0.7246118E+02  0.7816164E-02  0.1226709E+00
        -11   -1    0    0    0    0  0.00000000000E+00  0.00000000000E+00  0.45593999997E+02  0.45594000000E+02  0.51100000000E-03 0. -1.
         11   -1    0    0    0    0 -0.00000000000E+00 -0.00000000000E+00 -0.45593999997E+02  0.45594000000E+02  0.51100000000E-03 0.  1.
    9900012    2    1    2    0    0 -0.85439019550E+00  0.16202735807E+02  0.93506813250E+01  0.72461177753E+02  0.69999488640E+02 0.  0.
        -12    1    1    2    0    0  0.85439019550E+00 -0.16202735807E+02 -0.93506813250E+01  0.18726822247E+02  0.00000000000E+00 0.  1.
         11    1    3    3    0    0 -0.81025850374E+01  0.40386314534E+02  0.30359330997E+00  0.41192213525E+02  0.51100000000E-03 0. -1.
        -11    1    3    3    0    0 -0.33423638609E+01 -0.93754925430E+01  0.84453428763E+01  0.13053546383E+02  0.51100000000E-03 0.  1.
         12    1    3    3    0    0  0.10590558703E+02 -0.14808086184E+02  0.60174513878E+00  0.18215417846E+02  0.00000000000E+00 0. -1.
</event>
<event>
 7    1  0.1857734E-013  0.7246157E+02  0.7816164E-02  0.1226708E+00
        -11   -1    0    0    0    0  0.00000000000E+00  0.00000000000E+00  0.45593999997E+02  0.45594000000E+02  0.51100000000E-03 0. -1.
         11   -1    0    0    0    0 -0.00000000000E+00 -0.00000000000E+00 -0.45593999997E+02  0.45594000000E+02  0.51100000000E-03 0.  1.
    9900012    2    1    2    0    0  0.12904934306E+02 -0.13100438607E+02 -0.35384138531E+01  0.72461569648E+02  0.69999999158E+02 0.  0.
        -12    1    1    2    0    0 -0.12904934306E+02  0.13100438607E+02  0.35384138531E+01  0.18726430352E+02  0.00000000000E+00 0.  1.
         11    1    3    3    0    0  0.32284854322E+02 -0.12440773493E+02 -0.60838304636E+01  0.35129726117E+02  0.51100000000E-03 0. -1.
        -11    1    3    3    0    0 -0.23477106295E+02 -0.94629775084E+01 -0.39931328959E+01  0.25625525827E+02  0.51100000000E-03 0.  1.
        -12    1    3    3    0    0  0.40971862794E+01  0.88033123946E+01  0.65385495064E+01  0.11706317703E+02  0.00000000000E+00 0.  1.
</event>
<event>
 7    1  0.1857734E-013  0.7246168E+02  0.7816164E-02  0.1226708E+00
        -11   -1    0    0    0    0  0.00000000000E+00  0.00000000000E+00  0.45593999997E+02  0.45594000000E+02  0.51100000000E-03 0. -1.
         11   -1    0    0    0    0 -0.00000000000E+00 -0.00000000000E+00 -0.45593999997E+02  0.45594000000E+02  0.51100000000E-03 0.  1.
    9900012    2    1    2    0    0 -0.54767674295E+01  0.79863342355E+01  0.16028058271E+02  0.72461677138E+02  0.70000139183E+02 0.  0.
        -12    1    1    2    0    0  0.54767674295E+01 -0.79863342355E+01 -0.16028058271E+02  0.18726322862E+02  0.00000000000E+00 0.  1.
         11    1    3    3    0    0 -0.12046730295E+02  0.11291196398E+01 -0.27193474434E+01  0.12401349634E+02  0.51100000000E-03 0. -1.
        -11    1    3    3    0    0  0.19291129407E+02 -0.14325298028E+02 -0.63372527135E+01  0.24850002205E+02  0.51100000000E-03 0.  1.
        -12    1    3    3    0    0 -0.12721166541E+02  0.21182512623E+02  0.25084658428E+02  0.35210325299E+02  0.00000000000E+00 0.  1.
</event>
<event>
 7    1  0.1857734E-013  0.7246151E+02  0.7816164E-02  0.1226708E+00
        -11   -1    0    0    0    0  0.00000000000E+00  0.00000000000E+00  0.45593999997E+02  0.45594000000E+02  0.51100000000E-03 0. -1.
         11   -1    0    0    0    0 -0.00000000000E+00 -0.00000000000E+00 -0.45593999997E+02  0.45594000000E+02  0.51100000000E-03 0.  1.
    9900012    2    1    2    0    0 -0.33418336696E+01  0.17114801850E+02  0.68262028712E+01  0.72461512335E+02  0.69999924497E+02 0.  0.
        -12    1    1    2    0    0  0.33418336696E+01 -0.17114801850E+02 -0.68262028712E+01  0.18726487665E+02  0.00000000000E+00 0.  1.
         11    1    3    3    0    0 -0.17022800923E+02  0.15015283479E+02  0.18020287043E+02  0.28982153726E+02  0.51100000000E-03 0. -1.
        -11    1    3    3    0    0 -0.86917832961E+01 -0.41573238561E+01 -0.16993862568E+02  0.19535142788E+02  0.51100000000E-03 0.  1.
         12    1    3    3    0    0  0.22372750550E+02  0.62568422267E+01  0.57997783960E+01  0.23944215821E+02  0.00000000000E+00 0. -1.
</event>
<event>
 7    1  0.1857734E-013  0.7246163E+02  0.7816164E-02  0.1226708E+00
        -11   -1    0    0    0    0  0.00000000000E+00  0.00000000000E+00  0.45593999997E+02  0.45594000000E+02  0.51100000000E-03 0.  1.
         11   -1    0    0    0    0 -0.00000000000E+00 -0.00000000000E+00 -0.45593999997E+02  0.45594000000E+02  0.51100000000E-03 0. -1.
    9900012    2    1    2    0    0 -0.97512568695E+01 -0.12347246426E+02 -0.10155567668E+02  0.72461626633E+02  0.70000073391E+02 0.  0.
        -12    1    1    2    0    0  0.97512568695E+01  0.12347246426E+02  0.10155567668E+02  0.18726373367E+02  0.00000000000E+00 0.  1.
         11    1    3    3    0    0 -0.11101186291E+02 -0.18484762396E+02 -0.25013674840E+02  0.33024335075E+02  0.51100000000E-03 0. -1.
        -11    1    3    3    0    0  0.10911604153E+02  0.15381644921E+02  0.17670190547E+02  0.25843640222E+02  0.51100000000E-03 0.  1.
        -12    1    3    3    0    0 -0.95616747316E+01 -0.92441289505E+01 -0.28120833761E+01  0.13593651336E+02  0.00000000000E+00 0.  1.
</event>
<event>
 7    1  0.1857734E-013  0.7246174E+02  0.7816164E-02  0.1226708E+00
        -11   -1    0    0    0    0  0.00000000000E+00  0.00000000000E+00  0.45593999997E+02  0.45594000000E+02  0.51100000000E-03 0. -1.
         11   -1    0    0    0    0 -0.00000000000E+00 -0.00000000000E+00 -0.45593999997E+02  0.45594000000E+02  0.51100000000E-03 0.  1.
    9900012    2    1    2    0    0 -0.16401154206E+02 -0.26106934073E+01  0.86521155398E+01  0.72461743495E+02  0.70000225626E+02 0.  0.
        -12    1    1    2    0    0  0.16401154206E+02  0.26106934073E+01 -0.86521155398E+01  0.18726256505E+02  0.00000000000E+00 0.  1.
         11    1    3    3    0    0 -0.36027125668E+02  0.81740685241E+01  0.94802272279E+00  0.36954944561E+02  0.51100000000E-03 0. -1.
        -11    1    3    3    0    0  0.94084486535E+01  0.84127909893E+01  0.62609633875E+00  0.12636690832E+02  0.51100000000E-03 0.  1.
         12    1    3    3    0    0  0.10217522808E+02 -0.19197552921E+02  0.70779964782E+01  0.22870108103E+02  0.00000000000E+00 0. -1.
</event>
<event>
 7    1  0.1857734E-013  0.7246157E+02  0.7816164E-02  0.1226708E+00
        -11   -1    0    0    0    0  0.00000000000E+00  0.00000000000E+00  0.45593999997E+02  0.45594000000E+02  0.51100000000E-03 0.  1.
         11   -1    0    0    0    0 -0.00000000000E+00 -0.00000000000E+00 -0.45593999997E+02  0.45594000000E+02  0.51100000000E-03 0. -1.
    9900012    2    1    2    0    0  0.16234391595E+02 -0.39040992304E+01 -0.84783068975E+01  0.72461570839E+02  0.70000000710E+02 0.  0.
        -12    1    1    2    0    0 -0.16234391595E+02  0.39040992304E+01  0.84783068975E+01  0.18726429161E+02  0.00000000000E+00 0.  1.
         11    1    3    3    0    0  0.17338531835E+01  0.12868798629E+01 -0.16555275761E+02  0.16695492279E+02  0.51100000000E-03 0. -1.
        -11    1    3    3    0    0 -0.50645286974E+01  0.20737866026E+02  0.92440428371E+01  0.23262864537E+02  0.51100000000E-03 0.  1.
        -12    1    3    3    0    0  0.19565067109E+02 -0.25928845119E+02 -0.11670739736E+01  0.32503214024E+02  0.00000000000E+00 0.  1.
</event>
<event>
 7    1  0.1857734E-013  0.7246157E+02  0.7816164E-02  0.1226708E+00
        -11   -1    0    0    0    0  0.00000000000E+00  0.00000000000E+00  0.45593999997E+02  0.45594000000E+02  0.51100000000E-03 0.  1.
         11   -1    0    0    0    0 -0.00000000000E+00 -0.00000000000E+00 -0.45593999997E+02  0.45594000000E+02  0.51100000000E-03 0. -1.
    9900012    2    1    2    0    0 -0.23781444122E+01 -0.16720748977E+02 -0.80895112142E+01  0.72461569244E+02  0.69999998631E+02 0.  0.
        -12    1    1    2    0    0  0.23781444122E+01  0.16720748977E+02  0.80895112142E+01  0.18726430756E+02  0.00000000000E+00 0.  1.
         11    1    3    3    0    0 -0.29871430374E+01 -0.23944409206E+01 -0.35898870392E+02  0.36102427433E+02  0.51100000000E-03 0. -1.
        -11    1    3    3    0    0 -0.67267837615E+01 -0.91067712992E+01  0.24090144850E+02  0.26618001097E+02  0.51100000000E-03 0.  1.
         12    1    3    3    0    0  0.73357823868E+01 -0.52195367569E+01  0.37192143282E+01  0.97411407136E+01  0.00000000000E+00 0. -1.
</event>
<event>
 7    1  0.1857734E-013  0.7246160E+02  0.7816164E-02  0.1226708E+00
        -11   -1    0    0    0    0  0.00000000000E+00  0.00000000000E+00  0.45593999997E+02  0.45594000000E+02  0.51100000000E-03 0.  1.
         11   -1    0    0    0    0 -0.00000000000E+00 -0.00000000000E+00 -0.45593999997E+02  0.45594000000E+02  0.51100000000E-03 0. -1.
    9900012    2    1    2    0    0 -0.51832257330E+01  0.82049024016E+01 -0.16015365506E+02  0.72461596589E+02  0.70000034254E+02 0.  0.
        -12    1    1    2    0    0  0.51832257330E+01 -0.82049024016E+01  0.16015365506E+02  0.18726403411E+02  0.00000000000E+00 0.  1.
         11    1    3    3    0    0  0.26667310761E+02  0.52997529024E+01 -0.23931997052E+02  0.36221172361E+02  0.51100000000E-03 0. -1.
        -11    1    3    3    0    0 -0.18134106817E+02  0.63397906876E+01  0.10460124279E+02  0.21873567981E+02  0.51100000000E-03 0.  1.
         12    1    3    3    0    0 -0.13716429676E+02 -0.34346411884E+01 -0.25434927328E+01  0.14366856248E+02  0.00000000000E+00 0. -1.
</event>
<event>
 7    1  0.1857734E-013  0.7246160E+02  0.7816164E-02  0.1226708E+00
        -11   -1    0    0    0    0  0.00000000000E+00  0.00000000000E+00  0.45593999997E+02  0.45594000000E+02  0.51100000000E-03 0. -1.
         11   -1    0    0    0    0 -0.00000000000E+00 -0.00000000000E+00 -0.45593999997E+02  0.45594000000E+02  0.51100000000E-03 0.  1.
    9900012    2    1    2    0    0  0.93973706898E+01  0.66699446006E+01  0.14760742000E+02  0.72461595079E+02  0.70000032287E+02 0.  0.
        -12    1    1    2    0    0 -0.93973706898E+01 -0.66699446006E+01 -0.14760742000E+02  0.18726404921E+02  0.00000000000E+00 0.  1.
         11    1    3    3    0    0  0.16977342150E+02  0.11584100613E+02  0.17182698065E+02  0.26789300971E+02  0.51100000000E-03 0. -1.
        -11    1    3    3    0    0 -0.24147357136E+02  0.41846839053E+01  0.55999836488E+01  0.25138938982E+02  0.51100000000E-03 0.  1.
         12    1    3    3    0    0  0.16567385675E+02 -0.90988399174E+01 -0.80219397131E+01  0.20533355126E+02  0.00000000000E+00 0. -1.
</event>
<event>
 7    1  0.1857734E-013  0.7246162E+02  0.7816164E-02  0.1226708E+00
        -11   -1    0    0    0    0  0.00000000000E+00  0.00000000000E+00  0.45593999997E+02  0.45594000000E+02  0.51100000000E-03 0. -1.
         11   -1    0    0    0    0 -0.00000000000E+00 -0.00000000000E+00 -0.45593999997E+02  0.45594000000E+02  0.51100000000E-03 0.  1.
    9900012    2    1    2    0    0 -0.59900859633E+00  0.15960054347E+02  0.97772872272E+01  0.72461615095E+02  0.70000058362E+02 0.  0.
        -12    1    1    2    0    0  0.59900859633E+00 -0.15960054347E+02 -0.97772872272E+01  0.18726384905E+02  0.00000000000E+00 0.  1.
         11    1    3    3    0    0 -0.41378404466E+01 -0.23529848034E+02  0.12171864122E+02  0.26812865355E+02  0.51100000000E-03 0.  1.
        -11    1    3    3    0    0  0.47503671710E+01  0.12007413036E+02  0.91388141280E+01  0.15819667506E+02  0.51100000000E-03 0. -1.
         12    1    3    3    0    0 -0.12115353208E+01  0.27482489346E+02 -0.11533391023E+02  0.29829082235E+02  0.00000000000E+00 0. -1.
</event>
<event>
 7    1  0.1857734E-013  0.7246148E+02  0.7816164E-02  0.1226708E+00
        -11   -1    0    0    0    0  0.00000000000E+00  0.00000000000E+00  0.45593999997E+02  0.45594000000E+02  0.51100000000E-03 0.  1.
         11   -1    0    0    0    0 -0.00000000000E+00 -0.00000000000E+00 -0.45593999997E+02  0.45594000000E+02  0.51100000000E-03 0. -1.
    9900012    2    1    2    0    0  0.12459190877E+01 -0.16240420583E+02 -0.92400653384E+01  0.72461484506E+02  0.69999888245E+02 0.  0.
        -12    1    1    2    0    0 -0.12459190877E+01  0.16240420583E+02  0.92400653384E+01  0.18726515494E+02  0.00000000000E+00 0.  1.
         11    1    3    3    0    0 -0.29833633601E+02 -0.59948757737E+01 -0.25052059303E+01  0.30532937730E+02  0.51100000000E-03 0. -1.
        -11    1    3    3    0    0  0.75599630786E+01  0.57003084010E+01  0.55458359273E+01  0.10972823429E+02  0.51100000000E-03 0.  1.
         12    1    3    3    0    0  0.23519589610E+02 -0.15945853210E+02 -0.12280695335E+02  0.30955723347E+02  0.00000000000E+00 0. -1.
</event>
<event>
 7    1  0.1857734E-013  0.7246153E+02  0.7816164E-02  0.1226708E+00
        -11   -1    0    0    0    0  0.00000000000E+00  0.00000000000E+00  0.45593999997E+02  0.45594000000E+02  0.51100000000E-03 0.  1.
         11   -1    0    0    0    0 -0.00000000000E+00 -0.00000000000E+00 -0.45593999997E+02  0.45594000000E+02  0.51100000000E-03 0. -1.
    9900012    2    1    2    0    0 -0.15695628953E+02  0.42662730379E+01 -0.92804590049E+01  0.72461527475E+02  0.69999944220E+02 0.  0.
        -12    1    1    2    0    0  0.15695628953E+02 -0.42662730379E+01  0.92804590049E+01  0.18726472525E+02  0.00000000000E+00 0.  1.
         11    1    3    3    0    0 -0.36244071507E+02 -0.11570143006E+02 -0.19494322309E+01  0.38095947486E+02  0.51100000000E-03 0. -1.
        -11    1    3    3    0    0  0.31374549021E+00 -0.16908502448E+01 -0.73979632785E+01  0.75952137372E+01  0.51100000000E-03 0.  1.
         12    1    3    3    0    0  0.20234697063E+02  0.17527266288E+02  0.66936504412E-01  0.26770366252E+02  0.00000000000E+00 0. -1.
</event>
<event>
 7    1  0.1857734E-013  0.7246157E+02  0.7816164E-02  0.1226708E+00
        -11   -1    0    0    0    0  0.00000000000E+00  0.00000000000E+00  0.45593999997E+02  0.45594000000E+02  0.51100000000E-03 0.  1.
         11   -1    0    0    0    0 -0.00000000000E+00 -0.00000000000E+00 -0.45593999997E+02  0.45594000000E+02  0.51100000000E-03 0. -1.
    9900012    2    1    2    0    0  0.14767870715E+02  0.75825104067E+01 -0.86657230540E+01  0.72461568798E+02  0.69999998050E+02 0.  0.
        -12    1    1    2    0    0 -0.14767870715E+02 -0.75825104067E+01  0.86657230540E+01  0.18726431202E+02  0.00000000000E+00 0.  1.
         11    1    3    3    0    0 -0.16114968664E+02  0.31290647822E+01 -0.12533742660E+02  0.20653763986E+02  0.51100000000E-03 0. -1.
        -11    1    3    3    0    0  0.10976532518E+02 -0.16261851596E+02  0.10600087574E+02  0.22300088347E+02  0.51100000000E-03 0.  1.
         12    1    3    3    0    0  0.19906306862E+02  0.20715297221E+02 -0.67320679678E+01  0.29507716464E+02  0.00000000000E+00 0. -1.
</event>
<event>
 7    1  0.1857734E-013  0.7246161E+02  0.7816164E-02  0.1226708E+00
        -11   -1    0    0    0    0  0.00000000000E+00  0.00000000000E+00  0.45593999997E+02  0.45594000000E+02  0.51100000000E-03 0. -1.
         11   -1    0    0    0    0 -0.00000000000E+00 -0.00000000000E+00 -0.45593999997E+02  0.45594000000E+02  0.51100000000E-03 0.  1.
    9900012    2    1    2    0    0 -0.25582428697E+01 -0.10131058403E+01  0.18523142119E+02  0.72461607289E+02  0.70000048192E+02 0.  0.
        -12    1    1    2    0    0  0.25582428697E+01  0.10131058403E+01 -0.18523142119E+02  0.18726392711E+02  0.00000000000E+00 0.  1.
         11    1    3    3    0    0 -0.30398246145E+02  0.87941438941E+01  0.16832895777E+02  0.35843224130E+02  0.51100000000E-03 0.  1.
        -11    1    3    3    0    0  0.22443144745E+02  0.22950571329E+00  0.77084198724E+01  0.23731143169E+02  0.51100000000E-03 0. -1.
        -12    1    3    3    0    0  0.53968585301E+01 -0.10036755448E+02 -0.60181735303E+01  0.12887239990E+02  0.00000000000E+00 0.  1.
</event>
<event>
 7    1  0.1857734E-013  0.7246156E+02  0.7816164E-02  0.1226708E+00
        -11   -1    0    0    0    0  0.00000000000E+00  0.00000000000E+00  0.45593999997E+02  0.45594000000E+02  0.51100000000E-03 0.  1.
         11   -1    0    0    0    0 -0.00000000000E+00 -0.00000000000E+00 -0.45593999997E+02  0.45594000000E+02  0.51100000000E-03 0. -1.
    9900012    2    1    2    0    0 -0.14495838805E+01  0.98066065503E+00 -0.18644479980E+02  0.72461558200E+02  0.69999984245E+02 0.  0.
        -12    1    1    2    0    0  0.14495838805E+01 -0.98066065503E+00  0.18644479980E+02  0.18726441800E+02  0.00000000000E+00 0.  1.
         11    1    3    3    0    0  0.21506268362E+02  0.19888331445E+02 -0.34451897940E+00  0.29294777694E+02  0.51100000000E-03 0. -1.
        -11    1    3    3    0    0 -0.17486725229E+02 -0.66547826323E+00 -0.11477735380E+01  0.17536983917E+02  0.51100000000E-03 0.  1.
         12    1    3    3    0    0 -0.54691270136E+01 -0.18242192527E+02 -0.17152187463E+02  0.25629796590E+02  0.00000000000E+00 0. -1.
</event>
<event>
 7    1  0.1857734E-013  0.7246159E+02  0.7816164E-02  0.1226708E+00
        -11   -1    0    0    0    0  0.00000000000E+00  0.00000000000E+00  0.45593999997E+02  0.45594000000E+02  0.51100000000E-03 0. -1.
         11   -1    0    0    0    0 -0.00000000000E+00 -0.00000000000E+00 -0.45593999997E+02  0.45594000000E+02  0.51100000000E-03 0.  1.
    9900012    2    1    2    0    0 -0.11124747770E+02 -0.52370211223E+01  0.14124170683E+02  0.72461585483E+02  0.70000019786E+02 0.  0.
        -12    1    1    2    0    0  0.11124747770E+02  0.52370211223E+01 -0.14124170683E+02  0.18726414517E+02  0.00000000000E+00 0.  1.
         11    1    3    3    0    0 -0.26322708189E+02 -0.85847157209E+01  0.32527427980E+02  0.42715522725E+02  0.51100000000E-03 0. -1.
        -11    1    3    3    0    0  0.45905950231E+01  0.31256038392E+01 -0.18312370020E+02  0.19135983331E+02  0.51100000000E-03 0.  1.
         12    1    3    3    0    0  0.10607365396E+02  0.22209075938E+00 -0.90887277153E-01  0.10610079427E+02  0.00000000000E+00 0. -1.
</event>
<event>
 7    1  0.1857734E-013  0.7246158E+02  0.7816164E-02  0.1226708E+00
        -11   -1    0    0    0    0  0.00000000000E+00  0.00000000000E+00  0.45593999997E+02  0.45594000000E+02  0.51100000000E-03 0.  1.
         11   -1    0    0    0    0 -0.00000000000E+00 -0.00000000000E+00 -0.45593999997E+02  0.45594000000E+02  0.51100000000E-03 0. -1.
    9900012    2    1    2    0    0 -0.57361573486E+01 -0.85329460957E+01 -0.15651335377E+02  0.72461575641E+02  0.70000006965E+02 0.  0.
        -12    1    1    2    0    0  0.57361573486E+01  0.85329460957E+01  0.15651335377E+02  0.18726424359E+02  0.00000000000E+00 0.  1.
         11    1    3    3    0    0  0.36214983313E+01 -0.27603826525E+02 -0.26604608394E+00  0.27841646319E+02  0.51100000000E-03 0. -1.
        -11    1    3    3    0    0 -0.21872289482E+02  0.43710509750E+01 -0.10777872316E+02  0.24772276151E+02  0.51100000000E-03 0.  1.
        -12    1    3    3    0    0  0.12514633802E+02  0.14699829454E+02 -0.46074169768E+01  0.19847653170E+02  0.00000000000E+00 0.  1.
</event>
<event>
 7    1  0.1857734E-013  0.7246161E+02  0.7816164E-02  0.1226708E+00
        -11   -1    0    0    0    0  0.00000000000E+00  0.00000000000E+00  0.45593999997E+02  0.45594000000E+02  0.51100000000E-03 0.  1.
         11   -1    0    0    0    0 -0.00000000000E+00 -0.00000000000E+00 -0.45593999997E+02  0.45594000000E+02  0.51100000000E-03 0. -1.
    9900012    2    1    2    0    0 -0.17804099628E+02  0.89437340132E+00 -0.57351479335E+01  0.72461607150E+02  0.70000048012E+02 0.  0.
        -12    1    1    2    0    0  0.17804099628E+02 -0.89437340132E+00  0.57351479335E+01  0.18726392850E+02  0.00000000000E+00 0.  1.
         11    1    3    3    0    0 -0.15315276314E+02  0.15504912868E+02 -0.25614660715E+02  0.33631396871E+02  0.51100000000E-03 0. -1.
        -11    1    3    3    0    0  0.13618648059E+02 -0.87530399217E+01  0.10438475467E+02  0.19262529770E+02  0.51100000000E-03 0.  1.
         12    1    3    3    0    0 -0.16107471372E+02 -0.58574995451E+01  0.94410373148E+01  0.19567680509E+02  0.00000000000E+00 0. -1.
</event>
<event>
 7    1  0.1857734E-013  0.7246163E+02  0.7816164E-02  0.1226708E+00
        -11   -1    0    0    0    0  0.00000000000E+00  0.00000000000E+00  0.45593999997E+02  0.45594000000E+02  0.51100000000E-03 0. -1.
         11   -1    0    0    0    0 -0.00000000000E+00 -0.00000000000E+00 -0.45593999997E+02  0.45594000000E+02  0.51100000000E-03 0.  1.
    9900012    2    1    2    0    0  0.52356499550E+01 -0.10705099007E+02  0.14445264561E+02  0.72461632402E+02  0.70000080907E+02 0.  0.
        -12    1    1    2    0    0 -0.52356499550E+01  0.10705099007E+02 -0.14445264561E+02  0.18726367598E+02  0.00000000000E+00 0.  1.
         11    1    3    3    0    0  0.18920011147E+02  0.17535009923E+02  0.94385283230E+01  0.27468695127E+02  0.51100000000E-03 0. -1.
        -11    1    3    3    0    0 -0.71084596805E+01 -0.29853809430E+02  0.14003877309E+02  0.33732606132E+02  0.51100000000E-03 0.  1.
         12    1    3    3    0    0 -0.65759015112E+01  0.16137005000E+01 -0.89971410717E+01  0.11260331143E+02  0.00000000000E+00 0. -1.
</event>
<event>
 7    1  0.1857734E-013  0.7246156E+02  0.7816164E-02  0.1226708E+00
        -11   -1    0    0    0    0  0.00000000000E+00  0.00000000000E+00  0.45593999997E+02  0.45594000000E+02  0.51100000000E-03 0.  1.
         11   -1    0    0    0    0 -0.00000000000E+00 -0.00000000000E+00 -0.45593999997E+02  0.45594000000E+02  0.51100000000E-03 0. -1.
    9900012    2    1    2    0    0  0.12901269041E+02  0.10507457385E+02 -0.85924477739E+01  0.72461559807E+02  0.69999986338E+02 0.  0.
        -12    1    1    2    0    0 -0.12901269041E+02 -0.10507457385E+02  0.85924477739E+01  0.18726440193E+02  0.00000000000E+00 0.  1.
         11    1    3    3    0    0  0.22261080210E+02  0.11636026739E+02 -0.88709622888E+01  0.26639196357E+02  0.51100000000E-03 0. -1.
        -11    1    3    3    0    0 -0.37386465931E+01 -0.20226946706E+02  0.10877242328E+02  0.23268460463E+02  0.51100000000E-03 0.  1.
         12    1    3    3    0    0 -0.56211645755E+01  0.19098377352E+02 -0.10598727813E+02  0.22553902986E+02  0.00000000000E+00 0. -1.
</event>
<event>
 7    1  0.1857734E-013  0.7246164E+02  0.7816164E-02  0.1226708E+00
        -11   -1    0    0    0    0  0.00000000000E+00  0.00000000000E+00  0.45593999997E+02  0.45594000000E+02  0.51100000000E-03 0. -1.
         11   -1    0    0    0    0 -0.00000000000E+00 -0.00000000000E+00 -0.45593999997E+02  0.45594000000E+02  0.51100000000E-03 0.  1.
    9900012    2    1    2    0    0 -0.29794630950E+01  0.17047187161E+02  0.71549101041E+01  0.72461640796E+02  0.70000091842E+02 0.  0.
        -12    1    1    2    0    0  0.29794630950E+01 -0.17047187161E+02 -0.71549101041E+01  0.18726359204E+02  0.00000000000E+00 0.  1.
         11    1    3    3    0    0 -0.10938760307E+02  0.47935869573E+01  0.28987739377E+02  0.31351618577E+02  0.51100000000E-03 0. -1.
        -11    1    3    3    0    0  0.19138972740E+02  0.13093097230E+02 -0.17658033749E+02  0.29146794485E+02  0.51100000000E-03 0.  1.
        -12    1    3    3    0    0 -0.11179675528E+02 -0.83949702630E+00 -0.41747955235E+01  0.11963227734E+02  0.00000000000E+00 0.  1.
</event>
<event>
 7    1  0.1857734E-013  0.7246164E+02  0.7816164E-02  0.1226708E+00
        -11   -1    0    0    0    0  0.00000000000E+00  0.00000000000E+00  0.45593999997E+02  0.45594000000E+02  0.51100000000E-03 0. -1.
         11   -1    0    0    0    0 -0.00000000000E+00 -0.00000000000E+00 -0.45593999997E+02  0.45594000000E+02  0.51100000000E-03 0.  1.
    9900012    2    1    2    0    0 -0.51788015663E+00 -0.32928251939E+01  0.18427305785E+02  0.72461641676E+02  0.70000092987E+02 0.  0.
        -12    1    1    2    0    0  0.51788015663E+00  0.32928251939E+01 -0.18427305785E+02  0.18726358324E+02  0.00000000000E+00 0.  1.
         11    1    3    3    0    0  0.12601070113E+02 -0.22902236793E+02 -0.13102564430E+02  0.29239983123E+02  0.51100000000E-03 0. -1.
        -11    1    3    3    0    0 -0.31292183050E+01 -0.27957500720E+01  0.89305616798E+01  0.98672771241E+01  0.51100000000E-03 0.  1.
         12    1    3    3    0    0 -0.99897319647E+01  0.22405161671E+02  0.22599308535E+02  0.33354381429E+02  0.00000000000E+00 0. -1.
</event>
<event>
 7    1  0.1857734E-013  0.7246157E+02  0.7816164E-02  0.1226708E+00
        -11   -1    0    0    0    0  0.00000000000E+00  0.00000000000E+00  0.45593999997E+02  0.45594000000E+02  0.51100000000E-03 0.  1.
         11   -1    0    0    0    0 -0.00000000000E+00 -0.00000000000E+00 -0.45593999997E+02  0.45594000000E+02  0.51100000000E-03 0. -1.
    9900012    2    1    2    0    0  0.71857502010E+01 -0.16301744136E+02 -0.57703849800E+01  0.72461569196E+02  0.69999998569E+02 0.  0.
        -12    1    1    2    0    0 -0.71857502010E+01  0.16301744136E+02  0.57703849800E+01  0.18726430804E+02  0.00000000000E+00 0.  1.
         11    1    3    3    0    0  0.33018821232E+02 -0.24753687923E+00 -0.93962751253E+01  0.34330654182E+02  0.51100000000E-03 0. -1.
        -11    1    3    3    0    0 -0.32721387524E+01 -0.58038410618E+01  0.10481368631E+02  0.12419764560E+02  0.51100000000E-03 0.  1.
         12    1    3    3    0    0 -0.22560932278E+02 -0.10250366195E+02 -0.68554784860E+01  0.25711150454E+02  0.00000000000E+00 0. -1.
</event>
<event>
 7    1  0.1857734E-013  0.7246163E+02  0.7816164E-02  0.1226708E+00
        -11   -1    0    0    0    0  0.00000000000E+00  0.00000000000E+00  0.45593999997E+02  0.45594000000E+02  0.51100000000E-03 0.  1.
         11   -1    0    0    0    0 -0.00000000000E+00 -0.00000000000E+00 -0.45593999997E+02  0.45594000000E+02  0.51100000000E-03 0. -1.
    9900012    2    1    2    0    0  0.51957052967E+01 -0.17487634139E+02 -0.42266205607E+01  0.72461627616E+02  0.70000074672E+02 0.  0.
        -12    1    1    2    0    0 -0.51957052967E+01  0.17487634139E+02  0.42266205607E+01  0.18726372384E+02  0.00000000000E+00 0.  1.
         11    1    3    3    0    0 -0.13586892978E+02 -0.23062692188E+02  0.11833808610E+02  0.29266541617E+02  0.51100000000E-03 0.  1.
        -11    1    3    3    0    0  0.10215684740E+02  0.62321190861E+01 -0.26853793915E+02  0.29399417866E+02  0.51100000000E-03 0. -1.
        -12    1    3    3    0    0  0.85669135350E+01 -0.65706103662E+00  0.10793364744E+02  0.13795668132E+02  0.00000000000E+00 0.  1.
</event>
<event>
 7    1  0.1857734E-013  0.7246154E+02  0.7816164E-02  0.1226708E+00
        -11   -1    0    0    0    0  0.00000000000E+00  0.00000000000E+00  0.45593999997E+02  0.45594000000E+02  0.51100000000E-03 0.  1.
         11   -1    0    0    0    0 -0.00000000000E+00 -0.00000000000E+00 -0.45593999997E+02  0.45594000000E+02  0.51100000000E-03 0. -1.
    9900012    2    1    2    0    0  0.26132122230E+01 -0.18471925142E+02 -0.16245833573E+01  0.72461543644E+02  0.69999965282E+02 0.  0.
        -12    1    1    2    0    0 -0.26132122230E+01  0.18471925142E+02  0.16245833573E+01  0.18726456356E+02  0.00000000000E+00 0.  1.
         11    1    3    3    0    0  0.27655991890E+01 -0.59330107253E+01 -0.12264855260E+02  0.13902367782E+02  0.51100000000E-03 0. -1.
        -11    1    3    3    0    0 -0.46661461853E+01  0.16085205244E+02  0.21813786747E+02  0.27501782496E+02  0.51100000000E-03 0.  1.
        -12    1    3    3    0    0  0.45137592192E+01 -0.28624119661E+02 -0.11173514844E+02  0.31057393365E+02  0.00000000000E+00 0.  1.
</event>
<event>
 7    1  0.1857734E-013  0.7246157E+02  0.7816164E-02  0.1226708E+00
        -11   -1    0    0    0    0  0.00000000000E+00  0.00000000000E+00  0.45593999997E+02  0.45594000000E+02  0.51100000000E-03 0.  1.
         11   -1    0    0    0    0 -0.00000000000E+00 -0.00000000000E+00 -0.45593999997E+02  0.45594000000E+02  0.51100000000E-03 0. -1.
    9900012    2    1    2    0    0 -0.78030215449E+01 -0.42944427515E+01 -0.16472698599E+02  0.72461569937E+02  0.69999999534E+02 0.  0.
        -12    1    1    2    0    0  0.78030215449E+01  0.42944427515E+01  0.16472698599E+02  0.18726430063E+02  0.00000000000E+00 0.  1.
         11    1    3    3    0    0 -0.91027327956E+01 -0.56601562930E+01 -0.51594387177E+01  0.11896088506E+02  0.51100000000E-03 0. -1.
        -11    1    3    3    0    0  0.25475198365E+02  0.12856811330E+02  0.53531967225E+01  0.29033429779E+02  0.51100000000E-03 0.  1.
        -12    1    3    3    0    0 -0.24175487115E+02 -0.11491097788E+02 -0.16666456604E+02  0.31532051651E+02  0.00000000000E+00 0.  1.
</event>
<event>
 7    1  0.1857734E-013  0.7246154E+02  0.7816164E-02  0.1226708E+00
        -11   -1    0    0    0    0  0.00000000000E+00  0.00000000000E+00  0.45593999997E+02  0.45594000000E+02  0.51100000000E-03 0. -1.
         11   -1    0    0    0    0 -0.00000000000E+00 -0.00000000000E+00 -0.45593999997E+02  0.45594000000E+02  0.51100000000E-03 0.  1.
    9900012    2    1    2    0    0  0.50353658787E+01  0.72114230683E+01  0.16532418064E+02  0.72461537994E+02  0.69999957923E+02 0.  0.
        -12    1    1    2    0    0 -0.50353658787E+01 -0.72114230683E+01 -0.16532418064E+02  0.18726462006E+02  0.00000000000E+00 0.  1.
         11    1    3    3    0    0  0.21059390786E+02  0.19388836445E+02  0.43923363039E+01  0.28960620461E+02  0.51100000000E-03 0. -1.
        -11    1    3    3    0    0  0.55828274919E+01 -0.18297936287E+02  0.76265959074E+01  0.20594839173E+02  0.51100000000E-03 0.  1.
         12    1    3    3    0    0 -0.21606852400E+02  0.61205229098E+01  0.45134858531E+01  0.22906078360E+02  0.00000000000E+00 0. -1.
</event>
<event>
 7    1  0.1857734E-013  0.7246159E+02  0.7816164E-02  0.1226708E+00
        -11   -1    0    0    0    0  0.00000000000E+00  0.00000000000E+00  0.45593999997E+02  0.45594000000E+02  0.51100000000E-03 0. -1.
         11   -1    0    0    0    0 -0.00000000000E+00 -0.00000000000E+00 -0.45593999997E+02  0.45594000000E+02  0.51100000000E-03 0.  1.
    9900012    2    1    2    0    0 -0.96939509222E-01 -0.13370651626E+02  0.13110863380E+02  0.72461589219E+02  0.70000024653E+02 0.  0.
        -12    1    1    2    0    0  0.96939509222E-01  0.13370651626E+02 -0.13110863380E+02  0.18726410781E+02  0.00000000000E+00 0.  1.
         11    1    3    3    0    0  0.15697465829E+02 -0.15384726789E+02  0.65457368689E+01  0.22933532725E+02  0.51100000000E-03 0. -1.
        -11    1    3    3    0    0 -0.91605425546E+01  0.21636904508E+02 -0.72976214553E+01  0.24603383014E+02  0.51100000000E-03 0.  1.
         12    1    3    3    0    0 -0.66338627837E+01 -0.19622829344E+02  0.13862747966E+02  0.24924673480E+02  0.00000000000E+00 0. -1.
</event>
<event>
 7    1  0.1857734E-013  0.7246157E+02  0.7816164E-02  0.1226708E+00
        -11   -1    0    0    0    0  0.00000000000E+00  0.00000000000E+00  0.45593999997E+02  0.45594000000E+02  0.51100000000E-03 0. -1.
         11   -1    0    0    0    0 -0.00000000000E+00 -0.00000000000E+00 -0.45593999997E+02  0.45594000000E+02  0.51100000000E-03 0.  1.
    9900012    2    1    2    0    0 -0.10146542380E+02  0.12747394811E+02  0.92320560578E+01  0.72461567991E+02  0.69999996999E+02 0.  0.
        -12    1    1    2    0    0  0.10146542380E+02 -0.12747394811E+02 -0.92320560578E+01  0.18726432009E+02  0.00000000000E+00 0.  1.
         11    1    3    3    0    0  0.18639264458E+02  0.66770072586E+01 -0.15182530244E+02  0.24950227060E+02  0.51100000000E-03 0. -1.
        -11    1    3    3    0    0 -0.26744440355E+02  0.38013501478E+01  0.45258292790E+01  0.27389751437E+02  0.51100000000E-03 0.  1.
         12    1    3    3    0    0 -0.20413664829E+01  0.22690374049E+01  0.19888757022E+02  0.20121589494E+02  0.00000000000E+00 0. -1.
</event>
<event>
 8    1  0.1857734E-013  0.7246159E+02  0.7816164E-02  0.1226708E+00
        -11   -1    0    0    0    0  0.00000000000E+00  0.00000000000E+00  0.45593999997E+02  0.45594000000E+02  0.51100000000E-03 0. -1.
         11   -1    0    0    0    0 -0.00000000000E+00 -0.00000000000E+00 -0.45593999997E+02  0.45594000000E+02  0.51100000000E-03 0.  1.
    9900012    2    1    2    0    0  0.17339733881E+02  0.25524131411E+01 -0.65952555878E+01  0.72461586030E+02  0.70000020499E+02 0.  0.
         24    2    3    3    0    0  0.13632900505E+02 -0.10310250919E+02 -0.15864482234E+02  0.56179469973E+02  0.51110603594E+02 0.  0.
        -12    1    1    2    0    0 -0.17339733881E+02 -0.25524131411E+01  0.65952555878E+01  0.18726413970E+02  0.00000000000E+00 0.  1.
         11    1    3    3    0    0  0.37068333763E+01  0.12862664060E+02  0.92692266458E+01  0.16282116057E+02  0.51100000000E-03 0. -1.
        -11    1    4    4    0    0 -0.88786071656E+01 -0.11320532434E+02 -0.27337962738E+02  0.30892528655E+02  0.51100000000E-03 0.  1.
         12    1    4    4    0    0  0.22511507670E+02  0.10102815144E+01  0.11473480505E+02  0.25286941318E+02  0.00000000000E+00 0. -1.
</event>
<event>
 7    1  0.1857734E-013  0.7246160E+02  0.7816164E-02  0.1226708E+00
        -11   -1    0    0    0    0  0.00000000000E+00  0.00000000000E+00  0.45593999997E+02  0.45594000000E+02  0.51100000000E-03 0. -1.
         11   -1    0    0    0    0 -0.00000000000E+00 -0.00000000000E+00 -0.45593999997E+02  0.45594000000E+02  0.51100000000E-03 0.  1.
    9900012    2    1    2    0    0  0.10638950919E+02 -0.86177524129E+01  0.12775951664E+02  0.72461604879E+02  0.70000045053E+02 0.  0.
        -12    1    1    2    0    0 -0.10638950919E+02  0.86177524129E+01 -0.12775951664E+02  0.18726395121E+02  0.00000000000E+00 0.  1.
         11    1    3    3    0    0 -0.45791415619E+01 -0.40284203054E+01  0.24483178030E+02  0.25231383520E+02  0.51100000000E-03 0. -1.
        -11    1    3    3    0    0  0.17787467190E+02 -0.14513821356E+01 -0.26467870957E+02  0.31922542073E+02  0.51100000000E-03 0.  1.
        -12    1    3    3    0    0 -0.25693747088E+01 -0.31379499718E+01  0.14760644590E+02  0.15307679287E+02  0.00000000000E+00 0.  1.
</event>
<event>
 7    1  0.1857734E-013  0.7246156E+02  0.7816164E-02  0.1226708E+00
        -11   -1    0    0    0    0  0.00000000000E+00  0.00000000000E+00  0.45593999997E+02  0.45594000000E+02  0.51100000000E-03 0.  1.
         11   -1    0    0    0    0 -0.00000000000E+00 -0.00000000000E+00 -0.45593999997E+02  0.45594000000E+02  0.51100000000E-03 0. -1.
    9900012    2    1    2    0    0  0.41520500376E+01  0.15097497624E+01 -0.18197825654E+02  0.72461555533E+02  0.69999980770E+02 0.  0.
        -12    1    1    2    0    0 -0.41520500376E+01 -0.15097497624E+01  0.18197825654E+02  0.18726444467E+02  0.00000000000E+00 0.  1.
         11    1    3    3    0    0  0.19078873317E+02 -0.42668174046E+01 -0.30207605558E+01  0.19782167030E+02  0.51100000000E-03 0. -1.
        -11    1    3    3    0    0  0.18184601988E+01  0.23605999992E+02  0.40205427243E+00  0.23679351364E+02  0.51100000000E-03 0.  1.
        -12    1    3    3    0    0 -0.16745283478E+02 -0.17829432825E+02 -0.15579119370E+02  0.29000037138E+02  0.00000000000E+00 0.  1.
</event>
<event>
 7    1  0.1857734E-013  0.7246149E+02  0.7816164E-02  0.1226708E+00
        -11   -1    0    0    0    0  0.00000000000E+00  0.00000000000E+00  0.45593999997E+02  0.45594000000E+02  0.51100000000E-03 0. -1.
         11   -1    0    0    0    0 -0.00000000000E+00 -0.00000000000E+00 -0.45593999997E+02  0.45594000000E+02  0.51100000000E-03 0.  1.
    9900012    2    1    2    0    0 -0.60654153065E+01  0.40635417125E+01  0.17244726511E+02  0.72461488672E+02  0.69999893671E+02 0.  0.
        -12    1    1    2    0    0  0.60654153065E+01 -0.40635417125E+01 -0.17244726511E+02  0.18726511328E+02  0.00000000000E+00 0.  1.
         11    1    3    3    0    0 -0.63116138819E+01  0.59206565922E+01  0.85380699646E+01  0.12156861571E+02  0.51100000000E-03 0. -1.
        -11    1    3    3    0    0  0.20916373943E+02 -0.12714948330E+02  0.22448067000E+02  0.33212653045E+02  0.51100000000E-03 0.  1.
        -12    1    3    3    0    0 -0.20670175368E+02  0.10857833450E+02 -0.13741410454E+02  0.27091974056E+02  0.00000000000E+00 0.  1.
</event>
<event>
 7    1  0.1857734E-013  0.7246156E+02  0.7816164E-02  0.1226708E+00
        -11   -1    0    0    0    0  0.00000000000E+00  0.00000000000E+00  0.45593999997E+02  0.45594000000E+02  0.51100000000E-03 0.  1.
         11   -1    0    0    0    0 -0.00000000000E+00 -0.00000000000E+00 -0.45593999997E+02  0.45594000000E+02  0.51100000000E-03 0. -1.
    9900012    2    1    2    0    0  0.46512653942E+01  0.12980453942E+02 -0.12670959654E+02  0.72461556855E+02  0.69999982493E+02 0.  0.
        -12    1    1    2    0    0 -0.46512653942E+01 -0.12980453942E+02  0.12670959654E+02  0.18726443145E+02  0.00000000000E+00 0.  1.
         11    1    3    3    0    0 -0.86295350485E+01 -0.16274792152E+02 -0.81912572726E+01  0.20160219015E+02  0.51100000000E-03 0. -1.
        -11    1    3    3    0    0  0.41187426916E+00  0.34559787137E+02  0.57367254493E+01  0.35035104488E+02  0.51100000000E-03 0.  1.
         12    1    3    3    0    0  0.12868926174E+02 -0.53045410428E+01 -0.10216427831E+02  0.17266233352E+02  0.00000000000E+00 0. -1.
</event>
<event>
 7    1  0.1857734E-013  0.7246156E+02  0.7816164E-02  0.1226708E+00
        -11   -1    0    0    0    0  0.00000000000E+00  0.00000000000E+00  0.45593999997E+02  0.45594000000E+02  0.51100000000E-03 0.  1.
         11   -1    0    0    0    0 -0.00000000000E+00 -0.00000000000E+00 -0.45593999997E+02  0.45594000000E+02  0.51100000000E-03 0. -1.
    9900012    2    1    2    0    0  0.15618498395E+02  0.33943719425E+01 -0.97580826703E+01  0.72461563328E+02  0.69999990926E+02 0.  0.
        -12    1    1    2    0    0 -0.15618498395E+02 -0.33943719425E+01  0.97580826703E+01  0.18726436672E+02  0.00000000000E+00 0.  1.
         11    1    3    3    0    0 -0.16213537132E+02 -0.19844195037E+02  0.28842024684E+01  0.25787390080E+02  0.51100000000E-03 0. -1.
        -11    1    3    3    0    0  0.19777261515E+02  0.16548769696E+02 -0.18456284154E+02  0.31711768739E+02  0.51100000000E-03 0.  1.
        -12    1    3    3    0    0  0.12054774012E+02  0.66897972835E+01  0.58139990153E+01  0.14962404510E+02  0.00000000000E+00 0.  1.
</event>
<event>
 7    1  0.1857734E-013  0.7246157E+02  0.7816164E-02  0.1226708E+00
        -11   -1    0    0    0    0  0.00000000000E+00  0.00000000000E+00  0.45593999997E+02  0.45594000000E+02  0.51100000000E-03 0.  1.
         11   -1    0    0    0    0 -0.00000000000E+00 -0.00000000000E+00 -0.45593999997E+02  0.45594000000E+02  0.51100000000E-03 0. -1.
    9900012    2    1    2    0    0 -0.15639424825E+02 -0.60991466820E+01 -0.82998703001E+01  0.72461573589E+02  0.70000004293E+02 0.  0.
        -12    1    1    2    0    0  0.15639424825E+02  0.60991466820E+01  0.82998703001E+01  0.18726426411E+02  0.00000000000E+00 0.  1.
         11    1    3    3    0    0 -0.20273300462E+00  0.14465063408E+02 -0.82044283116E+01  0.16631049403E+02  0.51100000000E-03 0. -1.
        -11    1    3    3    0    0 -0.15331777168E+00 -0.30289558296E+02  0.13518685123E+02  0.33169800962E+02  0.51100000000E-03 0.  1.
        -12    1    3    3    0    0 -0.15283374049E+02  0.97253482064E+01 -0.13614127112E+02  0.22660723225E+02  0.00000000000E+00 0.  1.
</event>
<event>
 7    1  0.1857734E-013  0.7246153E+02  0.7816164E-02  0.1226708E+00
        -11   -1    0    0    0    0  0.00000000000E+00  0.00000000000E+00  0.45593999997E+02  0.45594000000E+02  0.51100000000E-03 0. -1.
         11   -1    0    0    0    0 -0.00000000000E+00 -0.00000000000E+00 -0.45593999997E+02  0.45594000000E+02  0.51100000000E-03 0.  1.
    9900012    2    1    2    0    0 -0.57377729183E+01 -0.32233042955E+01  0.17531943125E+02  0.72461527871E+02  0.69999944736E+02 0.  0.
        -12    1    1    2    0    0  0.57377729183E+01  0.32233042955E+01 -0.17531943125E+02  0.18726472129E+02  0.00000000000E+00 0.  1.
         11    1    3    3    0    0  0.62287685670E+01  0.25508175385E+02 -0.60592005725E+01  0.26947698996E+02  0.51100000000E-03 0. -1.
        -11    1    3    3    0    0 -0.15119896385E+01 -0.26982276258E+02  0.11323329611E+02  0.29300975043E+02  0.51100000000E-03 0.  1.
         12    1    3    3    0    0 -0.10454551847E+02 -0.17492034234E+01  0.12267814087E+02  0.16212853833E+02  0.00000000000E+00 0. -1.
</event>
<event>
 7    1  0.1857734E-013  0.7246150E+02  0.7816164E-02  0.1226708E+00
        -11   -1    0    0    0    0  0.00000000000E+00  0.00000000000E+00  0.45593999997E+02  0.45594000000E+02  0.51100000000E-03 0.  1.
         11   -1    0    0    0    0 -0.00000000000E+00 -0.00000000000E+00 -0.45593999997E+02  0.45594000000E+02  0.51100000000E-03 0. -1.
    9900012    2    1    2    0    0 -0.15090973597E+02 -0.80899063032E+01 -0.75827171185E+01  0.72461503611E+02  0.69999913133E+02 0.  0.
        -12    1    1    2    0    0  0.15090973597E+02  0.80899063032E+01  0.75827171185E+01  0.18726496389E+02  0.00000000000E+00 0.  1.
         11    1    3    3    0    0  0.38771867359E+01 -0.26281657284E+02 -0.40425728812E+01  0.26871927403E+02  0.51100000000E-03 0. -1.
        -11    1    3    3    0    0 -0.15350604345E+01  0.21979349007E+02  0.89822790662E+01  0.23793476643E+02  0.51100000000E-03 0.  1.
        -12    1    3    3    0    0 -0.17433099898E+02 -0.37875980259E+01 -0.12522423304E+02  0.21796099565E+02  0.00000000000E+00 0.  1.
</event>
<event>
 7    1  0.1857734E-013  0.7246166E+02  0.7816164E-02  0.1226708E+00
        -11   -1    0    0    0    0  0.00000000000E+00  0.00000000000E+00  0.45593999997E+02  0.45594000000E+02  0.51100000000E-03 0.  1.
         11   -1    0    0    0    0 -0.00000000000E+00 -0.00000000000E+00 -0.45593999997E+02  0.45594000000E+02  0.51100000000E-03 0. -1.
    9900012    2    1    2    0    0 -0.26573533072E+01  0.52380441104E+01 -0.17781370854E+02  0.72461660739E+02  0.70000117820E+02 0.  0.
        -12    1    1    2    0    0  0.26573533072E+01 -0.52380441104E+01  0.17781370854E+02  0.18726339261E+02  0.00000000000E+00 0.  1.
         11    1    3    3    0    0  0.83646384587E+01 -0.46363607415E+01 -0.12018107841E+02  0.15358969165E+02  0.51100000000E-03 0. -1.
        -11    1    3    3    0    0 -0.25108921290E+02  0.11858616001E+02 -0.22064209234E+02  0.35467083770E+02  0.51100000000E-03 0.  1.
        -12    1    3    3    0    0  0.14086929524E+02 -0.19842111494E+01  0.16300946221E+02  0.21635607803E+02  0.00000000000E+00 0.  1.
</event>
<event>
 7    1  0.1857734E-013  0.7246157E+02  0.7816164E-02  0.1226708E+00
        -11   -1    0    0    0    0  0.00000000000E+00  0.00000000000E+00  0.45593999997E+02  0.45594000000E+02  0.51100000000E-03 0.  1.
         11   -1    0    0    0    0 -0.00000000000E+00 -0.00000000000E+00 -0.45593999997E+02  0.45594000000E+02  0.51100000000E-03 0. -1.
    9900012    2    1    2    0    0 -0.14547079483E+02 -0.95099051553E+01 -0.69730495358E+01  0.72461568483E+02  0.69999997640E+02 0.  0.
        -12    1    1    2    0    0  0.14547079483E+02  0.95099051553E+01  0.69730495358E+01  0.18726431517E+02  0.00000000000E+00 0.  1.
         11    1    3    3    0    0 -0.40761001568E+02 -0.36381034233E+01  0.17366731969E+01  0.40959871575E+02  0.51100000000E-03 0. -1.
        -11    1    3    3    0    0  0.10239625069E+02 -0.45115775228E+01  0.30749462740E+01  0.11604290075E+02  0.51100000000E-03 0.  1.
         12    1    3    3    0    0  0.15974297017E+02 -0.13602242091E+01 -0.11784669007E+02  0.19897406833E+02  0.00000000000E+00 0. -1.
</event>
<event>
 7    1  0.1857734E-013  0.7246166E+02  0.7816164E-02  0.1226708E+00
        -11   -1    0    0    0    0  0.00000000000E+00  0.00000000000E+00  0.45593999997E+02  0.45594000000E+02  0.51100000000E-03 0. -1.
         11   -1    0    0    0    0 -0.00000000000E+00 -0.00000000000E+00 -0.45593999997E+02  0.45594000000E+02  0.51100000000E-03 0.  1.
    9900012    2    1    2    0    0  0.31313828631E+01 -0.12757224654E+02  0.13346292716E+02  0.72461658425E+02  0.70000114807E+02 0.  0.
        -12    1    1    2    0    0 -0.31313828631E+01  0.12757224654E+02 -0.13346292716E+02  0.18726341575E+02  0.00000000000E+00 0.  1.
         11    1    3    3    0    0 -0.42535749248E+00  0.16110888062E+02  0.12800482179E+02  0.20581399063E+02  0.51100000000E-03 0. -1.
        -11    1    3    3    0    0  0.67152824860E+01 -0.15020294661E+02 -0.20626671870E+02  0.26384917344E+02  0.51100000000E-03 0.  1.
        -12    1    3    3    0    0 -0.31585421304E+01 -0.13847818055E+02  0.21172482408E+02  0.25495342017E+02  0.00000000000E+00 0.  1.
</event>
<event>
 7    1  0.1857734E-013  0.7246163E+02  0.7816164E-02  0.1226708E+00
        -11   -1    0    0    0    0  0.00000000000E+00  0.00000000000E+00  0.45593999997E+02  0.45594000000E+02  0.51100000000E-03 0.  1.
         11   -1    0    0    0    0 -0.00000000000E+00 -0.00000000000E+00 -0.45593999997E+02  0.45594000000E+02  0.51100000000E-03 0. -1.
    9900012    2    1    2    0    0  0.10595542661E+02  0.68165662155E+01 -0.13854455034E+02  0.72461627593E+02  0.70000074642E+02 0.  0.
        -12    1    1    2    0    0 -0.10595542661E+02 -0.68165662155E+01  0.13854455034E+02  0.18726372407E+02  0.00000000000E+00 0.  1.
         11    1    3    3    0    0 -0.92525526070E+01 -0.15176515245E+02 -0.53811444867E+01  0.18571296696E+02  0.51100000000E-03 0. -1.
        -11    1    3    3    0    0  0.26998399976E+02  0.22459184582E+02  0.79188164376E+01  0.36000503155E+02  0.51100000000E-03 0.  1.
         12    1    3    3    0    0 -0.71503047083E+01 -0.46610312160E+00 -0.16392126985E+02  0.17889827742E+02  0.00000000000E+00 0. -1.
</event>
<event>
 7    1  0.1857734E-013  0.7246156E+02  0.7816164E-02  0.1226708E+00
        -11   -1    0    0    0    0  0.00000000000E+00  0.00000000000E+00  0.45593999997E+02  0.45594000000E+02  0.51100000000E-03 0.  1.
         11   -1    0    0    0    0 -0.00000000000E+00 -0.00000000000E+00 -0.45593999997E+02  0.45594000000E+02  0.51100000000E-03 0. -1.
    9900012    2    1    2    0    0 -0.51220919531E+01 -0.13105681360E+02 -0.12356574023E+02  0.72461557960E+02  0.69999983932E+02 0.  0.
        -12    1    1    2    0    0  0.51220919531E+01  0.13105681360E+02  0.12356574023E+02  0.18726442040E+02  0.00000000000E+00 0.  1.
         11    1    3    3    0    0 -0.22175654366E+02  0.58765869541E+01  0.74430842451E+01  0.24118321338E+02  0.51100000000E-03 0. -1.
        -11    1    3    3    0    0  0.14445371754E+02 -0.27695234623E+02 -0.59862888765E+01  0.31804566350E+02  0.51100000000E-03 0.  1.
        -12    1    3    3    0    0  0.26081906591E+01  0.87129663087E+01 -0.13813369392E+02  0.16538670272E+02  0.00000000000E+00 0.  1.
</event>
<event>
 7    1  0.1857734E-013  0.7246159E+02  0.7816164E-02  0.1226708E+00
        -11   -1    0    0    0    0  0.00000000000E+00  0.00000000000E+00  0.45593999997E+02  0.45594000000E+02  0.51100000000E-03 0. -1.
         11   -1    0    0    0    0 -0.00000000000E+00 -0.00000000000E+00 -0.45593999997E+02  0.45594000000E+02  0.51100000000E-03 0.  1.
    9900012    2    1    2    0    0  0.45062388572E+01 -0.24614778111E+01  0.18008706513E+02  0.72461586251E+02  0.70000020786E+02 0.  0.
        -12    1    1    2    0    0 -0.45062388572E+01  0.24614778111E+01 -0.18008706513E+02  0.18726413749E+02  0.00000000000E+00 0.  1.
         11    1    3    3    0    0 -0.98284631830E+00  0.16630073911E+02  0.15010378992E+02  0.22424023343E+02  0.51100000000E-03 0. -1.
        -11    1    3    3    0    0  0.23940300521E+01 -0.11623780970E+02 -0.21325663801E+02  0.24405483006E+02  0.51100000000E-03 0.  1.
         12    1    3    3    0    0  0.30950551234E+01 -0.74677707515E+01  0.24323991322E+02  0.25632079901E+02  0.00000000000E+00 0. -1.
</event>
<event>
 7    1  0.1857734E-013  0.7246155E+02  0.7816164E-02  0.1226708E+00
        -11   -1    0    0    0    0  0.00000000000E+00  0.00000000000E+00  0.45593999997E+02  0.45594000000E+02  0.51100000000E-03 0. -1.
         11   -1    0    0    0    0 -0.00000000000E+00 -0.00000000000E+00 -0.45593999997E+02  0.45594000000E+02  0.51100000000E-03 0.  1.
    9900012    2    1    2    0    0 -0.74856108659E+01  0.11505812772E+02  0.12738200612E+02  0.72461552061E+02  0.69999976248E+02 0.  0.
        -12    1    1    2    0    0  0.74856108659E+01 -0.11505812772E+02 -0.12738200612E+02  0.18726447939E+02  0.00000000000E+00 0.  1.
         11    1    3    3    0    0 -0.86310225264E+01 -0.49229579311E+01  0.13584753419E+02  0.16830792921E+02  0.51100000000E-03 0. -1.
        -11    1    3    3    0    0  0.15234861506E+02  0.27822765772E+02  0.11459222124E+02  0.33727156303E+02  0.51100000000E-03 0.  1.
        -12    1    3    3    0    0 -0.14089449845E+02 -0.11393995069E+02 -0.12305774931E+02  0.21903602837E+02  0.00000000000E+00 0.  1.
</event>
<event>
 7    1  0.1857734E-013  0.7246154E+02  0.7816164E-02  0.1226708E+00
        -11   -1    0    0    0    0  0.00000000000E+00  0.00000000000E+00  0.45593999997E+02  0.45594000000E+02  0.51100000000E-03 0.  1.
         11   -1    0    0    0    0 -0.00000000000E+00 -0.00000000000E+00 -0.45593999997E+02  0.45594000000E+02  0.51100000000E-03 0. -1.
    9900012    2    1    2    0    0  0.17768242516E+02 -0.43922886042E+01  0.39594856353E+01  0.72461543640E+02  0.69999965278E+02 0.  0.
        -12    1    1    2    0    0 -0.17768242516E+02  0.43922886042E+01 -0.39594856353E+01  0.18726456360E+02  0.00000000000E+00 0.  1.
         11    1    3    3    0    0 -0.62549561340E+01 -0.30629450160E+01  0.24045407159E+00  0.69687823062E+01  0.51100000000E-03 0. -1.
        -11    1    3    3    0    0  0.42242933468E+02  0.10211444583E+02 -0.75548092859E+00  0.43466191231E+02  0.51100000000E-03 0.  1.
        -12    1    3    3    0    0 -0.18219734818E+02 -0.11540788171E+02  0.44745124923E+01  0.22026570102E+02  0.00000000000E+00 0.  1.
</event>
<event>
 7    1  0.1857734E-013  0.7246159E+02  0.7816164E-02  0.1226708E+00
        -11   -1    0    0    0    0  0.00000000000E+00  0.00000000000E+00  0.45593999997E+02  0.45594000000E+02  0.51100000000E-03 0.  1.
         11   -1    0    0    0    0 -0.00000000000E+00 -0.00000000000E+00 -0.45593999997E+02  0.45594000000E+02  0.51100000000E-03 0. -1.
    9900012    2    1    2    0    0  0.17438278243E+02 -0.44946249145E+01 -0.51364763742E+01  0.72461585748E+02  0.70000020131E+02 0.  0.
        -12    1    1    2    0    0 -0.17438278243E+02  0.44946249145E+01  0.51364763742E+01  0.18726414252E+02  0.00000000000E+00 0.  1.
         11    1    3    3    0    0  0.40012063681E+01 -0.21884332729E+01 -0.29827210767E+02  0.30173852836E+02  0.51100000000E-03 0. -1.
        -11    1    3    3    0    0  0.27047538185E+01  0.10682614994E+02  0.22812042838E+02  0.25334230895E+02  0.51100000000E-03 0.  1.
        -12    1    3    3    0    0  0.10732318056E+02 -0.12988806636E+02  0.18786915547E+01  0.16953502017E+02  0.00000000000E+00 0.  1.
</event>
<event>
 7    1  0.1857734E-013  0.7246157E+02  0.7816164E-02  0.1226708E+00
        -11   -1    0    0    0    0  0.00000000000E+00  0.00000000000E+00  0.45593999997E+02  0.45594000000E+02  0.51100000000E-03 0.  1.
         11   -1    0    0    0    0 -0.00000000000E+00 -0.00000000000E+00 -0.45593999997E+02  0.45594000000E+02  0.51100000000E-03 0. -1.
    9900012    2    1    2    0    0 -0.16692110028E+02 -0.49078378259E+01 -0.69257242878E+01  0.72461573053E+02  0.70000003593E+02 0.  0.
        -12    1    1    2    0    0  0.16692110028E+02  0.49078378259E+01  0.69257242878E+01  0.18726426947E+02  0.00000000000E+00 0.  1.
         11    1    3    3    0    0  0.16013312311E+02 -0.12304915082E+02  0.14843875579E+02  0.25063474396E+02  0.51100000000E-03 0. -1.
        -11    1    3    3    0    0 -0.92810939911E+01  0.14697733949E+02 -0.68594227518E+01  0.18687262230E+02  0.51100000000E-03 0.  1.
         12    1    3    3    0    0 -0.23424328348E+02 -0.73006566929E+01 -0.14910177115E+02  0.28710836426E+02  0.00000000000E+00 0. -1.
</event>
<event>
 7    1  0.1857734E-013  0.7246148E+02  0.7816164E-02  0.1226708E+00
        -11   -1    0    0    0    0  0.00000000000E+00  0.00000000000E+00  0.45593999997E+02  0.45594000000E+02  0.51100000000E-03 0. -1.
         11   -1    0    0    0    0 -0.00000000000E+00 -0.00000000000E+00 -0.45593999997E+02  0.45594000000E+02  0.51100000000E-03 0.  1.
    9900012    2    1    2    0    0  0.17933812341E+02 -0.49210957986E+01  0.22008781826E+01  0.72461476732E+02  0.69999878117E+02 0.  0.
        -12    1    1    2    0    0 -0.17933812341E+02  0.49210957986E+01 -0.22008781826E+01  0.18726523268E+02  0.00000000000E+00 0.  1.
         11    1    3    3    0    0 -0.12737030027E+02 -0.14143265633E+02  0.14110402343E+02  0.23693192086E+02  0.51100000000E-03 0. -1.
        -11    1    3    3    0    0  0.62464633853E+01  0.14177735581E+02 -0.17348823464E+02  0.23259582259E+02  0.51100000000E-03 0.  1.
         12    1    3    3    0    0  0.24424378983E+02 -0.49555657465E+01  0.54392993037E+01  0.25508702387E+02  0.00000000000E+00 0. -1.
</event>
<event>
 7    1  0.1857734E-013  0.7246151E+02  0.7816164E-02  0.1226708E+00
        -11   -1    0    0    0    0  0.00000000000E+00  0.00000000000E+00  0.45593999997E+02  0.45594000000E+02  0.51100000000E-03 0. -1.
         11   -1    0    0    0    0 -0.00000000000E+00 -0.00000000000E+00 -0.45593999997E+02  0.45594000000E+02  0.51100000000E-03 0.  1.
    9900012    2    1    2    0    0  0.11441443362E+02 -0.84215065185E+01  0.12200530234E+02  0.72461512442E+02  0.69999924637E+02 0.  0.
        -12    1    1    2    0    0 -0.11441443362E+02  0.84215065185E+01 -0.12200530234E+02  0.18726487558E+02  0.00000000000E+00 0.  1.
         11    1    3    3    0    0  0.30203767786E+02 -0.12919570555E+02  0.21708571120E+02  0.39375689862E+02  0.51100000000E-03 0. -1.
        -11    1    3    3    0    0  0.58608241740E+01 -0.98743050158E+00 -0.42770985074E+01  0.73224211090E+01  0.51100000000E-03 0.  1.
         12    1    3    3    0    0 -0.24623148598E+02  0.54854945377E+01 -0.52309423779E+01  0.25763401471E+02  0.00000000000E+00 0. -1.
</event>
<event>
 7    1  0.1857734E-013  0.7246160E+02  0.7816164E-02  0.1226708E+00
        -11   -1    0    0    0    0  0.00000000000E+00  0.00000000000E+00  0.45593999997E+02  0.45594000000E+02  0.51100000000E-03 0.  1.
         11   -1    0    0    0    0 -0.00000000000E+00 -0.00000000000E+00 -0.45593999997E+02  0.45594000000E+02  0.51100000000E-03 0. -1.
    9900012    2    1    2    0    0 -0.96849704323E+01  0.30294147473E+01 -0.15738548662E+02  0.72461603658E+02  0.70000043462E+02 0.  0.
        -12    1    1    2    0    0  0.96849704323E+01 -0.30294147473E+01  0.15738548662E+02  0.18726396342E+02  0.00000000000E+00 0.  1.
         11    1    3    3    0    0  0.87627838118E+01  0.21887915017E+02 -0.73513060590E+01  0.24696333836E+02  0.51100000000E-03 0. -1.
        -11    1    3    3    0    0  0.11155400896E+01 -0.59502708980E+01  0.14062422040E+02  0.15310188351E+02  0.51100000000E-03 0.  1.
        -12    1    3    3    0    0 -0.19563294334E+02 -0.12908229372E+02 -0.22449664643E+02  0.32455081471E+02  0.00000000000E+00 0.  1.
</event>
<event>
 7    1  0.1857734E-013  0.7246155E+02  0.7816164E-02  0.1226708E+00
        -11   -1    0    0    0    0  0.00000000000E+00  0.00000000000E+00  0.45593999997E+02  0.45594000000E+02  0.51100000000E-03 0. -1.
         11   -1    0    0    0    0 -0.00000000000E+00 -0.00000000000E+00 -0.45593999997E+02  0.45594000000E+02  0.51100000000E-03 0.  1.
    9900012    2    1    2    0    0  0.15348774641E+02  0.17666953285E+01  0.10581776920E+02  0.72461545499E+02  0.69999967700E+02 0.  0.
        -12    1    1    2    0    0 -0.15348774641E+02 -0.17666953285E+01 -0.10581776920E+02  0.18726454501E+02  0.00000000000E+00 0.  1.
         11    1    3    3    0    0 -0.13216869454E+02  0.37836677871E+01 -0.13290510278E+02  0.19121700860E+02  0.51100000000E-03 0.  1.
        -11    1    3    3    0    0  0.32536135795E+01 -0.47284766366E+01  0.27080088883E+02  0.27681685404E+02  0.51100000000E-03 0. -1.
        -12    1    3    3    0    0  0.25312030516E+02  0.27115041780E+01 -0.32078016851E+01  0.25658159236E+02  0.00000000000E+00 0.  1.
</event>
<event>
 7    1  0.1857734E-013  0.7246157E+02  0.7816164E-02  0.1226708E+00
        -11   -1    0    0    0    0  0.00000000000E+00  0.00000000000E+00  0.45593999997E+02  0.45594000000E+02  0.51100000000E-03 0. -1.
         11   -1    0    0    0    0 -0.00000000000E+00 -0.00000000000E+00 -0.45593999997E+02  0.45594000000E+02  0.51100000000E-03 0.  1.
    9900012    2    1    2    0    0 -0.95053190940E+01 -0.14949056936E+02  0.60707428962E+01  0.72461566446E+02  0.69999994987E+02 0.  0.
        -12    1    1    2    0    0  0.95053190940E+01  0.14949056936E+02 -0.60707428962E+01  0.18726433554E+02  0.00000000000E+00 0.  1.
         11    1    3    3    0    0 -0.21311377655E+02  0.60078742600E+01  0.30429747258E+02  0.37632949514E+02  0.51100000000E-03 0. -1.
        -11    1    3    3    0    0  0.91384053539E+01 -0.99807392885E+01 -0.12017513393E+02  0.18098238521E+02  0.51100000000E-03 0.  1.
         12    1    3    3    0    0  0.26676532069E+01 -0.10976191907E+02 -0.12341490969E+02  0.16730378411E+02  0.00000000000E+00 0. -1.
</event>
<event>
 7    1  0.1857734E-013  0.7246158E+02  0.7816164E-02  0.1226708E+00
        -11   -1    0    0    0    0  0.00000000000E+00  0.00000000000E+00  0.45593999997E+02  0.45594000000E+02  0.51100000000E-03 0.  1.
         11   -1    0    0    0    0 -0.00000000000E+00 -0.00000000000E+00 -0.45593999997E+02  0.45594000000E+02  0.51100000000E-03 0. -1.
    9900012    2    1    2    0    0 -0.22407967979E+00 -0.17883455433E+02 -0.55507252547E+01  0.72461581742E+02  0.70000014912E+02 0.  0.
        -12    1    1    2    0    0  0.22407967979E+00  0.17883455433E+02  0.55507252547E+01  0.18726418258E+02  0.00000000000E+00 0.  1.
         11    1    3    3    0    0 -0.11791876800E+02 -0.12424085453E+02  0.17188581524E+02  0.24266305711E+02  0.51100000000E-03 0.  1.
        -11    1    3    3    0    0  0.37927598726E+01  0.11533436878E+01 -0.33284320523E+02  0.33519564765E+02  0.51100000000E-03 0. -1.
        -12    1    3    3    0    0  0.77750372478E+01 -0.66127136676E+01  0.10545013745E+02  0.14675711265E+02  0.00000000000E+00 0.  1.
</event>
<event>
 7    1  0.1857734E-013  0.7246155E+02  0.7816164E-02  0.1226708E+00
        -11   -1    0    0    0    0  0.00000000000E+00  0.00000000000E+00  0.45593999997E+02  0.45594000000E+02  0.51100000000E-03 0.  1.
         11   -1    0    0    0    0 -0.00000000000E+00 -0.00000000000E+00 -0.45593999997E+02  0.45594000000E+02  0.51100000000E-03 0. -1.
    9900012    2    1    2    0    0 -0.66326508738E+01  0.27396667201E+01 -0.17296880122E+02  0.72461550969E+02  0.69999974826E+02 0.  0.
        -12    1    1    2    0    0  0.66326508738E+01 -0.27396667201E+01  0.17296880122E+02  0.18726449031E+02  0.00000000000E+00 0.  1.
         11    1    3    3    0    0 -0.96961253080E+01 -0.27286731944E+02 -0.64213289868E+01  0.29661659637E+02  0.51100000000E-03 0. -1.
        -11    1    3    3    0    0  0.25975436339E+01  0.16793080251E+02  0.87591171657E+01  0.19117450432E+02  0.51100000000E-03 0.  1.
         12    1    3    3    0    0  0.46593080033E+00  0.13233318414E+02 -0.19634668301E+02  0.23682440901E+02  0.00000000000E+00 0. -1.
</event>
<event>
 7    1  0.1857734E-013  0.7246161E+02  0.7816164E-02  0.1226708E+00
        -11   -1    0    0    0    0  0.00000000000E+00  0.00000000000E+00  0.45593999997E+02  0.45594000000E+02  0.51100000000E-03 0. -1.
         11   -1    0    0    0    0 -0.00000000000E+00 -0.00000000000E+00 -0.45593999997E+02  0.45594000000E+02  0.51100000000E-03 0.  1.
    9900012    2    1    2    0    0 -0.11203309810E+02 -0.13534356092E+02  0.64795678298E+01  0.72461608335E+02  0.70000049555E+02 0.  0.
        -12    1    1    2    0    0  0.11203309810E+02  0.13534356092E+02 -0.64795678298E+01  0.18726391665E+02  0.00000000000E+00 0.  1.
         11    1    3    3    0    0  0.89892408962E+01 -0.59960442431E+01  0.31820377818E+02  0.33604991343E+02  0.51100000000E-03 0. -1.
        -11    1    3    3    0    0 -0.14655910861E+02 -0.13828039605E+00 -0.25724285158E+02  0.29606649452E+02  0.51100000000E-03 0.  1.
         12    1    3    3    0    0 -0.55366398451E+01 -0.74000314532E+01  0.38347516987E+00  0.92499675399E+01  0.00000000000E+00 0. -1.
</event>
<event>
 7    1  0.1857734E-013  0.7246157E+02  0.7816164E-02  0.1226708E+00
        -11   -1    0    0    0    0  0.00000000000E+00  0.00000000000E+00  0.45593999997E+02  0.45594000000E+02  0.51100000000E-03 0. -1.
         11   -1    0    0    0    0 -0.00000000000E+00 -0.00000000000E+00 -0.45593999997E+02  0.45594000000E+02  0.51100000000E-03 0.  1.
    9900012    2    1    2    0    0 -0.15619972991E+02  0.10327556362E+02 -0.19293299477E+00  0.72461569486E+02  0.69999998947E+02 0.  0.
        -12    1    1    2    0    0  0.15619972991E+02 -0.10327556362E+02  0.19293299477E+00  0.18726430514E+02  0.00000000000E+00 0.  1.
         11    1    3    3    0    0 -0.13983905669E+02  0.25581124437E+02  0.23635249604E+02  0.37530901525E+02  0.51100000000E-03 0. -1.
        -11    1    3    3    0    0  0.86420313283E+01 -0.64487124348E+01 -0.16004892325E+02  0.19298372371E+02  0.51100000000E-03 0.  1.
        -12    1    3    3    0    0 -0.10278098651E+02 -0.88048556402E+01 -0.78232902730E+01  0.15632295590E+02  0.00000000000E+00 0.  1.
</event>
<event>
 7    1  0.1857734E-013  0.7246157E+02  0.7816164E-02  0.1226708E+00
        -11   -1    0    0    0    0  0.00000000000E+00  0.00000000000E+00  0.45593999997E+02  0.45594000000E+02  0.51100000000E-03 0. -1.
         11   -1    0    0    0    0 -0.00000000000E+00 -0.00000000000E+00 -0.45593999997E+02  0.45594000000E+02  0.51100000000E-03 0.  1.
    9900012    2    1    2    0    0  0.16455038507E+02 -0.40300591273E+01  0.79793201568E+01  0.72461568973E+02  0.69999998279E+02 0.  0.
        -12    1    1    2    0    0 -0.16455038507E+02  0.40300591273E+01 -0.79793201568E+01  0.18726431027E+02  0.00000000000E+00 0.  1.
         11    1    3    3    0    0  0.19583818718E+02 -0.22097999390E+02  0.52646099291E+01  0.29992726628E+02  0.51100000000E-03 0. -1.
        -11    1    3    3    0    0 -0.64186366374E+01  0.29479151724E+02 -0.46913037445E+00  0.30173487804E+02  0.51100000000E-03 0.  1.
        -12    1    3    3    0    0  0.32898564265E+01 -0.11411211461E+02  0.31838406021E+01  0.12295354541E+02  0.00000000000E+00 0.  1.
</event>
<event>
 7    1  0.1857734E-013  0.7246174E+02  0.7816164E-02  0.1226708E+00
        -11   -1    0    0    0    0  0.00000000000E+00  0.00000000000E+00  0.45593999997E+02  0.45594000000E+02  0.51100000000E-03 0. -1.
         11   -1    0    0    0    0 -0.00000000000E+00 -0.00000000000E+00 -0.45593999997E+02  0.45594000000E+02  0.51100000000E-03 0.  1.
    9900012    2    1    2    0    0  0.56586613786E+00  0.14408980090E+02  0.11947132989E+02  0.72461737736E+02  0.70000218124E+02 0.  0.
        -12    1    1    2    0    0 -0.56586613786E+00 -0.14408980090E+02 -0.11947132989E+02  0.18726262264E+02  0.00000000000E+00 0.  1.
         11    1    3    3    0    0  0.10697764970E+02 -0.22933302413E+02  0.19088860799E+02  0.31697999019E+02  0.51100000000E-03 0. -1.
        -11    1    3    3    0    0 -0.85748052681E+01  0.17482563934E+02 -0.74283494967E+01  0.20841010138E+02  0.51100000000E-03 0.  1.
         12    1    3    3    0    0 -0.15570935644E+01  0.19859718570E+02  0.28662168679E+00  0.19922728579E+02  0.00000000000E+00 0. -1.
</event>
<event>
 7    1  0.1857734E-013  0.7246157E+02  0.7816164E-02  0.1226708E+00
        -11   -1    0    0    0    0  0.00000000000E+00  0.00000000000E+00  0.45593999997E+02  0.45594000000E+02  0.51100000000E-03 0.  1.
         11   -1    0    0    0    0 -0.00000000000E+00 -0.00000000000E+00 -0.45593999997E+02  0.45594000000E+02  0.51100000000E-03 0. -1.
    9900012    2    1    2    0    0  0.78132251771E+01 -0.15595735223E+02 -0.68121650557E+01  0.72461573818E+02  0.70000004590E+02 0.  0.
        -12    1    1    2    0    0 -0.78132251771E+01  0.15595735223E+02  0.68121650557E+01  0.18726426182E+02  0.00000000000E+00 0.  1.
         11    1    3    3    0    0  0.27655125928E+02 -0.11355309644E+02 -0.11034382493E+02  0.31867014991E+02  0.51100000000E-03 0. -1.
        -11    1    3    3    0    0 -0.32908155680E+01  0.14343077458E+02 -0.22362634737E+01  0.14884697264E+02  0.51100000000E-03 0.  1.
         12    1    3    3    0    0 -0.16551085183E+02 -0.18583503037E+02  0.64584809109E+01  0.25709861562E+02  0.00000000000E+00 0. -1.
</event>
<event>
 7    1  0.1857734E-013  0.7246164E+02  0.7816164E-02  0.1226708E+00
        -11   -1    0    0    0    0  0.00000000000E+00  0.00000000000E+00  0.45593999997E+02  0.45594000000E+02  0.51100000000E-03 0.  1.
         11   -1    0    0    0    0 -0.00000000000E+00 -0.00000000000E+00 -0.45593999997E+02  0.45594000000E+02  0.51100000000E-03 0. -1.
    9900012    2    1    2    0    0 -0.64754077215E+01  0.23250494055E+01 -0.17416654359E+02  0.72461638662E+02  0.70000089061E+02 0.  0.
        -12    1    1    2    0    0  0.64754077215E+01 -0.23250494055E+01  0.17416654359E+02  0.18726361338E+02  0.00000000000E+00 0.  1.
         11    1    3    3    0    0 -0.66721863475E+01  0.47986049752E+01 -0.35070827071E+02  0.36020932693E+02  0.51100000000E-03 0. -1.
        -11    1    3    3    0    0  0.10511680427E+02  0.10293072898E+02  0.12300566590E+02  0.19176723228E+02  0.51100000000E-03 0.  1.
        -12    1    3    3    0    0 -0.10314901801E+02 -0.12766628467E+02  0.53536061215E+01  0.17263982741E+02  0.00000000000E+00 0.  1.
</event>
<event>
 7    1  0.1857734E-013  0.7246157E+02  0.7816164E-02  0.1226708E+00
        -11   -1    0    0    0    0  0.00000000000E+00  0.00000000000E+00  0.45593999997E+02  0.45594000000E+02  0.51100000000E-03 0. -1.
         11   -1    0    0    0    0 -0.00000000000E+00 -0.00000000000E+00 -0.45593999997E+02  0.45594000000E+02  0.51100000000E-03 0.  1.
    9900012    2    1    2    0    0  0.21657131914E+00 -0.16595224890E+02 -0.86735746447E+01  0.72461567094E+02  0.69999995830E+02 0.  0.
        -12    1    1    2    0    0 -0.21657131914E+00  0.16595224890E+02  0.86735746447E+01  0.18726432906E+02  0.00000000000E+00 0.  1.
         11    1    3    3    0    0  0.13365445386E+02  0.13425917936E+02  0.66844887498E+01  0.20089121257E+02  0.51100000000E-03 0. -1.
        -11    1    3    3    0    0 -0.15291215991E+01 -0.91449998829E+01 -0.24957394876E+02  0.26624064208E+02  0.51100000000E-03 0.  1.
         12    1    3    3    0    0 -0.11619752468E+02 -0.20876142943E+02  0.95993314810E+01  0.25748381628E+02  0.00000000000E+00 0. -1.
</event>
<event>
 7    1  0.1857734E-013  0.7246159E+02  0.7816164E-02  0.1226708E+00
        -11   -1    0    0    0    0  0.00000000000E+00  0.00000000000E+00  0.45593999997E+02  0.45594000000E+02  0.51100000000E-03 0. -1.
         11   -1    0    0    0    0 -0.00000000000E+00 -0.00000000000E+00 -0.45593999997E+02  0.45594000000E+02  0.51100000000E-03 0.  1.
    9900012    2    1    2    0    0  0.41636170971E+01 -0.11637842748E+02  0.14067812306E+02  0.72461589927E+02  0.70000025575E+02 0.  0.
        -12    1    1    2    0    0 -0.41636170971E+01  0.11637842748E+02 -0.14067812306E+02  0.18726410073E+02  0.00000000000E+00 0.  1.
         11    1    3    3    0    0  0.62304605025E+01  0.17104764616E+02  0.25300277221E+02  0.31168824783E+02  0.51100000000E-03 0. -1.
        -11    1    3    3    0    0 -0.90884186897E+01 -0.13878175754E+02 -0.17112325697E+02  0.23833480811E+02  0.51100000000E-03 0.  1.
        -12    1    3    3    0    0  0.70215752843E+01 -0.14864431611E+02  0.58798607824E+01  0.17459284332E+02  0.00000000000E+00 0.  1.
</event>
<event>
 7    1  0.1857734E-013  0.7246157E+02  0.7816164E-02  0.1226708E+00
        -11   -1    0    0    0    0  0.00000000000E+00  0.00000000000E+00  0.45593999997E+02  0.45594000000E+02  0.51100000000E-03 0.  1.
         11   -1    0    0    0    0 -0.00000000000E+00 -0.00000000000E+00 -0.45593999997E+02  0.45594000000E+02  0.51100000000E-03 0. -1.
    9900012    2    1    2    0    0 -0.63738150125E+01 -0.13812667815E+02  0.10920793324E+02  0.72461573837E+02  0.70000004616E+02 0.  0.
        -12    1    1    2    0    0  0.63738150125E+01  0.13812667815E+02 -0.10920793324E+02  0.18726426163E+02  0.00000000000E+00 0.  1.
         11    1    3    3    0    0  0.21444973008E+02  0.58484916351E+01  0.13191251253E+02  0.25847646538E+02  0.51100000000E-03 0. -1.
        -11    1    3    3    0    0 -0.31061192556E+02 -0.17216751426E+02  0.72657393968E+01  0.36249209397E+02  0.51100000000E-03 0.  1.
        -12    1    3    3    0    0  0.32424045357E+01 -0.24444080240E+01 -0.95361973254E+01  0.10364717902E+02  0.00000000000E+00 0.  1.
</event>
<event>
 7    1  0.1857734E-013  0.7246152E+02  0.7816164E-02  0.1226708E+00
        -11   -1    0    0    0    0  0.00000000000E+00  0.00000000000E+00  0.45593999997E+02  0.45594000000E+02  0.51100000000E-03 0. -1.
         11   -1    0    0    0    0 -0.00000000000E+00 -0.00000000000E+00 -0.45593999997E+02  0.45594000000E+02  0.51100000000E-03 0.  1.
    9900012    2    1    2    0    0 -0.16191490461E+01 -0.73591596248E+01  0.17143580211E+02  0.72461515640E+02  0.69999928803E+02 0.  0.
        -12    1    1    2    0    0  0.16191490461E+01  0.73591596248E+01 -0.17143580211E+02  0.18726484360E+02  0.00000000000E+00 0.  1.
         11    1    3    3    0    0  0.13392117969E+02 -0.26705029054E+02 -0.11819823877E+02  0.32128112880E+02  0.51100000000E-03 0.  1.
        -11    1    3    3    0    0 -0.13015614065E+02  0.13410680515E+02  0.28465424456E+02  0.34051915528E+02  0.51100000000E-03 0. -1.
         12    1    3    3    0    0 -0.19956529495E+01  0.59351889146E+01  0.49797963156E+00  0.62814872332E+01  0.00000000000E+00 0. -1.
</event>
<event>
 7    1  0.1857734E-013  0.7246160E+02  0.7816164E-02  0.1226708E+00
        -11   -1    0    0    0    0  0.00000000000E+00  0.00000000000E+00  0.45593999997E+02  0.45594000000E+02  0.51100000000E-03 0. -1.
         11   -1    0    0    0    0 -0.00000000000E+00 -0.00000000000E+00 -0.45593999997E+02  0.45594000000E+02  0.51100000000E-03 0.  1.
    9900012    2    1    2    0    0  0.85765119046E+01 -0.13561957922E+02  0.96537548058E+01  0.72461595087E+02  0.70000032296E+02 0.  0.
        -12    1    1    2    0    0 -0.85765119046E+01  0.13561957922E+02 -0.96537548058E+01  0.18726404913E+02  0.00000000000E+00 0.  1.
         11    1    3    3    0    0 -0.13158833627E+02  0.86575809643E+01 -0.54861486954E+01  0.16679521527E+02  0.51100000000E-03 0. -1.
        -11    1    3    3    0    0  0.27363321138E+02  0.30597153785E+01  0.10519652504E+02  0.29475011297E+02  0.51100000000E-03 0.  1.
        -12    1    3    3    0    0 -0.56279756062E+01 -0.25279254265E+02  0.46202509977E+01  0.26307062263E+02  0.00000000000E+00 0.  1.
</event>
<event>
 7    1  0.1857734E-013  0.7246155E+02  0.7816164E-02  0.1226708E+00
        -11   -1    0    0    0    0  0.00000000000E+00  0.00000000000E+00  0.45593999997E+02  0.45594000000E+02  0.51100000000E-03 0.  1.
         11   -1    0    0    0    0 -0.00000000000E+00 -0.00000000000E+00 -0.45593999997E+02  0.45594000000E+02  0.51100000000E-03 0. -1.
    9900012    2    1    2    0    0  0.10137915852E+02  0.62148685571E+01 -0.14466439357E+02  0.72461553549E+02  0.69999978187E+02 0.  0.
        -12    1    1    2    0    0 -0.10137915852E+02 -0.62148685571E+01  0.14466439357E+02  0.18726446451E+02  0.00000000000E+00 0.  1.
         11    1    3    3    0    0  0.34342201907E+02  0.98475288155E+00  0.81058380533E+01  0.35299591795E+02  0.51100000000E-03 0. -1.
        -11    1    3    3    0    0 -0.13231332163E+02 -0.43676036284E+01 -0.15864640427E+02  0.21114708816E+02  0.51100000000E-03 0.  1.
         12    1    3    3    0    0 -0.10972953892E+02  0.95977193039E+01 -0.67076369832E+01  0.16047252938E+02  0.00000000000E+00 0. -1.
</event>
<event>
 7    1  0.1857734E-013  0.7246155E+02  0.7816164E-02  0.1226708E+00
        -11   -1    0    0    0    0  0.00000000000E+00  0.00000000000E+00  0.45593999997E+02  0.45594000000E+02  0.51100000000E-03 0. -1.
         11   -1    0    0    0    0 -0.00000000000E+00 -0.00000000000E+00 -0.45593999997E+02  0.45594000000E+02  0.51100000000E-03 0.  1.
    9900012    2    1    2    0    0  0.12403227459E+02 -0.52223619300E+01  0.13021776115E+02  0.72461554296E+02  0.69999979159E+02 0.  0.
        -12    1    1    2    0    0 -0.12403227459E+02  0.52223619300E+01 -0.13021776115E+02  0.18726445704E+02  0.00000000000E+00 0.  1.
         11    1    3    3    0    0 -0.23125018172E+02  0.52760734951E+01 -0.49914118420E+01  0.24238762539E+02  0.51100000000E-03 0. -1.
        -11    1    3    3    0    0  0.91779381748E+01  0.40187815949E+01 -0.41613197625E+01  0.10849043141E+02  0.51100000000E-03 0.  1.
         12    1    3    3    0    0  0.26350307455E+02 -0.14517217020E+02  0.22174507720E+02  0.37373748616E+02  0.00000000000E+00 0. -1.
</event>
<event>
 7    1  0.1857734E-013  0.7246151E+02  0.7816164E-02  0.1226708E+00
        -11   -1    0    0    0    0  0.00000000000E+00  0.00000000000E+00  0.45593999997E+02  0.45594000000E+02  0.51100000000E-03 0.  1.
         11   -1    0    0    0    0 -0.00000000000E+00 -0.00000000000E+00 -0.45593999997E+02  0.45594000000E+02  0.51100000000E-03 0. -1.
    9900012    2    1    2    0    0  0.15740583508E+02  0.47618938810E+01 -0.89576596634E+01  0.72461514233E+02  0.69999926970E+02 0.  0.
        -12    1    1    2    0    0 -0.15740583508E+02 -0.47618938810E+01  0.89576596634E+01  0.18726485767E+02  0.00000000000E+00 0.  1.
         11    1    3    3    0    0 -0.13425110230E+02  0.16917380403E+02 -0.18616421022E+02  0.28513198283E+02  0.51100000000E-03 0. -1.
        -11    1    3    3    0    0  0.33803540506E+00 -0.13426670759E+02  0.64973988354E+01  0.14919984836E+02  0.51100000000E-03 0.  1.
         12    1    3    3    0    0  0.28827658333E+02  0.12711842369E+01  0.31613625231E+01  0.29028331115E+02  0.00000000000E+00 0. -1.
</event>
<event>
 7    1  0.1857734E-013  0.7246160E+02  0.7816164E-02  0.1226708E+00
        -11   -1    0    0    0    0  0.00000000000E+00  0.00000000000E+00  0.45593999997E+02  0.45594000000E+02  0.51100000000E-03 0. -1.
         11   -1    0    0    0    0 -0.00000000000E+00 -0.00000000000E+00 -0.45593999997E+02  0.45594000000E+02  0.51100000000E-03 0.  1.
    9900012    2    1    2    0    0 -0.15980818243E+01  0.26604359211E+01  0.18467441971E+02  0.72461596240E+02  0.70000033799E+02 0.  0.
        -12    1    1    2    0    0  0.15980818243E+01 -0.26604359211E+01 -0.18467441971E+02  0.18726403760E+02  0.00000000000E+00 0.  1.
         11    1    3    3    0    0 -0.26017461646E+02  0.10608968645E+02 -0.51787899410E+01  0.28570586129E+02  0.51100000000E-03 0. -1.
        -11    1    3    3    0    0  0.11915539973E+02  0.17075714412E-01 -0.39594639168E+01  0.12556183306E+02  0.51100000000E-03 0.  1.
         12    1    3    3    0    0  0.12503839848E+02 -0.79656084381E+01  0.27605695829E+02  0.31334826806E+02  0.00000000000E+00 0. -1.
</event>
<event>
 7    1  0.1857734E-013  0.7246160E+02  0.7816164E-02  0.1226708E+00
        -11   -1    0    0    0    0  0.00000000000E+00  0.00000000000E+00  0.45593999997E+02  0.45594000000E+02  0.51100000000E-03 0.  1.
         11   -1    0    0    0    0 -0.00000000000E+00 -0.00000000000E+00 -0.45593999997E+02  0.45594000000E+02  0.51100000000E-03 0. -1.
    9900012    2    1    2    0    0 -0.16609396022E+02 -0.85757118305E+01  0.11239269257E+01  0.72461599349E+02  0.70000037849E+02 0.  0.
        -12    1    1    2    0    0  0.16609396022E+02  0.85757118305E+01 -0.11239269257E+01  0.18726400651E+02  0.00000000000E+00 0.  1.
         11    1    3    3    0    0  0.52055747755E+01 -0.21733779820E+02 -0.19867228230E+02  0.29902540892E+02  0.51100000000E-03 0. -1.
        -11    1    3    3    0    0 -0.21991527733E+02  0.44747750144E+00  0.20132070126E+02  0.29818245688E+02  0.51100000000E-03 0.  1.
        -12    1    3    3    0    0  0.17655693533E+00  0.12710590488E+02  0.85908503010E+00  0.12740812768E+02  0.00000000000E+00 0.  1.
</event>
<event>
 7    1  0.1857734E-013  0.7246156E+02  0.7816164E-02  0.1226708E+00
        -11   -1    0    0    0    0  0.00000000000E+00  0.00000000000E+00  0.45593999997E+02  0.45594000000E+02  0.51100000000E-03 0.  1.
         11   -1    0    0    0    0 -0.00000000000E+00 -0.00000000000E+00 -0.45593999997E+02  0.45594000000E+02  0.51100000000E-03 0. -1.
    9900012    2    1    2    0    0  0.72513578060E+01 -0.17115146826E+02  0.22735535360E+01  0.72461561829E+02  0.69999988972E+02 0.  0.
        -12    1    1    2    0    0 -0.72513578060E+01  0.17115146826E+02 -0.22735535360E+01  0.18726438171E+02  0.00000000000E+00 0.  1.
         11    1    3    3    0    0 -0.30116590731E+00  0.16601631177E+02  0.14183714746E+02  0.21837642338E+02  0.51100000000E-03 0.  1.
        -11    1    3    3    0    0  0.10927931486E+02 -0.25402641392E+02 -0.23274273155E+02  0.36144234220E+02  0.51100000000E-03 0. -1.
        -12    1    3    3    0    0 -0.33754077722E+01 -0.83141366112E+01  0.11364111945E+02  0.14479685270E+02  0.00000000000E+00 0.  1.
</event>
<event>
 7    1  0.1857734E-013  0.7246156E+02  0.7816164E-02  0.1226708E+00
        -11   -1    0    0    0    0  0.00000000000E+00  0.00000000000E+00  0.45593999997E+02  0.45594000000E+02  0.51100000000E-03 0.  1.
         11   -1    0    0    0    0 -0.00000000000E+00 -0.00000000000E+00 -0.45593999997E+02  0.45594000000E+02  0.51100000000E-03 0. -1.
    9900012    2    1    2    0    0  0.90974021807E+01  0.50009902928E+01 -0.15585467487E+02  0.72461563416E+02  0.69999991040E+02 0.  0.
        -12    1    1    2    0    0 -0.90974021807E+01 -0.50009902928E+01  0.15585467487E+02  0.18726436584E+02  0.00000000000E+00 0.  1.
         11    1    3    3    0    0  0.35401437569E+02  0.31423443425E+00  0.32129259757E+01  0.35548325120E+02  0.51100000000E-03 0.  1.
        -11    1    3    3    0    0 -0.25126083330E+02  0.93516297915E+01 -0.14599334045E+02  0.30527259918E+02  0.51100000000E-03 0. -1.
         12    1    3    3    0    0 -0.11779520587E+01 -0.46648739329E+01 -0.41990594174E+01  0.63859783787E+01  0.00000000000E+00 0. -1.
</event>
<event>
 7    1  0.1857734E-013  0.7246158E+02  0.7816164E-02  0.1226708E+00
        -11   -1    0    0    0    0  0.00000000000E+00  0.00000000000E+00  0.45593999997E+02  0.45594000000E+02  0.51100000000E-03 0.  1.
         11   -1    0    0    0    0 -0.00000000000E+00 -0.00000000000E+00 -0.45593999997E+02  0.45594000000E+02  0.51100000000E-03 0. -1.
    9900012    2    1    2    0    0  0.13761256862E+02 -0.10190438441E+02 -0.75803423790E+01  0.72461579717E+02  0.70000012275E+02 0.  0.
        -12    1    1    2    0    0 -0.13761256862E+02  0.10190438441E+02  0.75803423790E+01  0.18726420283E+02  0.00000000000E+00 0.  1.
         11    1    3    3    0    0  0.25182304925E+02  0.46036937264E+01  0.47805179366E+01  0.26042193250E+02  0.51100000000E-03 0. -1.
        -11    1    3    3    0    0 -0.17397586541E+02  0.79446506301E+01  0.14006520512E+01  0.19176947554E+02  0.51100000000E-03 0.  1.
         12    1    3    3    0    0  0.59765384771E+01 -0.22738782797E+02 -0.13761512367E+02  0.27242438912E+02  0.00000000000E+00 0. -1.
</event>
<event>
 7    1  0.1857734E-013  0.7246158E+02  0.7816164E-02  0.1226708E+00
        -11   -1    0    0    0    0  0.00000000000E+00  0.00000000000E+00  0.45593999997E+02  0.45594000000E+02  0.51100000000E-03 0. -1.
         11   -1    0    0    0    0 -0.00000000000E+00 -0.00000000000E+00 -0.45593999997E+02  0.45594000000E+02  0.51100000000E-03 0.  1.
    9900012    2    1    2    0    0 -0.11525552008E+02  0.12852406179E+02  0.72564649758E+01  0.72461575418E+02  0.70000006674E+02 0.  0.
        -12    1    1    2    0    0  0.11525552008E+02 -0.12852406179E+02 -0.72564649758E+01  0.18726424582E+02  0.00000000000E+00 0.  1.
         11    1    3    3    0    0 -0.19116799943E+02 -0.56892977427E+01 -0.11482149623E+00  0.19945759777E+02  0.51100000000E-03 0. -1.
        -11    1    3    3    0    0  0.25815629838E+02  0.14436092885E+02 -0.51551231254E+01  0.30023704242E+02  0.51100000000E-03 0.  1.
        -12    1    3    3    0    0 -0.18224381904E+02  0.41056110363E+01  0.12526409597E+02  0.22492111398E+02  0.00000000000E+00 0.  1.
</event>
<event>
 7    1  0.1857734E-013  0.7246156E+02  0.7816164E-02  0.1226708E+00
        -11   -1    0    0    0    0  0.00000000000E+00  0.00000000000E+00  0.45593999997E+02  0.45594000000E+02  0.51100000000E-03 0. -1.
         11   -1    0    0    0    0 -0.00000000000E+00 -0.00000000000E+00 -0.45593999997E+02  0.45594000000E+02  0.51100000000E-03 0.  1.
    9900012    2    1    2    0    0 -0.50480500008E+00  0.16376054933E+02  0.90691495740E+01  0.72461562078E+02  0.69999989297E+02 0.  0.
        -12    1    1    2    0    0  0.50480500008E+00 -0.16376054933E+02 -0.90691495740E+01  0.18726437922E+02  0.00000000000E+00 0.  1.
         11    1    3    3    0    0 -0.11853986999E+02  0.30060009562E+02  0.61490084340E+01  0.32892726972E+02  0.51100000000E-03 0. -1.
        -11    1    3    3    0    0 -0.92611873444E+01 -0.13505411296E+02 -0.55420871491E+01  0.17288159403E+02  0.51100000000E-03 0.  1.
         12    1    3    3    0    0  0.20610369343E+02 -0.17854333319E+00  0.84622282891E+01  0.22280675704E+02  0.00000000000E+00 0. -1.
</event>
<event>
 7    1  0.1857734E-013  0.7246158E+02  0.7816164E-02  0.1226708E+00
        -11   -1    0    0    0    0  0.00000000000E+00  0.00000000000E+00  0.45593999997E+02  0.45594000000E+02  0.51100000000E-03 0. -1.
         11   -1    0    0    0    0 -0.00000000000E+00 -0.00000000000E+00 -0.45593999997E+02  0.45594000000E+02  0.51100000000E-03 0.  1.
    9900012    2    1    2    0    0  0.77816067220E+01 -0.15493094978E+02  0.70773965385E+01  0.72461576505E+02  0.70000008090E+02 0.  0.
        -12    1    1    2    0    0 -0.77816067220E+01  0.15493094978E+02 -0.70773965385E+01  0.18726423495E+02  0.00000000000E+00 0.  1.
         11    1    3    3    0    0  0.16595204114E+02 -0.22366791560E+02 -0.78331810799E+01  0.28931520706E+02  0.51100000000E-03 0. -1.
        -11    1    3    3    0    0  0.14885383656E+01  0.35395619667E+01  0.27016503964E+02  0.27288014440E+02  0.51100000000E-03 0.  1.
        -12    1    3    3    0    0 -0.10302135758E+02  0.33341346159E+01 -0.12105926345E+02  0.16242041358E+02  0.00000000000E+00 0.  1.
</event>
<event>
 7    1  0.1857734E-013  0.7246156E+02  0.7816164E-02  0.1226708E+00
        -11   -1    0    0    0    0  0.00000000000E+00  0.00000000000E+00  0.45593999997E+02  0.45594000000E+02  0.51100000000E-03 0. -1.
         11   -1    0    0    0    0 -0.00000000000E+00 -0.00000000000E+00 -0.45593999997E+02  0.45594000000E+02  0.51100000000E-03 0.  1.
    9900012    2    1    2    0    0  0.15099687775E+02 -0.68347778798E+01 -0.87157722409E+01  0.72461562930E+02  0.69999990407E+02 0.  0.
        -12    1    1    2    0    0 -0.15099687775E+02  0.68347778798E+01  0.87157722409E+01  0.18726437070E+02  0.00000000000E+00 0.  1.
         11    1    3    3    0    0  0.15564971287E+02  0.24105765826E+01 -0.44891204364E+00  0.15756926506E+02  0.51100000000E-03 0. -1.
        -11    1    3    3    0    0 -0.87508159546E+01 -0.24760427431E+02  0.12838010790E+02  0.29231319979E+02  0.51100000000E-03 0.  1.
        -12    1    3    3    0    0  0.82855324428E+01  0.15515072969E+02 -0.21104870987E+02  0.27473316444E+02  0.00000000000E+00 0.  1.
</event>
<event>
 7    1  0.1857734E-013  0.7246139E+02  0.7816164E-02  0.1226708E+00
        -11   -1    0    0    0    0  0.00000000000E+00  0.00000000000E+00  0.45593999997E+02  0.45594000000E+02  0.51100000000E-03 0. -1.
         11   -1    0    0    0    0 -0.00000000000E+00 -0.00000000000E+00 -0.45593999997E+02  0.45594000000E+02  0.51100000000E-03 0.  1.
    9900012    2    1    2    0    0  0.14683623482E+02 -0.49249865527E+00  0.11611832292E+02  0.72461387849E+02  0.69999762330E+02 0.  0.
        -12    1    1    2    0    0 -0.14683623482E+02  0.49249865527E+00 -0.11611832292E+02  0.18726612151E+02  0.00000000000E+00 0.  1.
         11    1    3    3    0    0 -0.87631604930E+01 -0.26024682474E+02  0.18037893739E+02  0.32854873163E+02  0.51100000000E-03 0. -1.
        -11    1    3    3    0    0  0.37769809266E+01  0.70454808316E+01  0.58962811631E+01  0.99333034225E+01  0.51100000000E-03 0.  1.
         12    1    3    3    0    0  0.19669803048E+02  0.18486702988E+02 -0.12322342610E+02  0.29673211264E+02  0.00000000000E+00 0. -1.
</event>
<event>
 7    1  0.1857734E-013  0.7246152E+02  0.7816164E-02  0.1226708E+00
        -11   -1    0    0    0    0  0.00000000000E+00  0.00000000000E+00  0.45593999997E+02  0.45594000000E+02  0.51100000000E-03 0. -1.
         11   -1    0    0    0    0 -0.00000000000E+00 -0.00000000000E+00 -0.45593999997E+02  0.45594000000E+02  0.51100000000E-03 0.  1.
    9900012    2    1    2    0    0  0.34062015159E+01  0.28264405331E+01  0.18195876849E+02  0.72461523846E+02  0.69999939492E+02 0.  0.
        -12    1    1    2    0    0 -0.34062015159E+01 -0.28264405331E+01 -0.18195876849E+02  0.18726476154E+02  0.00000000000E+00 0.  1.
         11    1    3    3    0    0  0.32458735216E+02  0.14116161289E+01  0.66953435868E+01  0.33172123507E+02  0.51100000000E-03 0. -1.
        -11    1    3    3    0    0 -0.19299003870E+02  0.32531392598E+01 -0.48490129975E+01  0.20163020426E+02  0.51100000000E-03 0.  1.
         12    1    3    3    0    0 -0.97535298308E+01 -0.18383148556E+01  0.16349546260E+02  0.19126379913E+02  0.00000000000E+00 0. -1.
</event>
<event>
 7    1  0.1857734E-013  0.7246155E+02  0.7816164E-02  0.1226708E+00
        -11   -1    0    0    0    0  0.00000000000E+00  0.00000000000E+00  0.45593999997E+02  0.45594000000E+02  0.51100000000E-03 0.  1.
         11   -1    0    0    0    0 -0.00000000000E+00 -0.00000000000E+00 -0.45593999997E+02  0.45594000000E+02  0.51100000000E-03 0. -1.
    9900012    2    1    2    0    0 -0.91747325610E+01 -0.98989881244E+01 -0.12981303614E+02  0.72461550070E+02  0.69999973654E+02 0.  0.
        -12    1    1    2    0    0  0.91747325610E+01  0.98989881244E+01  0.12981303614E+02  0.18726449930E+02  0.00000000000E+00 0.  1.
         11    1    3    3    0    0 -0.77833860454E+01 -0.13972091688E+02 -0.90532890550E+01  0.18378315686E+02  0.51100000000E-03 0. -1.
        -11    1    3    3    0    0  0.12004035096E+02  0.20705358579E+02 -0.16714543161E+02  0.29192202483E+02  0.51100000000E-03 0.  1.
        -12    1    3    3    0    0 -0.13395381611E+02 -0.16632255016E+02  0.12786528601E+02  0.24891031901E+02  0.00000000000E+00 0.  1.
</event>
<event>
 7    1  0.1857734E-013  0.7246141E+02  0.7816164E-02  0.1226708E+00
        -11   -1    0    0    0    0  0.00000000000E+00  0.00000000000E+00  0.45593999997E+02  0.45594000000E+02  0.51100000000E-03 0.  1.
         11   -1    0    0    0    0 -0.00000000000E+00 -0.00000000000E+00 -0.45593999997E+02  0.45594000000E+02  0.51100000000E-03 0. -1.
    9900012    2    1    2    0    0  0.13492850776E+02 -0.37760355435E+01 -0.12424563756E+02  0.72461407917E+02  0.69999788474E+02 0.  0.
        -12    1    1    2    0    0 -0.13492850776E+02  0.37760355435E+01  0.12424563756E+02  0.18726592083E+02  0.00000000000E+00 0.  1.
         11    1    3    3    0    0  0.10589945890E+01 -0.49983050128E+01 -0.15007088095E+02  0.15852987602E+02  0.51100000000E-03 0. -1.
        -11    1    3    3    0    0  0.14634812564E+02  0.26653995672E+02  0.55497544974E+01  0.30909755731E+02  0.51100000000E-03 0.  1.
        -12    1    3    3    0    0 -0.22009563764E+01 -0.25431726203E+02 -0.29672301585E+01  0.25698664585E+02  0.00000000000E+00 0.  1.
</event>
<event>
 7    1  0.1857734E-013  0.7246158E+02  0.7816164E-02  0.1226708E+00
        -11   -1    0    0    0    0  0.00000000000E+00  0.00000000000E+00  0.45593999997E+02  0.45594000000E+02  0.51100000000E-03 0.  1.
         11   -1    0    0    0    0 -0.00000000000E+00 -0.00000000000E+00 -0.45593999997E+02  0.45594000000E+02  0.51100000000E-03 0. -1.
    9900012    2    1    2    0    0  0.18242179273E+02  0.14475031090E+01  0.39757288593E+01  0.72461580432E+02  0.70000013206E+02 0.  0.
        -12    1    1    2    0    0 -0.18242179273E+02 -0.14475031090E+01 -0.39757288593E+01  0.18726419568E+02  0.00000000000E+00 0.  1.
         11    1    3    3    0    0  0.13450442322E+01  0.15664252113E+02 -0.15523303377E+02  0.22094136920E+02  0.51100000000E-03 0. -1.
        -11    1    3    3    0    0 -0.88707200140E+01 -0.15004689613E+02  0.17195217001E+02  0.24484809003E+02  0.51100000000E-03 0.  1.
        -12    1    3    3    0    0  0.25767855055E+02  0.78794060858E+00  0.23038152353E+01  0.25882634510E+02  0.00000000000E+00 0.  1.
</event>
<event>
 7    1  0.1857734E-013  0.7246158E+02  0.7816164E-02  0.1226708E+00
        -11   -1    0    0    0    0  0.00000000000E+00  0.00000000000E+00  0.45593999997E+02  0.45594000000E+02  0.51100000000E-03 0.  1.
         11   -1    0    0    0    0 -0.00000000000E+00 -0.00000000000E+00 -0.45593999997E+02  0.45594000000E+02  0.51100000000E-03 0. -1.
    9900012    2    1    2    0    0  0.77010261524E+01  0.35603795478E+01 -0.16694212851E+02  0.72461578851E+02  0.70000011147E+02 0.  0.
        -12    1    1    2    0    0 -0.77010261524E+01 -0.35603795478E+01  0.16694212851E+02  0.18726421149E+02  0.00000000000E+00 0.  1.
         11    1    3    3    0    0 -0.72800980964E+01 -0.25624526288E+02 -0.12621213355E+01  0.26668504388E+02  0.51100000000E-03 0.  1.
        -11    1    3    3    0    0  0.23064289754E+02  0.24303899938E+02 -0.10340085163E+02  0.35065059183E+02  0.51100000000E-03 0. -1.
         12    1    3    3    0    0 -0.80831655051E+01  0.48810058978E+01 -0.50920063529E+01  0.10728015280E+02  0.00000000000E+00 0. -1.
</event>
<event>
 7    1  0.1857734E-013  0.7246156E+02  0.7816164E-02  0.1226708E+00
        -11   -1    0    0    0    0  0.00000000000E+00  0.00000000000E+00  0.45593999997E+02  0.45594000000E+02  0.51100000000E-03 0. -1.
         11   -1    0    0    0    0 -0.00000000000E+00 -0.00000000000E+00 -0.45593999997E+02  0.45594000000E+02  0.51100000000E-03 0.  1.
    9900012    2    1    2    0    0 -0.73456372677E+01  0.34914930615E+01  0.16868041665E+02  0.72461555055E+02  0.69999980147E+02 0.  0.
        -12    1    1    2    0    0  0.73456372677E+01 -0.34914930615E+01 -0.16868041665E+02  0.18726444945E+02  0.00000000000E+00 0.  1.
         11    1    3    3    0    0  0.93317481419E+01 -0.21883982626E+01  0.14950871450E+02  0.17759481065E+02  0.51100000000E-03 0. -1.
        -11    1    3    3    0    0 -0.16145452182E+02 -0.20605952236E+02 -0.67232338152E+01  0.27027444698E+02  0.51100000000E-03 0.  1.
        -12    1    3    3    0    0 -0.53193322803E+00  0.26285843560E+02  0.86404040309E+01  0.27674629292E+02  0.00000000000E+00 0.  1.
</event>
<event>
 7    1  0.1857734E-013  0.7246156E+02  0.7816164E-02  0.1226708E+00
        -11   -1    0    0    0    0  0.00000000000E+00  0.00000000000E+00  0.45593999997E+02  0.45594000000E+02  0.51100000000E-03 0. -1.
         11   -1    0    0    0    0 -0.00000000000E+00 -0.00000000000E+00 -0.45593999997E+02  0.45594000000E+02  0.51100000000E-03 0.  1.
    9900012    2    1    2    0    0 -0.11942903007E+02  0.12864899223E+02  0.65223391657E+01  0.72461562206E+02  0.69999989464E+02 0.  0.
        -12    1    1    2    0    0  0.11942903007E+02 -0.12864899223E+02 -0.65223391657E+01  0.18726437794E+02  0.00000000000E+00 0.  1.
         11    1    3    3    0    0 -0.83696366932E+01  0.13744161088E+02  0.20286414514E+02  0.25893848623E+02  0.51100000000E-03 0. -1.
        -11    1    3    3    0    0 -0.11676987889E+02 -0.19873985474E+02 -0.28971087322E+01  0.23231887225E+02  0.51100000000E-03 0.  1.
        -12    1    3    3    0    0  0.81037215754E+01  0.18994723610E+02 -0.10866966616E+02  0.23335826358E+02  0.00000000000E+00 0.  1.
</event>
<event>
 7    1  0.1857734E-013  0.7246160E+02  0.7816164E-02  0.1226708E+00
        -11   -1    0    0    0    0  0.00000000000E+00  0.00000000000E+00  0.45593999997E+02  0.45594000000E+02  0.51100000000E-03 0. -1.
         11   -1    0    0    0    0 -0.00000000000E+00 -0.00000000000E+00 -0.45593999997E+02  0.45594000000E+02  0.51100000000E-03 0.  1.
    9900012    2    1    2    0    0 -0.86997413782E+01 -0.37813847517E+01  0.16146013282E+02  0.72461598435E+02  0.70000036658E+02 0.  0.
        -12    1    1    2    0    0  0.86997413782E+01  0.37813847517E+01 -0.16146013282E+02  0.18726401565E+02  0.00000000000E+00 0.  1.
         11    1    3    3    0    0  0.85291531048E+00 -0.18456534892E+01  0.16268282698E+00  0.20396978434E+01  0.51100000000E-03 0. -1.
        -11    1    3    3    0    0 -0.24155027251E+02  0.21821995049E+02 -0.81337911321E+01  0.33553291461E+02  0.51100000000E-03 0.  1.
        -12    1    3    3    0    0  0.14602370563E+02 -0.23757726312E+02  0.24117121587E+02  0.36868609130E+02  0.00000000000E+00 0.  1.
</event>
<event>
 7    1  0.1857734E-013  0.7246147E+02  0.7816164E-02  0.1226708E+00
        -11   -1    0    0    0    0  0.00000000000E+00  0.00000000000E+00  0.45593999997E+02  0.45594000000E+02  0.51100000000E-03 0.  1.
         11   -1    0    0    0    0 -0.00000000000E+00 -0.00000000000E+00 -0.45593999997E+02  0.45594000000E+02  0.51100000000E-03 0. -1.
    9900012    2    1    2    0    0 -0.66921741035E+01  0.14911524792E+01 -0.17426246727E+02  0.72461473228E+02  0.69999873553E+02 0.  0.
        -12    1    1    2    0    0  0.66921741035E+01 -0.14911524792E+01  0.17426246727E+02  0.18726526772E+02  0.00000000000E+00 0.  1.
         11    1    3    3    0    0  0.23441479732E+02  0.10887034969E+02 -0.14168920982E+02  0.29475223909E+02  0.51100000000E-03 0.  1.
        -11    1    3    3    0    0 -0.29865459879E+02  0.14586328450E+01  0.36416853858E+01  0.30122004852E+02  0.51100000000E-03 0. -1.
         12    1    3    3    0    0 -0.26819395598E+00 -0.10854515335E+02 -0.68990111309E+01  0.12864244468E+02  0.00000000000E+00 0. -1.
</event>
<event>
 7    1  0.1857734E-013  0.7246158E+02  0.7816164E-02  0.1226708E+00
        -11   -1    0    0    0    0  0.00000000000E+00  0.00000000000E+00  0.45593999997E+02  0.45594000000E+02  0.51100000000E-03 0.  1.
         11   -1    0    0    0    0 -0.00000000000E+00 -0.00000000000E+00 -0.45593999997E+02  0.45594000000E+02  0.51100000000E-03 0. -1.
    9900012    2    1    2    0    0 -0.14589957009E+00  0.14229260667E+02 -0.12173147209E+02  0.72461583931E+02  0.70000017764E+02 0.  0.
        -12    1    1    2    0    0  0.14589957009E+00 -0.14229260667E+02  0.12173147209E+02  0.18726416069E+02  0.00000000000E+00 0.  1.
         11    1    3    3    0    0 -0.13984773900E+02  0.23002429143E+02 -0.33541741672E+02  0.43008534992E+02  0.51100000000E-03 0. -1.
        -11    1    3    3    0    0  0.75634908093E+01 -0.46252445510E+00  0.16073992448E+02  0.17770581183E+02  0.51100000000E-03 0.  1.
         12    1    3    3    0    0  0.62753835209E+01 -0.83106440208E+01  0.52946020149E+01  0.11682467756E+02  0.00000000000E+00 0. -1.
</event>
<event>
 7    1  0.1857734E-013  0.7246160E+02  0.7816164E-02  0.1226708E+00
        -11   -1    0    0    0    0  0.00000000000E+00  0.00000000000E+00  0.45593999997E+02  0.45594000000E+02  0.51100000000E-03 0.  1.
         11   -1    0    0    0    0 -0.00000000000E+00 -0.00000000000E+00 -0.45593999997E+02  0.45594000000E+02  0.51100000000E-03 0. -1.
    9900012    2    1    2    0    0  0.90119684388E+01 -0.19565005994E+01 -0.16298298306E+02  0.72461601590E+02  0.70000040768E+02 0.  0.
        -12    1    1    2    0    0 -0.90119684388E+01  0.19565005994E+01  0.16298298306E+02  0.18726398410E+02  0.00000000000E+00 0.  1.
         11    1    3    3    0    0  0.37842844749E+00 -0.51634874146E+01  0.27335651365E+02  0.27821621919E+02  0.51100000000E-03 0.  1.
        -11    1    3    3    0    0  0.69138526191E+01  0.24695235243E+01 -0.30374904614E+02  0.31249555758E+02  0.51100000000E-03 0. -1.
        -12    1    3    3    0    0  0.17196873722E+01  0.73746329089E+00 -0.13259045057E+02  0.13390423914E+02  0.00000000000E+00 0.  1.
</event>
<event>
 7    1  0.1857734E-013  0.7246156E+02  0.7816164E-02  0.1226708E+00
        -11   -1    0    0    0    0  0.00000000000E+00  0.00000000000E+00  0.45593999997E+02  0.45594000000E+02  0.51100000000E-03 0.  1.
         11   -1    0    0    0    0 -0.00000000000E+00 -0.00000000000E+00 -0.45593999997E+02  0.45594000000E+02  0.51100000000E-03 0. -1.
    9900012    2    1    2    0    0 -0.85058139936E+01 -0.14763924008E+02 -0.77689920894E+01  0.72461559818E+02  0.69999986353E+02 0.  0.
        -12    1    1    2    0    0  0.85058139936E+01  0.14763924008E+02  0.77689920894E+01  0.18726440182E+02  0.00000000000E+00 0.  1.
         11    1    3    3    0    0  0.26112486429E+02  0.54023360263E+00 -0.57189160273E+00  0.26124334635E+02  0.51100000000E-03 0. -1.
        -11    1    3    3    0    0 -0.11448544803E+02  0.50604568006E+01  0.45650332245E+01  0.13323547941E+02  0.51100000000E-03 0.  1.
         12    1    3    3    0    0 -0.23169755619E+02 -0.20364614411E+02 -0.11762133711E+02  0.33013677242E+02  0.00000000000E+00 0. -1.
</event>
<event>
 7    1  0.1857734E-013  0.7246157E+02  0.7816164E-02  0.1226708E+00
        -11   -1    0    0    0    0  0.00000000000E+00  0.00000000000E+00  0.45593999997E+02  0.45594000000E+02  0.51100000000E-03 0.  1.
         11   -1    0    0    0    0 -0.00000000000E+00 -0.00000000000E+00 -0.45593999997E+02  0.45594000000E+02  0.51100000000E-03 0. -1.
    9900012    2    1    2    0    0  0.68480555279E+01  0.15120003444E+02 -0.86699872737E+01  0.72461573540E+02  0.70000004228E+02 0.  0.
        -12    1    1    2    0    0 -0.68480555279E+01 -0.15120003444E+02  0.86699872737E+01  0.18726426460E+02  0.00000000000E+00 0.  1.
         11    1    3    3    0    0  0.70905568754E+01 -0.16539269219E+02 -0.97655480557E+01  0.20474114198E+02  0.51100000000E-03 0. -1.
        -11    1    3    3    0    0 -0.90584117422E+01  0.37865252068E+02  0.72061691851E+01  0.39594961953E+02  0.51100000000E-03 0.  1.
        -12    1    3    3    0    0  0.88159103946E+01 -0.62059794052E+01 -0.61106084032E+01  0.12392497388E+02  0.00000000000E+00 0.  1.
</event>
<event>
 7    1  0.1857734E-013  0.7246160E+02  0.7816164E-02  0.1226708E+00
        -11   -1    0    0    0    0  0.00000000000E+00  0.00000000000E+00  0.45593999997E+02  0.45594000000E+02  0.51100000000E-03 0. -1.
         11   -1    0    0    0    0 -0.00000000000E+00 -0.00000000000E+00 -0.45593999997E+02  0.45594000000E+02  0.51100000000E-03 0.  1.
    9900012    2    1    2    0    0 -0.37001170901E+01 -0.16575146519E+02 -0.78899646441E+01  0.72461604440E+02  0.70000044480E+02 0.  0.
        -12    1    1    2    0    0  0.37001170901E+01  0.16575146519E+02  0.78899646441E+01  0.18726395560E+02  0.00000000000E+00 0.  1.
         11    1    3    3    0    0  0.51654973042E+01 -0.15281684602E+02  0.21480540603E+02  0.26863094973E+02  0.51100000000E-03 0. -1.
        -11    1    3    3    0    0 -0.19890416373E+02  0.42793037731E+01 -0.10115362686E+02  0.22721392272E+02  0.51100000000E-03 0.  1.
         12    1    3    3    0    0  0.11024801978E+02 -0.55727656902E+01 -0.19255142561E+02  0.22877117195E+02  0.00000000000E+00 0. -1.
</event>
<event>
 7    1  0.1857734E-013  0.7246155E+02  0.7816164E-02  0.1226708E+00
        -11   -1    0    0    0    0  0.00000000000E+00  0.00000000000E+00  0.45593999997E+02  0.45594000000E+02  0.51100000000E-03 0.  1.
         11   -1    0    0    0    0 -0.00000000000E+00 -0.00000000000E+00 -0.45593999997E+02  0.45594000000E+02  0.51100000000E-03 0. -1.
    9900012    2    1    2    0    0 -0.10334836956E+02  0.10352667543E+02 -0.11691588402E+02  0.72461552939E+02  0.69999977391E+02 0.  0.
        -12    1    1    2    0    0  0.10334836956E+02 -0.10352667543E+02  0.11691588402E+02  0.18726447061E+02  0.00000000000E+00 0.  1.
         11    1    3    3    0    0  0.29220125893E+01  0.40362232149E+01 -0.23501944318E+02  0.24024376005E+02  0.51100000000E-03 0. -1.
        -11    1    3    3    0    0 -0.46125536370E+01  0.25506341457E+02  0.60670884756E+01  0.26620643652E+02  0.51100000000E-03 0.  1.
        -12    1    3    3    0    0 -0.86442959088E+01 -0.19189897129E+02  0.57432674412E+01  0.21816533283E+02  0.00000000000E+00 0.  1.
</event>
<event>
 7    1  0.1857734E-013  0.7246158E+02  0.7816164E-02  0.1226708E+00
        -11   -1    0    0    0    0  0.00000000000E+00  0.00000000000E+00  0.45593999997E+02  0.45594000000E+02  0.51100000000E-03 0.  1.
         11   -1    0    0    0    0 -0.00000000000E+00 -0.00000000000E+00 -0.45593999997E+02  0.45594000000E+02  0.51100000000E-03 0. -1.
    9900012    2    1    2    0    0 -0.15318036843E+02 -0.70634303126E+01 -0.81329230913E+01  0.72461581802E+02  0.70000014991E+02 0.  0.
        -12    1    1    2    0    0  0.15318036843E+02  0.70634303126E+01  0.81329230913E+01  0.18726418198E+02  0.00000000000E+00 0.  1.
         11    1    3    3    0    0  0.39844522967E+00  0.24892619095E+02 -0.13861107061E+02  0.28494412316E+02  0.51100000000E-03 0. -1.
        -11    1    3    3    0    0 -0.93148049647E+01 -0.21459488290E+02  0.15668887071E+02  0.28156513483E+02  0.51100000000E-03 0.  1.
        -12    1    3    3    0    0 -0.64016771079E+01 -0.10496561118E+02 -0.99407031017E+01  0.15810656003E+02  0.00000000000E+00 0.  1.
</event>
<event>
 7    1  0.1857734E-013  0.7246191E+02  0.7816164E-02  0.1226707E+00
        -11   -1    0    0    0    0  0.00000000000E+00  0.00000000000E+00  0.45593999997E+02  0.45594000000E+02  0.51100000000E-03 0.  1.
         11   -1    0    0    0    0 -0.00000000000E+00 -0.00000000000E+00 -0.45593999997E+02  0.45594000000E+02  0.51100000000E-03 0. -1.
    9900012    2    1    2    0    0  0.50042294785E+01  0.16756516477E+02 -0.66965034522E+01  0.72461913500E+02  0.70000447088E+02 0.  0.
        -12    1    1    2    0    0 -0.50042294785E+01 -0.16756516477E+02  0.66965034522E+01  0.18726086500E+02  0.00000000000E+00 0.  1.
         11    1    3    3    0    0 -0.17338541478E+02  0.31053257050E+02 -0.70248992162E+00  0.35572788565E+02  0.51100000000E-03 0. -1.
        -11    1    3    3    0    0  0.47801856621E+01 -0.10320513673E+02  0.81491757028E+01  0.13991863434E+02  0.51100000000E-03 0.  1.
         12    1    3    3    0    0  0.17562585294E+02 -0.39762268992E+01 -0.14143189233E+02  0.22897261501E+02  0.00000000000E+00 0. -1.
</event>
<event>
 7    1  0.1857734E-013  0.7246157E+02  0.7816164E-02  0.1226708E+00
        -11   -1    0    0    0    0  0.00000000000E+00  0.00000000000E+00  0.45593999997E+02  0.45594000000E+02  0.51100000000E-03 0.  1.
         11   -1    0    0    0    0 -0.00000000000E+00 -0.00000000000E+00 -0.45593999997E+02  0.45594000000E+02  0.51100000000E-03 0. -1.
    9900012    2    1    2    0    0  0.14968851418E+02 -0.10079938383E+02 -0.50007541435E+01  0.72461569144E+02  0.69999998502E+02 0.  0.
        -12    1    1    2    0    0 -0.14968851418E+02  0.10079938383E+02  0.50007541435E+01  0.18726430856E+02  0.00000000000E+00 0.  1.
         11    1    3    3    0    0 -0.25612096444E+02 -0.70324335267E+01 -0.41280904002E+00  0.26563226783E+02  0.51100000000E-03 0. -1.
        -11    1    3    3    0    0  0.42723140547E+02 -0.29595305119E+01 -0.61236013973E+01  0.43261114795E+02  0.51100000000E-03 0.  1.
        -12    1    3    3    0    0 -0.21421926843E+01 -0.87974344216E-01  0.15356562938E+01  0.26372275660E+01  0.00000000000E+00 0.  1.
</event>
<event>
 7    1  0.1857734E-013  0.7246154E+02  0.7816164E-02  0.1226708E+00
        -11   -1    0    0    0    0  0.00000000000E+00  0.00000000000E+00  0.45593999997E+02  0.45594000000E+02  0.51100000000E-03 0. -1.
         11   -1    0    0    0    0 -0.00000000000E+00 -0.00000000000E+00 -0.45593999997E+02  0.45594000000E+02  0.51100000000E-03 0.  1.
    9900012    2    1    2    0    0  0.12362103659E+02 -0.13676174256E+02 -0.32895188230E+01  0.72461540558E+02  0.69999961262E+02 0.  0.
        -12    1    1    2    0    0 -0.12362103659E+02  0.13676174256E+02  0.32895188230E+01  0.18726459442E+02  0.00000000000E+00 0.  1.
         11    1    3    3    0    0 -0.17134746206E+02 -0.12275468065E+02  0.93821191876E+01  0.23071861747E+02  0.51100000000E-03 0. -1.
        -11    1    3    3    0    0  0.29761773123E+02 -0.11755889698E+01 -0.23880014636E+02  0.38175911884E+02  0.51100000000E-03 0.  1.
         12    1    3    3    0    0 -0.26492325813E+00 -0.22511722115E+00  0.11208376626E+02  0.11213766927E+02  0.00000000000E+00 0. -1.
</event>
<event>
 7    1  0.1990103E-013  0.7246158E+02  0.7816164E-02  0.1226708E+00
        -11   -1    0    0    0    0  0.00000000000E+00  0.00000000000E+00  0.45593999997E+02  0.45594000000E+02  0.51100000000E-03 0.  1.
         11   -1    0    0    0    0 -0.00000000000E+00 -0.00000000000E+00 -0.45593999997E+02  0.45594000000E+02  0.51100000000E-03 0. -1.
    9900012    2    1    2    0    0 -0.16565104702E+02 -0.85944316812E+01 -0.15530375226E+01  0.72461578151E+02  0.70000010235E+02 0.  0.
        -12    1    1    2    0    0  0.16565104702E+02  0.85944316812E+01  0.15530375226E+01  0.18726421849E+02  0.00000000000E+00 0.  1.
         11    1    3    3    0    0 -0.19956804418E+02 -0.98182807483E+01 -0.24491659405E+02  0.33083440874E+02  0.51100000000E-03 0. -1.
        -11    1    3    3    0    0  0.57790995918E+01 -0.14753117346E+02  0.10913914569E+02  0.19239698412E+02  0.51100000000E-03 0.  1.
        -12    1    3    3    0    0 -0.23873998763E+01  0.15976966413E+02  0.12024707313E+02  0.20138438865E+02  0.00000000000E+00 0.  1.
</event>
<event>
 7    1  0.1857734E-013  0.7246185E+02  0.7816164E-02  0.1226707E+00
        -11   -1    0    0    0    0  0.00000000000E+00  0.00000000000E+00  0.45593999997E+02  0.45594000000E+02  0.51100000000E-03 0.  1.
         11   -1    0    0    0    0 -0.00000000000E+00 -0.00000000000E+00 -0.45593999997E+02  0.45594000000E+02  0.51100000000E-03 0. -1.
    9900012    2    1    2    0    0 -0.30665562839E+01 -0.18046056621E+02  0.39503083000E+01  0.72461845492E+02  0.70000358495E+02 0.  0.
        -12    1    1    2    0    0  0.30665562839E+01  0.18046056621E+02 -0.39503083000E+01  0.18726154508E+02  0.00000000000E+00 0.  1.
         11    1    3    3    0    0 -0.23847998712E+02  0.76640625415E+01 -0.84103304887E+01  0.26423447095E+02  0.51100000000E-03 0. -1.
        -11    1    3    3    0    0  0.87292769673E+01 -0.29739027066E+02  0.12259510748E+02  0.33330250693E+02  0.51100000000E-03 0.  1.
        -12    1    3    3    0    0  0.12052165461E+02  0.40289079031E+01  0.10112804037E+00  0.12708147704E+02  0.00000000000E+00 0.  1.
</event>
<event>
 7    1  0.1857734E-013  0.7246159E+02  0.7816164E-02  0.1226708E+00
        -11   -1    0    0    0    0  0.00000000000E+00  0.00000000000E+00  0.45593999997E+02  0.45594000000E+02  0.51100000000E-03 0. -1.
         11   -1    0    0    0    0 -0.00000000000E+00 -0.00000000000E+00 -0.45593999997E+02  0.45594000000E+02  0.51100000000E-03 0.  1.
    9900012    2    1    2    0    0  0.10477539787E+02 -0.10941459069E+02 -0.11008370601E+02  0.72461585772E+02  0.70000020162E+02 0.  0.
        -12    1    1    2    0    0 -0.10477539787E+02  0.10941459069E+02  0.11008370601E+02  0.18726414228E+02  0.00000000000E+00 0.  1.
         11    1    3    3    0    0  0.12872526533E+02  0.27030589710E+02 -0.58770323597E+01  0.30510559304E+02  0.51100000000E-03 0. -1.
        -11    1    3    3    0    0 -0.80405004280E+01 -0.17274029054E+02 -0.72635553703E+01  0.20391198193E+02  0.51100000000E-03 0.  1.
         12    1    3    3    0    0  0.56455136823E+01 -0.20698019726E+02  0.21322171287E+01  0.21559828274E+02  0.00000000000E+00 0. -1.
</event>
<event>
 7    1  0.1857734E-013  0.7246156E+02  0.7816164E-02  0.1226708E+00
        -11   -1    0    0    0    0  0.00000000000E+00  0.00000000000E+00  0.45593999997E+02  0.45594000000E+02  0.51100000000E-03 0. -1.
         11   -1    0    0    0    0 -0.00000000000E+00 -0.00000000000E+00 -0.45593999997E+02  0.45594000000E+02  0.51100000000E-03 0.  1.
    9900012    2    1    2    0    0  0.15779460517E+02  0.84589142069E+01  0.54895432799E+01  0.72461556419E+02  0.69999981925E+02 0.  0.
        -12    1    1    2    0    0 -0.15779460517E+02 -0.84589142069E+01 -0.54895432799E+01  0.18726443581E+02  0.00000000000E+00 0.  1.
         11    1    3    3    0    0  0.36108010671E+02 -0.68284478641E+01 -0.32785624409E+01  0.36893971144E+02  0.51100000000E-03 0. -1.
        -11    1    3    3    0    0 -0.17688903412E+02 -0.43277300441E+00  0.71505845686E+00  0.17708639283E+02  0.51100000000E-03 0.  1.
        -12    1    3    3    0    0 -0.26396467416E+01  0.15720135075E+02  0.80530472639E+01  0.17858945992E+02  0.00000000000E+00 0.  1.
</event>
<event>
 7    1  0.1857734E-013  0.7246157E+02  0.7816164E-02  0.1226708E+00
        -11   -1    0    0    0    0  0.00000000000E+00  0.00000000000E+00  0.45593999997E+02  0.45594000000E+02  0.51100000000E-03 0.  1.
         11   -1    0    0    0    0 -0.00000000000E+00 -0.00000000000E+00 -0.45593999997E+02  0.45594000000E+02  0.51100000000E-03 0. -1.
    9900012    2    1    2    0    0 -0.16362700208E+02  0.91052411998E+01  0.18904274070E+00  0.72461571816E+02  0.70000001982E+02 0.  0.
        -12    1    1    2    0    0  0.16362700208E+02 -0.91052411998E+01 -0.18904274070E+00  0.18726428184E+02  0.00000000000E+00 0.  1.
         11    1    3    3    0    0  0.30830928578E+01  0.77781452775E+00 -0.30529191455E+02  0.30694331531E+02  0.51100000000E-03 0. -1.
        -11    1    3    3    0    0 -0.17010717331E+02 -0.62627447970E+00  0.11849697072E+02  0.20740589307E+02  0.51100000000E-03 0.  1.
         12    1    3    3    0    0 -0.24350757340E+01  0.89537011518E+01  0.18868537123E+02  0.21026650977E+02  0.00000000000E+00 0. -1.
</event>
<event>
 7    1  0.1857734E-013  0.7246160E+02  0.7816164E-02  0.1226708E+00
        -11   -1    0    0    0    0  0.00000000000E+00  0.00000000000E+00  0.45593999997E+02  0.45594000000E+02  0.51100000000E-03 0.  1.
         11   -1    0    0    0    0 -0.00000000000E+00 -0.00000000000E+00 -0.45593999997E+02  0.45594000000E+02  0.51100000000E-03 0. -1.
    9900012    2    1    2    0    0  0.71480949255E+01  0.10677083219E+01 -0.17275493336E+02  0.72461603333E+02  0.70000043039E+02 0.  0.
        -12    1    1    2    0    0 -0.71480949255E+01 -0.10677083219E+01  0.17275493336E+02  0.18726396667E+02  0.00000000000E+00 0.  1.
         11    1    3    3    0    0  0.89387274355E+00 -0.29244011684E+01 -0.22072964498E+02  0.22283780933E+02  0.51100000000E-03 0. -1.
        -11    1    3    3    0    0 -0.64660705193E+00  0.16940453343E+02  0.21867086259E+02  0.27668872797E+02  0.51100000000E-03 0.  1.
        -12    1    3    3    0    0  0.69008292339E+01 -0.12948343853E+02 -0.17069615097E+02  0.22508949603E+02  0.00000000000E+00 0.  1.
</event>
<event>
 7    1  0.1857734E-013  0.7246154E+02  0.7816164E-02  0.1226708E+00
        -11   -1    0    0    0    0  0.00000000000E+00  0.00000000000E+00  0.45593999997E+02  0.45594000000E+02  0.51100000000E-03 0.  1.
         11   -1    0    0    0    0 -0.00000000000E+00 -0.00000000000E+00 -0.45593999997E+02  0.45594000000E+02  0.51100000000E-03 0. -1.
    9900012    2    1    2    0    0 -0.55878691896E+01  0.13459014321E+02  0.11760562096E+02  0.72461543597E+02  0.69999965222E+02 0.  0.
        -12    1    1    2    0    0  0.55878691896E+01 -0.13459014321E+02 -0.11760562096E+02  0.18726456403E+02  0.00000000000E+00 0.  1.
         11    1    3    3    0    0 -0.38604183892E+01 -0.69117655821E+01  0.28485821615E+02  0.29565475930E+02  0.51100000000E-03 0.  1.
        -11    1    3    3    0    0 -0.16638099924E+02  0.15929129960E+02 -0.14400986411E+02  0.27165271216E+02  0.51100000000E-03 0. -1.
        -12    1    3    3    0    0  0.14910649124E+02  0.44416499430E+01 -0.23242731072E+01  0.15730796451E+02  0.00000000000E+00 0.  1.
</event>
<event>
 7    1  0.1857734E-013  0.7246157E+02  0.7816164E-02  0.1226708E+00
        -11   -1    0    0    0    0  0.00000000000E+00  0.00000000000E+00  0.45593999997E+02  0.45594000000E+02  0.51100000000E-03 0. -1.
         11   -1    0    0    0    0 -0.00000000000E+00 -0.00000000000E+00 -0.45593999997E+02  0.45594000000E+02  0.51100000000E-03 0.  1.
    9900012    2    1    2    0    0  0.16395168941E+02  0.47658505033E+01  0.76918204522E+01  0.72461574887E+02  0.70000005983E+02 0.  0.
        -12    1    1    2    0    0 -0.16395168941E+02 -0.47658505033E+01 -0.76918204522E+01  0.18726425113E+02  0.00000000000E+00 0.  1.
         11    1    3    3    0    0  0.37249194389E+02 -0.10320748126E+02  0.10257444127E+02  0.39990442418E+02  0.51100000000E-03 0. -1.
        -11    1    3    3    0    0 -0.10225170285E+02  0.11107601653E+02 -0.10702742856E+02  0.18506259123E+02  0.51100000000E-03 0.  1.
         12    1    3    3    0    0 -0.10628855162E+02  0.39789969763E+01  0.81371191815E+01  0.13964873346E+02  0.00000000000E+00 0. -1.
</event>
<event>
 7    1  0.1857734E-013  0.7246159E+02  0.7816164E-02  0.1226708E+00
        -11   -1    0    0    0    0  0.00000000000E+00  0.00000000000E+00  0.45593999997E+02  0.45594000000E+02  0.51100000000E-03 0.  1.
         11   -1    0    0    0    0 -0.00000000000E+00 -0.00000000000E+00 -0.45593999997E+02  0.45594000000E+02  0.51100000000E-03 0. -1.
    9900012    2    1    2    0    0 -0.89450041843E+01 -0.50495641166E+01 -0.15657814320E+02  0.72461592258E+02  0.70000028612E+02 0.  0.
        -12    1    1    2    0    0  0.89450041843E+01  0.50495641166E+01  0.15657814320E+02  0.18726407742E+02  0.00000000000E+00 0.  1.
         11    1    3    3    0    0  0.79825458700E+01 -0.23157171224E+01 -0.99775543405E+01  0.12985960698E+02  0.51100000000E-03 0. -1.
        -11    1    3    3    0    0  0.24378644969E+01  0.23755708290E+02  0.60391551379E+01  0.24632260447E+02  0.51100000000E-03 0.  1.
        -12    1    3    3    0    0 -0.19365414551E+02 -0.26489555284E+02 -0.11719415118E+02  0.34843371114E+02  0.00000000000E+00 0.  1.
</event>
<event>
 7    1  0.1857734E-013  0.7246159E+02  0.7816164E-02  0.1226708E+00
        -11   -1    0    0    0    0  0.00000000000E+00  0.00000000000E+00  0.45593999997E+02  0.45594000000E+02  0.51100000000E-03 0.  1.
         11   -1    0    0    0    0 -0.00000000000E+00 -0.00000000000E+00 -0.45593999997E+02  0.45594000000E+02  0.51100000000E-03 0. -1.
    9900012    2    1    2    0    0  0.18284638585E+02 -0.14252132306E+01 -0.37840507943E+01  0.72461594009E+02  0.70000030893E+02 0.  0.
        -12    1    1    2    0    0 -0.18284638585E+02  0.14252132306E+01  0.37840507943E+01  0.18726405991E+02  0.00000000000E+00 0.  1.
         11    1    3    3    0    0  0.19997313553E+02 -0.50407064634E+01  0.16008091016E+02  0.26106708893E+02  0.51100000000E-03 0. -1.
        -11    1    3    3    0    0 -0.12091854700E+02  0.18139410771E+02 -0.32948385233E+01  0.22047837408E+02  0.51100000000E-03 0.  1.
         12    1    3    3    0    0  0.10379179732E+02 -0.14523917538E+02 -0.16497303287E+02  0.24307047709E+02  0.00000000000E+00 0. -1.
</event>
<event>
 7    1  0.1857734E-013  0.7246155E+02  0.7816164E-02  0.1226708E+00
        -11   -1    0    0    0    0  0.00000000000E+00  0.00000000000E+00  0.45593999997E+02  0.45594000000E+02  0.51100000000E-03 0.  1.
         11   -1    0    0    0    0 -0.00000000000E+00 -0.00000000000E+00 -0.45593999997E+02  0.45594000000E+02  0.51100000000E-03 0. -1.
    9900012    2    1    2    0    0 -0.69563660180E+01 -0.39826136905E+01 -0.16924174060E+02  0.72461550587E+02  0.69999974328E+02 0.  0.
        -12    1    1    2    0    0  0.69563660180E+01  0.39826136905E+01  0.16924174060E+02  0.18726449413E+02  0.00000000000E+00 0.  1.
         11    1    3    3    0    0  0.15609314864E+02  0.11482971000E+02 -0.44171951903E+01  0.19875133889E+02  0.51100000000E-03 0. -1.
        -11    1    3    3    0    0 -0.85074935522E+01 -0.12438231771E+02  0.15178681008E+02  0.21388768397E+02  0.51100000000E-03 0.  1.
         12    1    3    3    0    0 -0.14058187329E+02 -0.30273529188E+01 -0.27685659878E+02  0.31197648302E+02  0.00000000000E+00 0. -1.
</event>
<event>
 7    1  0.1857734E-013  0.7246175E+02  0.7816164E-02  0.1226708E+00
        -11   -1    0    0    0    0  0.00000000000E+00  0.00000000000E+00  0.45593999997E+02  0.45594000000E+02  0.51100000000E-03 0. -1.
         11   -1    0    0    0    0 -0.00000000000E+00 -0.00000000000E+00 -0.45593999997E+02  0.45594000000E+02  0.51100000000E-03 0.  1.
    9900012    2    1    2    0    0  0.14781390696E+02  0.11362907968E+02  0.17513816383E+01  0.72461747678E+02  0.70000231074E+02 0.  0.
        -12    1    1    2    0    0 -0.14781390696E+02 -0.11362907968E+02 -0.17513816383E+01  0.18726252322E+02  0.00000000000E+00 0.  1.
         11    1    3    3    0    0 -0.94253505235E+01 -0.21802855547E+02  0.15337861628E+02  0.28274577664E+02  0.51100000000E-03 0. -1.
        -11    1    3    3    0    0  0.70260738643E+01  0.99644170492E+01 -0.85240717137E+01  0.14876663602E+02  0.51100000000E-03 0.  1.
         12    1    3    3    0    0  0.17180667355E+02  0.23201346466E+02 -0.50624082760E+01  0.29310506412E+02  0.00000000000E+00 0. -1.
</event>
<event>
 7    1  0.1857734E-013  0.7246160E+02  0.7816164E-02  0.1226708E+00
        -11   -1    0    0    0    0  0.00000000000E+00  0.00000000000E+00  0.45593999997E+02  0.45594000000E+02  0.51100000000E-03 0. -1.
         11   -1    0    0    0    0 -0.00000000000E+00 -0.00000000000E+00 -0.45593999997E+02  0.45594000000E+02  0.51100000000E-03 0.  1.
    9900012    2    1    2    0    0  0.10252638746E+02 -0.69370782733E+01  0.14051275000E+02  0.72461601912E+02  0.70000041188E+02 0.  0.
        -12    1    1    2    0    0 -0.10252638746E+02  0.69370782733E+01 -0.14051275000E+02  0.18726398088E+02  0.00000000000E+00 0.  1.
         11    1    3    3    0    0  0.21886732701E+02  0.14864247210E+02 -0.75372682985E+01  0.27509731498E+02  0.51100000000E-03 0.  1.
        -11    1    3    3    0    0 -0.10329550023E+02 -0.24949304963E+02  0.43153189089E+01  0.27345738230E+02  0.51100000000E-03 0. -1.
         12    1    3    3    0    0 -0.13045439310E+01  0.31479794790E+01  0.17273224389E+02  0.17606132184E+02  0.00000000000E+00 0. -1.
</event>
<event>
 7    1  0.1857734E-013  0.7246210E+02  0.7816164E-02  0.1226707E+00
        -11   -1    0    0    0    0  0.00000000000E+00  0.00000000000E+00  0.45593999997E+02  0.45594000000E+02  0.51100000000E-03 0. -1.
         11   -1    0    0    0    0 -0.00000000000E+00 -0.00000000000E+00 -0.45593999997E+02  0.45594000000E+02  0.51100000000E-03 0.  1.
    9900012    2    1    2    0    0  0.67871655058E+01  0.16283384421E+02  0.62805365366E+01  0.72462099141E+02  0.70000688918E+02 0.  0.
        -12    1    1    2    0    0 -0.67871655058E+01 -0.16283384421E+02 -0.62805365366E+01  0.18725900859E+02  0.00000000000E+00 0.  1.
         11    1    3    3    0    0 -0.26353827861E+02  0.99791746875E+01  0.11326112534E+02  0.30370857673E+02  0.51100000000E-03 0. -1.
        -11    1    3    3    0    0  0.22703093784E+02  0.61784279211E+01 -0.14806514212E+02  0.27799933495E+02  0.51100000000E-03 0.  1.
        -12    1    3    3    0    0  0.10437899583E+02  0.12578181210E+00  0.97609382143E+01  0.14291307974E+02  0.00000000000E+00 0.  1.
</event>
<event>
 7    1  0.1857734E-013  0.7246160E+02  0.7816164E-02  0.1226708E+00
        -11   -1    0    0    0    0  0.00000000000E+00  0.00000000000E+00  0.45593999997E+02  0.45594000000E+02  0.51100000000E-03 0. -1.
         11   -1    0    0    0    0 -0.00000000000E+00 -0.00000000000E+00 -0.45593999997E+02  0.45594000000E+02  0.51100000000E-03 0.  1.
    9900012    2    1    2    0    0  0.63438480137E+01 -0.17504684916E+02  0.20049262179E+01  0.72461598029E+02  0.70000036130E+02 0.  0.
        -12    1    1    2    0    0 -0.63438480137E+01  0.17504684916E+02 -0.20049262179E+01  0.18726401971E+02  0.00000000000E+00 0.  1.
         11    1    3    3    0    0 -0.10355045114E+02  0.15868266822E+02 -0.11048472988E+01  0.18980240753E+02  0.51100000000E-03 0. -1.
        -11    1    3    3    0    0  0.28730583625E+02 -0.22189373182E+02  0.60242597311E+01  0.36798185053E+02  0.51100000000E-03 0.  1.
        -12    1    3    3    0    0 -0.12031690497E+02 -0.11183578556E+02 -0.29144862144E+01  0.16683172223E+02  0.00000000000E+00 0.  1.
</event>
<event>
 7    1  0.1857734E-013  0.7246158E+02  0.7816164E-02  0.1226708E+00
        -11   -1    0    0    0    0  0.00000000000E+00  0.00000000000E+00  0.45593999997E+02  0.45594000000E+02  0.51100000000E-03 0.  1.
         11   -1    0    0    0    0 -0.00000000000E+00 -0.00000000000E+00 -0.45593999997E+02  0.45594000000E+02  0.51100000000E-03 0. -1.
    9900012    2    1    2    0    0 -0.16456519449E+02  0.50186890504E+01 -0.73942273707E+01  0.72461578276E+02  0.70000010398E+02 0.  0.
        -12    1    1    2    0    0  0.16456519449E+02 -0.50186890504E+01  0.73942273707E+01  0.18726421724E+02  0.00000000000E+00 0.  1.
         11    1    3    3    0    0 -0.37518265669E+02  0.92446916410E+01 -0.23073886927E+02  0.45005431233E+02  0.51100000000E-03 0. -1.
        -11    1    3    3    0    0  0.10656016781E+02 -0.78910623079E+00  0.11577912529E+02  0.15755044940E+02  0.51100000000E-03 0.  1.
        -12    1    3    3    0    0  0.10405729439E+02 -0.34368963598E+01  0.41017470276E+01  0.11701102103E+02  0.00000000000E+00 0.  1.
</event>
<event>
 7    1  0.1857734E-013  0.7246157E+02  0.7816164E-02  0.1226708E+00
        -11   -1    0    0    0    0  0.00000000000E+00  0.00000000000E+00  0.45593999997E+02  0.45594000000E+02  0.51100000000E-03 0.  1.
         11   -1    0    0    0    0 -0.00000000000E+00 -0.00000000000E+00 -0.45593999997E+02  0.45594000000E+02  0.51100000000E-03 0. -1.
    9900012    2    1    2    0    0 -0.18360325534E+02  0.86954115561E-01 -0.36837750427E+01  0.72461566455E+02  0.69999994999E+02 0.  0.
        -12    1    1    2    0    0  0.18360325534E+02 -0.86954115561E-01  0.36837750427E+01  0.18726433545E+02  0.00000000000E+00 0.  1.
         11    1    3    3    0    0 -0.17638882079E+02  0.24318560034E+02 -0.22012823370E+02  0.37243615777E+02  0.51100000000E-03 0. -1.
        -11    1    3    3    0    0 -0.83347917363E+01 -0.12926421262E+02  0.14309902353E+02  0.21007961004E+02  0.51100000000E-03 0.  1.
         12    1    3    3    0    0  0.76133482815E+01 -0.11305184657E+02  0.40191459747E+01  0.14209989674E+02  0.00000000000E+00 0. -1.
</event>
<event>
 7    1  0.1857734E-013  0.7246151E+02  0.7816164E-02  0.1226708E+00
        -11   -1    0    0    0    0  0.00000000000E+00  0.00000000000E+00  0.45593999997E+02  0.45594000000E+02  0.51100000000E-03 0.  1.
         11   -1    0    0    0    0 -0.00000000000E+00 -0.00000000000E+00 -0.45593999997E+02  0.45594000000E+02  0.51100000000E-03 0. -1.
    9900012    2    1    2    0    0 -0.31960620650E+01 -0.17803045967E+02  0.48495345080E+01  0.72461514922E+02  0.69999927867E+02 0.  0.
        -12    1    1    2    0    0  0.31960620650E+01  0.17803045967E+02 -0.48495345080E+01  0.18726485078E+02  0.00000000000E+00 0.  1.
         11    1    3    3    0    0 -0.68615234653E+01  0.23420136402E+02 -0.22212638598E+01  0.24505454632E+02  0.51100000000E-03 0. -1.
        -11    1    3    3    0    0  0.11517415212E+02 -0.13663308630E+02 -0.17935657387E+01  0.17959781018E+02  0.51100000000E-03 0.  1.
         12    1    3    3    0    0 -0.78519538122E+01 -0.27559873739E+02  0.88643641064E+01  0.29996279272E+02  0.00000000000E+00 0. -1.
</event>
<event>
 7    1  0.1857734E-013  0.7246165E+02  0.7816164E-02  0.1226708E+00
        -11   -1    0    0    0    0  0.00000000000E+00  0.00000000000E+00  0.45593999997E+02  0.45594000000E+02  0.51100000000E-03 0.  1.
         11   -1    0    0    0    0 -0.00000000000E+00 -0.00000000000E+00 -0.45593999997E+02  0.45594000000E+02  0.51100000000E-03 0. -1.
    9900012    2    1    2    0    0 -0.69649445165E+01  0.48690645080E+00 -0.17376093475E+02  0.72461650797E+02  0.70000104869E+02 0.  0.
        -12    1    1    2    0    0  0.69649445165E+01 -0.48690645080E+00  0.17376093475E+02  0.18726349203E+02  0.00000000000E+00 0.  1.
         11    1    3    3    0    0 -0.22631599548E+02  0.11235663709E+02 -0.32672912724E+02  0.41303131397E+02  0.51100000000E-03 0. -1.
        -11    1    3    3    0    0  0.36273817528E+01 -0.13556886879E+02  0.44788611241E+01  0.14731166874E+02  0.51100000000E-03 0.  1.
         12    1    3    3    0    0  0.12039273279E+02  0.28081296212E+01  0.10817958124E+02  0.16427352526E+02  0.00000000000E+00 0. -1.
</event>
<event>
 7    1  0.1857734E-013  0.7246158E+02  0.7816164E-02  0.1226708E+00
        -11   -1    0    0    0    0  0.00000000000E+00  0.00000000000E+00  0.45593999997E+02  0.45594000000E+02  0.51100000000E-03 0.  1.
         11   -1    0    0    0    0 -0.00000000000E+00 -0.00000000000E+00 -0.45593999997E+02  0.45594000000E+02  0.51100000000E-03 0. -1.
    9900012    2    1    2    0    0 -0.94712935386E+01 -0.15880560858E+02  0.29633079235E+01  0.72461579939E+02  0.70000012564E+02 0.  0.
        -12    1    1    2    0    0  0.94712935386E+01  0.15880560858E+02 -0.29633079235E+01  0.18726420061E+02  0.00000000000E+00 0.  1.
         11    1    3    3    0    0 -0.30856032870E+02 -0.14634698578E+02 -0.14052051744E+02  0.36928705981E+02  0.51100000000E-03 0. -1.
        -11    1    3    3    0    0  0.10358380336E+02 -0.68639605887E+01  0.19294449992E+02  0.22949636139E+02  0.51100000000E-03 0.  1.
         12    1    3    3    0    0  0.11026358995E+02  0.56180983092E+01 -0.22790903251E+01  0.12583237819E+02  0.00000000000E+00 0. -1.
</event>
<event>
 7    1  0.1857734E-013  0.7246160E+02  0.7816164E-02  0.1226708E+00
        -11   -1    0    0    0    0  0.00000000000E+00  0.00000000000E+00  0.45593999997E+02  0.45594000000E+02  0.51100000000E-03 0.  1.
         11   -1    0    0    0    0 -0.00000000000E+00 -0.00000000000E+00 -0.45593999997E+02  0.45594000000E+02  0.51100000000E-03 0. -1.
    9900012    2    1    2    0    0  0.95902999154E+01  0.53691125598E+01 -0.15161688340E+02  0.72461601108E+02  0.70000040140E+02 0.  0.
        -12    1    1    2    0    0 -0.95902999154E+01 -0.53691125598E+01  0.15161688340E+02  0.18726398892E+02  0.00000000000E+00 0.  1.
         11    1    3    3    0    0 -0.15091291827E+02  0.28772301187E+01  0.12959013252E+02  0.20098795160E+02  0.51100000000E-03 0.  1.
        -11    1    3    3    0    0  0.26900232977E+02 -0.99159714337E+01 -0.27525347084E+02  0.39744103412E+02  0.51100000000E-03 0. -1.
         12    1    3    3    0    0 -0.22186412344E+01  0.12407853875E+02 -0.59535450818E+00  0.12618702536E+02  0.00000000000E+00 0. -1.
</event>
<event>
 7    1  0.1857734E-013  0.7246156E+02  0.7816164E-02  0.1226708E+00
        -11   -1    0    0    0    0  0.00000000000E+00  0.00000000000E+00  0.45593999997E+02  0.45594000000E+02  0.51100000000E-03 0.  1.
         11   -1    0    0    0    0 -0.00000000000E+00 -0.00000000000E+00 -0.45593999997E+02  0.45594000000E+02  0.51100000000E-03 0. -1.
    9900012    2    1    2    0    0  0.75811822804E+00  0.61289374482E+01 -0.17678823383E+02  0.72461563774E+02  0.69999991507E+02 0.  0.
        -12    1    1    2    0    0 -0.75811822804E+00 -0.61289374482E+01  0.17678823383E+02  0.18726436226E+02  0.00000000000E+00 0.  1.
         11    1    3    3    0    0  0.18308780805E+02  0.14662604372E+02 -0.72063386989E+01  0.24538433920E+02  0.51100000000E-03 0. -1.
        -11    1    3    3    0    0 -0.10557617295E+02 -0.16195064797E+02  0.12290196976E+02  0.22908346704E+02  0.51100000000E-03 0.  1.
        -12    1    3    3    0    0 -0.69930452823E+01  0.76613978730E+01 -0.22762681661E+02  0.25014783151E+02  0.00000000000E+00 0.  1.
</event>
<event>
 7    1  0.1857734E-013  0.7246159E+02  0.7816164E-02  0.1226708E+00
        -11   -1    0    0    0    0  0.00000000000E+00  0.00000000000E+00  0.45593999997E+02  0.45594000000E+02  0.51100000000E-03 0.  1.
         11   -1    0    0    0    0 -0.00000000000E+00 -0.00000000000E+00 -0.45593999997E+02  0.45594000000E+02  0.51100000000E-03 0. -1.
    9900012    2    1    2    0    0 -0.86352254943E+01  0.82519948830E+01 -0.14422751847E+02  0.72461593251E+02  0.70000029905E+02 0.  0.
        -12    1    1    2    0    0  0.86352254943E+01 -0.82519948830E+01  0.14422751847E+02  0.18726406749E+02  0.00000000000E+00 0.  1.
         11    1    3    3    0    0 -0.22913505591E+02 -0.14459469323E+02 -0.25638538161E+02  0.37302005722E+02  0.51100000000E-03 0. -1.
        -11    1    3    3    0    0 -0.31995882261E+01 -0.15825977919E+00  0.46331398301E+01  0.56327964565E+01  0.51100000000E-03 0.  1.
         12    1    3    3    0    0  0.17477868323E+02  0.22869723985E+02  0.65826464839E+01  0.29526791072E+02  0.00000000000E+00 0. -1.
</event>
<event>
 7    1  0.1857734E-013  0.7246158E+02  0.7816164E-02  0.1226708E+00
        -11   -1    0    0    0    0  0.00000000000E+00  0.00000000000E+00  0.45593999997E+02  0.45594000000E+02  0.51100000000E-03 0.  1.
         11   -1    0    0    0    0 -0.00000000000E+00 -0.00000000000E+00 -0.45593999997E+02  0.45594000000E+02  0.51100000000E-03 0. -1.
    9900012    2    1    2    0    0  0.68164768375E+00  0.18032526432E+02 -0.50042095977E+01  0.72461581047E+02  0.70000014008E+02 0.  0.
        -12    1    1    2    0    0 -0.68164768375E+00 -0.18032526432E+02  0.50042095977E+01  0.18726418953E+02  0.00000000000E+00 0.  1.
         11    1    3    3    0    0  0.15958728125E+02  0.25737354816E+02 -0.30481084643E+01  0.30436547139E+02  0.51100000000E-03 0. -1.
        -11    1    3    3    0    0 -0.19232831013E+01 -0.62379539607E+01  0.17331468902E+02  0.18520013555E+02  0.51100000000E-03 0.  1.
         12    1    3    3    0    0 -0.13353797339E+02 -0.14668744226E+01 -0.19287570036E+02  0.23505020354E+02  0.00000000000E+00 0. -1.
</event>
<event>
 7    1  0.1857734E-013  0.7246174E+02  0.7816164E-02  0.1226708E+00
        -11   -1    0    0    0    0  0.00000000000E+00  0.00000000000E+00  0.45593999997E+02  0.45594000000E+02  0.51100000000E-03 0. -1.
         11   -1    0    0    0    0 -0.00000000000E+00 -0.00000000000E+00 -0.45593999997E+02  0.45594000000E+02  0.51100000000E-03 0.  1.
    9900012    2    1    2    0    0  0.38131650072E+01 -0.18246442459E+02 -0.17888198085E+01  0.72461741268E+02  0.70000222724E+02 0.  0.
        -12    1    1    2    0    0 -0.38131650072E+01  0.18246442459E+02  0.17888198085E+01  0.18726258732E+02  0.00000000000E+00 0.  1.
         11    1    3    3    0    0 -0.44956535352E+01 -0.16146956410E+02  0.18445250211E+02  0.24923128970E+02  0.51100000000E-03 0. -1.
        -11    1    3    3    0    0  0.19627733804E+01 -0.23394424151E+01 -0.33073656414E+02  0.33214337552E+02  0.51100000000E-03 0.  1.
        -12    1    3    3    0    0  0.63460451619E+01  0.23995636578E+00  0.12839586394E+02  0.14324274747E+02  0.00000000000E+00 0.  1.
</event>
<event>
 7    1  0.1857734E-013  0.7246160E+02  0.7816164E-02  0.1226708E+00
        -11   -1    0    0    0    0  0.00000000000E+00  0.00000000000E+00  0.45593999997E+02  0.45594000000E+02  0.51100000000E-03 0. -1.
         11   -1    0    0    0    0 -0.00000000000E+00 -0.00000000000E+00 -0.45593999997E+02  0.45594000000E+02  0.51100000000E-03 0.  1.
    9900012    2    1    2    0    0 -0.58972453285E+01 -0.10561063835E+02  0.14295607563E+02  0.72461602391E+02  0.70000041812E+02 0.  0.
        -12    1    1    2    0    0  0.58972453285E+01  0.10561063835E+02 -0.14295607563E+02  0.18726397609E+02  0.00000000000E+00 0.  1.
         11    1    3    3    0    0  0.23109638639E+02 -0.18399906009E+02  0.32869876916E+01  0.29722318677E+02  0.51100000000E-03 0.  1.
        -11    1    3    3    0    0 -0.34080888876E+02  0.54111379208E+01  0.56438959202E+01  0.34966283211E+02  0.51100000000E-03 0. -1.
         12    1    3    3    0    0  0.50740049082E+01  0.24277042528E+01  0.53647239514E+01  0.77730005032E+01  0.00000000000E+00 0. -1.
</event>
<event>
 7    1  0.1857734E-013  0.7246146E+02  0.7816164E-02  0.1226708E+00
        -11   -1    0    0    0    0  0.00000000000E+00  0.00000000000E+00  0.45593999997E+02  0.45594000000E+02  0.51100000000E-03 0.  1.
         11   -1    0    0    0    0 -0.00000000000E+00 -0.00000000000E+00 -0.45593999997E+02  0.45594000000E+02  0.51100000000E-03 0. -1.
    9900012    2    1    2    0    0 -0.10025947927E+02  0.15816548643E+02 -0.21535317421E-01  0.72461459834E+02  0.69999856105E+02 0.  0.
        -12    1    1    2    0    0  0.10025947927E+02 -0.15816548643E+02  0.21535317421E-01  0.18726540166E+02  0.00000000000E+00 0.  1.
         11    1    3    3    0    0 -0.10621478507E+02 -0.10592154027E+02 -0.11272963129E+01  0.15042617121E+02  0.51100000000E-03 0. -1.
        -11    1    3    3    0    0  0.10122965347E+02  0.30588430487E+02  0.18497921139E+02  0.37152383420E+02  0.51100000000E-03 0.  1.
        -12    1    3    3    0    0 -0.95274347657E+01 -0.41797278168E+01 -0.17392160143E+02  0.20266459293E+02  0.00000000000E+00 0.  1.
</event>
<event>
 7    1  0.1857734E-013  0.7246157E+02  0.7816164E-02  0.1226708E+00
        -11   -1    0    0    0    0  0.00000000000E+00  0.00000000000E+00  0.45593999997E+02  0.45594000000E+02  0.51100000000E-03 0.  1.
         11   -1    0    0    0    0 -0.00000000000E+00 -0.00000000000E+00 -0.45593999997E+02  0.45594000000E+02  0.51100000000E-03 0. -1.
    9900012    2    1    2    0    0 -0.46325246626E+01 -0.98491779299E+01  0.15238524821E+02  0.72461568696E+02  0.69999997918E+02 0.  0.
        -12    1    1    2    0    0  0.46325246626E+01  0.98491779299E+01 -0.15238524821E+02  0.18726431304E+02  0.00000000000E+00 0.  1.
         11    1    3    3    0    0 -0.22274306302E+01 -0.34331538845E+02  0.35488939460E+01  0.34586278423E+02  0.51100000000E-03 0. -1.
        -11    1    3    3    0    0  0.29989937587E+01  0.71472131152E+01  0.17228163136E+02  0.18891432560E+02  0.51100000000E-03 0.  1.
         12    1    3    3    0    0 -0.54040877911E+01  0.17335147800E+02 -0.55385322602E+01  0.18983857713E+02  0.00000000000E+00 0. -1.
</event>
<event>
 7    1  0.1857734E-013  0.7246155E+02  0.7816164E-02  0.1226708E+00
        -11   -1    0    0    0    0  0.00000000000E+00  0.00000000000E+00  0.45593999997E+02  0.45594000000E+02  0.51100000000E-03 0. -1.
         11   -1    0    0    0    0 -0.00000000000E+00 -0.00000000000E+00 -0.45593999997E+02  0.45594000000E+02  0.51100000000E-03 0.  1.
    9900012    2    1    2    0    0 -0.11837144221E+01  0.26335794738E+01  0.18502510372E+02  0.72461553174E+02  0.69999977697E+02 0.  0.
        -12    1    1    2    0    0  0.11837144221E+01 -0.26335794738E+01 -0.18502510372E+02  0.18726446826E+02  0.00000000000E+00 0.  1.
         11    1    3    3    0    0 -0.22710375929E+01 -0.15465442682E+02 -0.15880328382E+02  0.22282781668E+02  0.51100000000E-03 0. -1.
        -11    1    3    3    0    0  0.12124443708E+02  0.16948144371E+02  0.94363043258E+01  0.22875436005E+02  0.51100000000E-03 0.  1.
         12    1    3    3    0    0 -0.11037120537E+02  0.11508777851E+01  0.24946534428E+02  0.27303335500E+02  0.00000000000E+00 0. -1.
</event>
<event>
 7    1  0.1857734E-013  0.7246157E+02  0.7816164E-02  0.1226708E+00
        -11   -1    0    0    0    0  0.00000000000E+00  0.00000000000E+00  0.45593999997E+02  0.45594000000E+02  0.51100000000E-03 0. -1.
         11   -1    0    0    0    0 -0.00000000000E+00 -0.00000000000E+00 -0.45593999997E+02  0.45594000000E+02  0.51100000000E-03 0.  1.
    9900012    2    1    2    0    0  0.14007373662E+02 -0.10292428591E+02 -0.69669643809E+01  0.72461569591E+02  0.69999999083E+02 0.  0.
        -12    1    1    2    0    0 -0.14007373662E+02  0.10292428591E+02  0.69669643809E+01  0.18726430409E+02  0.00000000000E+00 0.  1.
         11    1    3    3    0    0 -0.73380223921E+00 -0.23133998346E+02  0.74117193285E+00  0.23157497302E+02  0.51100000000E-03 0. -1.
        -11    1    3    3    0    0  0.84836775824E+00  0.25370981371E+02 -0.14697428919E+02  0.29332930993E+02  0.51100000000E-03 0.  1.
        -12    1    3    3    0    0  0.13892808143E+02 -0.12529411615E+02  0.69892926051E+01  0.19971141295E+02  0.00000000000E+00 0.  1.
</event>
<event>
 7    1  0.1857734E-013  0.7246177E+02  0.7816164E-02  0.1226707E+00
        -11   -1    0    0    0    0  0.00000000000E+00  0.00000000000E+00  0.45593999997E+02  0.45594000000E+02  0.51100000000E-03 0.  1.
         11   -1    0    0    0    0 -0.00000000000E+00 -0.00000000000E+00 -0.45593999997E+02  0.45594000000E+02  0.51100000000E-03 0. -1.
    9900012    2    1    2    0    0  0.13393457382E+02 -0.36603807349E+00 -0.13082545228E+02  0.72461770423E+02  0.70000260705E+02 0.  0.
        -12    1    1    2    0    0 -0.13393457382E+02  0.36603807349E+00  0.13082545228E+02  0.18726229577E+02  0.00000000000E+00 0.  1.
         11    1    3    3    0    0  0.43510879336E+01  0.17220622172E+02 -0.17274172262E+02  0.24776578089E+02  0.51100000000E-03 0. -1.
        -11    1    3    3    0    0  0.22394174409E+02 -0.13319600880E+02  0.14927590517E+02  0.30029048835E+02  0.51100000000E-03 0.  1.
        -12    1    3    3    0    0 -0.13351804961E+02 -0.42670593661E+01 -0.10735963483E+02  0.17656143499E+02  0.00000000000E+00 0.  1.
</event>
<event>
 7    1  0.1857734E-013  0.7246160E+02  0.7816164E-02  0.1226708E+00
        -11   -1    0    0    0    0  0.00000000000E+00  0.00000000000E+00  0.45593999997E+02  0.45594000000E+02  0.51100000000E-03 0. -1.
         11   -1    0    0    0    0 -0.00000000000E+00 -0.00000000000E+00 -0.45593999997E+02  0.45594000000E+02  0.51100000000E-03 0.  1.
    9900012    2    1    2    0    0  0.16699405373E+02  0.93461559387E+00  0.84222477514E+01  0.72461604103E+02  0.70000044041E+02 0.  0.
        -12    1    1    2    0    0 -0.16699405373E+02 -0.93461559387E+00 -0.84222477514E+01  0.18726395897E+02  0.00000000000E+00 0.  1.
         11    1    3    3    0    0  0.64093454139E+01  0.12291111751E+02 -0.21033694356E+02  0.25190621970E+02  0.51100000000E-03 0.  1.
        -11    1    3    3    0    0  0.18133291688E+02 -0.17423190457E+02  0.13652190460E+02  0.28614089846E+02  0.51100000000E-03 0. -1.
        -12    1    3    3    0    0 -0.78432317285E+01  0.60666942992E+01  0.15803751647E+02  0.18656892286E+02  0.00000000000E+00 0.  1.
</event>
<event>
 7    1  0.1857734E-013  0.7246159E+02  0.7816164E-02  0.1226708E+00
        -11   -1    0    0    0    0  0.00000000000E+00  0.00000000000E+00  0.45593999997E+02  0.45594000000E+02  0.51100000000E-03 0. -1.
         11   -1    0    0    0    0 -0.00000000000E+00 -0.00000000000E+00 -0.45593999997E+02  0.45594000000E+02  0.51100000000E-03 0.  1.
    9900012    2    1    2    0    0 -0.14978829481E+02 -0.11237401439E+02  0.18427035697E+00  0.72461588724E+02  0.70000024008E+02 0.  0.
        -12    1    1    2    0    0  0.14978829481E+02  0.11237401439E+02 -0.18427035697E+00  0.18726411276E+02  0.00000000000E+00 0.  1.
         11    1    3    3    0    0 -0.13891001412E+02  0.14652378622E+02  0.20605760432E+02  0.28848734509E+02  0.51100000000E-03 0. -1.
        -11    1    3    3    0    0 -0.10177308567E+02 -0.15970583311E+02 -0.23125109877E+02  0.29889928873E+02  0.51100000000E-03 0.  1.
         12    1    3    3    0    0  0.90894804981E+01 -0.99191967508E+01  0.27036198023E+01  0.13722925342E+02  0.00000000000E+00 0. -1.
</event>
<event>
 7    1  0.1857734E-013  0.7246176E+02  0.7816164E-02  0.1226708E+00
        -11   -1    0    0    0    0  0.00000000000E+00  0.00000000000E+00  0.45593999997E+02  0.45594000000E+02  0.51100000000E-03 0.  1.
         11   -1    0    0    0    0 -0.00000000000E+00 -0.00000000000E+00 -0.45593999997E+02  0.45594000000E+02  0.51100000000E-03 0. -1.
    9900012    2    1    2    0    0 -0.17796350280E+01  0.37768249560E+01 -0.18254881950E+02  0.72461755780E+02  0.70000241629E+02 0.  0.
        -12    1    1    2    0    0  0.17796350280E+01 -0.37768249560E+01  0.18254881950E+02  0.18726244220E+02  0.00000000000E+00 0.  1.
         11    1    3    3    0    0 -0.77245209821E+01 -0.11900219768E+01 -0.10863246762E+02  0.13382619593E+02  0.51100000000E-03 0. -1.
        -11    1    3    3    0    0  0.31527380252E+02 -0.32041805174E+01 -0.25680373185E+01  0.31793667518E+02  0.51100000000E-03 0.  1.
        -12    1    3    3    0    0 -0.25582494298E+02  0.81710274502E+01 -0.48235978694E+01  0.27285468669E+02  0.00000000000E+00 0.  1.
</event>
<event>
 7    1  0.1857734E-013  0.7246138E+02  0.7816164E-02  0.1226709E+00
        -11   -1    0    0    0    0  0.00000000000E+00  0.00000000000E+00  0.45593999997E+02  0.45594000000E+02  0.51100000000E-03 0.  1.
         11   -1    0    0    0    0 -0.00000000000E+00 -0.00000000000E+00 -0.45593999997E+02  0.45594000000E+02  0.51100000000E-03 0. -1.
    9900012    2    1    2    0    0 -0.67518569266E+01  0.26642253269E+01 -0.17262690017E+02  0.72461384311E+02  0.69999757722E+02 0.  0.
        -12    1    1    2    0    0  0.67518569266E+01 -0.26642253269E+01  0.17262690017E+02  0.18726615689E+02  0.00000000000E+00 0.  1.
         11    1    3    3    0    0  0.19903008181E+02 -0.51773045201E+01  0.24929040565E+01  0.20715906634E+02  0.51100000000E-03 0. -1.
        -11    1    3    3    0    0 -0.11615495175E+02  0.19057570765E+02 -0.23720921386E+02  0.32569814910E+02  0.51100000000E-03 0.  1.
        -12    1    3    3    0    0 -0.15039369933E+02 -0.11216040918E+02  0.39653273131E+01  0.19175662767E+02  0.00000000000E+00 0.  1.
</event>
<event>
 7    1  0.1857734E-013  0.7246160E+02  0.7816164E-02  0.1226708E+00
        -11   -1    0    0    0    0  0.00000000000E+00  0.00000000000E+00  0.45593999997E+02  0.45594000000E+02  0.51100000000E-03 0.  1.
         11   -1    0    0    0    0 -0.00000000000E+00 -0.00000000000E+00 -0.45593999997E+02  0.45594000000E+02  0.51100000000E-03 0. -1.
    9900012    2    1    2    0    0  0.18452536126E+02 -0.31497324463E+01 -0.51103090522E+00  0.72461600011E+02  0.70000038711E+02 0.  0.
        -12    1    1    2    0    0 -0.18452536126E+02  0.31497324463E+01  0.51103090522E+00  0.18726399989E+02  0.00000000000E+00 0.  1.
         11    1    3    3    0    0  0.17298196571E+02  0.94155769738E+01  0.23782918721E+02  0.30878923516E+02  0.51100000000E-03 0. -1.
        -11    1    3    3    0    0 -0.36390687586E+01 -0.22113879736E+02 -0.12471374974E+02  0.25647644968E+02  0.51100000000E-03 0.  1.
        -12    1    3    3    0    0  0.47934083135E+01  0.95485703161E+01 -0.11822574653E+02  0.15935031527E+02  0.00000000000E+00 0.  1.
</event>
<event>
 7    1  0.1857734E-013  0.7246132E+02  0.7816164E-02  0.1226709E+00
        -11   -1    0    0    0    0  0.00000000000E+00  0.00000000000E+00  0.45593999997E+02  0.45594000000E+02  0.51100000000E-03 0.  1.
         11   -1    0    0    0    0 -0.00000000000E+00 -0.00000000000E+00 -0.45593999997E+02  0.45594000000E+02  0.51100000000E-03 0. -1.
    9900012    2    1    2    0    0 -0.31235521519E+00  0.18288989799E+02 -0.40129714586E+01  0.72461317070E+02  0.69999670127E+02 0.  0.
        -12    1    1    2    0    0  0.31235521519E+00 -0.18288989799E+02  0.40129714586E+01  0.18726682930E+02  0.00000000000E+00 0.  1.
         11    1    3    3    0    0  0.13976177181E+02  0.20450635844E+02 -0.24662447946E+02  0.34954232562E+02  0.51100000000E-03 0. -1.
        -11    1    3    3    0    0  0.17537825609E+01 -0.70346498671E+01  0.19381503698E+02  0.20693108463E+02  0.51100000000E-03 0.  1.
        -12    1    3    3    0    0 -0.16042314957E+02  0.48730038217E+01  0.12679727898E+01  0.16813976044E+02  0.00000000000E+00 0.  1.
</event>
<event>
 7    1  0.1857734E-013  0.7246161E+02  0.7816164E-02  0.1226708E+00
        -11   -1    0    0    0    0  0.00000000000E+00  0.00000000000E+00  0.45593999997E+02  0.45594000000E+02  0.51100000000E-03 0.  1.
         11   -1    0    0    0    0 -0.00000000000E+00 -0.00000000000E+00 -0.45593999997E+02  0.45594000000E+02  0.51100000000E-03 0. -1.
    9900012    2    1    2    0    0 -0.16458174205E+02 -0.55307241806E+01 -0.70155080479E+01  0.72461607895E+02  0.70000048981E+02 0.  0.
        -12    1    1    2    0    0  0.16458174205E+02  0.55307241806E+01  0.70155080479E+01  0.18726392105E+02  0.00000000000E+00 0.  1.
         11    1    3    3    0    0  0.94992762628E+01 -0.21565951038E+02 -0.19088104902E+02  0.30326263250E+02  0.51100000000E-03 0. -1.
        -11    1    3    3    0    0 -0.15713799158E+02  0.13095484187E+01  0.17342297673E+02  0.23439148659E+02  0.51100000000E-03 0.  1.
         12    1    3    3    0    0 -0.10243651310E+02  0.14725678438E+02 -0.52697008187E+01  0.18696195986E+02  0.00000000000E+00 0. -1.
</event>
<event>
 7    1  0.1857734E-013  0.7246164E+02  0.7816164E-02  0.1226708E+00
        -11   -1    0    0    0    0  0.00000000000E+00  0.00000000000E+00  0.45593999997E+02  0.45594000000E+02  0.51100000000E-03 0. -1.
         11   -1    0    0    0    0 -0.00000000000E+00 -0.00000000000E+00 -0.45593999997E+02  0.45594000000E+02  0.51100000000E-03 0.  1.
    9900012    2    1    2    0    0 -0.17027899575E+02 -0.71414888918E+01  0.31187309996E+01  0.72461635949E+02  0.70000085527E+02 0.  0.
        -12    1    1    2    0    0  0.17027899575E+02  0.71414888918E+01 -0.31187309996E+01  0.18726364051E+02  0.00000000000E+00 0.  1.
         11    1    3    3    0    0 -0.14141060561E+02 -0.35020131829E+01  0.36778827973E+01  0.15025329023E+02  0.51100000000E-03 0. -1.
        -11    1    3    3    0    0  0.25106977921E+02  0.43496335926E+01 -0.91655457417E+01  0.27079270332E+02  0.51100000000E-03 0.  1.
        -12    1    3    3    0    0 -0.27993816935E+02 -0.79891093014E+01  0.86063939440E+01  0.30357036594E+02  0.00000000000E+00 0.  1.
</event>
<event>
 7    1  0.1857734E-013  0.7246160E+02  0.7816164E-02  0.1226708E+00
        -11   -1    0    0    0    0  0.00000000000E+00  0.00000000000E+00  0.45593999997E+02  0.45594000000E+02  0.51100000000E-03 0.  1.
         11   -1    0    0    0    0 -0.00000000000E+00 -0.00000000000E+00 -0.45593999997E+02  0.45594000000E+02  0.51100000000E-03 0. -1.
    9900012    2    1    2    0    0 -0.11087175561E+02 -0.79536051963E+01 -0.12825467941E+02  0.72461603511E+02  0.70000043271E+02 0.  0.
        -12    1    1    2    0    0  0.11087175561E+02  0.79536051963E+01  0.12825467941E+02  0.18726396489E+02  0.00000000000E+00 0.  1.
         11    1    3    3    0    0  0.48095944000E+00 -0.27659993116E+02 -0.20113263070E+02  0.34203068470E+02  0.51100000000E-03 0. -1.
        -11    1    3    3    0    0 -0.20682468814E+02  0.13235567209E+02 -0.62596027227E+00  0.24562910701E+02  0.51100000000E-03 0.  1.
         12    1    3    3    0    0  0.91143338131E+01  0.64708207116E+01  0.79137554006E+01  0.13695624341E+02  0.00000000000E+00 0. -1.
</event>
<event>
 7    1  0.1857734E-013  0.7246156E+02  0.7816164E-02  0.1226708E+00
        -11   -1    0    0    0    0  0.00000000000E+00  0.00000000000E+00  0.45593999997E+02  0.45594000000E+02  0.51100000000E-03 0.  1.
         11   -1    0    0    0    0 -0.00000000000E+00 -0.00000000000E+00 -0.45593999997E+02  0.45594000000E+02  0.51100000000E-03 0. -1.
    9900012    2    1    2    0    0  0.34749789747E+01 -0.16623737237E+02 -0.78902212601E+01  0.72461555860E+02  0.69999981196E+02 0.  0.
        -12    1    1    2    0    0 -0.34749789747E+01  0.16623737237E+02  0.78902212601E+01  0.18726444140E+02  0.00000000000E+00 0.  1.
         11    1    3    3    0    0 -0.17760004645E+02 -0.26500434721E+02 -0.21776843660E+02  0.38625402593E+02  0.51100000000E-03 0. -1.
        -11    1    3    3    0    0  0.12596098297E+02 -0.49617971993E+01  0.77682122702E+01  0.15608531190E+02  0.51100000000E-03 0.  1.
         12    1    3    3    0    0  0.86388853223E+01  0.14838494683E+02  0.61184101301E+01  0.18227622077E+02  0.00000000000E+00 0. -1.
</event>
<event>
 7    1  0.1857734E-013  0.7246157E+02  0.7816164E-02  0.1226708E+00
        -11   -1    0    0    0    0  0.00000000000E+00  0.00000000000E+00  0.45593999997E+02  0.45594000000E+02  0.51100000000E-03 0.  1.
         11   -1    0    0    0    0 -0.00000000000E+00 -0.00000000000E+00 -0.45593999997E+02  0.45594000000E+02  0.51100000000E-03 0. -1.
    9900012    2    1    2    0    0  0.96169021148E+01  0.16068346850E+02 -0.49611510084E-01  0.72461573803E+02  0.70000004571E+02 0.  0.
        -12    1    1    2    0    0 -0.96169021148E+01 -0.16068346850E+02  0.49611510084E-01  0.18726426197E+02  0.00000000000E+00 0.  1.
         11    1    3    3    0    0  0.13404943147E+02  0.31093860150E+02 -0.53152843720E+01  0.34274960074E+02  0.51100000000E-03 0. -1.
        -11    1    3    3    0    0 -0.10809192107E+02  0.64470189385E+00  0.14960067137E+02  0.18467752531E+02  0.51100000000E-03 0.  1.
         12    1    3    3    0    0  0.70211510743E+01 -0.15670215194E+02 -0.96943942750E+01  0.19718861199E+02  0.00000000000E+00 0. -1.
</event>
<event>
 7    1  0.1857734E-013  0.7246174E+02  0.7816164E-02  0.1226708E+00
        -11   -1    0    0    0    0  0.00000000000E+00  0.00000000000E+00  0.45593999997E+02  0.45594000000E+02  0.51100000000E-03 0.  1.
         11   -1    0    0    0    0 -0.00000000000E+00 -0.00000000000E+00 -0.45593999997E+02  0.45594000000E+02  0.51100000000E-03 0. -1.
    9900012    2    1    2    0    0  0.45724610896E+01 -0.27309413276E+01 -0.17952920426E+02  0.72461740556E+02  0.70000221797E+02 0.  0.
        -12    1    1    2    0    0 -0.45724610896E+01  0.27309413276E+01  0.17952920426E+02  0.18726259444E+02  0.00000000000E+00 0.  1.
         11    1    3    3    0    0  0.29572993886E+02 -0.17024548286E+02 -0.19075215212E+02  0.39092979515E+02  0.51100000000E-03 0. -1.
        -11    1    3    3    0    0  0.46014589687E+00  0.67322952097E+01 -0.44630251231E+00  0.67627449480E+01  0.51100000000E-03 0.  1.
         12    1    3    3    0    0 -0.25460678693E+02  0.75613117487E+01  0.15685972976E+01  0.26606016093E+02  0.00000000000E+00 0. -1.
</event>
<event>
 7    1  0.1857734E-013  0.7246124E+02  0.7816164E-02  0.1226709E+00
        -11   -1    0    0    0    0  0.00000000000E+00  0.00000000000E+00  0.45593999997E+02  0.45594000000E+02  0.51100000000E-03 0. -1.
         11   -1    0    0    0    0 -0.00000000000E+00 -0.00000000000E+00 -0.45593999997E+02  0.45594000000E+02  0.51100000000E-03 0.  1.
    9900012    2    1    2    0    0 -0.28685527968E+01  0.18273563028E+02 -0.29222905707E+01  0.72461241523E+02  0.69999571713E+02 0.  0.
        -12    1    1    2    0    0  0.28685527968E+01 -0.18273563028E+02  0.29222905707E+01  0.18726758477E+02  0.00000000000E+00 0.  1.
         11    1    3    3    0    0  0.13098304199E+02  0.48035620293E+01  0.12700132441E+02  0.18866190536E+02  0.51100000000E-03 0. -1.
        -11    1    3    3    0    0 -0.15859715689E+02 -0.14340128959E+02 -0.14359847581E+02  0.25756069248E+02  0.51100000000E-03 0.  1.
        -12    1    3    3    0    0 -0.10714130651E+00  0.27810129958E+02 -0.12625754308E+01  0.27838981739E+02  0.00000000000E+00 0.  1.
</event>
<event>
 7    1  0.1857734E-013  0.7246156E+02  0.7816164E-02  0.1226708E+00
        -11   -1    0    0    0    0  0.00000000000E+00  0.00000000000E+00  0.45593999997E+02  0.45594000000E+02  0.51100000000E-03 0.  1.
         11   -1    0    0    0    0 -0.00000000000E+00 -0.00000000000E+00 -0.45593999997E+02  0.45594000000E+02  0.51100000000E-03 0. -1.
    9900012    2    1    2    0    0 -0.43630600450E+01 -0.17765801358E+02 -0.40024306420E+01  0.72461563022E+02  0.69999990526E+02 0.  0.
        -12    1    1    2    0    0  0.43630600450E+01  0.17765801358E+02  0.40024306420E+01  0.18726436978E+02  0.00000000000E+00 0.  1.
         11    1    3    3    0    0 -0.31601349313E+02 -0.10773496386E+02 -0.12756036609E+02  0.35741152373E+02  0.51100000000E-03 0. -1.
        -11    1    3    3    0    0  0.14972953206E+02 -0.13128671594E+02 -0.92398729169E+00  0.19935021904E+02  0.51100000000E-03 0.  1.
         12    1    3    3    0    0  0.12265336062E+02  0.61363666218E+01  0.96775932583E+01  0.16785388744E+02  0.00000000000E+00 0. -1.
</event>
<event>
 7    1  0.1857734E-013  0.7246158E+02  0.7816164E-02  0.1226708E+00
        -11   -1    0    0    0    0  0.00000000000E+00  0.00000000000E+00  0.45593999997E+02  0.45594000000E+02  0.51100000000E-03 0. -1.
         11   -1    0    0    0    0 -0.00000000000E+00 -0.00000000000E+00 -0.45593999997E+02  0.45594000000E+02  0.51100000000E-03 0.  1.
    9900012    2    1    2    0    0  0.45476749394E+01 -0.18139068601E+02  0.98570039720E+00  0.72461581166E+02  0.70000014162E+02 0.  0.
        -12    1    1    2    0    0 -0.45476749394E+01  0.18139068601E+02 -0.98570039720E+00  0.18726418834E+02  0.00000000000E+00 0.  1.
         11    1    3    3    0    0 -0.53357253598E+01  0.12662577906E+02 -0.22533310731E+02  0.26392440909E+02  0.51100000000E-03 0. -1.
        -11    1    3    3    0    0 -0.48356858176E+01 -0.16628474533E+02  0.39195186002E+01  0.17755355500E+02  0.51100000000E-03 0.  1.
         12    1    3    3    0    0  0.14719086117E+02 -0.14173171974E+02  0.19599492528E+02  0.28313784757E+02  0.00000000000E+00 0. -1.
</event>
<event>
 7    1  0.1857734E-013  0.7246156E+02  0.7816164E-02  0.1226708E+00
        -11   -1    0    0    0    0  0.00000000000E+00  0.00000000000E+00  0.45593999997E+02  0.45594000000E+02  0.51100000000E-03 0. -1.
         11   -1    0    0    0    0 -0.00000000000E+00 -0.00000000000E+00 -0.45593999997E+02  0.45594000000E+02  0.51100000000E-03 0.  1.
    9900012    2    1    2    0    0 -0.14669790024E+02 -0.10946942839E+02  0.39549259045E+01  0.72461555175E+02  0.69999980304E+02 0.  0.
        -12    1    1    2    0    0  0.14669790024E+02  0.10946942839E+02 -0.39549259045E+01  0.18726444825E+02  0.00000000000E+00 0.  1.
         11    1    3    3    0    0  0.20676077907E+02  0.62386002503E+01  0.86373573645E+01  0.23259928487E+02  0.51100000000E-03 0. -1.
        -11    1    3    3    0    0 -0.17242232280E+02 -0.30359825222E+01 -0.15884163357E+02  0.23639340297E+02  0.51100000000E-03 0.  1.
         12    1    3    3    0    0 -0.18103635652E+02 -0.14149560567E+02  0.11201731897E+02  0.25562286391E+02  0.00000000000E+00 0. -1.
</event>
<event>
 7    1  0.1857734E-013  0.7246156E+02  0.7816164E-02  0.1226708E+00
        -11   -1    0    0    0    0  0.00000000000E+00  0.00000000000E+00  0.45593999997E+02  0.45594000000E+02  0.51100000000E-03 0.  1.
         11   -1    0    0    0    0 -0.00000000000E+00 -0.00000000000E+00 -0.45593999997E+02  0.45594000000E+02  0.51100000000E-03 0. -1.
    9900012    2    1    2    0    0 -0.94269312123E+01 -0.15472822275E+01  0.16106473820E+02  0.72461558445E+02  0.69999984564E+02 0.  0.
        -12    1    1    2    0    0  0.94269312123E+01  0.15472822275E+01 -0.16106473820E+02  0.18726441555E+02  0.00000000000E+00 0.  1.
         11    1    3    3    0    0  0.21019619243E+02 -0.72629017294E+01  0.83080190737E+01  0.23740204629E+02  0.51100000000E-03 0. -1.
        -11    1    3    3    0    0 -0.11086424962E+02  0.10454877451E+02  0.20157134324E+02  0.25269019478E+02  0.51100000000E-03 0.  1.
         12    1    3    3    0    0 -0.19360125493E+02 -0.47392579492E+01 -0.12358679578E+02  0.23452334338E+02  0.00000000000E+00 0. -1.
</event>
<event>
 7    1  0.1857734E-013  0.7246196E+02  0.7816164E-02  0.1226707E+00
        -11   -1    0    0    0    0  0.00000000000E+00  0.00000000000E+00  0.45593999997E+02  0.45594000000E+02  0.51100000000E-03 0. -1.
         11   -1    0    0    0    0 -0.00000000000E+00 -0.00000000000E+00 -0.45593999997E+02  0.45594000000E+02  0.51100000000E-03 0.  1.
    9900012    2    1    2    0    0  0.70932965734E+01  0.71510913596E+00  0.17315842272E+02  0.72461958482E+02  0.70000505684E+02 0.  0.
        -12    1    1    2    0    0 -0.70932965734E+01 -0.71510913596E+00 -0.17315842272E+02  0.18726041518E+02  0.00000000000E+00 0.  1.
         11    1    3    3    0    0  0.27855247184E+02  0.38734219542E+01 -0.17532023125E+01  0.28177862089E+02  0.51100000000E-03 0. -1.
        -11    1    3    3    0    0 -0.26356891187E+02 -0.40783089660E+01  0.25184607177E+01  0.26789194869E+02  0.51100000000E-03 0.  1.
         12    1    3    3    0    0  0.55949405768E+01  0.91999614782E+00  0.16550583867E+02  0.17494901523E+02  0.00000000000E+00 0. -1.
</event>
<event>
 7    1  0.1857734E-013  0.7246161E+02  0.7816164E-02  0.1226708E+00
        -11   -1    0    0    0    0  0.00000000000E+00  0.00000000000E+00  0.45593999997E+02  0.45594000000E+02  0.51100000000E-03 0.  1.
         11   -1    0    0    0    0 -0.00000000000E+00 -0.00000000000E+00 -0.45593999997E+02  0.45594000000E+02  0.51100000000E-03 0. -1.
    9900012    2    1    2    0    0  0.15578602475E+02  0.98235270997E+01  0.33886879526E+01  0.72461608308E+02  0.70000049520E+02 0.  0.
        -12    1    1    2    0    0 -0.15578602475E+02 -0.98235270997E+01 -0.33886879526E+01  0.18726391692E+02  0.00000000000E+00 0.  1.
         11    1    3    3    0    0  0.15955706730E+02 -0.95767617054E+01 -0.27087810372E+02  0.32864090023E+02  0.51100000000E-03 0. -1.
        -11    1    3    3    0    0  0.76112211672E+01  0.61770980268E+01  0.10897263189E+02  0.14657338536E+02  0.51100000000E-03 0.  1.
         12    1    3    3    0    0 -0.79883254221E+01  0.13223190778E+02  0.19579235136E+02  0.24940179749E+02  0.00000000000E+00 0. -1.
</event>
<event>
 7    1  0.1857734E-013  0.7246159E+02  0.7816164E-02  0.1226708E+00
        -11   -1    0    0    0    0  0.00000000000E+00  0.00000000000E+00  0.45593999997E+02  0.45594000000E+02  0.51100000000E-03 0.  1.
         11   -1    0    0    0    0 -0.00000000000E+00 -0.00000000000E+00 -0.45593999997E+02  0.45594000000E+02  0.51100000000E-03 0. -1.
    9900012    2    1    2    0    0  0.58489246864E+01  0.13211260225E+01 -0.17740439677E+02  0.72461588334E+02  0.70000023500E+02 0.  0.
        -12    1    1    2    0    0 -0.58489246864E+01 -0.13211260225E+01  0.17740439677E+02  0.18726411666E+02  0.00000000000E+00 0.  1.
         11    1    3    3    0    0  0.50683579430E+01  0.22764502028E+01 -0.38366524730E+02  0.38766747322E+02  0.51100000000E-03 0. -1.
        -11    1    3    3    0    0  0.11626154667E+02 -0.70566564422E+01  0.14302155786E+02  0.19736147873E+02  0.51100000000E-03 0.  1.
        -12    1    3    3    0    0 -0.10845587923E+02  0.61013322619E+01  0.63239292676E+01  0.13958693139E+02  0.00000000000E+00 0.  1.
</event>
<event>
 7    1  0.1857734E-013  0.7246156E+02  0.7816164E-02  0.1226708E+00
        -11   -1    0    0    0    0  0.00000000000E+00  0.00000000000E+00  0.45593999997E+02  0.45594000000E+02  0.51100000000E-03 0. -1.
         11   -1    0    0    0    0 -0.00000000000E+00 -0.00000000000E+00 -0.45593999997E+02  0.45594000000E+02  0.51100000000E-03 0.  1.
    9900012    2    1    2    0    0 -0.37958454608E+01  0.44386998676E+01  0.17792385254E+02  0.72461562210E+02  0.69999989469E+02 0.  0.
        -12    1    1    2    0    0  0.37958454608E+01 -0.44386998676E+01 -0.17792385254E+02  0.18726437790E+02  0.00000000000E+00 0.  1.
         11    1    3    3    0    0 -0.26181939606E+02 -0.80560288104E+01  0.68693938571E+01  0.28241496667E+02  0.51100000000E-03 0.  1.
        -11    1    3    3    0    0  0.12774016821E+02  0.24321971967E+02  0.53239654079E+01  0.27983538626E+02  0.51100000000E-03 0. -1.
        -12    1    3    3    0    0  0.96120773250E+01 -0.11827243289E+02  0.55990259887E+01  0.16236526918E+02  0.00000000000E+00 0.  1.
</event>
<event>
 7    1  0.1857734E-013  0.7246151E+02  0.7816164E-02  0.1226708E+00
        -11   -1    0    0    0    0  0.00000000000E+00  0.00000000000E+00  0.45593999997E+02  0.45594000000E+02  0.51100000000E-03 0.  1.
         11   -1    0    0    0    0 -0.00000000000E+00 -0.00000000000E+00 -0.45593999997E+02  0.45594000000E+02  0.51100000000E-03 0. -1.
    9900012    2    1    2    0    0  0.29765074144E+01  0.13962474588E+02 -0.12119041813E+02  0.72461508938E+02  0.69999920072E+02 0.  0.
        -12    1    1    2    0    0 -0.29765074144E+01 -0.13962474588E+02  0.12119041813E+02  0.18726491062E+02  0.00000000000E+00 0.  1.
         11    1    3    3    0    0  0.31223916414E+02  0.19717595877E+01 -0.10399061579E+02  0.32969095743E+02  0.51100000000E-03 0. -1.
        -11    1    3    3    0    0 -0.62499232775E+01 -0.59740853711E+01  0.54242092191E+01  0.10206531385E+02  0.51100000000E-03 0.  1.
         12    1    3    3    0    0 -0.21997485722E+02  0.17964800372E+02 -0.71441894530E+01  0.29285881811E+02  0.00000000000E+00 0. -1.
</event>
<event>
 7    1  0.1857734E-013  0.7246158E+02  0.7816164E-02  0.1226708E+00
        -11   -1    0    0    0    0  0.00000000000E+00  0.00000000000E+00  0.45593999997E+02  0.45594000000E+02  0.51100000000E-03 0.  1.
         11   -1    0    0    0    0 -0.00000000000E+00 -0.00000000000E+00 -0.45593999997E+02  0.45594000000E+02  0.51100000000E-03 0. -1.
    9900012    2    1    2    0    0  0.60550219168E+01 -0.45624114448E+01 -0.17123077489E+02  0.72461583597E+02  0.70000017329E+02 0.  0.
        -12    1    1    2    0    0 -0.60550219168E+01  0.45624114448E+01  0.17123077489E+02  0.18726416403E+02  0.00000000000E+00 0.  1.
         11    1    3    3    0    0  0.72399549848E+01  0.71508869846E+01 -0.40301050798E+02  0.41565933509E+02  0.51100000000E-03 0. -1.
        -11    1    3    3    0    0 -0.28058590705E+01 -0.88592248518E+01  0.20527417970E+01  0.95169564066E+01  0.51100000000E-03 0.  1.
         12    1    3    3    0    0  0.16209260025E+01 -0.28540735777E+01  0.21125231511E+02  0.21378693681E+02  0.00000000000E+00 0. -1.
</event>
<event>
 7    1  0.1857734E-013  0.7246209E+02  0.7816164E-02  0.1226707E+00
        -11   -1    0    0    0    0  0.00000000000E+00  0.00000000000E+00  0.45593999997E+02  0.45594000000E+02  0.51100000000E-03 0.  1.
         11   -1    0    0    0    0 -0.00000000000E+00 -0.00000000000E+00 -0.45593999997E+02  0.45594000000E+02  0.51100000000E-03 0. -1.
    9900012    2    1    2    0    0 -0.10172430727E+02  0.15365133928E+02 -0.33307840340E+01  0.72462087210E+02  0.70000673376E+02 0.  0.
        -12    1    1    2    0    0  0.10172430727E+02 -0.15365133928E+02  0.33307840340E+01  0.18725912790E+02  0.00000000000E+00 0.  1.
         11    1    3    3    0    0 -0.11806391593E+02  0.86678066149E+01 -0.27952950596E+02  0.31557712231E+02  0.51100000000E-03 0. -1.
        -11    1    3    3    0    0 -0.17714728367E+01 -0.29298705623E+01  0.29422207130E+02  0.29620744930E+02  0.51100000000E-03 0.  1.
        -12    1    3    3    0    0  0.34054337025E+01  0.96271978755E+01 -0.48000405686E+01  0.11283630050E+02  0.00000000000E+00 0.  1.
</event>
<event>
 7    1  0.1857734E-013  0.7246163E+02  0.7816164E-02  0.1226708E+00
        -11   -1    0    0    0    0  0.00000000000E+00  0.00000000000E+00  0.45593999997E+02  0.45594000000E+02  0.51100000000E-03 0.  1.
         11   -1    0    0    0    0 -0.00000000000E+00 -0.00000000000E+00 -0.45593999997E+02  0.45594000000E+02  0.51100000000E-03 0. -1.
    9900012    2    1    2    0    0  0.14122559387E+01 -0.18155401514E+02 -0.43662232612E+01  0.72461628847E+02  0.70000076276E+02 0.  0.
        -12    1    1    2    0    0 -0.14122559387E+01  0.18155401514E+02  0.43662232612E+01  0.18726371153E+02  0.00000000000E+00 0.  1.
         11    1    3    3    0    0 -0.11450529753E+02 -0.26781529746E+02 -0.20982154924E+02  0.35897295061E+02  0.51100000000E-03 0. -1.
        -11    1    3    3    0    0  0.92708944412E+01 -0.30049615439E+01  0.21376668172E+02  0.23493429295E+02  0.51100000000E-03 0.  1.
        -12    1    3    3    0    0  0.35918912508E+01  0.11631089776E+02 -0.47607365096E+01  0.13070904492E+02  0.00000000000E+00 0.  1.
</event>
<event>
 7    1  0.1857734E-013  0.7246159E+02  0.7816164E-02  0.1226708E+00
        -11   -1    0    0    0    0  0.00000000000E+00  0.00000000000E+00  0.45593999997E+02  0.45594000000E+02  0.51100000000E-03 0. -1.
         11   -1    0    0    0    0 -0.00000000000E+00 -0.00000000000E+00 -0.45593999997E+02  0.45594000000E+02  0.51100000000E-03 0.  1.
    9900012    2    1    2    0    0  0.17654349531E+01 -0.87992752398E+01 -0.16435766659E+02  0.72461590013E+02  0.70000025688E+02 0.  0.
        -12    1    1    2    0    0 -0.17654349531E+01  0.87992752398E+01  0.16435766659E+02  0.18726409987E+02  0.00000000000E+00 0.  1.
         11    1    3    3    0    0 -0.71017166812E+01 -0.14655554212E+02 -0.26342989703E+01  0.16497247661E+02  0.51100000000E-03 0. -1.
        -11    1    3    3    0    0  0.27173748521E+02  0.16523195345E+02 -0.14066885372E+02  0.34775075233E+02  0.51100000000E-03 0.  1.
        -12    1    3    3    0    0 -0.18306596887E+02 -0.10666916373E+02  0.26541768296E+00  0.21189267119E+02  0.00000000000E+00 0.  1.
</event>
<event>
 7    1  0.1857734E-013  0.7246175E+02  0.7816164E-02  0.1226708E+00
        -11   -1    0    0    0    0  0.00000000000E+00  0.00000000000E+00  0.45593999997E+02  0.45594000000E+02  0.51100000000E-03 0. -1.
         11   -1    0    0    0    0 -0.00000000000E+00 -0.00000000000E+00 -0.45593999997E+02  0.45594000000E+02  0.51100000000E-03 0.  1.
    9900012    2    1    2    0    0  0.11231461566E+01 -0.10587583638E+02  0.15404998684E+02  0.72461751870E+02  0.70000236536E+02 0.  0.
        -12    1    1    2    0    0 -0.11231461566E+01  0.10587583638E+02 -0.15404998684E+02  0.18726248130E+02  0.00000000000E+00 0.  1.
         11    1    3    3    0    0 -0.36291970130E+01 -0.16913793518E+02 -0.20617731583E+02  0.26913534476E+02  0.51100000000E-03 0. -1.
        -11    1    3    3    0    0  0.21395966888E+01  0.78503498019E+01 -0.11807943596E+01  0.82219305265E+01  0.51100000000E-03 0.  1.
         12    1    3    3    0    0  0.26127464808E+01 -0.15241399219E+01  0.37203524626E+02  0.37326286867E+02  0.00000000000E+00 0. -1.
</event>
<event>
 7    1  0.1857734E-013  0.7246162E+02  0.7816164E-02  0.1226708E+00
        -11   -1    0    0    0    0  0.00000000000E+00  0.00000000000E+00  0.45593999997E+02  0.45594000000E+02  0.51100000000E-03 0.  1.
         11   -1    0    0    0    0 -0.00000000000E+00 -0.00000000000E+00 -0.45593999997E+02  0.45594000000E+02  0.51100000000E-03 0. -1.
    9900012    2    1    2    0    0  0.22863026979E+01  0.18081274448E+02  0.43032205028E+01  0.72461618279E+02  0.70000062509E+02 0.  0.
        -12    1    1    2    0    0 -0.22863026979E+01 -0.18081274448E+02 -0.43032205028E+01  0.18726381721E+02  0.00000000000E+00 0.  1.
         11    1    3    3    0    0  0.13720168744E+02  0.33425576906E+02  0.24496344464E+02  0.43652985170E+02  0.51100000000E-03 0. -1.
        -11    1    3    3    0    0 -0.84048290025E+01 -0.12156376736E+02 -0.10394043447E+02  0.18068059811E+02  0.51100000000E-03 0.  1.
         12    1    3    3    0    0 -0.30290370433E+01 -0.31879257231E+01 -0.97990805144E+01  0.10740573297E+02  0.00000000000E+00 0. -1.
</event>
<event>
 7    1  0.1857734E-013  0.7246152E+02  0.7816164E-02  0.1226708E+00
        -11   -1    0    0    0    0  0.00000000000E+00  0.00000000000E+00  0.45593999997E+02  0.45594000000E+02  0.51100000000E-03 0.  1.
         11   -1    0    0    0    0 -0.00000000000E+00 -0.00000000000E+00 -0.45593999997E+02  0.45594000000E+02  0.51100000000E-03 0. -1.
    9900012    2    1    2    0    0 -0.60552164608E+01 -0.10143339456E+02 -0.14530240890E+02  0.72461524570E+02  0.69999940436E+02 0.  0.
        -12    1    1    2    0    0  0.60552164608E+01  0.10143339456E+02  0.14530240890E+02  0.18726475430E+02  0.00000000000E+00 0.  1.
         11    1    3    3    0    0 -0.18879548385E+02 -0.64756797150E+01  0.18873922605E+02  0.27469924094E+02  0.51100000000E-03 0.  1.
        -11    1    3    3    0    0 -0.71753479865E+00 -0.28095692694E+01 -0.31092072370E+02  0.31226999539E+02  0.51100000000E-03 0. -1.
         12    1    3    3    0    0  0.13541866723E+02 -0.85809047199E+00 -0.23120911243E+01  0.13764600937E+02  0.00000000000E+00 0. -1.
</event>
<event>
 7    1  0.1857734E-013  0.7246157E+02  0.7816164E-02  0.1226708E+00
        -11   -1    0    0    0    0  0.00000000000E+00  0.00000000000E+00  0.45593999997E+02  0.45594000000E+02  0.51100000000E-03 0.  1.
         11   -1    0    0    0    0 -0.00000000000E+00 -0.00000000000E+00 -0.45593999997E+02  0.45594000000E+02  0.51100000000E-03 0. -1.
    9900012    2    1    2    0    0 -0.14027655691E+01 -0.87360393197E+01 -0.16504330641E+02  0.72461573108E+02  0.70000003666E+02 0.  0.
        -12    1    1    2    0    0  0.14027655691E+01  0.87360393197E+01  0.16504330641E+02  0.18726426892E+02  0.00000000000E+00 0.  1.
         11    1    3    3    0    0 -0.10515304235E+02 -0.30003496943E+02 -0.13655007917E+02  0.34601166070E+02  0.51100000000E-03 0. -1.
        -11    1    3    3    0    0  0.14080826653E+02  0.10111214145E+02  0.10098262254E+02  0.20061934889E+02  0.51100000000E-03 0.  1.
        -12    1    3    3    0    0 -0.49682879870E+01  0.11156243478E+02 -0.12947584978E+02  0.17798472149E+02  0.00000000000E+00 0.  1.
</event>
<event>
 7    1  0.1857734E-013  0.7246155E+02  0.7816164E-02  0.1226708E+00
        -11   -1    0    0    0    0  0.00000000000E+00  0.00000000000E+00  0.45593999997E+02  0.45594000000E+02  0.51100000000E-03 0. -1.
         11   -1    0    0    0    0 -0.00000000000E+00 -0.00000000000E+00 -0.45593999997E+02  0.45594000000E+02  0.51100000000E-03 0.  1.
    9900012    2    1    2    0    0  0.30578672268E+01  0.13099900027E+02  0.13027737375E+02  0.72461551490E+02  0.69999975504E+02 0.  0.
        -12    1    1    2    0    0 -0.30578672268E+01 -0.13099900027E+02 -0.13027737375E+02  0.18726448510E+02  0.00000000000E+00 0.  1.
         11    1    3    3    0    0  0.46777327266E+01  0.15294567036E+02  0.78134505319E+01  0.17800420606E+02  0.51100000000E-03 0. -1.
        -11    1    3    3    0    0 -0.11200244812E+02 -0.19307121465E+02  0.20102301559E+02  0.30038524453E+02  0.51100000000E-03 0.  1.
        -12    1    3    3    0    0  0.95803793121E+01  0.17112454456E+02 -0.14888014716E+02  0.24622606431E+02  0.00000000000E+00 0.  1.
</event>
<event>
 7    1  0.1857734E-013  0.7246156E+02  0.7816164E-02  0.1226708E+00
        -11   -1    0    0    0    0  0.00000000000E+00  0.00000000000E+00  0.45593999997E+02  0.45594000000E+02  0.51100000000E-03 0.  1.
         11   -1    0    0    0    0 -0.00000000000E+00 -0.00000000000E+00 -0.45593999997E+02  0.45594000000E+02  0.51100000000E-03 0. -1.
    9900012    2    1    2    0    0  0.93776850433E+00 -0.10081059932E+02 -0.15753488256E+02  0.72461559565E+02  0.69999986023E+02 0.  0.
        -12    1    1    2    0    0 -0.93776850433E+00  0.10081059932E+02  0.15753488256E+02  0.18726440435E+02  0.00000000000E+00 0.  1.
         11    1    3    3    0    0 -0.16639668265E+02  0.69160992477E+00  0.16424370826E+02  0.23390528885E+02  0.51100000000E-03 0.  1.
        -11    1    3    3    0    0  0.16830946435E+02 -0.82394799193E+01 -0.38170422361E+02  0.42522358010E+02  0.51100000000E-03 0. -1.
        -12    1    3    3    0    0  0.74649033438E+00 -0.25331899371E+01  0.59925632794E+01  0.65486726697E+01  0.00000000000E+00 0.  1.
</event>
<event>
 7    1  0.1857734E-013  0.7246159E+02  0.7816164E-02  0.1226708E+00
        -11   -1    0    0    0    0  0.00000000000E+00  0.00000000000E+00  0.45593999997E+02  0.45594000000E+02  0.51100000000E-03 0.  1.
         11   -1    0    0    0    0 -0.00000000000E+00 -0.00000000000E+00 -0.45593999997E+02  0.45594000000E+02  0.51100000000E-03 0. -1.
    9900012    2    1    2    0    0  0.16618772460E+02  0.83920849149E+01 -0.20168773433E+01  0.72461588664E+02  0.70000023930E+02 0.  0.
        -12    1    1    2    0    0 -0.16618772460E+02 -0.83920849149E+01  0.20168773433E+01  0.18726411336E+02  0.00000000000E+00 0.  1.
         11    1    3    3    0    0 -0.22111815035E+02  0.14070687987E+02 -0.35424815065E+01  0.26447415754E+02  0.51100000000E-03 0. -1.
        -11    1    3    3    0    0  0.15783437847E+02 -0.90522851546E+01  0.10658440399E+02  0.21087036985E+02  0.51100000000E-03 0.  1.
        -12    1    3    3    0    0  0.22947149648E+02  0.33736820821E+01 -0.91328362355E+01  0.24927135926E+02  0.00000000000E+00 0.  1.
</event>
<event>
 7    1  0.1857734E-013  0.7246157E+02  0.7816164E-02  0.1226708E+00
        -11   -1    0    0    0    0  0.00000000000E+00  0.00000000000E+00  0.45593999997E+02  0.45594000000E+02  0.51100000000E-03 0.  1.
         11   -1    0    0    0    0 -0.00000000000E+00 -0.00000000000E+00 -0.45593999997E+02  0.45594000000E+02  0.51100000000E-03 0. -1.
    9900012    2    1    2    0    0 -0.95355164311E+01  0.63078783989E+01  0.14831180283E+02  0.72461566488E+02  0.69999995041E+02 0.  0.
        -12    1    1    2    0    0  0.95355164311E+01 -0.63078783989E+01 -0.14831180283E+02  0.18726433512E+02  0.00000000000E+00 0.  1.
         11    1    3    3    0    0 -0.82800769870E+01 -0.88692003298E+01  0.29924072450E+02  0.32290439787E+02  0.51100000000E-03 0. -1.
        -11    1    3    3    0    0  0.13790340507E+02  0.65432252807E+01  0.24965342409E+01  0.15466737596E+02  0.51100000000E-03 0.  1.
         12    1    3    3    0    0 -0.15045779951E+02  0.86338534481E+01 -0.17589426408E+02  0.24704389105E+02  0.00000000000E+00 0. -1.
</event>
<event>
 7    1  0.1857734E-013  0.7246143E+02  0.7816164E-02  0.1226708E+00
        -11   -1    0    0    0    0  0.00000000000E+00  0.00000000000E+00  0.45593999997E+02  0.45594000000E+02  0.51100000000E-03 0. -1.
         11   -1    0    0    0    0 -0.00000000000E+00 -0.00000000000E+00 -0.45593999997E+02  0.45594000000E+02  0.51100000000E-03 0.  1.
    9900012    2    1    2    0    0  0.84449691847E+01 -0.31467720525E+01  0.16415384451E+02  0.72461427288E+02  0.69999813707E+02 0.  0.
        -12    1    1    2    0    0 -0.84449691847E+01  0.31467720525E+01 -0.16415384451E+02  0.18726572712E+02  0.00000000000E+00 0.  1.
         11    1    3    3    0    0  0.93291534881E+01 -0.31427954435E+02  0.18336092875E+02  0.37562770491E+02  0.51100000000E-03 0. -1.
        -11    1    3    3    0    0  0.81860352370E+01  0.22837285869E+02 -0.16622883232E+01  0.24316989976E+02  0.51100000000E-03 0.  1.
        -12    1    3    3    0    0 -0.90702195404E+01  0.54438965127E+01 -0.25842010118E+00  0.10581666821E+02  0.00000000000E+00 0.  1.
</event>
<event>
 7    1  0.1857734E-013  0.7246159E+02  0.7816164E-02  0.1226708E+00
        -11   -1    0    0    0    0  0.00000000000E+00  0.00000000000E+00  0.45593999997E+02  0.45594000000E+02  0.51100000000E-03 0. -1.
         11   -1    0    0    0    0 -0.00000000000E+00 -0.00000000000E+00 -0.45593999997E+02  0.45594000000E+02  0.51100000000E-03 0.  1.
    9900012    2    1    2    0    0 -0.91196880143E+00 -0.15853524014E+02  0.99253480674E+01  0.72461589639E+02  0.70000025200E+02 0.  0.
        -12    1    1    2    0    0  0.91196880143E+00  0.15853524014E+02 -0.99253480674E+01  0.18726410361E+02  0.00000000000E+00 0.  1.
         11    1    3    3    0    0  0.75091121696E+01  0.17440587938E+02  0.10061695074E+02  0.21489499325E+02  0.51100000000E-03 0.  1.
        -11    1    3    3    0    0 -0.51782898562E+01 -0.41588207562E+02 -0.16357373026E+01  0.41941260482E+02  0.51100000000E-03 0. -1.
         12    1    3    3    0    0 -0.32427911148E+01  0.82940956103E+01  0.14993902958E+01  0.90308298326E+01  0.00000000000E+00 0. -1.
</event>
<event>
 7    1  0.1857734E-013  0.7246155E+02  0.7816164E-02  0.1226708E+00
        -11   -1    0    0    0    0  0.00000000000E+00  0.00000000000E+00  0.45593999997E+02  0.45594000000E+02  0.51100000000E-03 0.  1.
         11   -1    0    0    0    0 -0.00000000000E+00 -0.00000000000E+00 -0.45593999997E+02  0.45594000000E+02  0.51100000000E-03 0. -1.
    9900012    2    1    2    0    0 -0.14295093499E+01  0.18648092306E+02  0.94086889047E+00  0.72461546040E+02  0.69999968404E+02 0.  0.
        -12    1    1    2    0    0  0.14295093499E+01 -0.18648092306E+02 -0.94086889047E+00  0.18726453960E+02  0.00000000000E+00 0.  1.
         11    1    3    3    0    0 -0.82822749682E+01  0.10926286498E+02 -0.99189478296E+01  0.16922332629E+02  0.51100000000E-03 0. -1.
        -11    1    3    3    0    0  0.12598907250E+02  0.83967444485E+01  0.31045519534E+02  0.34540730516E+02  0.51100000000E-03 0.  1.
        -12    1    3    3    0    0 -0.57461416313E+01 -0.67493864050E+00 -0.20185702814E+02  0.20998482895E+02  0.00000000000E+00 0.  1.
</event>
<event>
 7    1  0.1857734E-013  0.7246110E+02  0.7816164E-02  0.1226709E+00
        -11   -1    0    0    0    0  0.00000000000E+00  0.00000000000E+00  0.45593999997E+02  0.45594000000E+02  0.51100000000E-03 0.  1.
         11   -1    0    0    0    0 -0.00000000000E+00 -0.00000000000E+00 -0.45593999997E+02  0.45594000000E+02  0.51100000000E-03 0. -1.
    9900012    2    1    2    0    0 -0.85277697740E+01 -0.77224739761E+01 -0.14776246447E+02  0.72461096340E+02  0.69999382584E+02 0.  0.
        -12    1    1    2    0    0  0.85277697740E+01  0.77224739761E+01  0.14776246447E+02  0.18726903660E+02  0.00000000000E+00 0.  1.
         11    1    3    3    0    0 -0.17773062329E+02  0.10758563385E+02 -0.13292517272E+02  0.24664132791E+02  0.51100000000E-03 0. -1.
        -11    1    3    3    0    0  0.20905198603E+02  0.47804630522E+01  0.20295930231E+01  0.21540645388E+02  0.51100000000E-03 0.  1.
        -12    1    3    3    0    0 -0.11659906048E+02 -0.23261500413E+02 -0.35133221981E+01  0.26256318161E+02  0.00000000000E+00 0.  1.
</event>
<event>
 7    1  0.1857734E-013  0.7246153E+02  0.7816164E-02  0.1226708E+00
        -11   -1    0    0    0    0  0.00000000000E+00  0.00000000000E+00  0.45593999997E+02  0.45594000000E+02  0.51100000000E-03 0.  1.
         11   -1    0    0    0    0 -0.00000000000E+00 -0.00000000000E+00 -0.45593999997E+02  0.45594000000E+02  0.51100000000E-03 0. -1.
    9900012    2    1    2    0    0 -0.13020431780E+02 -0.11103854533E+02 -0.76061454149E+01  0.72461530037E+02  0.69999947557E+02 0.  0.
        -12    1    1    2    0    0  0.13020431780E+02  0.11103854533E+02  0.76061454149E+01  0.18726469963E+02  0.00000000000E+00 0.  1.
         11    1    3    3    0    0 -0.50351754673E+01 -0.17313338400E+02  0.22584018101E+02  0.28898833063E+02  0.51100000000E-03 0. -1.
        -11    1    3    3    0    0 -0.14621362999E+02  0.14520055936E+02 -0.21968279036E+02  0.30120118931E+02  0.51100000000E-03 0.  1.
         12    1    3    3    0    0  0.66361066865E+01 -0.83105720684E+01 -0.82218844797E+01  0.13442578044E+02  0.00000000000E+00 0. -1.
</event>
<event>
 7    1  0.1857734E-013  0.7246160E+02  0.7816164E-02  0.1226708E+00
        -11   -1    0    0    0    0  0.00000000000E+00  0.00000000000E+00  0.45593999997E+02  0.45594000000E+02  0.51100000000E-03 0. -1.
         11   -1    0    0    0    0 -0.00000000000E+00 -0.00000000000E+00 -0.45593999997E+02  0.45594000000E+02  0.51100000000E-03 0.  1.
    9900012    2    1    2    0    0  0.10217266139E+02 -0.14888717110E+02  0.49610004892E+01  0.72461602845E+02  0.70000042404E+02 0.  0.
        -12    1    1    2    0    0 -0.10217266139E+02  0.14888717110E+02 -0.49610004892E+01  0.18726397155E+02  0.00000000000E+00 0.  1.
         11    1    3    3    0    0  0.14681862593E+01 -0.13239880421E+02 -0.29430612647E+02  0.32304968124E+02  0.51100000000E-03 0.  1.
        -11    1    3    3    0    0  0.40443106691E+01 -0.10172000708E+02  0.19575010817E+02  0.22427819687E+02  0.51100000000E-03 0. -1.
        -12    1    3    3    0    0  0.47047692105E+01  0.85231640190E+01  0.14816602319E+02  0.17728815034E+02  0.00000000000E+00 0.  1.
</event>
<event>
 7    1  0.1857734E-013  0.7246158E+02  0.7816164E-02  0.1226708E+00
        -11   -1    0    0    0    0  0.00000000000E+00  0.00000000000E+00  0.45593999997E+02  0.45594000000E+02  0.51100000000E-03 0. -1.
         11   -1    0    0    0    0 -0.00000000000E+00 -0.00000000000E+00 -0.45593999997E+02  0.45594000000E+02  0.51100000000E-03 0.  1.
    9900012    2    1    2    0    0  0.31931978291E+01 -0.11759602939E+02  0.14219501120E+02  0.72461575201E+02  0.70000006392E+02 0.  0.
        -12    1    1    2    0    0 -0.31931978291E+01  0.11759602939E+02 -0.14219501120E+02  0.18726424799E+02  0.00000000000E+00 0.  1.
         11    1    3    3    0    0  0.33447456993E+01  0.45583845056E+01  0.18359018958E+02  0.19209887310E+02  0.51100000000E-03 0. -1.
        -11    1    3    3    0    0  0.20642499568E+02 -0.74807125859E+00 -0.14550024500E+02  0.25266096102E+02  0.51100000000E-03 0.  1.
        -12    1    3    3    0    0 -0.20794047438E+02 -0.15569916186E+02  0.10410506662E+02  0.27985591790E+02  0.00000000000E+00 0.  1.
</event>
<event>
 7    1  0.1857734E-013  0.7246157E+02  0.7816164E-02  0.1226708E+00
        -11   -1    0    0    0    0  0.00000000000E+00  0.00000000000E+00  0.45593999997E+02  0.45594000000E+02  0.51100000000E-03 0.  1.
         11   -1    0    0    0    0 -0.00000000000E+00 -0.00000000000E+00 -0.45593999997E+02  0.45594000000E+02  0.51100000000E-03 0. -1.
    9900012    2    1    2    0    0 -0.40468583683E+01  0.14875394332E+02 -0.10631315480E+02  0.72461567130E+02  0.69999995878E+02 0.  0.
        -12    1    1    2    0    0  0.40468583683E+01 -0.14875394332E+02  0.10631315480E+02  0.18726432870E+02  0.00000000000E+00 0.  1.
         11    1    3    3    0    0 -0.17323125917E+02 -0.11566474759E+01  0.23419301797E+02  0.29152911035E+02  0.51100000000E-03 0. -1.
        -11    1    3    3    0    0  0.56462838905E+01  0.86728919254E+01 -0.34260087828E+01  0.10901243625E+02  0.51100000000E-03 0.  1.
         12    1    3    3    0    0  0.76299836582E+01  0.73591498826E+01 -0.30624608494E+02  0.32407412470E+02  0.00000000000E+00 0. -1.
</event>
<event>
 7    1  0.1857734E-013  0.7246157E+02  0.7816164E-02  0.1226708E+00
        -11   -1    0    0    0    0  0.00000000000E+00  0.00000000000E+00  0.45593999997E+02  0.45594000000E+02  0.51100000000E-03 0. -1.
         11   -1    0    0    0    0 -0.00000000000E+00 -0.00000000000E+00 -0.45593999997E+02  0.45594000000E+02  0.51100000000E-03 0.  1.
    9900012    2    1    2    0    0 -0.69619433146E+01 -0.79885732235E+00  0.17365834734E+02  0.72461573652E+02  0.70000004374E+02 0.  0.
        -12    1    1    2    0    0  0.69619433146E+01  0.79885732235E+00 -0.17365834734E+02  0.18726426348E+02  0.00000000000E+00 0.  1.
         11    1    3    3    0    0  0.45955647109E+00 -0.43628717910E+01 -0.17010576810E+02  0.17567172968E+02  0.51100000000E-03 0.  1.
        -11    1    3    3    0    0  0.11437183044E+02 -0.12815336993E+02  0.18760337392E+02  0.25436042883E+02  0.51100000000E-03 0. -1.
         12    1    3    3    0    0 -0.18858682830E+02  0.16379351462E+02  0.15616074153E+02  0.29458357801E+02  0.00000000000E+00 0. -1.
</event>
<event>
 7    1  0.1857734E-013  0.7246158E+02  0.7816164E-02  0.1226708E+00
        -11   -1    0    0    0    0  0.00000000000E+00  0.00000000000E+00  0.45593999997E+02  0.45594000000E+02  0.51100000000E-03 0. -1.
         11   -1    0    0    0    0 -0.00000000000E+00 -0.00000000000E+00 -0.45593999997E+02  0.45594000000E+02  0.51100000000E-03 0.  1.
    9900012    2    1    2    0    0 -0.13194899297E+02  0.10737780584E+02  0.78277469332E+01  0.72461576920E+02  0.70000008631E+02 0.  0.
        -12    1    1    2    0    0  0.13194899297E+02 -0.10737780584E+02 -0.78277469332E+01  0.18726423080E+02  0.00000000000E+00 0.  1.
         11    1    3    3    0    0 -0.60159314122E+01  0.22993113389E+02  0.73613717815E+01  0.24881006588E+02  0.51100000000E-03 0. -1.
        -11    1    3    3    0    0 -0.80241514348E+01 -0.60734330144E-01 -0.21219903426E+02  0.22686449625E+02  0.51100000000E-03 0.  1.
        -12    1    3    3    0    0  0.84518354969E+00 -0.12194598475E+02  0.21686278578E+02  0.24894120707E+02  0.00000000000E+00 0.  1.
</event>
<event>
 7    1  0.1857734E-013  0.7246158E+02  0.7816164E-02  0.1226708E+00
        -11   -1    0    0    0    0  0.00000000000E+00  0.00000000000E+00  0.45593999997E+02  0.45594000000E+02  0.51100000000E-03 0.  1.
         11   -1    0    0    0    0 -0.00000000000E+00 -0.00000000000E+00 -0.45593999997E+02  0.45594000000E+02  0.51100000000E-03 0. -1.
    9900012    2    1    2    0    0  0.14316526179E+02 -0.94367680257E+01 -0.75275045798E+01  0.72461579152E+02  0.70000011538E+02 0.  0.
        -12    1    1    2    0    0 -0.14316526179E+02  0.94367680257E+01  0.75275045798E+01  0.18726420848E+02  0.00000000000E+00 0.  1.
         11    1    3    3    0    0 -0.11288452593E+02 -0.10886395484E+02 -0.68023692377E+01  0.17094297180E+02  0.51100000000E-03 0. -1.
        -11    1    3    3    0    0  0.19912513616E+02 -0.20498630239E+02  0.10009441384E+02  0.30280207352E+02  0.51100000000E-03 0.  1.
        -12    1    3    3    0    0  0.56924651554E+01  0.21948257697E+02 -0.10734576726E+02  0.25087074620E+02  0.00000000000E+00 0.  1.
</event>
<event>
 7    1  0.1857734E-013  0.7246160E+02  0.7816164E-02  0.1226708E+00
        -11   -1    0    0    0    0  0.00000000000E+00  0.00000000000E+00  0.45593999997E+02  0.45594000000E+02  0.51100000000E-03 0.  1.
         11   -1    0    0    0    0 -0.00000000000E+00 -0.00000000000E+00 -0.45593999997E+02  0.45594000000E+02  0.51100000000E-03 0. -1.
    9900012    2    1    2    0    0  0.98426722087E+01  0.88292485755E+01 -0.13260631392E+02  0.72461596941E+02  0.70000034712E+02 0.  0.
        -12    1    1    2    0    0 -0.98426722087E+01 -0.88292485755E+01  0.13260631392E+02  0.18726403059E+02  0.00000000000E+00 0.  1.
         11    1    3    3    0    0 -0.61734786001E+01 -0.23067656319E+01 -0.30751272580E+02  0.31449543260E+02  0.51100000000E-03 0. -1.
        -11    1    3    3    0    0  0.13280377431E+02 -0.81032709633E+01  0.14656002619E+02  0.21373578035E+02  0.51100000000E-03 0.  1.
         12    1    3    3    0    0  0.27357733777E+01  0.19239285171E+02  0.28346385693E+01  0.19638475645E+02  0.00000000000E+00 0. -1.
</event>
<event>
 7    1  0.1857734E-013  0.7246154E+02  0.7816164E-02  0.1226708E+00
        -11   -1    0    0    0    0  0.00000000000E+00  0.00000000000E+00  0.45593999997E+02  0.45594000000E+02  0.51100000000E-03 0. -1.
         11   -1    0    0    0    0 -0.00000000000E+00 -0.00000000000E+00 -0.45593999997E+02  0.45594000000E+02  0.51100000000E-03 0.  1.
    9900012    2    1    2    0    0  0.27624448513E+01 -0.15643914630E+02  0.99154985775E+01  0.72461540683E+02  0.69999961426E+02 0.  0.
        -12    1    1    2    0    0 -0.27624448513E+01  0.15643914630E+02 -0.99154985775E+01  0.18726459317E+02  0.00000000000E+00 0.  1.
         11    1    3    3    0    0  0.41025948624E+01 -0.68309347908E+01  0.95420470406E+01  0.12431557292E+02  0.51100000000E-03 0. -1.
        -11    1    3    3    0    0 -0.45891662688E+01  0.19177907883E+02 -0.17745679979E+02  0.26528508363E+02  0.51100000000E-03 0.  1.
        -12    1    3    3    0    0  0.32490162577E+01 -0.27990887722E+02  0.18119131516E+02  0.33501475027E+02  0.00000000000E+00 0.  1.
</event>
<event>
 7    1  0.1857734E-013  0.7246158E+02  0.7816164E-02  0.1226708E+00
        -11   -1    0    0    0    0  0.00000000000E+00  0.00000000000E+00  0.45593999997E+02  0.45594000000E+02  0.51100000000E-03 0. -1.
         11   -1    0    0    0    0 -0.00000000000E+00 -0.00000000000E+00 -0.45593999997E+02  0.45594000000E+02  0.51100000000E-03 0.  1.
    9900012    2    1    2    0    0 -0.24603918846E+01  0.14378008139E+02  0.11743007247E+02  0.72461578413E+02  0.70000010576E+02 0.  0.
        -12    1    1    2    0    0  0.24603918846E+01 -0.14378008139E+02 -0.11743007247E+02  0.18726421587E+02  0.00000000000E+00 0.  1.
         11    1    3    3    0    0 -0.27942634692E+02  0.13302696260E+02  0.14175734316E+02  0.34039741553E+02  0.51100000000E-03 0.  1.
        -11    1    3    3    0    0  0.22860409285E+02 -0.11111978085E+02 -0.44165959457E+01  0.25798850549E+02  0.51100000000E-03 0. -1.
        -12    1    3    3    0    0  0.26218335226E+01  0.12187289964E+02  0.19838688764E+01  0.12622986311E+02  0.00000000000E+00 0.  1.
</event>
<event>
 7    1  0.1857734E-013  0.7246157E+02  0.7816164E-02  0.1226708E+00
        -11   -1    0    0    0    0  0.00000000000E+00  0.00000000000E+00  0.45593999997E+02  0.45594000000E+02  0.51100000000E-03 0.  1.
         11   -1    0    0    0    0 -0.00000000000E+00 -0.00000000000E+00 -0.45593999997E+02  0.45594000000E+02  0.51100000000E-03 0. -1.
    9900012    2    1    2    0    0 -0.75744809442E+01  0.17019383056E+02  0.19096903040E+01  0.72461572731E+02  0.70000003175E+02 0.  0.
        -12    1    1    2    0    0  0.75744809442E+01 -0.17019383056E+02 -0.19096903040E+01  0.18726427269E+02  0.00000000000E+00 0.  1.
         11    1    3    3    0    0  0.13712429815E+02 -0.14381325997E+02  0.33943307308E+01  0.20158738806E+02  0.51100000000E-03 0. -1.
        -11    1    3    3    0    0 -0.30982911373E+02  0.18492612674E+02  0.89344679030E-01  0.36082204802E+02  0.51100000000E-03 0.  1.
        -12    1    3    3    0    0  0.96960006136E+01  0.12908096380E+02 -0.15739851058E+01  0.16220629123E+02  0.00000000000E+00 0.  1.
</event>
<event>
 7    1  0.1857734E-013  0.7246166E+02  0.7816164E-02  0.1226708E+00
        -11   -1    0    0    0    0  0.00000000000E+00  0.00000000000E+00  0.45593999997E+02  0.45594000000E+02  0.51100000000E-03 0. -1.
         11   -1    0    0    0    0 -0.00000000000E+00 -0.00000000000E+00 -0.45593999997E+02  0.45594000000E+02  0.51100000000E-03 0.  1.
    9900012    2    1    2    0    0 -0.17269644903E+02  0.27391180252E+01  0.67031742724E+01  0.72461656311E+02  0.70000112052E+02 0.  0.
        -12    1    1    2    0    0  0.17269644903E+02 -0.27391180252E+01 -0.67031742724E+01  0.18726343689E+02  0.00000000000E+00 0.  1.
         11    1    3    3    0    0  0.15899992359E+02  0.90683986591E+01  0.14302313184E+02  0.23229330036E+02  0.51100000000E-03 0. -1.
        -11    1    3    3    0    0 -0.88376757639E+01 -0.17201523175E+02 -0.11186702658E+02  0.22341424061E+02  0.51100000000E-03 0.  1.
        -12    1    3    3    0    0 -0.24331961498E+02  0.10872242541E+02  0.35875637459E+01  0.26890902214E+02  0.00000000000E+00 0.  1.
</event>
<event>
 7    1  0.1857734E-013  0.7246158E+02  0.7816164E-02  0.1226708E+00
        -11   -1    0    0    0    0  0.00000000000E+00  0.00000000000E+00  0.45593999997E+02  0.45594000000E+02  0.51100000000E-03 0.  1.
         11   -1    0    0    0    0 -0.00000000000E+00 -0.00000000000E+00 -0.45593999997E+02  0.45594000000E+02  0.51100000000E-03 0. -1.
    9900012    2    1    2    0    0  0.14288903605E+02 -0.35150427040E+01 -0.11582335005E+02  0.72461580811E+02  0.70000013700E+02 0.  0.
        -12    1    1    2    0    0 -0.14288903605E+02  0.35150427040E+01  0.11582335005E+02  0.18726419189E+02  0.00000000000E+00 0.  1.
         11    1    3    3    0    0  0.14724278287E+02 -0.28484893068E+02 -0.25029833447E+02  0.40677832622E+02  0.51100000000E-03 0. -1.
        -11    1    3    3    0    0  0.12393835074E+01  0.22650066128E+02  0.55060719225E+01  0.23342630429E+02  0.51100000000E-03 0.  1.
        -12    1    3    3    0    0 -0.16747581892E+01  0.23197842360E+01  0.79414265190E+01  0.84411177607E+01  0.00000000000E+00 0.  1.
</event>
<event>
 7    1  0.1857734E-013  0.7246158E+02  0.7816164E-02  0.1226708E+00
        -11   -1    0    0    0    0  0.00000000000E+00  0.00000000000E+00  0.45593999997E+02  0.45594000000E+02  0.51100000000E-03 0. -1.
         11   -1    0    0    0    0 -0.00000000000E+00 -0.00000000000E+00 -0.45593999997E+02  0.45594000000E+02  0.51100000000E-03 0.  1.
    9900012    2    1    2    0    0 -0.16759021978E+02  0.28055751605E-01  0.83554204120E+01  0.72461584031E+02  0.70000017894E+02 0.  0.
        -12    1    1    2    0    0  0.16759021978E+02 -0.28055751605E-01 -0.83554204120E+01  0.18726415969E+02  0.00000000000E+00 0.  1.
         11    1    3    3    0    0 -0.24497455455E+02  0.14080698627E+02  0.17762243623E+02  0.33374971107E+02  0.51100000000E-03 0. -1.
        -11    1    3    3    0    0 -0.15318821304E+01 -0.20539381328E+02  0.45768746256E+01  0.21098830058E+02  0.51100000000E-03 0.  1.
        -12    1    3    3    0    0  0.92703156075E+01  0.64867384529E+01 -0.13983697837E+02  0.17987782865E+02  0.00000000000E+00 0.  1.
</event>
<event>
 7    1  0.1857734E-013  0.7246135E+02  0.7816164E-02  0.1226709E+00
        -11   -1    0    0    0    0  0.00000000000E+00  0.00000000000E+00  0.45593999997E+02  0.45594000000E+02  0.51100000000E-03 0. -1.
         11   -1    0    0    0    0 -0.00000000000E+00 -0.00000000000E+00 -0.45593999997E+02  0.45594000000E+02  0.51100000000E-03 0.  1.
    9900012    2    1    2    0    0 -0.28579282635E+01  0.16290921723E+02  0.87821172468E+01  0.72461348728E+02  0.69999711368E+02 0.  0.
        -12    1    1    2    0    0  0.28579282635E+01 -0.16290921723E+02 -0.87821172468E+01  0.18726651272E+02  0.00000000000E+00 0.  1.
         11    1    3    3    0    0 -0.39866508366E+01  0.12873631031E+02  0.25281334167E+02  0.28649077094E+02  0.51100000000E-03 0. -1.
        -11    1    3    3    0    0 -0.50234153108E+01 -0.17767569127E+02 -0.63074075911E+01  0.19511653052E+02  0.51100000000E-03 0.  1.
        -12    1    3    3    0    0  0.61521378839E+01  0.21184859818E+02 -0.10191809329E+02  0.24300618581E+02  0.00000000000E+00 0.  1.
</event>
<event>
 7    1  0.1857734E-013  0.7246158E+02  0.7816164E-02  0.1226708E+00
        -11   -1    0    0    0    0  0.00000000000E+00  0.00000000000E+00  0.45593999997E+02  0.45594000000E+02  0.51100000000E-03 0. -1.
         11   -1    0    0    0    0 -0.00000000000E+00 -0.00000000000E+00 -0.45593999997E+02  0.45594000000E+02  0.51100000000E-03 0.  1.
    9900012    2    1    2    0    0 -0.65920021111E+01  0.14458678149E+02  0.99081256416E+01  0.72461579643E+02  0.70000012179E+02 0.  0.
        -12    1    1    2    0    0  0.65920021111E+01 -0.14458678149E+02 -0.99081256416E+01  0.18726420357E+02  0.00000000000E+00 0.  1.
         11    1    3    3    0    0  0.74656106604E+01  0.38023707650E+01  0.18733961507E+02  0.20522053503E+02  0.51100000000E-03 0. -1.
        -11    1    3    3    0    0 -0.22334235472E+02 -0.19773568040E+01 -0.22355594054E+02  0.31662289870E+02  0.51100000000E-03 0.  1.
        -12    1    3    3    0    0  0.82766227001E+01  0.12633664188E+02  0.13529758188E+02  0.20277236270E+02  0.00000000000E+00 0.  1.
</event>
<event>
 7    1  0.1857734E-013  0.7246155E+02  0.7816164E-02  0.1226708E+00
        -11   -1    0    0    0    0  0.00000000000E+00  0.00000000000E+00  0.45593999997E+02  0.45594000000E+02  0.51100000000E-03 0. -1.
         11   -1    0    0    0    0 -0.00000000000E+00 -0.00000000000E+00 -0.45593999997E+02  0.45594000000E+02  0.51100000000E-03 0.  1.
    9900012    2    1    2    0    0  0.82481761314E+01 -0.48160546581E+01  0.16107547554E+02  0.72461551320E+02  0.69999975282E+02 0.  0.
        -12    1    1    2    0    0 -0.82481761314E+01  0.48160546581E+01 -0.16107547554E+02  0.18726448680E+02  0.00000000000E+00 0.  1.
         11    1    3    3    0    0  0.33006784685E+02 -0.14968284144E+02  0.12209002894E+02  0.38243393121E+02  0.51100000000E-03 0.  1.
        -11    1    3    3    0    0 -0.13527236894E+02  0.14604085614E+02 -0.32652250751E+01  0.20172435393E+02  0.51100000000E-03 0. -1.
         12    1    3    3    0    0 -0.11231371659E+02 -0.44518561279E+01  0.71637697354E+01  0.14045722806E+02  0.00000000000E+00 0. -1.
</event>
<event>
 7    1  0.1857734E-013  0.7246160E+02  0.7816164E-02  0.1226708E+00
        -11   -1    0    0    0    0  0.00000000000E+00  0.00000000000E+00  0.45593999997E+02  0.45594000000E+02  0.51100000000E-03 0. -1.
         11   -1    0    0    0    0 -0.00000000000E+00 -0.00000000000E+00 -0.45593999997E+02  0.45594000000E+02  0.51100000000E-03 0.  1.
    9900012    2    1    2    0    0  0.81028594617E+01  0.59040093648E+01  0.15816583834E+02  0.72461601996E+02  0.70000041297E+02 0.  0.
        -12    1    1    2    0    0 -0.81028594617E+01 -0.59040093648E+01 -0.15816583834E+02  0.18726398004E+02  0.00000000000E+00 0.  1.
         11    1    3    3    0    0  0.13423237583E+02  0.36357764098E+02  0.35144015549E+01  0.38915566757E+02  0.51100000000E-03 0. -1.
        -11    1    3    3    0    0 -0.53091780919E+00 -0.14296725708E+02  0.65991331469E+01  0.15755214954E+02  0.51100000000E-03 0.  1.
         12    1    3    3    0    0 -0.47894603125E+01 -0.16157029026E+02  0.57030491321E+01  0.17790820285E+02  0.00000000000E+00 0. -1.
</event>
<event>
 7    1  0.1857734E-013  0.7246156E+02  0.7816164E-02  0.1226708E+00
        -11   -1    0    0    0    0  0.00000000000E+00  0.00000000000E+00  0.45593999997E+02  0.45594000000E+02  0.51100000000E-03 0. -1.
         11   -1    0    0    0    0 -0.00000000000E+00 -0.00000000000E+00 -0.45593999997E+02  0.45594000000E+02  0.51100000000E-03 0.  1.
    9900012    2    1    2    0    0  0.17951091722E+02  0.53193324485E+01  0.37745619653E+00  0.72461562408E+02  0.69999989726E+02 0.  0.
        -12    1    1    2    0    0 -0.17951091722E+02 -0.53193324485E+01 -0.37745619653E+00  0.18726437592E+02  0.00000000000E+00 0.  1.
         11    1    3    3    0    0  0.24804780639E+02 -0.16249805686E+02 -0.13125777508E+02  0.32428681176E+02  0.51100000000E-03 0. -1.
        -11    1    3    3    0    0 -0.12236514282E+02  0.12134195068E+02 -0.55467903628E+01  0.18103531570E+02  0.51100000000E-03 0.  1.
         12    1    3    3    0    0  0.53828253652E+01  0.94349430667E+01  0.19050024068E+02  0.21929349661E+02  0.00000000000E+00 0. -1.
</event>
<event>
 7    1  0.1857734E-013  0.7246155E+02  0.7816164E-02  0.1226708E+00
        -11   -1    0    0    0    0  0.00000000000E+00  0.00000000000E+00  0.45593999997E+02  0.45594000000E+02  0.51100000000E-03 0.  1.
         11   -1    0    0    0    0 -0.00000000000E+00 -0.00000000000E+00 -0.45593999997E+02  0.45594000000E+02  0.51100000000E-03 0. -1.
    9900012    2    1    2    0    0 -0.35072355175E+01 -0.12770578407E+02 -0.13239778198E+02  0.72461545435E+02  0.69999967617E+02 0.  0.
        -12    1    1    2    0    0  0.35072355175E+01  0.12770578407E+02  0.13239778198E+02  0.18726454565E+02  0.00000000000E+00 0.  1.
         11    1    3    3    0    0  0.47168889406E+01 -0.15825080443E+02 -0.15716002549E+02  0.22796380166E+02  0.51100000000E-03 0. -1.
        -11    1    3    3    0    0 -0.72884278401E+01 -0.29336070599E+01  0.25070177084E+02  0.26272438220E+02  0.51100000000E-03 0.  1.
        -12    1    3    3    0    0 -0.93569661806E+00  0.59881090955E+01 -0.22593952733E+02  0.23392727049E+02  0.00000000000E+00 0.  1.
</event>
<event>
 7    1  0.1857734E-013  0.7246184E+02  0.7816164E-02  0.1226707E+00
        -11   -1    0    0    0    0  0.00000000000E+00  0.00000000000E+00  0.45593999997E+02  0.45594000000E+02  0.51100000000E-03 0.  1.
         11   -1    0    0    0    0 -0.00000000000E+00 -0.00000000000E+00 -0.45593999997E+02  0.45594000000E+02  0.51100000000E-03 0. -1.
    9900012    2    1    2    0    0  0.28386245718E+01 -0.18471365839E+02  0.11915888712E+01  0.72461841039E+02  0.70000352694E+02 0.  0.
        -12    1    1    2    0    0 -0.28386245718E+01  0.18471365839E+02 -0.11915888712E+01  0.18726158961E+02  0.00000000000E+00 0.  1.
         11    1    3    3    0    0  0.66446656193E+01 -0.21679390523E+02 -0.29419297729E+02  0.37143540943E+02  0.51100000000E-03 0. -1.
        -11    1    3    3    0    0 -0.69372818576E+01  0.72960823313E+01  0.27540415158E+02  0.29322911934E+02  0.51100000000E-03 0.  1.
         12    1    3    3    0    0  0.31312408101E+01 -0.40880576471E+01  0.30704714424E+01  0.59953881622E+01  0.00000000000E+00 0. -1.
</event>
<event>
 7    1  0.1857734E-013  0.7246183E+02  0.7816164E-02  0.1226707E+00
        -11   -1    0    0    0    0  0.00000000000E+00  0.00000000000E+00  0.45593999997E+02  0.45594000000E+02  0.51100000000E-03 0. -1.
         11   -1    0    0    0    0 -0.00000000000E+00 -0.00000000000E+00 -0.45593999997E+02  0.45594000000E+02  0.51100000000E-03 0.  1.
    9900012    2    1    2    0    0  0.88010875363E+01  0.10656099873E+02  0.12635570850E+02  0.72461834962E+02  0.70000344778E+02 0.  0.
        -12    1    1    2    0    0 -0.88010875363E+01 -0.10656099873E+02 -0.12635570850E+02  0.18726165038E+02  0.00000000000E+00 0.  1.
         11    1    3    3    0    0  0.10851075375E+02 -0.20746804150E+02  0.13510018641E+02  0.27031395139E+02  0.51100000000E-03 0. -1.
        -11    1    3    3    0    0 -0.81441094802E+01  0.14052534288E+02  0.14260268290E+02  0.21613780121E+02  0.51100000000E-03 0.  1.
         12    1    3    3    0    0  0.60941216410E+01  0.17350369734E+02 -0.15134716081E+02  0.23816659702E+02  0.00000000000E+00 0. -1.
</event>
<event>
 7    1  0.1857734E-013  0.7246159E+02  0.7816164E-02  0.1226708E+00
        -11   -1    0    0    0    0  0.00000000000E+00  0.00000000000E+00  0.45593999997E+02  0.45594000000E+02  0.51100000000E-03 0. -1.
         11   -1    0    0    0    0 -0.00000000000E+00 -0.00000000000E+00 -0.45593999997E+02  0.45594000000E+02  0.51100000000E-03 0.  1.
    9900012    2    1    2    0    0  0.52316340587E+01 -0.23638036916E+01  0.17824728334E+02  0.72461588091E+02  0.70000023183E+02 0.  0.
        -12    1    1    2    0    0 -0.52316340587E+01  0.23638036916E+01 -0.17824728334E+02  0.18726411909E+02  0.00000000000E+00 0.  1.
         11    1    3    3    0    0  0.32365161013E+01 -0.14778323981E+02  0.21079584308E+02  0.25946536783E+02  0.51100000000E-03 0.  1.
        -11    1    3    3    0    0 -0.16509765680E+02  0.16467344787E+02  0.77920935836E+01  0.24585819690E+02  0.51100000000E-03 0. -1.
        -12    1    3    3    0    0  0.18504883637E+02 -0.40528244972E+01 -0.11046949558E+02  0.21929231618E+02  0.00000000000E+00 0.  1.
</event>
<event>
 7    1  0.1857734E-013  0.7246155E+02  0.7816164E-02  0.1226708E+00
        -11   -1    0    0    0    0  0.00000000000E+00  0.00000000000E+00  0.45593999997E+02  0.45594000000E+02  0.51100000000E-03 0. -1.
         11   -1    0    0    0    0 -0.00000000000E+00 -0.00000000000E+00 -0.45593999997E+02  0.45594000000E+02  0.51100000000E-03 0.  1.
    9900012    2    1    2    0    0 -0.10653793100E+01 -0.12611844235E+02  0.13801677561E+02  0.72461549413E+02  0.69999972798E+02 0.  0.
        -12    1    1    2    0    0  0.10653793100E+01  0.12611844235E+02 -0.13801677561E+02  0.18726450587E+02  0.00000000000E+00 0.  1.
         11    1    3    3    0    0 -0.14840751372E+02 -0.72612616117E+00  0.32336818560E+02  0.35587146490E+02  0.51100000000E-03 0. -1.
        -11    1    3    3    0    0 -0.40705718594E+01 -0.13271619796E+02 -0.66852754502E+01  0.15407736868E+02  0.51100000000E-03 0.  1.
         12    1    3    3    0    0  0.17845943921E+02  0.13859017227E+01 -0.11849865548E+02  0.21466666055E+02  0.00000000000E+00 0. -1.
</event>
<event>
 7    1  0.1857734E-013  0.7246156E+02  0.7816164E-02  0.1226708E+00
        -11   -1    0    0    0    0  0.00000000000E+00  0.00000000000E+00  0.45593999997E+02  0.45594000000E+02  0.51100000000E-03 0. -1.
         11   -1    0    0    0    0 -0.00000000000E+00 -0.00000000000E+00 -0.45593999997E+02  0.45594000000E+02  0.51100000000E-03 0.  1.
    9900012    2    1    2    0    0  0.17773321665E+02 -0.16439724135E+01  0.56644476833E+01  0.72461559445E+02  0.69999985867E+02 0.  0.
        -12    1    1    2    0    0 -0.17773321665E+02  0.16439724135E+01 -0.56644476833E+01  0.18726440555E+02  0.00000000000E+00 0.  1.
         11    1    3    3    0    0  0.21951590384E+02 -0.19049806316E+02 -0.12004145410E+01  0.29089662019E+02  0.51100000000E-03 0. -1.
        -11    1    3    3    0    0 -0.13274640451E+02  0.12059605023E+02 -0.12124305638E+02  0.21648301085E+02  0.51100000000E-03 0.  1.
         12    1    3    3    0    0  0.90963717321E+01  0.53462288789E+01  0.18989167862E+02  0.21723596341E+02  0.00000000000E+00 0. -1.
</event>
<event>
 7    1  0.1857734E-013  0.7246156E+02  0.7816164E-02  0.1226708E+00
        -11   -1    0    0    0    0  0.00000000000E+00  0.00000000000E+00  0.45593999997E+02  0.45594000000E+02  0.51100000000E-03 0.  1.
         11   -1    0    0    0    0 -0.00000000000E+00 -0.00000000000E+00 -0.45593999997E+02  0.45594000000E+02  0.51100000000E-03 0. -1.
    9900012    2    1    2    0    0  0.21146172547E+01  0.16961411453E+02  0.76497441274E+01  0.72461556936E+02  0.69999982599E+02 0.  0.
        -12    1    1    2    0    0 -0.21146172547E+01 -0.16961411453E+02 -0.76497441274E+01  0.18726443064E+02  0.00000000000E+00 0.  1.
         11    1    3    3    0    0 -0.16365175285E+02  0.22682917802E+02 -0.10958759069E+01  0.27991689238E+02  0.51100000000E-03 0. -1.
        -11    1    3    3    0    0  0.22151898445E+02  0.12133510033E+02  0.34799817011E+01  0.25495861298E+02  0.51100000000E-03 0.  1.
        -12    1    3    3    0    0 -0.36721059051E+01 -0.17855016382E+02  0.52656383333E+01  0.18974006400E+02  0.00000000000E+00 0.  1.
</event>
<event>
 7    1  0.1857734E-013  0.7246155E+02  0.7816164E-02  0.1226708E+00
        -11   -1    0    0    0    0  0.00000000000E+00  0.00000000000E+00  0.45593999997E+02  0.45594000000E+02  0.51100000000E-03 0.  1.
         11   -1    0    0    0    0 -0.00000000000E+00 -0.00000000000E+00 -0.45593999997E+02  0.45594000000E+02  0.51100000000E-03 0. -1.
    9900012    2    1    2    0    0  0.44212931540E+00 -0.74277648663E+01 -0.17184668699E+02  0.72461547919E+02  0.69999970852E+02 0.  0.
        -12    1    1    2    0    0 -0.44212931540E+00  0.74277648663E+01  0.17184668699E+02  0.18726452081E+02  0.00000000000E+00 0.  1.
         11    1    3    3    0    0  0.45006007519E+01  0.18557058584E+02 -0.20503080154E+02  0.28017782326E+02  0.51100000000E-03 0. -1.
        -11    1    3    3    0    0  0.28952691639E+01 -0.10382182871E+02  0.18617332718E+02  0.21512261212E+02  0.51100000000E-03 0.  1.
         12    1    3    3    0    0 -0.69537406003E+01 -0.15602640579E+02 -0.15298921262E+02  0.22931504381E+02  0.00000000000E+00 0. -1.
</event>
<event>
 7    1  0.1857734E-013  0.7246182E+02  0.7816164E-02  0.1226707E+00
        -11   -1    0    0    0    0  0.00000000000E+00  0.00000000000E+00  0.45593999997E+02  0.45594000000E+02  0.51100000000E-03 0. -1.
         11   -1    0    0    0    0 -0.00000000000E+00 -0.00000000000E+00 -0.45593999997E+02  0.45594000000E+02  0.51100000000E-03 0.  1.
    9900012    2    1    2    0    0  0.14961880261E+02  0.10958468554E+02  0.25930189799E+01  0.72461824699E+02  0.70000331409E+02 0.  0.
        -12    1    1    2    0    0 -0.14961880261E+02 -0.10958468554E+02 -0.25930189799E+01  0.18726175301E+02  0.00000000000E+00 0.  1.
         11    1    3    3    0    0  0.23221974503E+02  0.54416913628E+01  0.61007610367E+00  0.23858841083E+02  0.51100000000E-03 0. -1.
        -11    1    3    3    0    0 -0.21182844295E+02 -0.38230034311E+01  0.16436083589E+02  0.27082708352E+02  0.51100000000E-03 0.  1.
         12    1    3    3    0    0  0.12922750052E+02  0.93397806219E+01 -0.14453140713E+02  0.21520275264E+02  0.00000000000E+00 0. -1.
</event>
<event>
 7    1  0.1857734E-013  0.7246157E+02  0.7816164E-02  0.1226708E+00
        -11   -1    0    0    0    0  0.00000000000E+00  0.00000000000E+00  0.45593999997E+02  0.45594000000E+02  0.51100000000E-03 0.  1.
         11   -1    0    0    0    0 -0.00000000000E+00 -0.00000000000E+00 -0.45593999997E+02  0.45594000000E+02  0.51100000000E-03 0. -1.
    9900012    2    1    2    0    0 -0.30750330423E+01  0.93086525644E+01 -0.15955319585E+02  0.72461573116E+02  0.70000003676E+02 0.  0.
        -12    1    1    2    0    0  0.30750330423E+01 -0.93086525644E+01  0.15955319585E+02  0.18726426884E+02  0.00000000000E+00 0.  1.
         11    1    3    3    0    0 -0.77652848244E+01  0.23767886877E+02 -0.82450192931E+01  0.26328547974E+02  0.51100000000E-03 0. -1.
        -11    1    3    3    0    0  0.16004904039E+02 -0.70162573942E+01  0.12724954962E+02  0.21617337953E+02  0.51100000000E-03 0.  1.
        -12    1    3    3    0    0 -0.11314652257E+02 -0.74429769183E+01 -0.20435255254E+02  0.24515687190E+02  0.00000000000E+00 0.  1.
</event>
<event>
 7    1  0.1857734E-013  0.7246155E+02  0.7816164E-02  0.1226708E+00
        -11   -1    0    0    0    0  0.00000000000E+00  0.00000000000E+00  0.45593999997E+02  0.45594000000E+02  0.51100000000E-03 0.  1.
         11   -1    0    0    0    0 -0.00000000000E+00 -0.00000000000E+00 -0.45593999997E+02  0.45594000000E+02  0.51100000000E-03 0. -1.
    9900012    2    1    2    0    0  0.23959952647E+01 -0.10870629457E+02 -0.15058835493E+02  0.72461550670E+02  0.69999974436E+02 0.  0.
        -12    1    1    2    0    0 -0.23959952647E+01  0.10870629457E+02  0.15058835493E+02  0.18726449330E+02  0.00000000000E+00 0.  1.
         11    1    3    3    0    0  0.12701811462E+01 -0.23522874214E+02  0.97923106314E+01  0.25511337072E+02  0.51100000000E-03 0.  1.
        -11    1    3    3    0    0  0.74164756540E+01  0.23026037002E+02 -0.66713255675E+01  0.25094004787E+02  0.51100000000E-03 0. -1.
        -12    1    3    3    0    0 -0.62906615355E+01 -0.10373792246E+02 -0.18179820557E+02  0.21856208811E+02  0.00000000000E+00 0.  1.
</event>
<event>
 7    1  0.1857734E-013  0.7246149E+02  0.7816164E-02  0.1226708E+00
        -11   -1    0    0    0    0  0.00000000000E+00  0.00000000000E+00  0.45593999997E+02  0.45594000000E+02  0.51100000000E-03 0. -1.
         11   -1    0    0    0    0 -0.00000000000E+00 -0.00000000000E+00 -0.45593999997E+02  0.45594000000E+02  0.51100000000E-03 0.  1.
    9900012    2    1    2    0    0  0.91325037676E+01  0.12425983351E+02 -0.10624242653E+02  0.72461488866E+02  0.69999893924E+02 0.  0.
        -12    1    1    2    0    0 -0.91325037676E+01 -0.12425983351E+02  0.10624242653E+02  0.18726511134E+02  0.00000000000E+00 0.  1.
         11    1    3    3    0    0 -0.18479020131E+01  0.32185080202E+02  0.28864781272E+01  0.32367049382E+02  0.51100000000E-03 0. -1.
        -11    1    3    3    0    0  0.13538206620E+01 -0.26074276548E+02 -0.78436716523E+01  0.27262133320E+02  0.51100000000E-03 0.  1.
        -12    1    3    3    0    0  0.96265851188E+01  0.63151796970E+01 -0.56670491283E+01  0.12832306164E+02  0.00000000000E+00 0.  1.
</event>
<event>
 7    1  0.1857734E-013  0.7246153E+02  0.7816164E-02  0.1226708E+00
        -11   -1    0    0    0    0  0.00000000000E+00  0.00000000000E+00  0.45593999997E+02  0.45594000000E+02  0.51100000000E-03 0.  1.
         11   -1    0    0    0    0 -0.00000000000E+00 -0.00000000000E+00 -0.45593999997E+02  0.45594000000E+02  0.51100000000E-03 0. -1.
    9900012    2    1    2    0    0 -0.16515824438E+02  0.72362886685E+01 -0.50541264875E+01  0.72461534099E+02  0.69999952849E+02 0.  0.
        -12    1    1    2    0    0  0.16515824438E+02 -0.72362886685E+01  0.50541264875E+01  0.18726465901E+02  0.00000000000E+00 0.  1.
         11    1    3    3    0    0  0.90343598301E+01  0.10532387420E+02  0.20695486566E+02  0.24916942163E+02  0.51100000000E-03 0.  1.
        -11    1    3    3    0    0 -0.28303193271E+02 -0.17738929155E+01 -0.79260430331E+01  0.29445536230E+02  0.51100000000E-03 0. -1.
         12    1    3    3    0    0  0.27530090029E+01 -0.15222058358E+01 -0.17823570021E+02  0.18099055706E+02  0.00000000000E+00 0. -1.
</event>
<event>
 7    1  0.1857734E-013  0.7246157E+02  0.7816164E-02  0.1226708E+00
        -11   -1    0    0    0    0  0.00000000000E+00  0.00000000000E+00  0.45593999997E+02  0.45594000000E+02  0.51100000000E-03 0.  1.
         11   -1    0    0    0    0 -0.00000000000E+00 -0.00000000000E+00 -0.45593999997E+02  0.45594000000E+02  0.51100000000E-03 0. -1.
    9900012    2    1    2    0    0  0.14843701700E+02 -0.43155038216E+01  0.10569779179E+02  0.72461567203E+02  0.69999995973E+02 0.  0.
        -12    1    1    2    0    0 -0.14843701700E+02  0.43155038216E+01 -0.10569779179E+02  0.18726432797E+02  0.00000000000E+00 0.  1.
         11    1    3    3    0    0  0.23196022584E+02  0.11699158552E+00  0.18875682912E+02  0.29905861573E+02  0.51100000000E-03 0. -1.
        -11    1    3    3    0    0 -0.19402044285E+02 -0.16034754585E+02 -0.83943285872E+01  0.26533326774E+02  0.51100000000E-03 0.  1.
         12    1    3    3    0    0  0.11049723400E+02  0.11602259178E+02  0.88424853659E-01  0.16022378856E+02  0.00000000000E+00 0. -1.
</event>
<event>
 7    1  0.1857734E-013  0.7246169E+02  0.7816164E-02  0.1226708E+00
        -11   -1    0    0    0    0  0.00000000000E+00  0.00000000000E+00  0.45593999997E+02  0.45594000000E+02  0.51100000000E-03 0.  1.
         11   -1    0    0    0    0 -0.00000000000E+00 -0.00000000000E+00 -0.45593999997E+02  0.45594000000E+02  0.51100000000E-03 0. -1.
    9900012    2    1    2    0    0 -0.15185378352E+02 -0.10072709693E+02 -0.43150295816E+01  0.72461690258E+02  0.70000156275E+02 0.  0.
        -12    1    1    2    0    0  0.15185378352E+02  0.10072709693E+02  0.43150295816E+01  0.18726309742E+02  0.00000000000E+00 0.  1.
         11    1    3    3    0    0  0.20497486920E+02  0.10832296680E+02  0.37386851970E+01  0.23483257624E+02  0.51100000000E-03 0. -1.
        -11    1    3    3    0    0 -0.29095469259E+02 -0.22006750921E+02  0.24150696402E+01  0.36560579578E+02  0.51100000000E-03 0.  1.
         12    1    3    3    0    0 -0.65873960136E+01  0.11017445482E+01 -0.10468784419E+02  0.12417853055E+02  0.00000000000E+00 0. -1.
</event>
<event>
 7    1  0.1857734E-013  0.7246165E+02  0.7816164E-02  0.1226708E+00
        -11   -1    0    0    0    0  0.00000000000E+00  0.00000000000E+00  0.45593999997E+02  0.45594000000E+02  0.51100000000E-03 0. -1.
         11   -1    0    0    0    0 -0.00000000000E+00 -0.00000000000E+00 -0.45593999997E+02  0.45594000000E+02  0.51100000000E-03 0.  1.
    9900012    2    1    2    0    0 -0.41507600575E+01 -0.13979890593E+02  0.11747763935E+02  0.72461652050E+02  0.70000106502E+02 0.  0.
        -12    1    1    2    0    0  0.41507600575E+01  0.13979890593E+02 -0.11747763935E+02  0.18726347950E+02  0.00000000000E+00 0.  1.
         11    1    3    3    0    0  0.94151185345E+01 -0.46519123627E+01  0.83884716812E+01  0.13440654860E+02  0.51100000000E-03 0. -1.
        -11    1    3    3    0    0 -0.30899453419E+02 -0.11628449669E+01 -0.13272031062E+02  0.33649297746E+02  0.51100000000E-03 0.  1.
        -12    1    3    3    0    0  0.17333574827E+02 -0.81651332637E+01  0.16631323316E+02  0.25371699445E+02  0.00000000000E+00 0.  1.
</event>
<event>
 7    1  0.1857734E-013  0.7246164E+02  0.7816164E-02  0.1226708E+00
        -11   -1    0    0    0    0  0.00000000000E+00  0.00000000000E+00  0.45593999997E+02  0.45594000000E+02  0.51100000000E-03 0.  1.
         11   -1    0    0    0    0 -0.00000000000E+00 -0.00000000000E+00 -0.45593999997E+02  0.45594000000E+02  0.51100000000E-03 0. -1.
    9900012    2    1    2    0    0  0.20186594050E+01 -0.58356317514E+01 -0.17678995791E+02  0.72461642215E+02  0.70000093690E+02 0.  0.
        -12    1    1    2    0    0 -0.20186594050E+01  0.58356317514E+01  0.17678995791E+02  0.18726357785E+02  0.00000000000E+00 0.  1.
         11    1    3    3    0    0 -0.20418446200E+02  0.16573802681E+02  0.62218465723E+01  0.27024345608E+02  0.51100000000E-03 0. -1.
        -11    1    3    3    0    0  0.53216901992E+01 -0.17415790115E+02 -0.38631182293E+01  0.18615955915E+02  0.51100000000E-03 0.  1.
         12    1    3    3    0    0  0.17115415406E+02 -0.49936443170E+01 -0.20037724134E+02  0.26821340692E+02  0.00000000000E+00 0. -1.
</event>
<event>
 7    1  0.1857734E-013  0.7246170E+02  0.7816164E-02  0.1226708E+00
        -11   -1    0    0    0    0  0.00000000000E+00  0.00000000000E+00  0.45593999997E+02  0.45594000000E+02  0.51100000000E-03 0.  1.
         11   -1    0    0    0    0 -0.00000000000E+00 -0.00000000000E+00 -0.45593999997E+02  0.45594000000E+02  0.51100000000E-03 0. -1.
    9900012    2    1    2    0    0 -0.10631321604E+02  0.15182757284E+02 -0.26708144193E+01  0.72461698511E+02  0.70000167026E+02 0.  0.
        -12    1    1    2    0    0  0.10631321604E+02 -0.15182757284E+02  0.26708144193E+01  0.18726301489E+02  0.00000000000E+00 0.  1.
         11    1    3    3    0    0  0.23048566095E+01 -0.72985963351E+01 -0.21897782744E+02  0.23196869655E+02  0.51100000000E-03 0. -1.
        -11    1    3    3    0    0 -0.24944693363E+02  0.20311378272E+02  0.91643917287E+01  0.33448107424E+02  0.51100000000E-03 0.  1.
         12    1    3    3    0    0  0.12008515149E+02  0.21699753474E+01  0.10062576595E+02  0.15816721432E+02  0.00000000000E+00 0. -1.
</event>
<event>
 7    1  0.1857734E-013  0.7246153E+02  0.7816164E-02  0.1226708E+00
        -11   -1    0    0    0    0  0.00000000000E+00  0.00000000000E+00  0.45593999997E+02  0.45594000000E+02  0.51100000000E-03 0.  1.
         11   -1    0    0    0    0 -0.00000000000E+00 -0.00000000000E+00 -0.45593999997E+02  0.45594000000E+02  0.51100000000E-03 0. -1.
    9900012    2    1    2    0    0  0.77398958294E+01 -0.16742856015E+02 -0.32328554760E+01  0.72461532914E+02  0.69999951305E+02 0.  0.
        -12    1    1    2    0    0 -0.77398958294E+01  0.16742856015E+02  0.32328554760E+01  0.18726467086E+02  0.00000000000E+00 0.  1.
         11    1    3    3    0    0  0.16923431728E+02  0.13158453552E+02 -0.16044416722E+02  0.26776309483E+02  0.51100000000E-03 0. -1.
        -11    1    3    3    0    0 -0.15347703497E+02 -0.30441031141E+01  0.84627025276E+01  0.17788645275E+02  0.51100000000E-03 0.  1.
         12    1    3    3    0    0  0.61641675983E+01 -0.26857206453E+02  0.43488587181E+01  0.27896578156E+02  0.00000000000E+00 0. -1.
</event>
<event>
 7    1  0.1857734E-013  0.7246156E+02  0.7816164E-02  0.1226708E+00
        -11   -1    0    0    0    0  0.00000000000E+00  0.00000000000E+00  0.45593999997E+02  0.45594000000E+02  0.51100000000E-03 0. -1.
         11   -1    0    0    0    0 -0.00000000000E+00 -0.00000000000E+00 -0.45593999997E+02  0.45594000000E+02  0.51100000000E-03 0.  1.
    9900012    2    1    2    0    0 -0.24082976816E+00 -0.91254490658E+01  0.16350766280E+02  0.72461564740E+02  0.69999992764E+02 0.  0.
        -12    1    1    2    0    0  0.24082976816E+00  0.91254490658E+01 -0.16350766280E+02  0.18726435260E+02  0.00000000000E+00 0.  1.
         11    1    3    3    0    0 -0.88962972326E+01  0.21398373712E+02  0.94428859768E+01  0.25024040397E+02  0.51100000000E-03 0. -1.
        -11    1    3    3    0    0  0.20455365632E+02 -0.21067727063E+02  0.11648494315E+02  0.31590481585E+02  0.51100000000E-03 0.  1.
         12    1    3    3    0    0 -0.11799898167E+02 -0.94560957150E+01 -0.47406140121E+01  0.15847042757E+02  0.00000000000E+00 0. -1.
</event>
<event>
 7    1  0.1857734E-013  0.7246156E+02  0.7816164E-02  0.1226708E+00
        -11   -1    0    0    0    0  0.00000000000E+00  0.00000000000E+00  0.45593999997E+02  0.45594000000E+02  0.51100000000E-03 0. -1.
         11   -1    0    0    0    0 -0.00000000000E+00 -0.00000000000E+00 -0.45593999997E+02  0.45594000000E+02  0.51100000000E-03 0.  1.
    9900012    2    1    2    0    0 -0.88799249046E+01 -0.69308048651E+01  0.14959632304E+02  0.72461555568E+02  0.69999980817E+02 0.  0.
        -12    1    1    2    0    0  0.88799249046E+01  0.69308048651E+01 -0.14959632304E+02  0.18726444432E+02  0.00000000000E+00 0.  1.
         11    1    3    3    0    0 -0.78713501209E+01  0.12552407942E+02  0.26368915531E+01  0.15049062934E+02  0.51100000000E-03 0. -1.
        -11    1    3    3    0    0  0.19182303652E+02  0.84469137220E+01  0.46242599237E+00  0.20964850652E+02  0.51100000000E-03 0.  1.
        -12    1    3    3    0    0 -0.20190878435E+02 -0.27930126529E+02  0.11860314758E+02  0.36447641982E+02  0.00000000000E+00 0.  1.
</event>
<event>
 7    1  0.1857734E-013  0.7246157E+02  0.7816164E-02  0.1226708E+00
        -11   -1    0    0    0    0  0.00000000000E+00  0.00000000000E+00  0.45593999997E+02  0.45594000000E+02  0.51100000000E-03 0.  1.
         11   -1    0    0    0    0 -0.00000000000E+00 -0.00000000000E+00 -0.45593999997E+02  0.45594000000E+02  0.51100000000E-03 0. -1.
    9900012    2    1    2    0    0  0.17760577984E+02 -0.11956523352E+01 -0.58147655396E+01  0.72461569131E+02  0.69999998484E+02 0.  0.
        -12    1    1    2    0    0 -0.17760577984E+02  0.11956523352E+01  0.58147655396E+01  0.18726430869E+02  0.00000000000E+00 0.  1.
         11    1    3    3    0    0  0.19527558716E+02 -0.57387010371E+01  0.33003612285E+01  0.20619180961E+02  0.51100000000E-03 0. -1.
        -11    1    3    3    0    0  0.29799345802E+01  0.16155621065E+02 -0.26031456689E+02  0.30781826452E+02  0.51100000000E-03 0.  1.
        -12    1    3    3    0    0 -0.47469153120E+01 -0.11612572363E+02  0.16916329921E+02  0.21060561718E+02  0.00000000000E+00 0.  1.
</event>
<event>
 7    1  0.1857734E-013  0.7246158E+02  0.7816164E-02  0.1226708E+00
        -11   -1    0    0    0    0  0.00000000000E+00  0.00000000000E+00  0.45593999997E+02  0.45594000000E+02  0.51100000000E-03 0. -1.
         11   -1    0    0    0    0 -0.00000000000E+00 -0.00000000000E+00 -0.45593999997E+02  0.45594000000E+02  0.51100000000E-03 0.  1.
    9900012    2    1    2    0    0 -0.62456929563E+01  0.16634560822E+02 -0.59128110439E+01  0.72461584735E+02  0.70000018812E+02 0.  0.
        -12    1    1    2    0    0  0.62456929563E+01 -0.16634560822E+02  0.59128110439E+01  0.18726415265E+02  0.00000000000E+00 0.  1.
         11    1    3    3    0    0  0.17795596079E+02  0.70470268551E+00 -0.25852651444E+02  0.31393302354E+02  0.51100000000E-03 0.  1.
        -11    1    3    3    0    0 -0.24010635041E+02  0.18996694080E+02  0.21704746807E+02  0.37529735081E+02  0.51100000000E-03 0. -1.
         12    1    3    3    0    0 -0.30653994480E-01 -0.30668359437E+01 -0.17649064067E+01  0.35385473004E+01  0.00000000000E+00 0. -1.
</event>
<event>
 7    1  0.1857734E-013  0.7246161E+02  0.7816164E-02  0.1226708E+00
        -11   -1    0    0    0    0  0.00000000000E+00  0.00000000000E+00  0.45593999997E+02  0.45594000000E+02  0.51100000000E-03 0.  1.
         11   -1    0    0    0    0 -0.00000000000E+00 -0.00000000000E+00 -0.45593999997E+02  0.45594000000E+02  0.51100000000E-03 0. -1.
    9900012    2    1    2    0    0  0.65924661236E+01 -0.84675044685E+01 -0.15346615966E+02  0.72461605176E+02  0.70000045440E+02 0.  0.
        -12    1    1    2    0    0 -0.65924661236E+01  0.84675044685E+01  0.15346615966E+02  0.18726394824E+02  0.00000000000E+00 0.  1.
         11    1    3    3    0    0 -0.23294222588E+02 -0.13043076592E+02 -0.13262452763E+02  0.29809986691E+02  0.51100000000E-03 0. -1.
        -11    1    3    3    0    0  0.24762980776E+02  0.73234213385E+01  0.11202610153E+02  0.28148466948E+02  0.51100000000E-03 0.  1.
        -12    1    3    3    0    0  0.51237079358E+01 -0.27478492147E+01 -0.13286773355E+02  0.14503151537E+02  0.00000000000E+00 0.  1.
</event>
<event>
 7    1  0.1857734E-013  0.7246153E+02  0.7816164E-02  0.1226708E+00
        -11   -1    0    0    0    0  0.00000000000E+00  0.00000000000E+00  0.45593999997E+02  0.45594000000E+02  0.51100000000E-03 0.  1.
         11   -1    0    0    0    0 -0.00000000000E+00 -0.00000000000E+00 -0.45593999997E+02  0.45594000000E+02  0.51100000000E-03 0. -1.
    9900012    2    1    2    0    0 -0.49016523424E+01 -0.44838982566E+01 -0.17508542014E+02  0.72461532562E+02  0.69999950846E+02 0.  0.
        -12    1    1    2    0    0  0.49016523424E+01  0.44838982566E+01  0.17508542014E+02  0.18726467438E+02  0.00000000000E+00 0.  1.
         11    1    3    3    0    0 -0.97626749728E+01  0.66286052564E+01 -0.32671250466E+02  0.34736995229E+02  0.51100000000E-03 0. -1.
        -11    1    3    3    0    0 -0.95856136600E+01 -0.12549620335E+01  0.17586085397E+02  0.20068116972E+02  0.51100000000E-03 0.  1.
         12    1    3    3    0    0  0.14446636290E+02 -0.98575414796E+01 -0.24233769453E+01  0.17656420360E+02  0.00000000000E+00 0. -1.
</event>
<event>
 7    1  0.1857734E-013  0.7246155E+02  0.7816164E-02  0.1226708E+00
        -11   -1    0    0    0    0  0.00000000000E+00  0.00000000000E+00  0.45593999997E+02  0.45594000000E+02  0.51100000000E-03 0. -1.
         11   -1    0    0    0    0 -0.00000000000E+00 -0.00000000000E+00 -0.45593999997E+02  0.45594000000E+02  0.51100000000E-03 0.  1.
    9900012    2    1    2    0    0  0.27199548124E+01 -0.39394018412E+01  0.18104222556E+02  0.72461550379E+02  0.69999974057E+02 0.  0.
        -12    1    1    2    0    0 -0.27199548124E+01  0.39394018412E+01 -0.18104222556E+02  0.18726449621E+02  0.00000000000E+00 0.  1.
         11    1    3    3    0    0  0.22618936824E+02 -0.19074557550E+02  0.10229713902E+02  0.31306582304E+02  0.51100000000E-03 0. -1.
        -11    1    3    3    0    0  0.33835617457E+01  0.11283447484E+02 -0.65681687827E+01  0.13487235396E+02  0.51100000000E-03 0.  1.
         12    1    3    3    0    0 -0.23282543757E+02  0.38517082250E+01  0.14442677437E+02  0.27667732679E+02  0.00000000000E+00 0. -1.
</event>
<event>
 7    1  0.1857734E-013  0.7246155E+02  0.7816164E-02  0.1226708E+00
        -11   -1    0    0    0    0  0.00000000000E+00  0.00000000000E+00  0.45593999997E+02  0.45594000000E+02  0.51100000000E-03 0.  1.
         11   -1    0    0    0    0 -0.00000000000E+00 -0.00000000000E+00 -0.45593999997E+02  0.45594000000E+02  0.51100000000E-03 0. -1.
    9900012    2    1    2    0    0  0.91610613737E+01  0.10418276885E+02 -0.12578327381E+02  0.72461551900E+02  0.69999976038E+02 0.  0.
        -12    1    1    2    0    0 -0.91610613737E+01 -0.10418276885E+02  0.12578327381E+02  0.18726448100E+02  0.00000000000E+00 0.  1.
         11    1    3    3    0    0  0.72662482693E+01  0.19953811097E+02  0.70653816310E+01  0.22380182284E+02  0.51100000000E-03 0. -1.
        -11    1    3    3    0    0 -0.78303305175E+01 -0.23517428918E+02 -0.96777952696E+00  0.24805647269E+02  0.51100000000E-03 0.  1.
        -12    1    3    3    0    0  0.97251436218E+01  0.13981894706E+02 -0.18675929485E+02  0.25275722347E+02  0.00000000000E+00 0.  1.
</event>
<event>
 7    1  0.1857734E-013  0.7246158E+02  0.7816164E-02  0.1226708E+00
        -11   -1    0    0    0    0  0.00000000000E+00  0.00000000000E+00  0.45593999997E+02  0.45594000000E+02  0.51100000000E-03 0.  1.
         11   -1    0    0    0    0 -0.00000000000E+00 -0.00000000000E+00 -0.45593999997E+02  0.45594000000E+02  0.51100000000E-03 0. -1.
    9900012    2    1    2    0    0  0.88723922641E+01  0.14197571383E+02 -0.83897844074E+01  0.72461578557E+02  0.70000010763E+02 0.  0.
        -12    1    1    2    0    0 -0.88723922641E+01 -0.14197571383E+02  0.83897844074E+01  0.18726421443E+02  0.00000000000E+00 0.  1.
         11    1    3    3    0    0 -0.12635141449E+02  0.34061108160E+01 -0.31021697419E+02  0.33668889221E+02  0.51100000000E-03 0. -1.
        -11    1    3    3    0    0 -0.19880597524E+01  0.51788998346E+00  0.99961460622E+01  0.10205073639E+02  0.51100000000E-03 0.  1.
         12    1    3    3    0    0  0.23495593466E+02  0.10273570584E+02  0.12635766949E+02  0.28587615697E+02  0.00000000000E+00 0. -1.
</event>
<event>
 7    1  0.1857734E-013  0.7246148E+02  0.7816164E-02  0.1226708E+00
        -11   -1    0    0    0    0  0.00000000000E+00  0.00000000000E+00  0.45593999997E+02  0.45594000000E+02  0.51100000000E-03 0. -1.
         11   -1    0    0    0    0 -0.00000000000E+00 -0.00000000000E+00 -0.45593999997E+02  0.45594000000E+02  0.51100000000E-03 0.  1.
    9900012    2    1    2    0    0  0.61892781274E+01  0.14529759543E+02  0.10062866882E+02  0.72461484948E+02  0.69999888821E+02 0.  0.
        -12    1    1    2    0    0 -0.61892781274E+01 -0.14529759543E+02 -0.10062866882E+02  0.18726515052E+02  0.00000000000E+00 0.  1.
         11    1    3    3    0    0 -0.12540691117E+02  0.14089181185E+02  0.22374463577E+02  0.29264151804E+02  0.51100000000E-03 0. -1.
        -11    1    3    3    0    0  0.19923767066E+02 -0.36566723633E+01 -0.23616475341E+02  0.31113753464E+02  0.51100000000E-03 0.  1.
        -12    1    3    3    0    0 -0.11937978209E+01  0.40972507204E+01  0.11304878645E+02  0.12083579680E+02  0.00000000000E+00 0.  1.
</event>
<event>
 7    1  0.1857734E-013  0.7246157E+02  0.7816164E-02  0.1226708E+00
        -11   -1    0    0    0    0  0.00000000000E+00  0.00000000000E+00  0.45593999997E+02  0.45594000000E+02  0.51100000000E-03 0. -1.
         11   -1    0    0    0    0 -0.00000000000E+00 -0.00000000000E+00 -0.45593999997E+02  0.45594000000E+02  0.51100000000E-03 0.  1.
    9900012    2    1    2    0    0 -0.19252721417E+01  0.18600554922E+02 -0.99601056698E+00  0.72461565388E+02  0.69999993609E+02 0.  0.
        -12    1    1    2    0    0  0.19252721417E+01 -0.18600554922E+02  0.99601056698E+00  0.18726434612E+02  0.00000000000E+00 0.  1.
         11    1    3    3    0    0 -0.65816368890E+01  0.19624882758E+02  0.11625056622E+02  0.23740175002E+02  0.51100000000E-03 0. -1.
        -11    1    3    3    0    0  0.25589275963E+02  0.56975889549E+00 -0.35066805137E+01  0.25834714591E+02  0.51100000000E-03 0.  1.
        -12    1    3    3    0    0 -0.20932911216E+02 -0.15940867312E+01 -0.91143866748E+01  0.22886675795E+02  0.00000000000E+00 0.  1.
</event>
<event>
 7    1  0.1857734E-013  0.7246157E+02  0.7816164E-02  0.1226708E+00
        -11   -1    0    0    0    0  0.00000000000E+00  0.00000000000E+00  0.45593999997E+02  0.45594000000E+02  0.51100000000E-03 0.  1.
         11   -1    0    0    0    0 -0.00000000000E+00 -0.00000000000E+00 -0.45593999997E+02  0.45594000000E+02  0.51100000000E-03 0. -1.
    9900012    2    1    2    0    0 -0.79216909670E+01  0.49378339778E+01 -0.16234030020E+02  0.72461571540E+02  0.70000001623E+02 0.  0.
        -12    1    1    2    0    0  0.79216909670E+01 -0.49378339778E+01  0.16234030020E+02  0.18726428460E+02  0.00000000000E+00 0.  1.
         11    1    3    3    0    0 -0.29580907099E+02 -0.11655515225E+02 -0.26792695807E+02  0.41577994767E+02  0.51100000000E-03 0. -1.
        -11    1    3    3    0    0  0.12914297017E+02  0.14963910032E+02  0.49807049267E+01  0.20383942031E+02  0.51100000000E-03 0.  1.
         12    1    3    3    0    0  0.87449191153E+01  0.16294391709E+01  0.55779608608E+01  0.10499634742E+02  0.00000000000E+00 0. -1.
</event>
<event>
 7    1  0.1857734E-013  0.7246104E+02  0.7816164E-02  0.1226709E+00
        -11   -1    0    0    0    0  0.00000000000E+00  0.00000000000E+00  0.45593999997E+02  0.45594000000E+02  0.51100000000E-03 0.  1.
         11   -1    0    0    0    0 -0.00000000000E+00 -0.00000000000E+00 -0.45593999997E+02  0.45594000000E+02  0.51100000000E-03 0. -1.
    9900012    2    1    2    0    0  0.44472915813E+01  0.14881182433E+02 -0.10462848922E+02  0.72461035468E+02  0.69999303286E+02 0.  0.
        -12    1    1    2    0    0 -0.44472915813E+01 -0.14881182433E+02  0.10462848922E+02  0.18726964532E+02  0.00000000000E+00 0.  1.
         11    1    3    3    0    0 -0.16177371625E+02  0.34251391967E+01 -0.21918821040E+02  0.27456759591E+02  0.51100000000E-03 0. -1.
        -11    1    3    3    0    0  0.17232112797E+02  0.19341532882E+02  0.20125666042E+02  0.32803704662E+02  0.51100000000E-03 0.  1.
        -12    1    3    3    0    0  0.33925504099E+01 -0.78854896453E+01 -0.86696939241E+01  0.12200571215E+02  0.00000000000E+00 0.  1.
</event>
<event>
 7    1  0.1857734E-013  0.7246155E+02  0.7816164E-02  0.1226708E+00
        -11   -1    0    0    0    0  0.00000000000E+00  0.00000000000E+00  0.45593999997E+02  0.45594000000E+02  0.51100000000E-03 0.  1.
         11   -1    0    0    0    0 -0.00000000000E+00 -0.00000000000E+00 -0.45593999997E+02  0.45594000000E+02  0.51100000000E-03 0. -1.
    9900012    2    1    2    0    0  0.29640838848E+01  0.16915958364E+02 -0.74662251382E+01  0.72461549230E+02  0.69999972559E+02 0.  0.
        -12    1    1    2    0    0 -0.29640838848E+01 -0.16915958364E+02  0.74662251382E+01  0.18726450770E+02  0.00000000000E+00 0.  1.
         11    1    3    3    0    0 -0.22657267886E+02  0.17652994333E+02 -0.18828467280E+02  0.34343721076E+02  0.51100000000E-03 0. -1.
        -11    1    3    3    0    0 -0.12868701506E+01 -0.83173462680E+01  0.21995456000E+01  0.86989818275E+01  0.51100000000E-03 0.  1.
         12    1    3    3    0    0  0.26908221922E+02  0.75803102990E+01  0.91626965420E+01  0.29418846326E+02  0.00000000000E+00 0. -1.
</event>
<event>
 7    1  0.1857734E-013  0.7246155E+02  0.7816164E-02  0.1226708E+00
        -11   -1    0    0    0    0  0.00000000000E+00  0.00000000000E+00  0.45593999997E+02  0.45594000000E+02  0.51100000000E-03 0.  1.
         11   -1    0    0    0    0 -0.00000000000E+00 -0.00000000000E+00 -0.45593999997E+02  0.45594000000E+02  0.51100000000E-03 0. -1.
    9900012    2    1    2    0    0 -0.13487553169E+02  0.11429310052E+01 -0.12940609632E+02  0.72461554544E+02  0.69999979482E+02 0.  0.
        -12    1    1    2    0    0  0.13487553169E+02 -0.11429310052E+01  0.12940609632E+02  0.18726445456E+02  0.00000000000E+00 0.  1.
         11    1    3    3    0    0 -0.16585922338E+01 -0.18223549809E+02  0.75078651730E+01  0.19779199568E+02  0.51100000000E-03 0. -1.
        -11    1    3    3    0    0  0.75634518538E+01  0.17111414837E+02 -0.26323473809E+02  0.32294451463E+02  0.51100000000E-03 0.  1.
        -12    1    3    3    0    0 -0.19392412789E+02  0.22550659768E+01  0.58749990045E+01  0.20387903513E+02  0.00000000000E+00 0.  1.
</event>
<event>
 7    1  0.1857734E-013  0.7246181E+02  0.7816164E-02  0.1226707E+00
        -11   -1    0    0    0    0  0.00000000000E+00  0.00000000000E+00  0.45593999997E+02  0.45594000000E+02  0.51100000000E-03 0.  1.
         11   -1    0    0    0    0 -0.00000000000E+00 -0.00000000000E+00 -0.45593999997E+02  0.45594000000E+02  0.51100000000E-03 0. -1.
    9900012    2    1    2    0    0  0.79036390854E+01 -0.44132097706E+01 -0.16392867437E+02  0.72461814214E+02  0.70000317750E+02 0.  0.
        -12    1    1    2    0    0 -0.79036390854E+01  0.44132097706E+01  0.16392867437E+02  0.18726185786E+02  0.00000000000E+00 0.  1.
         11    1    3    3    0    0  0.16736066084E+02 -0.22667431008E+02 -0.25388022083E+02  0.37927035239E+02  0.51100000000E-03 0. -1.
        -11    1    3    3    0    0 -0.16351572402E+02  0.87936083465E+01 -0.13661310031E+01  0.18616331055E+02  0.51100000000E-03 0.  1.
        -12    1    3    3    0    0  0.75191454031E+01  0.94606128915E+01  0.10361285649E+02  0.15918447920E+02  0.00000000000E+00 0.  1.
</event>
<event>
 7    1  0.1857734E-013  0.7246157E+02  0.7816164E-02  0.1226708E+00
        -11   -1    0    0    0    0  0.00000000000E+00  0.00000000000E+00  0.45593999997E+02  0.45594000000E+02  0.51100000000E-03 0. -1.
         11   -1    0    0    0    0 -0.00000000000E+00 -0.00000000000E+00 -0.45593999997E+02  0.45594000000E+02  0.51100000000E-03 0.  1.
    9900012    2    1    2    0    0  0.59992199539E+01 -0.12592226761E+02  0.12494972237E+02  0.72461570921E+02  0.70000000816E+02 0.  0.
        -12    1    1    2    0    0 -0.59992199539E+01  0.12592226761E+02 -0.12494972237E+02  0.18726429079E+02  0.00000000000E+00 0.  1.
         11    1    3    3    0    0 -0.76369440345E+01  0.15385979789E+00  0.12011514340E+02  0.14234572843E+02  0.51100000000E-03 0. -1.
        -11    1    3    3    0    0  0.26312808648E+02 -0.21412803970E+02 -0.14388587730E+02  0.36849742603E+02  0.51100000000E-03 0.  1.
        -12    1    3    3    0    0 -0.12676644659E+02  0.86667174113E+01  0.14872045627E+02  0.21377255475E+02  0.00000000000E+00 0.  1.
</event>
<event>
 7    1  0.1857734E-013  0.7246160E+02  0.7816164E-02  0.1226708E+00
        -11   -1    0    0    0    0  0.00000000000E+00  0.00000000000E+00  0.45593999997E+02  0.45594000000E+02  0.51100000000E-03 0. -1.
         11   -1    0    0    0    0 -0.00000000000E+00 -0.00000000000E+00 -0.45593999997E+02  0.45594000000E+02  0.51100000000E-03 0.  1.
    9900012    2    1    2    0    0  0.81440650617E+01 -0.16808850904E+02  0.13470864570E+01  0.72461604021E+02  0.70000043935E+02 0.  0.
        -12    1    1    2    0    0 -0.81440650617E+01  0.16808850904E+02 -0.13470864570E+01  0.18726395979E+02  0.00000000000E+00 0.  1.
         11    1    3    3    0    0 -0.41243781656E+01 -0.19235036622E+02 -0.21687653370E+02  0.29280564169E+02  0.51100000000E-03 0.  1.
        -11    1    3    3    0    0  0.91321976480E+00  0.44862120489E+01  0.29567436978E+02  0.29919782730E+02  0.51100000000E-03 0. -1.
         12    1    3    3    0    0  0.11355223462E+02 -0.20600263308E+01 -0.65326971518E+01  0.13261257121E+02  0.00000000000E+00 0. -1.
</event>
<event>
 7    1  0.1857734E-013  0.7246161E+02  0.7816164E-02  0.1226708E+00
        -11   -1    0    0    0    0  0.00000000000E+00  0.00000000000E+00  0.45593999997E+02  0.45594000000E+02  0.51100000000E-03 0.  1.
         11   -1    0    0    0    0 -0.00000000000E+00 -0.00000000000E+00 -0.45593999997E+02  0.45594000000E+02  0.51100000000E-03 0. -1.
    9900012    2    1    2    0    0 -0.18431070837E+01  0.18606694762E+02  0.10351816887E+01  0.72461608601E+02  0.70000049902E+02 0.  0.
        -12    1    1    2    0    0  0.18431070837E+01 -0.18606694762E+02 -0.10351816887E+01  0.18726391399E+02  0.00000000000E+00 0.  1.
         11    1    3    3    0    0  0.26560790704E+02  0.59914491145E+01  0.19445717242E+02  0.33459064312E+02  0.51100000000E-03 0. -1.
        -11    1    3    3    0    0 -0.10619377424E+02 -0.24659615492E+01 -0.41236726237E+01  0.11655763355E+02  0.51100000000E-03 0.  1.
         12    1    3    3    0    0 -0.17784520364E+02  0.15081207197E+02 -0.14286862929E+02  0.27346780934E+02  0.00000000000E+00 0. -1.
</event>
<event>
 7    1  0.1857734E-013  0.7246157E+02  0.7816164E-02  0.1226708E+00
        -11   -1    0    0    0    0  0.00000000000E+00  0.00000000000E+00  0.45593999997E+02  0.45594000000E+02  0.51100000000E-03 0. -1.
         11   -1    0    0    0    0 -0.00000000000E+00 -0.00000000000E+00 -0.45593999997E+02  0.45594000000E+02  0.51100000000E-03 0.  1.
    9900012    2    1    2    0    0 -0.18072863701E+02 -0.33195898062E+01  0.36098769641E+01  0.72461567064E+02  0.69999995791E+02 0.  0.
        -12    1    1    2    0    0  0.18072863701E+02  0.33195898062E+01 -0.36098769641E+01  0.18726432936E+02  0.00000000000E+00 0.  1.
         11    1    3    3    0    0 -0.13589103560E+02 -0.33272285632E+02 -0.65197049368E+01  0.36526911716E+02  0.51100000000E-03 0. -1.
        -11    1    3    3    0    0  0.25566238054E+01  0.24301350854E+02  0.33922038753E+01  0.24669799878E+02  0.51100000000E-03 0.  1.
         12    1    3    3    0    0 -0.70403839462E+01  0.56513449717E+01  0.67373780256E+01  0.11264855470E+02  0.00000000000E+00 0. -1.
</event>
<event>
 7    1  0.1857734E-013  0.7246160E+02  0.7816164E-02  0.1226708E+00
        -11   -1    0    0    0    0  0.00000000000E+00  0.00000000000E+00  0.45593999997E+02  0.45594000000E+02  0.51100000000E-03 0.  1.
         11   -1    0    0    0    0 -0.00000000000E+00 -0.00000000000E+00 -0.45593999997E+02  0.45594000000E+02  0.51100000000E-03 0. -1.
    9900012    2    1    2    0    0 -0.72584850509E+00 -0.25507039101E+01 -0.18537663162E+02  0.72461604138E+02  0.70000044087E+02 0.  0.
        -12    1    1    2    0    0  0.72584850509E+00  0.25507039101E+01  0.18537663162E+02  0.18726395862E+02  0.00000000000E+00 0.  1.
         11    1    3    3    0    0 -0.28203844576E+01 -0.10311093509E+02 -0.11775963242E+02  0.15904292766E+02  0.51100000000E-03 0. -1.
        -11    1    3    3    0    0  0.26295733797E+02  0.15742888932E+02 -0.29420028338E+01  0.30788951732E+02  0.51100000000E-03 0.  1.
        -12    1    3    3    0    0 -0.24201197844E+02 -0.79824993327E+01 -0.38196970857E+01  0.25768359640E+02  0.00000000000E+00 0.  1.
</event>
<event>
 7    1  0.1857734E-013  0.7246157E+02  0.7816164E-02  0.1226708E+00
        -11   -1    0    0    0    0  0.00000000000E+00  0.00000000000E+00  0.45593999997E+02  0.45594000000E+02  0.51100000000E-03 0. -1.
         11   -1    0    0    0    0 -0.00000000000E+00 -0.00000000000E+00 -0.45593999997E+02  0.45594000000E+02  0.51100000000E-03 0.  1.
    9900012    2    1    2    0    0 -0.35293611463E+01  0.86253001438E+01  0.16242748943E+02  0.72461572527E+02  0.70000002909E+02 0.  0.
        -12    1    1    2    0    0  0.35293611463E+01 -0.86253001438E+01 -0.16242748943E+02  0.18726427473E+02  0.00000000000E+00 0.  1.
         11    1    3    3    0    0 -0.25886068419E+01 -0.44991062806E+01  0.28025030372E+02  0.28501669606E+02  0.51100000000E-03 0. -1.
        -11    1    3    3    0    0  0.10605475012E+02  0.24144571325E+02 -0.66970185546E+01  0.27208206161E+02  0.51100000000E-03 0.  1.
        -12    1    3    3    0    0 -0.11546229317E+02 -0.11020164901E+02 -0.50852628746E+01  0.16751696761E+02  0.00000000000E+00 0.  1.
</event>
<event>
 7    1  0.1857734E-013  0.7246133E+02  0.7816164E-02  0.1226709E+00
        -11   -1    0    0    0    0  0.00000000000E+00  0.00000000000E+00  0.45593999997E+02  0.45594000000E+02  0.51100000000E-03 0. -1.
         11   -1    0    0    0    0 -0.00000000000E+00 -0.00000000000E+00 -0.45593999997E+02  0.45594000000E+02  0.51100000000E-03 0.  1.
    9900012    2    1    2    0    0 -0.14689754387E+02 -0.11434683293E+02  0.20364860485E+01  0.72461330745E+02  0.69999687942E+02 0.  0.
        -12    1    1    2    0    0  0.14689754387E+02  0.11434683293E+02 -0.20364860485E+01  0.18726669255E+02  0.00000000000E+00 0.  1.
         11    1    3    3    0    0 -0.24113934495E+02 -0.12521422438E+02  0.20463777769E+02  0.34015203329E+02  0.51100000000E-03 0. -1.
        -11    1    3    3    0    0  0.12097075748E+02  0.15062068031E+02 -0.12635999345E+02  0.23084055422E+02  0.51100000000E-03 0.  1.
         12    1    3    3    0    0 -0.26728956402E+01 -0.13975328885E+02 -0.57912923753E+01  0.15362071994E+02  0.00000000000E+00 0. -1.
</event>
<event>
 7    1  0.1857734E-013  0.7246159E+02  0.7816164E-02  0.1226708E+00
        -11   -1    0    0    0    0  0.00000000000E+00  0.00000000000E+00  0.45593999997E+02  0.45594000000E+02  0.51100000000E-03 0. -1.
         11   -1    0    0    0    0 -0.00000000000E+00 -0.00000000000E+00 -0.45593999997E+02  0.45594000000E+02  0.51100000000E-03 0.  1.
    9900012    2    1    2    0    0 -0.53526760329E+01 -0.17802692758E+02  0.22564100262E+01  0.72461590938E+02  0.70000026892E+02 0.  0.
        -12    1    1    2    0    0  0.53526760329E+01  0.17802692758E+02 -0.22564100262E+01  0.18726409062E+02  0.00000000000E+00 0.  1.
         11    1    3    3    0    0  0.17987887415E+02  0.38747539059E+01  0.19406990846E+02  0.26743393678E+02  0.51100000000E-03 0. -1.
        -11    1    3    3    0    0 -0.25879661223E+02 -0.12893844461E+02 -0.32717679344E+01  0.29098325651E+02  0.51100000000E-03 0.  1.
        -12    1    3    3    0    0  0.25390977752E+01 -0.87836022035E+01 -0.13878812885E+02  0.16619871608E+02  0.00000000000E+00 0.  1.
</event>
<event>
 7    1  0.1857734E-013  0.7246192E+02  0.7816164E-02  0.1226707E+00
        -11   -1    0    0    0    0  0.00000000000E+00  0.00000000000E+00  0.45593999997E+02  0.45594000000E+02  0.51100000000E-03 0. -1.
         11   -1    0    0    0    0 -0.00000000000E+00 -0.00000000000E+00 -0.45593999997E+02  0.45594000000E+02  0.51100000000E-03 0.  1.
    9900012    2    1    2    0    0  0.61167555093E+01  0.17487696259E+02  0.27261653893E+01  0.72461916690E+02  0.70000451243E+02 0.  0.
        -12    1    1    2    0    0 -0.61167555093E+01 -0.17487696259E+02 -0.27261653893E+01  0.18726083310E+02  0.00000000000E+00 0.  1.
         11    1    3    3    0    0 -0.15506736858E+02 -0.29316188416E+01  0.11145043968E+02  0.19320074594E+02  0.51100000000E-03 0. -1.
        -11    1    3    3    0    0  0.24632774407E+02  0.60541658230E+01  0.11946929785E+02  0.28038466975E+02  0.51100000000E-03 0.  1.
        -12    1    3    3    0    0 -0.30092820392E+01  0.14365149278E+02 -0.20365808363E+02  0.25103375121E+02  0.00000000000E+00 0.  1.
</event>
<event>
 7    1  0.1857734E-013  0.7246178E+02  0.7816164E-02  0.1226707E+00
        -11   -1    0    0    0    0  0.00000000000E+00  0.00000000000E+00  0.45593999997E+02  0.45594000000E+02  0.51100000000E-03 0.  1.
         11   -1    0    0    0    0 -0.00000000000E+00 -0.00000000000E+00 -0.45593999997E+02  0.45594000000E+02  0.51100000000E-03 0. -1.
    9900012    2    1    2    0    0  0.67061063033E+01 -0.10509219907E+02 -0.13973395237E+02  0.72461779366E+02  0.70000272354E+02 0.  0.
        -12    1    1    2    0    0 -0.67061063033E+01  0.10509219907E+02  0.13973395237E+02  0.18726220634E+02  0.00000000000E+00 0.  1.
         11    1    3    3    0    0  0.16266626763E+02  0.12954037895E+02  0.12851155708E+02  0.24445090455E+02  0.51100000000E-03 0. -1.
        -11    1    3    3    0    0 -0.13843112883E+02 -0.57677435734E+01  0.70299495140E+00  0.15013089035E+02  0.51100000000E-03 0.  1.
         12    1    3    3    0    0  0.42825924230E+01 -0.17695514229E+02 -0.27527545896E+02  0.33003599876E+02  0.00000000000E+00 0. -1.
</event>
<event>
 7    1  0.1857734E-013  0.7246156E+02  0.7816164E-02  0.1226708E+00
        -11   -1    0    0    0    0  0.00000000000E+00  0.00000000000E+00  0.45593999997E+02  0.45594000000E+02  0.51100000000E-03 0.  1.
         11   -1    0    0    0    0 -0.00000000000E+00 -0.00000000000E+00 -0.45593999997E+02  0.45594000000E+02  0.51100000000E-03 0. -1.
    9900012    2    1    2    0    0 -0.53511128342E+01  0.17944982346E+02 -0.15032155595E+00  0.72461564233E+02  0.69999992104E+02 0.  0.
        -12    1    1    2    0    0  0.53511128342E+01 -0.17944982346E+02  0.15032155595E+00  0.18726435767E+02  0.00000000000E+00 0.  1.
         11    1    3    3    0    0  0.56071794461E+01 -0.13106373611E+02 -0.24104620189E+02  0.28004467595E+02  0.51100000000E-03 0. -1.
        -11    1    3    3    0    0 -0.45570459519E+01 -0.74642712060E+00  0.53398911615E+01  0.70596217414E+01  0.51100000000E-03 0.  1.
         12    1    3    3    0    0 -0.64012463284E+01  0.31797783077E+02  0.18614407471E+02  0.37397474897E+02  0.00000000000E+00 0. -1.
</event>
<event>
 7    1  0.1857734E-013  0.7246159E+02  0.7816164E-02  0.1226708E+00
        -11   -1    0    0    0    0  0.00000000000E+00  0.00000000000E+00  0.45593999997E+02  0.45594000000E+02  0.51100000000E-03 0. -1.
         11   -1    0    0    0    0 -0.00000000000E+00 -0.00000000000E+00 -0.45593999997E+02  0.45594000000E+02  0.51100000000E-03 0.  1.
    9900012    2    1    2    0    0  0.11196585300E+02  0.14896514871E+02  0.18462397136E+01  0.72461594078E+02  0.70000030982E+02 0.  0.
        -12    1    1    2    0    0 -0.11196585300E+02 -0.14896514871E+02 -0.18462397136E+01  0.18726405922E+02  0.00000000000E+00 0.  1.
         11    1    3    3    0    0 -0.19218125991E+02 -0.69558127142E+01  0.17985292708E+01  0.20517173414E+02  0.51100000000E-03 0.  1.
        -11    1    3    3    0    0  0.21502640412E+02  0.14002458675E+02 -0.17281072509E+02  0.30936513394E+02  0.51100000000E-03 0. -1.
        -12    1    3    3    0    0  0.89120708789E+01  0.78498689099E+01  0.17328782952E+02  0.21007907269E+02  0.00000000000E+00 0.  1.
</event>
<event>
 7    1  0.1857734E-013  0.7246157E+02  0.7816164E-02  0.1226708E+00
        -11   -1    0    0    0    0  0.00000000000E+00  0.00000000000E+00  0.45593999997E+02  0.45594000000E+02  0.51100000000E-03 0. -1.
         11   -1    0    0    0    0 -0.00000000000E+00 -0.00000000000E+00 -0.45593999997E+02  0.45594000000E+02  0.51100000000E-03 0.  1.
    9900012    2    1    2    0    0 -0.22492928408E+01 -0.36501822223E+01  0.18228991130E+02  0.72461567715E+02  0.69999996639E+02 0.  0.
        -12    1    1    2    0    0  0.22492928408E+01  0.36501822223E+01 -0.18228991130E+02  0.18726432285E+02  0.00000000000E+00 0.  1.
         11    1    3    3    0    0 -0.25605091585E+02 -0.63906086515E+01  0.12249812109E+02  0.29094990823E+02  0.51100000000E-03 0. -1.
        -11    1    3    3    0    0  0.32710491981E+02  0.32102421293E+01  0.79033116650E+01  0.33804500821E+02  0.51100000000E-03 0.  1.
        -12    1    3    3    0    0 -0.93546932371E+01 -0.46981570011E+00 -0.19241326448E+01  0.95620760709E+01  0.00000000000E+00 0.  1.
</event>
<event>
 7    1  0.1857734E-013  0.7246160E+02  0.7816164E-02  0.1226708E+00
        -11   -1    0    0    0    0  0.00000000000E+00  0.00000000000E+00  0.45593999997E+02  0.45594000000E+02  0.51100000000E-03 0. -1.
         11   -1    0    0    0    0 -0.00000000000E+00 -0.00000000000E+00 -0.45593999997E+02  0.45594000000E+02  0.51100000000E-03 0.  1.
    9900012    2    1    2    0    0  0.66842887472E+00  0.21005856302E+01  0.18596207373E+02  0.72461596560E+02  0.70000034216E+02 0.  0.
        -12    1    1    2    0    0 -0.66842887472E+00 -0.21005856302E+01 -0.18596207373E+02  0.18726403440E+02  0.00000000000E+00 0.  1.
         11    1    3    3    0    0  0.19699125344E+02  0.10727158412E+02  0.16263099205E+02  0.27705881378E+02  0.51100000000E-03 0. -1.
        -11    1    3    3    0    0 -0.25038103751E+02 -0.36787046853E+01  0.15343677988E+02  0.29595066515E+02  0.51100000000E-03 0.  1.
         12    1    3    3    0    0  0.60074072812E+01 -0.49478680969E+01 -0.13010569820E+02  0.15160648666E+02  0.00000000000E+00 0. -1.
</event>
<event>
 7    1  0.1857734E-013  0.7246165E+02  0.7816164E-02  0.1226708E+00
        -11   -1    0    0    0    0  0.00000000000E+00  0.00000000000E+00  0.45593999997E+02  0.45594000000E+02  0.51100000000E-03 0.  1.
         11   -1    0    0    0    0 -0.00000000000E+00 -0.00000000000E+00 -0.45593999997E+02  0.45594000000E+02  0.51100000000E-03 0. -1.
    9900012    2    1    2    0    0 -0.30956630611E+01  0.16730627017E+02 -0.78217130032E+01  0.72461649462E+02  0.70000103130E+02 0.  0.
        -12    1    1    2    0    0  0.30956630611E+01 -0.16730627017E+02  0.78217130032E+01  0.18726350538E+02  0.00000000000E+00 0.  1.
         11    1    3    3    0    0  0.13392726097E+02  0.33532211569E+02 -0.11948095301E+02  0.38033292082E+02  0.51100000000E-03 0. -1.
        -11    1    3    3    0    0 -0.53201061508E+01 -0.21372910579E+02  0.14854175153E+01  0.22075128573E+02  0.51100000000E-03 0.  1.
        -12    1    3    3    0    0 -0.11168283007E+02  0.45713260263E+01  0.26409647827E+01  0.12353228807E+02  0.00000000000E+00 0.  1.
</event>
<event>
 7    1  0.1857734E-013  0.7246149E+02  0.7816164E-02  0.1226708E+00
        -11   -1    0    0    0    0  0.00000000000E+00  0.00000000000E+00  0.45593999997E+02  0.45594000000E+02  0.51100000000E-03 0.  1.
         11   -1    0    0    0    0 -0.00000000000E+00 -0.00000000000E+00 -0.45593999997E+02  0.45594000000E+02  0.51100000000E-03 0. -1.
    9900012    2    1    2    0    0  0.18054322943E+02  0.28918190270E+01 -0.40448709983E+01  0.72461490031E+02  0.69999895442E+02 0.  0.
        -12    1    1    2    0    0 -0.18054322943E+02 -0.28918190270E+01  0.40448709983E+01  0.18726509969E+02  0.00000000000E+00 0.  1.
         11    1    3    3    0    0 -0.11275177929E+02 -0.20523889164E+02  0.10053336700E+01  0.23438650981E+02  0.51100000000E-03 0. -1.
        -11    1    3    3    0    0  0.19503948530E+02  0.15446651662E+01  0.86678851378E+01  0.21399117546E+02  0.51100000000E-03 0.  1.
         12    1    3    3    0    0  0.98255523423E+01  0.21871043025E+02 -0.13718089806E+02  0.27623721504E+02  0.00000000000E+00 0. -1.
</event>
<event>
 7    1  0.1857734E-013  0.7246156E+02  0.7816164E-02  0.1226708E+00
        -11   -1    0    0    0    0  0.00000000000E+00  0.00000000000E+00  0.45593999997E+02  0.45594000000E+02  0.51100000000E-03 0.  1.
         11   -1    0    0    0    0 -0.00000000000E+00 -0.00000000000E+00 -0.45593999997E+02  0.45594000000E+02  0.51100000000E-03 0. -1.
    9900012    2    1    2    0    0 -0.95417219916E+01  0.11438784592E+02 -0.11348534591E+02  0.72461561768E+02  0.69999988892E+02 0.  0.
        -12    1    1    2    0    0  0.95417219916E+01 -0.11438784592E+02  0.11348534591E+02  0.18726438232E+02  0.00000000000E+00 0.  1.
         11    1    3    3    0    0 -0.85379030091E+01 -0.47424211923E+01  0.19771703912E+02  0.22052360926E+02  0.51100000000E-03 0. -1.
        -11    1    3    3    0    0  0.15621880871E+02 -0.11158618814E-01 -0.17669967761E+02  0.23585399030E+02  0.51100000000E-03 0.  1.
         12    1    3    3    0    0 -0.16625699854E+02  0.16192364403E+02 -0.13450270742E+02  0.26823801812E+02  0.00000000000E+00 0. -1.
</event>
<event>
 7    1  0.1857734E-013  0.7246155E+02  0.7816164E-02  0.1226708E+00
        -11   -1    0    0    0    0  0.00000000000E+00  0.00000000000E+00  0.45593999997E+02  0.45594000000E+02  0.51100000000E-03 0. -1.
         11   -1    0    0    0    0 -0.00000000000E+00 -0.00000000000E+00 -0.45593999997E+02  0.45594000000E+02  0.51100000000E-03 0.  1.
    9900012    2    1    2    0    0 -0.83223042449E+01  0.72837687985E+01  0.15111779357E+02  0.72461550491E+02  0.69999974203E+02 0.  0.
        -12    1    1    2    0    0  0.83223042449E+01 -0.72837687985E+01 -0.15111779357E+02  0.18726449509E+02  0.00000000000E+00 0.  1.
         11    1    3    3    0    0 -0.28834131412E+02  0.37755104186E+01  0.26426249877E+02  0.39293870973E+02  0.51100000000E-03 0. -1.
        -11    1    3    3    0    0  0.24091808167E+02  0.69045373018E+00 -0.38278340336E+01  0.24403775543E+02  0.51100000000E-03 0.  1.
        -12    1    3    3    0    0 -0.35799809995E+01  0.28178046497E+01 -0.74866364864E+01  0.87639039748E+01  0.00000000000E+00 0.  1.
</event>
<event>
 7    1  0.1857734E-013  0.7246161E+02  0.7816164E-02  0.1226708E+00
        -11   -1    0    0    0    0  0.00000000000E+00  0.00000000000E+00  0.45593999997E+02  0.45594000000E+02  0.51100000000E-03 0. -1.
         11   -1    0    0    0    0 -0.00000000000E+00 -0.00000000000E+00 -0.45593999997E+02  0.45594000000E+02  0.51100000000E-03 0.  1.
    9900012    2    1    2    0    0  0.12673129080E+01  0.80470537346E+01  0.16861692556E+02  0.72461606016E+02  0.70000046534E+02 0.  0.
        -12    1    1    2    0    0 -0.12673129080E+01 -0.80470537346E+01 -0.16861692556E+02  0.18726393984E+02  0.00000000000E+00 0.  1.
         11    1    3    3    0    0 -0.83384656783E+01  0.15113056092E+02  0.21850041902E+02  0.27845265409E+02  0.51100000000E-03 0. -1.
        -11    1    3    3    0    0  0.17797120659E+02 -0.15194316565E+02 -0.16251802883E+02  0.28490803022E+02  0.51100000000E-03 0.  1.
        -12    1    3    3    0    0 -0.81913420724E+01  0.81283142081E+01  0.11263453537E+02  0.16125537585E+02  0.00000000000E+00 0.  1.
</event>
<event>
 7    1  0.1857734E-013  0.7246158E+02  0.7816164E-02  0.1226708E+00
        -11   -1    0    0    0    0  0.00000000000E+00  0.00000000000E+00  0.45593999997E+02  0.45594000000E+02  0.51100000000E-03 0.  1.
         11   -1    0    0    0    0 -0.00000000000E+00 -0.00000000000E+00 -0.45593999997E+02  0.45594000000E+02  0.51100000000E-03 0. -1.
    9900012    2    1    2    0    0 -0.29221343029E+01 -0.16707017510E+02 -0.79382288021E+01  0.72461580709E+02  0.70000013567E+02 0.  0.
        -12    1    1    2    0    0  0.29221343029E+01  0.16707017510E+02  0.79382288021E+01  0.18726419291E+02  0.00000000000E+00 0.  1.
         11    1    3    3    0    0 -0.68222635289E+00  0.45636935941E+00 -0.18586072108E+02  0.18604187229E+02  0.51100000000E-03 0. -1.
        -11    1    3    3    0    0 -0.39786871666E+01 -0.33280054151E+02 -0.15772220695E+01  0.33554129188E+02  0.51100000000E-03 0.  1.
        -12    1    3    3    0    0  0.17387792165E+01  0.16116667282E+02  0.12225065376E+02  0.20303264291E+02  0.00000000000E+00 0.  1.
</event>
<event>
 7    1  0.1857734E-013  0.7246160E+02  0.7816164E-02  0.1226708E+00
        -11   -1    0    0    0    0  0.00000000000E+00  0.00000000000E+00  0.45593999997E+02  0.45594000000E+02  0.51100000000E-03 0. -1.
         11   -1    0    0    0    0 -0.00000000000E+00 -0.00000000000E+00 -0.45593999997E+02  0.45594000000E+02  0.51100000000E-03 0.  1.
    9900012    2    1    2    0    0  0.16312886043E+02  0.44032646685E+01  0.80733480908E+01  0.72461603118E+02  0.70000042758E+02 0.  0.
        -12    1    1    2    0    0 -0.16312886043E+02 -0.44032646685E+01 -0.80733480908E+01  0.18726396882E+02  0.00000000000E+00 0.  1.
         11    1    3    3    0    0  0.15093638199E+01 -0.19994219123E+02  0.32823928189E+01  0.20317998926E+02  0.51100000000E-03 0. -1.
        -11    1    3    3    0    0  0.26964903971E+02  0.10724757843E+02  0.13349073242E+02  0.31942514516E+02  0.51100000000E-03 0.  1.
        -12    1    3    3    0    0 -0.12161381747E+02  0.13672725949E+02 -0.85581179703E+01  0.20201089675E+02  0.00000000000E+00 0.  1.
</event>
<event>
 7    1  0.1857734E-013  0.7246159E+02  0.7816164E-02  0.1226708E+00
        -11   -1    0    0    0    0  0.00000000000E+00  0.00000000000E+00  0.45593999997E+02  0.45594000000E+02  0.51100000000E-03 0.  1.
         11   -1    0    0    0    0 -0.00000000000E+00 -0.00000000000E+00 -0.45593999997E+02  0.45594000000E+02  0.51100000000E-03 0. -1.
    9900012    2    1    2    0    0 -0.18038438925E+02 -0.48752685350E+01 -0.12349071343E+01  0.72461587697E+02  0.70000022670E+02 0.  0.
        -12    1    1    2    0    0  0.18038438925E+02  0.48752685350E+01  0.12349071343E+01  0.18726412303E+02  0.00000000000E+00 0.  1.
         11    1    3    3    0    0 -0.11193568915E+02 -0.99013203643E+01 -0.20160131725E+02  0.25095080024E+02  0.51100000000E-03 0. -1.
        -11    1    3    3    0    0  0.11206723915E+02  0.16174901003E+02  0.11907224960E+01  0.19713850555E+02  0.51100000000E-03 0.  1.
        -12    1    3    3    0    0 -0.18051593925E+02 -0.11148849173E+02  0.17734502094E+02  0.27652657118E+02  0.00000000000E+00 0.  1.
</event>
<event>
 7    1  0.1857734E-013  0.7246158E+02  0.7816164E-02  0.1226708E+00
        -11   -1    0    0    0    0  0.00000000000E+00  0.00000000000E+00  0.45593999997E+02  0.45594000000E+02  0.51100000000E-03 0. -1.
         11   -1    0    0    0    0 -0.00000000000E+00 -0.00000000000E+00 -0.45593999997E+02  0.45594000000E+02  0.51100000000E-03 0.  1.
    9900012    2    1    2    0    0  0.80210249104E+00  0.11780913279E+02  0.14534285618E+02  0.72461581642E+02  0.70000014782E+02 0.  0.
        -12    1    1    2    0    0 -0.80210249104E+00 -0.11780913279E+02 -0.14534285618E+02  0.18726418358E+02  0.00000000000E+00 0.  1.
         11    1    3    3    0    0 -0.10359363200E+02  0.27757208762E+02  0.31822132371E+02  0.43479042688E+02  0.51100000000E-03 0. -1.
        -11    1    3    3    0    0  0.64805900929E+01 -0.10743008139E+01 -0.94435717473E+01  0.11503617596E+02  0.51100000000E-03 0.  1.
         12    1    3    3    0    0  0.46808755976E+01 -0.14901994669E+02 -0.78442750055E+01  0.17478921358E+02  0.00000000000E+00 0. -1.
</event>
