<event>
 7    1  0.1788006E-013  0.7246160E+02  0.7816164E-02  0.1226708E+00
        -11   -1    0    0    0    0  0.00000000000E+00  0.00000000000E+00  0.45593999997E+02  0.45594000000E+02  0.51100000000E-03 0.  1.
         11   -1    0    0    0    0 -0.00000000000E+00 -0.00000000000E+00 -0.45593999997E+02  0.45594000000E+02  0.51100000000E-03 0. -1.
    9900012    2    1    2    0    0  0.93167804181E+01 -0.82236772583E+01 -0.14008816604E+02  0.72461595976E+02  0.70000033455E+02 0.  0.
        -12    1    1    2    0    0 -0.93167804181E+01  0.82236772583E+01  0.14008816604E+02  0.18726404024E+02  0.00000000000E+00 0.  1.
         11    1    3    3    0    0  0.61712550114E+01  0.27415539672E+01  0.15283882099E+02  0.16709205812E+02  0.51100000000E-03 0. -1.
        -11    1    3    3    0    0 -0.52412552786E+01 -0.45520522913E+01  0.11600098349E+02  0.13518661876E+02  0.51100000000E-03 0.  1.
        -12    1    3    3    0    0  0.83867806853E+01 -0.64131789342E+01 -0.40892797053E+02  0.42233728288E+02  0.00000000000E+00 0.  1.
</event>
<event>
 7    1  0.1788006E-013  0.7246163E+02  0.7816164E-02  0.1226708E+00
        -11   -1    0    0    0    0  0.00000000000E+00  0.00000000000E+00  0.45593999997E+02  0.45594000000E+02  0.51100000000E-03 0. -1.
         11   -1    0    0    0    0 -0.00000000000E+00 -0.00000000000E+00 -0.45593999997E+02  0.45594000000E+02  0.51100000000E-03 0.  1.
    9900012    2    1    2    0    0 -0.11055209714E+02 -0.96235026618E+01  0.11655363035E+02  0.72461629482E+02  0.70000077103E+02 0.  0.
        -12    1    1    2    0    0  0.11055209714E+02  0.96235026618E+01 -0.11655363035E+02  0.18726370518E+02  0.00000000000E+00 0.  1.
         11    1    3    3    0    0  0.36507709332E+01 -0.14842563584E+01  0.68327330623E+00  0.39997509943E+01  0.51100000000E-03 0. -1.
        -11    1    3    3    0    0 -0.33644433305E+01 -0.32952261458E+02 -0.93785047319E+01  0.34425678866E+02  0.51100000000E-03 0.  1.
         12    1    3    3    0    0 -0.11341537317E+02  0.24813015155E+02  0.20350594461E+02  0.34036199622E+02  0.00000000000E+00 0. -1.
</event>
<event>
 7    1  0.1788006E-013  0.7246161E+02  0.7816164E-02  0.1226708E+00
        -11   -1    0    0    0    0  0.00000000000E+00  0.00000000000E+00  0.45593999997E+02  0.45594000000E+02  0.51100000000E-03 0.  1.
         11   -1    0    0    0    0 -0.00000000000E+00 -0.00000000000E+00 -0.45593999997E+02  0.45594000000E+02  0.51100000000E-03 0. -1.
    9900012    2    1    2    0    0  0.17305429980E+02 -0.63808373069E+01 -0.32379988569E+01  0.72461611450E+02  0.70000053613E+02 0.  0.
        -12    1    1    2    0    0 -0.17305429980E+02  0.63808373069E+01  0.32379988569E+01  0.18726388550E+02  0.00000000000E+00 0.  1.
         11    1    3    3    0    0 -0.32722621926E+01 -0.14193089407E+02 -0.75898675743E+01  0.16424298366E+02  0.51100000000E-03 0. -1.
        -11    1    3    3    0    0 -0.36353796304E+01  0.69980696017E+01 -0.20114814977E+02  0.21605433229E+02  0.51100000000E-03 0.  1.
         12    1    3    3    0    0  0.24213071803E+02  0.81418249849E+00  0.24466683694E+02  0.34431879854E+02  0.00000000000E+00 0. -1.
</event>
<event>
 7    1  0.1788006E-013  0.7246157E+02  0.7816164E-02  0.1226708E+00
        -11   -1    0    0    0    0  0.00000000000E+00  0.00000000000E+00  0.45593999997E+02  0.45594000000E+02  0.51100000000E-03 0. -1.
         11   -1    0    0    0    0 -0.00000000000E+00 -0.00000000000E+00 -0.45593999997E+02  0.45594000000E+02  0.51100000000E-03 0.  1.
    9900012    2    1    2    0    0  0.87120187266E+01  0.73748890848E+01  0.14845568420E+02  0.72461570521E+02  0.70000000296E+02 0.  0.
        -12    1    1    2    0    0 -0.87120187266E+01 -0.73748890848E+01 -0.14845568420E+02  0.18726429479E+02  0.00000000000E+00 0.  1.
         11    1    3    3    0    0  0.77334182827E+01  0.24506746609E+02  0.31011745939E+02  0.40275486020E+02  0.51100000000E-03 0. -1.
        -11    1    3    3    0    0  0.25458545382E+01  0.26958395486E+01 -0.11040745338E+02  0.11646758523E+02  0.51100000000E-03 0.  1.
        -12    1    3    3    0    0 -0.15672540943E+01 -0.19827697073E+02 -0.51254321802E+01  0.20539325979E+02  0.00000000000E+00 0.  1.
</event>
<event>
 7    1  0.1788006E-013  0.7246157E+02  0.7816164E-02  0.1226708E+00
        -11   -1    0    0    0    0  0.00000000000E+00  0.00000000000E+00  0.45593999997E+02  0.45594000000E+02  0.51100000000E-03 0.  1.
         11   -1    0    0    0    0 -0.00000000000E+00 -0.00000000000E+00 -0.45593999997E+02  0.45594000000E+02  0.51100000000E-03 0. -1.
    9900012    2    1    2    0    0  0.57362112787E+01 -0.64058010697E+01 -0.16635524940E+02  0.72461572225E+02  0.70000002515E+02 0.  0.
        -12    1    1    2    0    0 -0.57362112787E+01  0.64058010697E+01  0.16635524940E+02  0.18726427775E+02  0.00000000000E+00 0.  1.
         11    1    3    3    0    0 -0.47326221409E+01  0.14072813671E+02 -0.13253870175E+02  0.19902433817E+02  0.51100000000E-03 0. -1.
        -11    1    3    3    0    0 -0.13519455283E+02  0.43433773733E+01 -0.10056764897E+02  0.17400549377E+02  0.51100000000E-03 0.  1.
         12    1    3    3    0    0  0.23988288703E+02 -0.24821992114E+02  0.66751101322E+01  0.35158589031E+02  0.00000000000E+00 0. -1.
</event>
<event>
 7    1  0.1788006E-013  0.7246153E+02  0.7816164E-02  0.1226708E+00
        -11   -1    0    0    0    0  0.00000000000E+00  0.00000000000E+00  0.45593999997E+02  0.45594000000E+02  0.51100000000E-03 0.  1.
         11   -1    0    0    0    0 -0.00000000000E+00 -0.00000000000E+00 -0.45593999997E+02  0.45594000000E+02  0.51100000000E-03 0. -1.
    9900012    2    1    2    0    0 -0.83742313690E+01  0.10952386297E+02  0.12672735134E+02  0.72461528565E+02  0.69999945640E+02 0.  0.
        -12    1    1    2    0    0  0.83742313690E+01 -0.10952386297E+02 -0.12672735134E+02  0.18726471435E+02  0.00000000000E+00 0.  1.
         11    1    3    3    0    0 -0.12270812912E+02 -0.11023993133E+02  0.88111903186E+01  0.18701292715E+02  0.51100000000E-03 0. -1.
        -11    1    3    3    0    0 -0.10080430880E+02  0.28708343733E+02  0.15706573548E+02  0.34241503173E+02  0.51100000000E-03 0.  1.
         12    1    3    3    0    0  0.13977012423E+02 -0.67319643028E+01 -0.11845028733E+02  0.19518732677E+02  0.00000000000E+00 0. -1.
</event>
<event>
 7    1  0.1788006E-013  0.7246157E+02  0.7816164E-02  0.1226708E+00
        -11   -1    0    0    0    0  0.00000000000E+00  0.00000000000E+00  0.45593999997E+02  0.45594000000E+02  0.51100000000E-03 0.  1.
         11   -1    0    0    0    0 -0.00000000000E+00 -0.00000000000E+00 -0.45593999997E+02  0.45594000000E+02  0.51100000000E-03 0. -1.
    9900012    2    1    2    0    0 -0.14972098544E+02  0.33094265200E+01  0.10750038286E+02  0.72461565159E+02  0.69999993310E+02 0.  0.
        -12    1    1    2    0    0  0.14972098544E+02 -0.33094265200E+01 -0.10750038286E+02  0.18726434841E+02  0.00000000000E+00 0.  1.
         11    1    3    3    0    0 -0.81926781365E+01 -0.98537000224E+01 -0.47597597896E+01  0.13670065570E+02  0.51100000000E-03 0. -1.
        -11    1    3    3    0    0  0.79205439291E+01 -0.17771488010E+02 -0.32723480907E+01  0.19729902800E+02  0.51100000000E-03 0.  1.
        -12    1    3    3    0    0 -0.14699964337E+02  0.30934614552E+02  0.18782146166E+02  0.39061596788E+02  0.00000000000E+00 0.  1.
</event>
<event>
 7    1  0.1788006E-013  0.7246165E+02  0.7816164E-02  0.1226708E+00
        -11   -1    0    0    0    0  0.00000000000E+00  0.00000000000E+00  0.45593999997E+02  0.45594000000E+02  0.51100000000E-03 0.  1.
         11   -1    0    0    0    0 -0.00000000000E+00 -0.00000000000E+00 -0.45593999997E+02  0.45594000000E+02  0.51100000000E-03 0. -1.
    9900012    2    1    2    0    0 -0.17219616451E+02  0.73417876749E+01  0.50895252396E+00  0.72461653061E+02  0.70000107819E+02 0.  0.
        -12    1    1    2    0    0  0.17219616451E+02 -0.73417876749E+01 -0.50895252396E+00  0.18726346939E+02  0.00000000000E+00 0.  1.
         11    1    3    3    0    0  0.13301837972E+02  0.20099784356E+02 -0.13310037100E+02  0.27533567013E+02  0.51100000000E-03 0. -1.
        -11    1    3    3    0    0 -0.73349668528E+01 -0.12428084896E+02 -0.47796916556E+01  0.15202121085E+02  0.51100000000E-03 0.  1.
        -12    1    3    3    0    0 -0.23186487571E+02 -0.32991178539E+00  0.18598681279E+02  0.29725964963E+02  0.00000000000E+00 0.  1.
</event>
<event>
 7    1  0.1788006E-013  0.7246159E+02  0.7816164E-02  0.1226708E+00
        -11   -1    0    0    0    0  0.00000000000E+00  0.00000000000E+00  0.45593999997E+02  0.45594000000E+02  0.51100000000E-03 0. -1.
         11   -1    0    0    0    0 -0.00000000000E+00 -0.00000000000E+00 -0.45593999997E+02  0.45594000000E+02  0.51100000000E-03 0.  1.
    9900012    2    1    2    0    0  0.12628546167E+02 -0.30704866636E+01  0.13482224580E+02  0.72461589605E+02  0.70000025156E+02 0.  0.
        -12    1    1    2    0    0 -0.12628546167E+02  0.30704866636E+01 -0.13482224580E+02  0.18726410395E+02  0.00000000000E+00 0.  1.
         11    1    3    3    0    0  0.10319560088E+01 -0.22442448941E+01 -0.15442607987E+01  0.29131271899E+01  0.51100000000E-03 0. -1.
        -11    1    3    3    0    0 -0.14699678399E+02  0.25801404764E+02  0.14228539460E+01  0.29729069048E+02  0.51100000000E-03 0.  1.
         12    1    3    3    0    0  0.26296268557E+02 -0.26627646534E+02  0.13603631433E+02  0.39819393367E+02  0.00000000000E+00 0. -1.
</event>
<event>
 7    1  0.1788006E-013  0.7246124E+02  0.7816164E-02  0.1226709E+00
        -11   -1    0    0    0    0  0.00000000000E+00  0.00000000000E+00  0.45593999997E+02  0.45594000000E+02  0.51100000000E-03 0.  1.
         11   -1    0    0    0    0 -0.00000000000E+00 -0.00000000000E+00 -0.45593999997E+02  0.45594000000E+02  0.51100000000E-03 0. -1.
    9900012    2    1    2    0    0 -0.50924236737E+01 -0.14146330885E+02 -0.11164240639E+02  0.72461235051E+02  0.69999563283E+02 0.  0.
        -12    1    1    2    0    0  0.50924236737E+01  0.14146330885E+02  0.11164240639E+02  0.18726764949E+02  0.00000000000E+00 0.  1.
         11    1    3    3    0    0  0.77186532434E+01 -0.86745459420E+01 -0.25065422681E+02  0.27624278627E+02  0.51100000000E-03 0. -1.
        -11    1    3    3    0    0  0.11068192832E+02 -0.11854147829E+02 -0.50822814198E+00  0.16226028764E+02  0.51100000000E-03 0.  1.
        -12    1    3    3    0    0 -0.23879269749E+02  0.63823628858E+01  0.14409410184E+02  0.28610927661E+02  0.00000000000E+00 0.  1.
</event>
<event>
 7    1  0.1788006E-013  0.7246152E+02  0.7816164E-02  0.1226708E+00
        -11   -1    0    0    0    0  0.00000000000E+00  0.00000000000E+00  0.45593999997E+02  0.45594000000E+02  0.51100000000E-03 0.  1.
         11   -1    0    0    0    0 -0.00000000000E+00 -0.00000000000E+00 -0.45593999997E+02  0.45594000000E+02  0.51100000000E-03 0. -1.
    9900012    2    1    2    0    0  0.10088404675E+02 -0.13107718003E+02 -0.87802466454E+01  0.72461523789E+02  0.69999939418E+02 0.  0.
        -12    1    1    2    0    0 -0.10088404675E+02  0.13107718003E+02  0.87802466454E+01  0.18726476211E+02  0.00000000000E+00 0.  1.
         11    1    3    3    0    0  0.23459242860E+01  0.37403053767E+01  0.35420595226E+01  0.56603384165E+01  0.51100000000E-03 0. -1.
        -11    1    3    3    0    0  0.20457986108E+02  0.18806874381E+02 -0.58334230542E+01  0.28394656969E+02  0.51100000000E-03 0.  1.
         12    1    3    3    0    0 -0.12715505719E+02 -0.35654897760E+02 -0.64888831137E+01  0.38406528404E+02  0.00000000000E+00 0. -1.
</event>
<event>
 7    1  0.1788006E-013  0.7246164E+02  0.7816164E-02  0.1226708E+00
        -11   -1    0    0    0    0  0.00000000000E+00  0.00000000000E+00  0.45593999997E+02  0.45594000000E+02  0.51100000000E-03 0.  1.
         11   -1    0    0    0    0 -0.00000000000E+00 -0.00000000000E+00 -0.45593999997E+02  0.45594000000E+02  0.51100000000E-03 0. -1.
    9900012    2    1    2    0    0 -0.78719268778E+01 -0.13101156666E+00 -0.16990948095E+02  0.72461635859E+02  0.70000085410E+02 0.  0.
        -12    1    1    2    0    0  0.78719268778E+01  0.13101156666E+00  0.16990948095E+02  0.18726364141E+02  0.00000000000E+00 0.  1.
         11    1    3    3    0    0 -0.80651571726E+01  0.51850319979E+01  0.12379353791E+02  0.15658215658E+02  0.51100000000E-03 0. -1.
        -11    1    3    3    0    0 -0.15016239881E+02  0.14789949112E+02 -0.48345341995E+01  0.21624124863E+02  0.51100000000E-03 0.  1.
         12    1    3    3    0    0  0.15209470176E+02 -0.20105992676E+02 -0.24535767686E+02  0.35179295338E+02  0.00000000000E+00 0. -1.
</event>
<event>
 7    1  0.1788006E-013  0.7246163E+02  0.7816164E-02  0.1226708E+00
        -11   -1    0    0    0    0  0.00000000000E+00  0.00000000000E+00  0.45593999997E+02  0.45594000000E+02  0.51100000000E-03 0. -1.
         11   -1    0    0    0    0 -0.00000000000E+00 -0.00000000000E+00 -0.45593999997E+02  0.45594000000E+02  0.51100000000E-03 0.  1.
    9900012    2    1    2    0    0 -0.14202992509E+02  0.84717089696E+01  0.87853298219E+01  0.72461631714E+02  0.70000080011E+02 0.  0.
        -12    1    1    2    0    0  0.14202992509E+02 -0.84717089696E+01 -0.87853298219E+01  0.18726368286E+02  0.00000000000E+00 0.  1.
         11    1    3    3    0    0  0.97934228518E+01  0.79296746704E+01 -0.18643786830E+02  0.22502925569E+02  0.51100000000E-03 0.  1.
        -11    1    3    3    0    0 -0.37612244544E-01  0.47286276622E+01  0.25082007765E+02  0.25523879957E+02  0.51100000000E-03 0. -1.
        -12    1    3    3    0    0 -0.23958803117E+02 -0.41865933631E+01  0.23471088864E+01  0.24434826189E+02  0.00000000000E+00 0.  1.
</event>
<event>
 7    1  0.1788006E-013  0.7246159E+02  0.7816164E-02  0.1226708E+00
        -11   -1    0    0    0    0  0.00000000000E+00  0.00000000000E+00  0.45593999997E+02  0.45594000000E+02  0.51100000000E-03 0.  1.
         11   -1    0    0    0    0 -0.00000000000E+00 -0.00000000000E+00 -0.45593999997E+02  0.45594000000E+02  0.51100000000E-03 0. -1.
    9900012    2    1    2    0    0 -0.13194200926E+02  0.12453006144E+02 -0.46383526148E+01  0.72461585098E+02  0.70000019285E+02 0.  0.
        -12    1    1    2    0    0  0.13194200926E+02 -0.12453006144E+02  0.46383526148E+01  0.18726414902E+02  0.00000000000E+00 0.  1.
         11    1    3    3    0    0 -0.16953945763E+01  0.13840390985E+02 -0.10694070606E+02  0.17572533448E+02  0.51100000000E-03 0. -1.
        -11    1    3    3    0    0  0.10561661468E+02 -0.18479702773E+02 -0.90809577283E+01  0.23141130073E+02  0.51100000000E-03 0.  1.
         12    1    3    3    0    0 -0.22060467818E+02  0.17092317932E+02  0.15136675720E+02  0.31747921577E+02  0.00000000000E+00 0. -1.
</event>
<event>
 7    1  0.1788006E-013  0.7246157E+02  0.7816164E-02  0.1226708E+00
        -11   -1    0    0    0    0  0.00000000000E+00  0.00000000000E+00  0.45593999997E+02  0.45594000000E+02  0.51100000000E-03 0. -1.
         11   -1    0    0    0    0 -0.00000000000E+00 -0.00000000000E+00 -0.45593999997E+02  0.45594000000E+02  0.51100000000E-03 0.  1.
    9900012    2    1    2    0    0 -0.29271864923E+01 -0.16475455834E+02  0.84065579987E+01  0.72461567262E+02  0.69999996050E+02 0.  0.
        -12    1    1    2    0    0  0.29271864923E+01  0.16475455834E+02 -0.84065579987E+01  0.18726432738E+02  0.00000000000E+00 0.  1.
         11    1    3    3    0    0 -0.12686093283E+01 -0.15430318806E+02  0.96835914721E+01  0.18261326681E+02  0.51100000000E-03 0. -1.
        -11    1    3    3    0    0  0.25848716263E+02  0.32044944935E+01 -0.34872559302E+01  0.26279000582E+02  0.51100000000E-03 0.  1.
        -12    1    3    3    0    0 -0.27507293427E+02 -0.42496315212E+01  0.22102224568E+01  0.27921239999E+02  0.00000000000E+00 0.  1.
</event>
<event>
 7    1  0.1788006E-013  0.7246155E+02  0.7816164E-02  0.1226708E+00
        -11   -1    0    0    0    0  0.00000000000E+00  0.00000000000E+00  0.45593999997E+02  0.45594000000E+02  0.51100000000E-03 0. -1.
         11   -1    0    0    0    0 -0.00000000000E+00 -0.00000000000E+00 -0.45593999997E+02  0.45594000000E+02  0.51100000000E-03 0.  1.
    9900012    2    1    2    0    0  0.68771932803E+00  0.17141508464E+02  0.75083626900E+01  0.72461553979E+02  0.69999978746E+02 0.  0.
        -12    1    1    2    0    0 -0.68771932803E+00 -0.17141508464E+02 -0.75083626900E+01  0.18726446021E+02  0.00000000000E+00 0.  1.
         11    1    3    3    0    0  0.88286645176E+01  0.29329947192E+02 -0.22463491727E+01  0.30712167041E+02  0.51100000000E-03 0. -1.
        -11    1    3    3    0    0  0.12117537292E+02  0.35184217752E+01  0.10022012269E+02  0.16113805633E+02  0.51100000000E-03 0.  1.
         12    1    3    3    0    0 -0.20258482482E+02 -0.15706860503E+02 -0.26730040607E+00  0.25635581305E+02  0.00000000000E+00 0. -1.
</event>
<event>
 7    1  0.1788006E-013  0.7246147E+02  0.7816164E-02  0.1226708E+00
        -11   -1    0    0    0    0  0.00000000000E+00  0.00000000000E+00  0.45593999997E+02  0.45594000000E+02  0.51100000000E-03 0.  1.
         11   -1    0    0    0    0 -0.00000000000E+00 -0.00000000000E+00 -0.45593999997E+02  0.45594000000E+02  0.51100000000E-03 0. -1.
    9900012    2    1    2    0    0  0.68321693580E+01  0.11324091106E+02 -0.13257800571E+02  0.72461471931E+02  0.69999871864E+02 0.  0.
        -12    1    1    2    0    0 -0.68321693580E+01 -0.11324091106E+02  0.13257800571E+02  0.18726528069E+02  0.00000000000E+00 0.  1.
         11    1    3    3    0    0  0.36747930597E+01  0.13445157186E+02  0.42145726071E+01  0.14561558237E+02  0.51100000000E-03 0. -1.
        -11    1    3    3    0    0  0.43046580680E+01 -0.22887262832E+02  0.83529438585E+01  0.24741231828E+02  0.51100000000E-03 0.  1.
         12    1    3    3    0    0 -0.11472817696E+01  0.20766196752E+02 -0.25825317037E+02  0.33158681866E+02  0.00000000000E+00 0. -1.
</event>
<event>
 7    1  0.1788006E-013  0.7246159E+02  0.7816164E-02  0.1226708E+00
        -11   -1    0    0    0    0  0.00000000000E+00  0.00000000000E+00  0.45593999997E+02  0.45594000000E+02  0.51100000000E-03 0.  1.
         11   -1    0    0    0    0 -0.00000000000E+00 -0.00000000000E+00 -0.45593999997E+02  0.45594000000E+02  0.51100000000E-03 0. -1.
    9900012    2    1    2    0    0  0.13986257959E+02 -0.42411813660E+01 -0.11707927075E+02  0.72461585835E+02  0.70000020244E+02 0.  0.
        -12    1    1    2    0    0 -0.13986257959E+02  0.42411813660E+01  0.11707927075E+02  0.18726414165E+02  0.00000000000E+00 0.  1.
         11    1    3    3    0    0 -0.82638670985E+01 -0.42886957775E+01 -0.34580844256E+02  0.35812277233E+02  0.51100000000E-03 0. -1.
        -11    1    3    3    0    0  0.22284756959E+00 -0.21327293441E+01 -0.22893118178E+01  0.31367410404E+01  0.51100000000E-03 0.  1.
        -12    1    3    3    0    0  0.22027277488E+02  0.21802437556E+01  0.25162228999E+02  0.33512567561E+02  0.00000000000E+00 0.  1.
</event>
<event>
 7    1  0.1788006E-013  0.7246132E+02  0.7816164E-02  0.1226709E+00
        -11   -1    0    0    0    0  0.00000000000E+00  0.00000000000E+00  0.45593999997E+02  0.45594000000E+02  0.51100000000E-03 0. -1.
         11   -1    0    0    0    0 -0.00000000000E+00 -0.00000000000E+00 -0.45593999997E+02  0.45594000000E+02  0.51100000000E-03 0.  1.
    9900012    2    1    2    0    0  0.10745729368E+02  0.10863694737E+02  0.10825796475E+02  0.72461322977E+02  0.69999677823E+02 0.  0.
        -12    1    1    2    0    0 -0.10745729368E+02 -0.10863694737E+02 -0.10825796475E+02  0.18726677023E+02  0.00000000000E+00 0.  1.
         11    1    3    3    0    0 -0.94023962771E+01  0.10071416029E+02  0.52432969376E+01  0.14742138231E+02  0.51100000000E-03 0. -1.
        -11    1    3    3    0    0 -0.12469453387E+02  0.14544354852E+02  0.10715224479E+02  0.21950889771E+02  0.51100000000E-03 0.  1.
         12    1    3    3    0    0  0.32617579031E+02 -0.13752076145E+02 -0.51327249412E+01  0.35768294976E+02  0.00000000000E+00 0. -1.
</event>
<event>
 7    1  0.1788006E-013  0.7246144E+02  0.7816164E-02  0.1226708E+00
        -11   -1    0    0    0    0  0.00000000000E+00  0.00000000000E+00  0.45593999997E+02  0.45594000000E+02  0.51100000000E-03 0. -1.
         11   -1    0    0    0    0 -0.00000000000E+00 -0.00000000000E+00 -0.45593999997E+02  0.45594000000E+02  0.51100000000E-03 0.  1.
    9900012    2    1    2    0    0  0.15334967416E+02 -0.30794456467E+01 -0.10297568332E+02  0.72461437990E+02  0.69999827649E+02 0.  0.
        -12    1    1    2    0    0 -0.15334967416E+02  0.30794456467E+01  0.10297568332E+02  0.18726562010E+02  0.00000000000E+00 0.  1.
         11    1    3    3    0    0  0.15655148480E+02  0.62481305933E+01 -0.11983397850E+02  0.20681504639E+02  0.51100000000E-03 0. -1.
        -11    1    3    3    0    0 -0.11439173818E+02 -0.94689403573E+01 -0.21462686437E+02  0.26099088844E+02  0.51100000000E-03 0.  1.
         12    1    3    3    0    0  0.11118992754E+02  0.14136411726E+00  0.23148515955E+02  0.25680844507E+02  0.00000000000E+00 0. -1.
</event>
<event>
 7    1  0.1788006E-013  0.7246157E+02  0.7816164E-02  0.1226708E+00
        -11   -1    0    0    0    0  0.00000000000E+00  0.00000000000E+00  0.45593999997E+02  0.45594000000E+02  0.51100000000E-03 0. -1.
         11   -1    0    0    0    0 -0.00000000000E+00 -0.00000000000E+00 -0.45593999997E+02  0.45594000000E+02  0.51100000000E-03 0.  1.
    9900012    2    1    2    0    0  0.51784189411E+01 -0.20233123349E+01  0.17882093789E+02  0.72461572316E+02  0.70000002633E+02 0.  0.
        -12    1    1    2    0    0 -0.51784189411E+01  0.20233123349E+01 -0.17882093789E+02  0.18726427684E+02  0.00000000000E+00 0.  1.
         11    1    3    3    0    0 -0.15832947750E+02 -0.57764389823E+01  0.17127615230E+02  0.24029246461E+02  0.51100000000E-03 0. -1.
        -11    1    3    3    0    0 -0.67829817066E+01  0.37706870074E+01  0.15230821905E+02  0.17094000629E+02  0.51100000000E-03 0.  1.
        -12    1    3    3    0    0  0.27794348398E+02 -0.17560360005E-01 -0.14476343346E+02  0.31338325225E+02  0.00000000000E+00 0.  1.
</event>
<event>
 7    1  0.1788006E-013  0.7246183E+02  0.7816164E-02  0.1226707E+00
        -11   -1    0    0    0    0  0.00000000000E+00  0.00000000000E+00  0.45593999997E+02  0.45594000000E+02  0.51100000000E-03 0.  1.
         11   -1    0    0    0    0 -0.00000000000E+00 -0.00000000000E+00 -0.45593999997E+02  0.45594000000E+02  0.51100000000E-03 0. -1.
    9900012    2    1    2    0    0  0.17135928155E+01  0.34448808602E+01 -0.18326642885E+02  0.72461829972E+02  0.70000338277E+02 0.  0.
        -12    1    1    2    0    0 -0.17135928155E+01 -0.34448808602E+01  0.18326642885E+02  0.18726170028E+02  0.00000000000E+00 0.  1.
         11    1    3    3    0    0  0.25245692640E+00 -0.14716813189E+02 -0.33127998329E+02  0.36250691007E+02  0.51100000000E-03 0. -1.
        -11    1    3    3    0    0  0.38680237437E+01 -0.60991144636E+01 -0.80039230971E+00  0.72664594564E+01  0.51100000000E-03 0.  1.
        -12    1    3    3    0    0 -0.24068878546E+01  0.24260808513E+02  0.15601747754E+02  0.28944679508E+02  0.00000000000E+00 0.  1.
</event>
<event>
 7    1  0.1788006E-013  0.7246145E+02  0.7816164E-02  0.1226708E+00
        -11   -1    0    0    0    0  0.00000000000E+00  0.00000000000E+00  0.45593999997E+02  0.45594000000E+02  0.51100000000E-03 0. -1.
         11   -1    0    0    0    0 -0.00000000000E+00 -0.00000000000E+00 -0.45593999997E+02  0.45594000000E+02  0.51100000000E-03 0.  1.
    9900012    2    1    2    0    0  0.86534183145E+01 -0.71757852216E+00  0.16591775532E+02  0.72461452460E+02  0.69999846499E+02 0.  0.
        -12    1    1    2    0    0 -0.86534183145E+01  0.71757852216E+00 -0.16591775532E+02  0.18726547540E+02  0.00000000000E+00 0.  1.
         11    1    3    3    0    0 -0.10654916100E+02  0.51047630432E+01  0.51304542093E+01  0.12880504784E+02  0.51100000000E-03 0. -1.
        -11    1    3    3    0    0 -0.17123812738E+02 -0.67167938854E+01  0.13901409744E+02  0.23056224233E+02  0.51100000000E-03 0.  1.
         12    1    3    3    0    0  0.36432147152E+02  0.89445232000E+00 -0.24400884208E+01  0.36524723443E+02  0.00000000000E+00 0. -1.
</event>
<event>
 7    1  0.1788006E-013  0.7246163E+02  0.7816164E-02  0.1226708E+00
        -11   -1    0    0    0    0  0.00000000000E+00  0.00000000000E+00  0.45593999997E+02  0.45594000000E+02  0.51100000000E-03 0.  1.
         11   -1    0    0    0    0 -0.00000000000E+00 -0.00000000000E+00 -0.45593999997E+02  0.45594000000E+02  0.51100000000E-03 0. -1.
    9900012    2    1    2    0    0 -0.14279097717E+02 -0.81641366897E+01 -0.89516053201E+01  0.72461628293E+02  0.70000075554E+02 0.  0.
        -12    1    1    2    0    0  0.14279097717E+02  0.81641366897E+01  0.89516053201E+01  0.18726371707E+02  0.00000000000E+00 0.  1.
         11    1    3    3    0    0 -0.16441034005E+02 -0.16426036566E+02 -0.15777915530E+02  0.28090298951E+02  0.51100000000E-03 0. -1.
        -11    1    3    3    0    0 -0.19047186368E+02 -0.33393304911E+01  0.57426446969E+01  0.20172367364E+02  0.51100000000E-03 0.  1.
        -12    1    3    3    0    0  0.21209122656E+02  0.11601230367E+02  0.10836655134E+01  0.24198961978E+02  0.00000000000E+00 0.  1.
</event>
<event>
 7    1  0.1788006E-013  0.7246153E+02  0.7816164E-02  0.1226708E+00
        -11   -1    0    0    0    0  0.00000000000E+00  0.00000000000E+00  0.45593999997E+02  0.45594000000E+02  0.51100000000E-03 0.  1.
         11   -1    0    0    0    0 -0.00000000000E+00 -0.00000000000E+00 -0.45593999997E+02  0.45594000000E+02  0.51100000000E-03 0. -1.
    9900012    2    1    2    0    0  0.89980578105E+01  0.81478544129E+01 -0.14259311146E+02  0.72461533963E+02  0.69999952671E+02 0.  0.
        -12    1    1    2    0    0 -0.89980578105E+01 -0.81478544129E+01  0.14259311146E+02  0.18726466037E+02  0.00000000000E+00 0.  1.
         11    1    3    3    0    0  0.29431165583E+01  0.52079077747E+01  0.26375742489E+01  0.65376629345E+01  0.51100000000E-03 0. -1.
        -11    1    3    3    0    0 -0.19159819402E+02  0.16767877805E+02  0.92179842222E+01  0.27078250294E+02  0.51100000000E-03 0.  1.
         12    1    3    3    0    0  0.25214760654E+02 -0.13827931167E+02 -0.26114869617E+02  0.38845620735E+02  0.00000000000E+00 0. -1.
</event>
<event>
 7    1  0.1788006E-013  0.7246157E+02  0.7816164E-02  0.1226708E+00
        -11   -1    0    0    0    0  0.00000000000E+00  0.00000000000E+00  0.45593999997E+02  0.45594000000E+02  0.51100000000E-03 0. -1.
         11   -1    0    0    0    0 -0.00000000000E+00 -0.00000000000E+00 -0.45593999997E+02  0.45594000000E+02  0.51100000000E-03 0.  1.
    9900012    2    1    2    0    0  0.14884610794E+02 -0.27182656752E+01  0.11033526105E+02  0.72461566675E+02  0.69999995285E+02 0.  0.
        -12    1    1    2    0    0 -0.14884610794E+02  0.27182656752E+01 -0.11033526105E+02  0.18726433325E+02  0.00000000000E+00 0.  1.
         11    1    3    3    0    0  0.22393036962E+02  0.10558415516E+02  0.16222540880E+02  0.29598970852E+02  0.51100000000E-03 0. -1.
        -11    1    3    3    0    0  0.29927968128E+01 -0.13782315391E+02  0.14696455740E+02  0.20368968111E+02  0.51100000000E-03 0.  1.
        -12    1    3    3    0    0 -0.10501222981E+02  0.50563420021E+00 -0.19885470516E+02  0.22493627713E+02  0.00000000000E+00 0.  1.
</event>
<event>
 7    1  0.1788006E-013  0.7246154E+02  0.7816164E-02  0.1226708E+00
        -11   -1    0    0    0    0  0.00000000000E+00  0.00000000000E+00  0.45593999997E+02  0.45594000000E+02  0.51100000000E-03 0.  1.
         11   -1    0    0    0    0 -0.00000000000E+00 -0.00000000000E+00 -0.45593999997E+02  0.45594000000E+02  0.51100000000E-03 0. -1.
    9900012    2    1    2    0    0 -0.10495384744E+02 -0.14134561936E+02  0.63829025948E+01  0.72461537772E+02  0.69999957634E+02 0.  0.
        -12    1    1    2    0    0  0.10495384744E+02  0.14134561936E+02 -0.63829025948E+01  0.18726462228E+02  0.00000000000E+00 0.  1.
         11    1    3    3    0    0 -0.12554753053E+02  0.65359607453E+01 -0.22355490416E+01  0.14329629683E+02  0.51100000000E-03 0. -1.
        -11    1    3    3    0    0 -0.13086167321E+02 -0.69918062603E+01  0.26908053452E+02  0.30727454674E+02  0.51100000000E-03 0.  1.
         12    1    3    3    0    0  0.15145535630E+02 -0.13678716421E+02 -0.18289601815E+02  0.27404453415E+02  0.00000000000E+00 0. -1.
</event>
<event>
 7    1  0.1788006E-013  0.7246158E+02  0.7816164E-02  0.1226708E+00
        -11   -1    0    0    0    0  0.00000000000E+00  0.00000000000E+00  0.45593999997E+02  0.45594000000E+02  0.51100000000E-03 0.  1.
         11   -1    0    0    0    0 -0.00000000000E+00 -0.00000000000E+00 -0.45593999997E+02  0.45594000000E+02  0.51100000000E-03 0. -1.
    9900012    2    1    2    0    0 -0.64139627331E+01  0.94148148475E+01 -0.14862744194E+02  0.72461579585E+02  0.70000012103E+02 0.  0.
        -12    1    1    2    0    0  0.64139627331E+01 -0.94148148475E+01  0.14862744194E+02  0.18726420415E+02  0.00000000000E+00 0.  1.
         11    1    3    3    0    0 -0.83411332701E+00 -0.50788656750E+01  0.60479665442E+01  0.79415691880E+01  0.51100000000E-03 0. -1.
        -11    1    3    3    0    0  0.14698774964E+02  0.56375448769E-01  0.14885178294E+02  0.20919505174E+02  0.51100000000E-03 0.  1.
         12    1    3    3    0    0 -0.20278624370E+02  0.14437305074E+02 -0.35795889032E+02  0.43600505223E+02  0.00000000000E+00 0. -1.
</event>
<event>
 7    1  0.1788006E-013  0.7246161E+02  0.7816164E-02  0.1226708E+00
        -11   -1    0    0    0    0  0.00000000000E+00  0.00000000000E+00  0.45593999997E+02  0.45594000000E+02  0.51100000000E-03 0. -1.
         11   -1    0    0    0    0 -0.00000000000E+00 -0.00000000000E+00 -0.45593999997E+02  0.45594000000E+02  0.51100000000E-03 0.  1.
    9900012    2    1    2    0    0 -0.11307464970E+02  0.94912283015E+01  0.11521092345E+02  0.72461608261E+02  0.70000049459E+02 0.  0.
        -12    1    1    2    0    0  0.11307464970E+02 -0.94912283015E+01 -0.11521092345E+02  0.18726391739E+02  0.00000000000E+00 0.  1.
         11    1    3    3    0    0  0.84769897983E+01  0.14693413723E+00 -0.64428828631E+01  0.10648553213E+02  0.51100000000E-03 0. -1.
        -11    1    3    3    0    0 -0.10490972782E+02 -0.23112030258E+02  0.74074492157E+01  0.26440437907E+02  0.51100000000E-03 0.  1.
         12    1    3    3    0    0 -0.92934819870E+01  0.32456324422E+02  0.10556525992E+02  0.35372617142E+02  0.00000000000E+00 0. -1.
</event>
<event>
 7    1  0.1788006E-013  0.7246143E+02  0.7816164E-02  0.1226708E+00
        -11   -1    0    0    0    0  0.00000000000E+00  0.00000000000E+00  0.45593999997E+02  0.45594000000E+02  0.51100000000E-03 0. -1.
         11   -1    0    0    0    0 -0.00000000000E+00 -0.00000000000E+00 -0.45593999997E+02  0.45594000000E+02  0.51100000000E-03 0.  1.
    9900012    2    1    2    0    0  0.14849539487E+02  0.88102792675E+01  0.72494446146E+01  0.72461433551E+02  0.69999821866E+02 0.  0.
        -12    1    1    2    0    0 -0.14849539487E+02 -0.88102792675E+01 -0.72494446146E+01  0.18726566449E+02  0.00000000000E+00 0.  1.
         11    1    3    3    0    0  0.63723447936E+01  0.76864899983E+01  0.34418943081E+01  0.10561038933E+02  0.51100000000E-03 0. -1.
        -11    1    3    3    0    0  0.29614620582E+02  0.79213617256E+01 -0.13745731494E+02  0.33596411391E+02  0.51100000000E-03 0.  1.
         12    1    3    3    0    0 -0.21137425888E+02 -0.67975724565E+01  0.17553281801E+02  0.28303983226E+02  0.00000000000E+00 0. -1.
</event>
<event>
 7    1  0.1788006E-013  0.7246147E+02  0.7816164E-02  0.1226708E+00
        -11   -1    0    0    0    0  0.00000000000E+00  0.00000000000E+00  0.45593999997E+02  0.45594000000E+02  0.51100000000E-03 0.  1.
         11   -1    0    0    0    0 -0.00000000000E+00 -0.00000000000E+00 -0.45593999997E+02  0.45594000000E+02  0.51100000000E-03 0. -1.
    9900012    2    1    2    0    0 -0.10273737124E+02 -0.72331746068E+01 -0.13885763108E+02  0.72461470517E+02  0.69999870021E+02 0.  0.
        -12    1    1    2    0    0  0.10273737124E+02  0.72331746068E+01  0.13885763108E+02  0.18726529483E+02  0.00000000000E+00 0.  1.
         11    1    3    3    0    0 -0.47423876386E+01 -0.20461739083E+02  0.50724311269E+01  0.21607928281E+02  0.51100000000E-03 0. -1.
        -11    1    3    3    0    0 -0.15923495342E+02  0.17407774799E+02  0.52592340375E+01  0.24171219875E+02  0.51100000000E-03 0.  1.
         12    1    3    3    0    0  0.10392145856E+02 -0.41792103224E+01 -0.24217428272E+02  0.26682322360E+02  0.00000000000E+00 0. -1.
</event>
<event>
 7    1  0.1788006E-013  0.7246148E+02  0.7816164E-02  0.1226708E+00
        -11   -1    0    0    0    0  0.00000000000E+00  0.00000000000E+00  0.45593999997E+02  0.45594000000E+02  0.51100000000E-03 0.  1.
         11   -1    0    0    0    0 -0.00000000000E+00 -0.00000000000E+00 -0.45593999997E+02  0.45594000000E+02  0.51100000000E-03 0. -1.
    9900012    2    1    2    0    0  0.77377767227E+01  0.12630762107E+02 -0.11457455723E+02  0.72461477855E+02  0.69999879580E+02 0.  0.
        -12    1    1    2    0    0 -0.77377767227E+01 -0.12630762107E+02  0.11457455723E+02  0.18726522145E+02  0.00000000000E+00 0.  1.
         11    1    3    3    0    0  0.25203158655E+01  0.67991752644E-01 -0.44588546169E+01  0.51223041394E+01  0.51100000000E-03 0. -1.
        -11    1    3    3    0    0  0.31874873779E+02  0.18493895221E+02 -0.13535158745E+02  0.39258531065E+02  0.51100000000E-03 0.  1.
        -12    1    3    3    0    0 -0.26657412922E+02 -0.59311248672E+01  0.65365576381E+01  0.28080642650E+02  0.00000000000E+00 0.  1.
</event>
<event>
 7    1  0.1788006E-013  0.7246157E+02  0.7816164E-02  0.1226708E+00
        -11   -1    0    0    0    0  0.00000000000E+00  0.00000000000E+00  0.45593999997E+02  0.45594000000E+02  0.51100000000E-03 0.  1.
         11   -1    0    0    0    0 -0.00000000000E+00 -0.00000000000E+00 -0.45593999997E+02  0.45594000000E+02  0.51100000000E-03 0. -1.
    9900012    2    1    2    0    0 -0.15191111555E+02 -0.31871554673E+01  0.10476232270E+02  0.72461567536E+02  0.69999996407E+02 0.  0.
        -12    1    1    2    0    0  0.15191111555E+02  0.31871554673E+01 -0.10476232270E+02  0.18726432464E+02  0.00000000000E+00 0.  1.
         11    1    3    3    0    0 -0.47508578777E+01  0.17020427631E+02 -0.18225641218E+01  0.17764778286E+02  0.51100000000E-03 0. -1.
        -11    1    3    3    0    0 -0.20657464699E+02 -0.26488787404E+02 -0.46729536875E+01  0.33914940695E+02  0.51100000000E-03 0.  1.
         12    1    3    3    0    0  0.10217211021E+02  0.62812043065E+01  0.16971750080E+02  0.20781848555E+02  0.00000000000E+00 0. -1.
</event>
<event>
 7    1  0.1788006E-013  0.7246155E+02  0.7816164E-02  0.1226708E+00
        -11   -1    0    0    0    0  0.00000000000E+00  0.00000000000E+00  0.45593999997E+02  0.45594000000E+02  0.51100000000E-03 0. -1.
         11   -1    0    0    0    0 -0.00000000000E+00 -0.00000000000E+00 -0.45593999997E+02  0.45594000000E+02  0.51100000000E-03 0.  1.
    9900012    2    1    2    0    0  0.99876210143E+01  0.13052138350E+02  0.89760169971E+01  0.72461554257E+02  0.69999979109E+02 0.  0.
        -12    1    1    2    0    0 -0.99876210143E+01 -0.13052138350E+02 -0.89760169971E+01  0.18726445743E+02  0.00000000000E+00 0.  1.
         11    1    3    3    0    0  0.69609718684E+01  0.34310256132E+02  0.52925553701E+01  0.35407060705E+02  0.51100000000E-03 0. -1.
        -11    1    3    3    0    0 -0.85180990198E+01  0.11366487897E+01 -0.55392935473E+01  0.10224175011E+02  0.51100000000E-03 0.  1.
         12    1    3    3    0    0  0.11544748166E+02 -0.22394766572E+02  0.92227551742E+01  0.26830318541E+02  0.00000000000E+00 0. -1.
</event>
<event>
 7    1  0.1788006E-013  0.7246169E+02  0.7816164E-02  0.1226708E+00
        -11   -1    0    0    0    0  0.00000000000E+00  0.00000000000E+00  0.45593999997E+02  0.45594000000E+02  0.51100000000E-03 0.  1.
         11   -1    0    0    0    0 -0.00000000000E+00 -0.00000000000E+00 -0.45593999997E+02  0.45594000000E+02  0.51100000000E-03 0. -1.
    9900012    2    1    2    0    0 -0.93187372080E+00  0.18400941633E+02  0.33483907426E+01  0.72461687972E+02  0.70000153297E+02 0.  0.
        -12    1    1    2    0    0  0.93187372080E+00 -0.18400941633E+02 -0.33483907426E+01  0.18726312028E+02  0.00000000000E+00 0.  1.
         11    1    3    3    0    0 -0.42317776146E+01  0.33844927157E+02 -0.20905801342E+02  0.40005494198E+02  0.51100000000E-03 0. -1.
        -11    1    3    3    0    0 -0.14001385456E+01  0.25822490522E+01  0.33982648610E+01  0.44918373124E+01  0.51100000000E-03 0.  1.
        -12    1    3    3    0    0  0.47000424394E+01 -0.18026234576E+02  0.20855927224E+02  0.27964356461E+02  0.00000000000E+00 0.  1.
</event>
<event>
 7    1  0.1788006E-013  0.7246157E+02  0.7816164E-02  0.1226708E+00
        -11   -1    0    0    0    0  0.00000000000E+00  0.00000000000E+00  0.45593999997E+02  0.45594000000E+02  0.51100000000E-03 0. -1.
         11   -1    0    0    0    0 -0.00000000000E+00 -0.00000000000E+00 -0.45593999997E+02  0.45594000000E+02  0.51100000000E-03 0.  1.
    9900012    2    1    2    0    0 -0.15038096722E+02 -0.37419467408E+01  0.10513443284E+02  0.72461574604E+02  0.70000005614E+02 0.  0.
        -12    1    1    2    0    0  0.15038096722E+02  0.37419467408E+01 -0.10513443284E+02  0.18726425396E+02  0.00000000000E+00 0.  1.
         11    1    3    3    0    0 -0.53414194888E+01  0.17652423561E+02 -0.11202547055E+02  0.21578597742E+02  0.51100000000E-03 0. -1.
        -11    1    3    3    0    0  0.99004612947E+01  0.40025132521E+01  0.14490698671E+02  0.18000544281E+02  0.51100000000E-03 0.  1.
         12    1    3    3    0    0 -0.19597138528E+02 -0.25396883554E+02  0.72252916681E+01  0.32882432581E+02  0.00000000000E+00 0. -1.
</event>
<event>
 7    1  0.1788006E-013  0.7246156E+02  0.7816164E-02  0.1226708E+00
        -11   -1    0    0    0    0  0.00000000000E+00  0.00000000000E+00  0.45593999997E+02  0.45594000000E+02  0.51100000000E-03 0.  1.
         11   -1    0    0    0    0 -0.00000000000E+00 -0.00000000000E+00 -0.45593999997E+02  0.45594000000E+02  0.51100000000E-03 0. -1.
    9900012    2    1    2    0    0  0.62022299901E+01 -0.15156123392E+02 -0.90831717154E+01  0.72461555021E+02  0.69999980104E+02 0.  0.
        -12    1    1    2    0    0 -0.62022299901E+01  0.15156123392E+02  0.90831717154E+01  0.18726444979E+02  0.00000000000E+00 0.  1.
         11    1    3    3    0    0  0.15510830768E+02 -0.52207707743E+01  0.57360756482E+01  0.17341997655E+02  0.51100000000E-03 0. -1.
        -11    1    3    3    0    0  0.68520731788E+01 -0.20610093578E+02  0.97725802642E+01  0.23816594833E+02  0.51100000000E-03 0.  1.
         12    1    3    3    0    0 -0.16160673956E+02  0.10674740960E+02 -0.24591827628E+02  0.31302962533E+02  0.00000000000E+00 0. -1.
</event>
<event>
 7    1  0.1788006E-013  0.7246157E+02  0.7816164E-02  0.1226708E+00
        -11   -1    0    0    0    0  0.00000000000E+00  0.00000000000E+00  0.45593999997E+02  0.45594000000E+02  0.51100000000E-03 0. -1.
         11   -1    0    0    0    0 -0.00000000000E+00 -0.00000000000E+00 -0.45593999997E+02  0.45594000000E+02  0.51100000000E-03 0.  1.
    9900012    2    1    2    0    0  0.36486939625E+01  0.17748829566E+02 -0.47270625181E+01  0.72461573789E+02  0.70000004552E+02 0.  0.
        -12    1    1    2    0    0 -0.36486939625E+01 -0.17748829566E+02  0.47270625181E+01  0.18726426211E+02  0.00000000000E+00 0.  1.
         11    1    3    3    0    0 -0.20160484064E+02  0.22091299617E+02  0.25469908654E+01  0.30015959075E+02  0.51100000000E-03 0. -1.
        -11    1    3    3    0    0 -0.67601949896E+01  0.54248480353E+01  0.22785460505E+01  0.89621975469E+01  0.51100000000E-03 0.  1.
        -12    1    3    3    0    0  0.30569373016E+02 -0.97673180865E+01 -0.95525994340E+01  0.33483417167E+02  0.00000000000E+00 0.  1.
</event>
<event>
 7    1  0.1873421E-013  0.7246153E+02  0.7816164E-02  0.1226708E+00
        -11   -1    0    0    0    0  0.00000000000E+00  0.00000000000E+00  0.45593999997E+02  0.45594000000E+02  0.51100000000E-03 0. -1.
         11   -1    0    0    0    0 -0.00000000000E+00 -0.00000000000E+00 -0.45593999997E+02  0.45594000000E+02  0.51100000000E-03 0.  1.
    9900012    2    1    2    0    0  0.33611182984E+01  0.34853794680E+01  0.18089660068E+02  0.72461527091E+02  0.69999943719E+02 0.  0.
        -12    1    1    2    0    0 -0.33611182984E+01 -0.34853794680E+01 -0.18089660068E+02  0.18726472909E+02  0.00000000000E+00 0.  1.
         11    1    3    3    0    0 -0.13287901114E+02  0.13993341113E+02  0.12084613607E+01  0.19335001697E+02  0.51100000000E-03 0. -1.
        -11    1    3    3    0    0  0.12312339529E+02 -0.66610620571E+01 -0.15119541738E+02  0.20604950741E+02  0.51100000000E-03 0.  1.
         12    1    3    3    0    0  0.43366798829E+01 -0.38468995882E+01  0.32000740445E+02  0.32521574652E+02  0.00000000000E+00 0. -1.
</event>
<event>
 7    1  0.1788006E-013  0.7246157E+02  0.7816164E-02  0.1226708E+00
        -11   -1    0    0    0    0  0.00000000000E+00  0.00000000000E+00  0.45593999997E+02  0.45594000000E+02  0.51100000000E-03 0. -1.
         11   -1    0    0    0    0 -0.00000000000E+00 -0.00000000000E+00 -0.45593999997E+02  0.45594000000E+02  0.51100000000E-03 0.  1.
    9900012    2    1    2    0    0  0.84943365018E+01  0.11056501880E+02  0.12501162414E+02  0.72461573536E+02  0.70000004222E+02 0.  0.
        -12    1    1    2    0    0 -0.84943365018E+01 -0.11056501880E+02 -0.12501162414E+02  0.18726426464E+02  0.00000000000E+00 0.  1.
         11    1    3    3    0    0  0.16183868724E+02 -0.79220250315E+01  0.24206585718E+01  0.18180640133E+02  0.51100000000E-03 0. -1.
        -11    1    3    3    0    0  0.12233261092E+02 -0.32127318414E+01  0.19291926676E+02  0.23068436401E+02  0.51100000000E-03 0.  1.
        -12    1    3    3    0    0 -0.19922793314E+02  0.22191258753E+02 -0.92114228344E+01  0.31212497002E+02  0.00000000000E+00 0.  1.
</event>
<event>
 7    1  0.1788006E-013  0.7246148E+02  0.7816164E-02  0.1226708E+00
        -11   -1    0    0    0    0  0.00000000000E+00  0.00000000000E+00  0.45593999997E+02  0.45594000000E+02  0.51100000000E-03 0.  1.
         11   -1    0    0    0    0 -0.00000000000E+00 -0.00000000000E+00 -0.45593999997E+02  0.45594000000E+02  0.51100000000E-03 0. -1.
    9900012    2    1    2    0    0 -0.16491513988E+02 -0.88567754753E+01 -0.51977019692E+00  0.72461476925E+02  0.69999878369E+02 0.  0.
        -12    1    1    2    0    0  0.16491513988E+02  0.88567754753E+01  0.51977019692E+00  0.18726523075E+02  0.00000000000E+00 0.  1.
         11    1    3    3    0    0  0.12069884106E+02 -0.18076361046E+02  0.84070398092E+01  0.23304833182E+02  0.51100000000E-03 0. -1.
        -11    1    3    3    0    0  0.64197486095E+01 -0.60367967887E+01 -0.64357070215E+01  0.10912122287E+02  0.51100000000E-03 0.  1.
        -12    1    3    3    0    0 -0.34981146703E+02  0.15256382360E+02 -0.24911029846E+01  0.38244521456E+02  0.00000000000E+00 0.  1.
</event>
<event>
 7    1  0.1788006E-013  0.7246154E+02  0.7816164E-02  0.1226708E+00
        -11   -1    0    0    0    0  0.00000000000E+00  0.00000000000E+00  0.45593999997E+02  0.45594000000E+02  0.51100000000E-03 0.  1.
         11   -1    0    0    0    0 -0.00000000000E+00 -0.00000000000E+00 -0.45593999997E+02  0.45594000000E+02  0.51100000000E-03 0. -1.
    9900012    2    1    2    0    0 -0.14778988382E+02 -0.10119886104E+02 -0.54634855446E+01  0.72461541000E+02  0.69999961839E+02 0.  0.
        -12    1    1    2    0    0  0.14778988382E+02  0.10119886104E+02  0.54634855446E+01  0.18726459000E+02  0.00000000000E+00 0.  1.
         11    1    3    3    0    0 -0.13194416789E+02  0.82755910815E+00 -0.34680836824E+01  0.13667665974E+02  0.51100000000E-03 0. -1.
        -11    1    3    3    0    0  0.83242370520E+01  0.15606246576E+02  0.17113618942E+02  0.24611456849E+02  0.51100000000E-03 0.  1.
         12    1    3    3    0    0 -0.99088086456E+01 -0.26553691788E+02 -0.19109020804E+02  0.34182418177E+02  0.00000000000E+00 0. -1.
</event>
<event>
 7    1  0.1788006E-013  0.7246156E+02  0.7816164E-02  0.1226708E+00
        -11   -1    0    0    0    0  0.00000000000E+00  0.00000000000E+00  0.45593999997E+02  0.45594000000E+02  0.51100000000E-03 0. -1.
         11   -1    0    0    0    0 -0.00000000000E+00 -0.00000000000E+00 -0.45593999997E+02  0.45594000000E+02  0.51100000000E-03 0.  1.
    9900012    2    1    2    0    0 -0.10851220007E+02  0.21020898155E+01  0.15116602925E+02  0.72461563040E+02  0.69999990549E+02 0.  0.
        -12    1    1    2    0    0  0.10851220007E+02 -0.21020898155E+01 -0.15116602925E+02  0.18726436960E+02  0.00000000000E+00 0.  1.
         11    1    3    3    0    0 -0.10360982083E+02  0.41899372697E+01  0.14347362765E+02  0.18186597885E+02  0.51100000000E-03 0. -1.
        -11    1    3    3    0    0 -0.25357627940E+02  0.12310378837E+01 -0.95819045955E+01  0.27135542098E+02  0.51100000000E-03 0.  1.
        -12    1    3    3    0    0  0.24867390016E+02 -0.33188853379E+01  0.10351144755E+02  0.27139423056E+02  0.00000000000E+00 0.  1.
</event>
<event>
 7    1  0.1788006E-013  0.7246159E+02  0.7816164E-02  0.1226708E+00
        -11   -1    0    0    0    0  0.00000000000E+00  0.00000000000E+00  0.45593999997E+02  0.45594000000E+02  0.51100000000E-03 0. -1.
         11   -1    0    0    0    0 -0.00000000000E+00 -0.00000000000E+00 -0.45593999997E+02  0.45594000000E+02  0.51100000000E-03 0.  1.
    9900012    2    1    2    0    0 -0.66107803477E+00  0.18154772110E+02  0.45437363183E+01  0.72461593130E+02  0.70000029748E+02 0.  0.
        -12    1    1    2    0    0  0.66107803477E+00 -0.18154772110E+02 -0.45437363183E+01  0.18726406870E+02  0.00000000000E+00 0.  1.
         11    1    3    3    0    0 -0.31276466428E+02  0.15400728947E+02  0.17660029611E+01  0.34907285358E+02  0.51100000000E-03 0. -1.
        -11    1    3    3    0    0  0.17038175552E+01  0.45865198554E+01  0.67255335203E+01  0.83169681999E+01  0.51100000000E-03 0.  1.
        -12    1    3    3    0    0  0.28911570838E+02 -0.18324766925E+01 -0.39478001631E+01  0.29237339573E+02  0.00000000000E+00 0.  1.
</event>
<event>
 7    1  0.1788006E-013  0.7246158E+02  0.7816164E-02  0.1226708E+00
        -11   -1    0    0    0    0  0.00000000000E+00  0.00000000000E+00  0.45593999997E+02  0.45594000000E+02  0.51100000000E-03 0.  1.
         11   -1    0    0    0    0 -0.00000000000E+00 -0.00000000000E+00 -0.45593999997E+02  0.45594000000E+02  0.51100000000E-03 0. -1.
    9900012    2    1    2    0    0 -0.15724705617E+02  0.10165891220E+02  0.25921971155E+00  0.72461577333E+02  0.70000009170E+02 0.  0.
        -12    1    1    2    0    0  0.15724705617E+02 -0.10165891220E+02 -0.25921971155E+00  0.18726422667E+02  0.00000000000E+00 0.  1.
         11    1    3    3    0    0  0.51959453462E+00  0.84340182403E+01  0.50344929180E+00  0.84649928298E+01  0.51100000000E-03 0. -1.
        -11    1    3    3    0    0  0.19352387490E+02  0.97529538756E+01 -0.13083676411E+02  0.25314375354E+02  0.51100000000E-03 0.  1.
        -12    1    3    3    0    0 -0.35596687641E+02 -0.80210808954E+01  0.12839446831E+02  0.38682209150E+02  0.00000000000E+00 0.  1.
</event>
<event>
 7    1  0.1788006E-013  0.7246171E+02  0.7816164E-02  0.1226708E+00
        -11   -1    0    0    0    0  0.00000000000E+00  0.00000000000E+00  0.45593999997E+02  0.45594000000E+02  0.51100000000E-03 0.  1.
         11   -1    0    0    0    0 -0.00000000000E+00 -0.00000000000E+00 -0.45593999997E+02  0.45594000000E+02  0.51100000000E-03 0. -1.
    9900012    2    1    2    0    0 -0.12531182412E+02  0.10179464956E+02 -0.94879831175E+01  0.72461711978E+02  0.70000184569E+02 0.  0.
        -12    1    1    2    0    0  0.12531182412E+02 -0.10179464956E+02  0.94879831175E+01  0.18726288022E+02  0.00000000000E+00 0.  1.
         11    1    3    3    0    0 -0.51620592032E+01  0.30607438542E+01 -0.20035562086E+01  0.63268669893E+01  0.51100000000E-03 0. -1.
        -11    1    3    3    0    0 -0.17219272529E+02  0.33030085256E+02 -0.91767258807E+01  0.38362770710E+02  0.51100000000E-03 0.  1.
         12    1    3    3    0    0  0.98501493199E+01 -0.25911364154E+02  0.16922989718E+01  0.27772074279E+02  0.00000000000E+00 0. -1.
</event>
<event>
 7    1  0.1788006E-013  0.7246157E+02  0.7816164E-02  0.1226708E+00
        -11   -1    0    0    0    0  0.00000000000E+00  0.00000000000E+00  0.45593999997E+02  0.45594000000E+02  0.51100000000E-03 0. -1.
         11   -1    0    0    0    0 -0.00000000000E+00 -0.00000000000E+00 -0.45593999997E+02  0.45594000000E+02  0.51100000000E-03 0.  1.
    9900012    2    1    2    0    0  0.89456130667E-01 -0.18636106568E+02  0.18348662067E+01  0.72461569363E+02  0.69999998787E+02 0.  0.
        -12    1    1    2    0    0 -0.89456130667E-01  0.18636106568E+02 -0.18348662067E+01  0.18726430637E+02  0.00000000000E+00 0.  1.
         11    1    3    3    0    0  0.15128232747E+02 -0.17640600340E+02 -0.14681118330E+02  0.27487987233E+02  0.51100000000E-03 0. -1.
        -11    1    3    3    0    0 -0.45353435971E+01 -0.12316018449E+02 -0.84557926971E+01  0.15612625736E+02  0.51100000000E-03 0.  1.
        -12    1    3    3    0    0 -0.10503433019E+02  0.11320512221E+02  0.24971777234E+02  0.29360956394E+02  0.00000000000E+00 0.  1.
</event>
<event>
 7    1  0.1788006E-013  0.7246155E+02  0.7816164E-02  0.1226708E+00
        -11   -1    0    0    0    0  0.00000000000E+00  0.00000000000E+00  0.45593999997E+02  0.45594000000E+02  0.51100000000E-03 0.  1.
         11   -1    0    0    0    0 -0.00000000000E+00 -0.00000000000E+00 -0.45593999997E+02  0.45594000000E+02  0.51100000000E-03 0. -1.
    9900012    2    1    2    0    0 -0.12796990642E+02  0.13641638485E+02 -0.90694417287E+00  0.72461552986E+02  0.69999977452E+02 0.  0.
        -12    1    1    2    0    0  0.12796990642E+02 -0.13641638485E+02  0.90694417287E+00  0.18726447014E+02  0.00000000000E+00 0.  1.
         11    1    3    3    0    0 -0.10492162897E+02 -0.25908695957E+02 -0.38895504344E+01  0.28221881782E+02  0.51100000000E-03 0.  1.
        -11    1    3    3    0    0 -0.22373748124E+00  0.23808230677E+02 -0.77900304919E+01  0.25051277049E+02  0.51100000000E-03 0. -1.
        -12    1    3    3    0    0 -0.20810902634E+01  0.15742103765E+02  0.10772636753E+02  0.19188394155E+02  0.00000000000E+00 0.  1.
</event>
<event>
 7    1  0.1788006E-013  0.7246150E+02  0.7816164E-02  0.1226708E+00
        -11   -1    0    0    0    0  0.00000000000E+00  0.00000000000E+00  0.45593999997E+02  0.45594000000E+02  0.51100000000E-03 0.  1.
         11   -1    0    0    0    0 -0.00000000000E+00 -0.00000000000E+00 -0.45593999997E+02  0.45594000000E+02  0.51100000000E-03 0. -1.
    9900012    2    1    2    0    0  0.19550217888E+01  0.13112241301E+02 -0.13226069543E+02  0.72461497452E+02  0.69999905109E+02 0.  0.
        -12    1    1    2    0    0 -0.19550217888E+01 -0.13112241301E+02  0.13226069543E+02  0.18726502548E+02  0.00000000000E+00 0.  1.
         11    1    3    3    0    0  0.12212533908E+01 -0.61361013295E+01 -0.27983945799E+02  0.28674804657E+02  0.51100000000E-03 0. -1.
        -11    1    3    3    0    0  0.17921991108E+02  0.13285446982E+02  0.40426196845E+01  0.22672530537E+02  0.51100000000E-03 0.  1.
         12    1    3    3    0    0 -0.17188222710E+02  0.59628956484E+01  0.10715256571E+02  0.21114162258E+02  0.00000000000E+00 0. -1.
</event>
<event>
 7    1  0.1788006E-013  0.7246159E+02  0.7816164E-02  0.1226708E+00
        -11   -1    0    0    0    0  0.00000000000E+00  0.00000000000E+00  0.45593999997E+02  0.45594000000E+02  0.51100000000E-03 0. -1.
         11   -1    0    0    0    0 -0.00000000000E+00 -0.00000000000E+00 -0.45593999997E+02  0.45594000000E+02  0.51100000000E-03 0.  1.
    9900012    2    1    2    0    0 -0.10430923497E+02 -0.15524373202E+02  0.93164928171E+00  0.72461593545E+02  0.70000030289E+02 0.  0.
        -12    1    1    2    0    0  0.10430923497E+02  0.15524373202E+02 -0.93164928171E+00  0.18726406455E+02  0.00000000000E+00 0.  1.
         11    1    3    3    0    0 -0.23990909691E+01  0.32612648097E+01  0.31053081662E+02  0.31315896389E+02  0.51100000000E-03 0. -1.
        -11    1    3    3    0    0  0.42250679630E+01 -0.10403091885E+02 -0.57704691923E+01  0.12624335033E+02  0.51100000000E-03 0.  1.
        -12    1    3    3    0    0 -0.12256900491E+02 -0.83825461267E+01 -0.24350963188E+02  0.28521362124E+02  0.00000000000E+00 0.  1.
</event>
<event>
 7    1  0.1788006E-013  0.7246156E+02  0.7816164E-02  0.1226708E+00
        -11   -1    0    0    0    0  0.00000000000E+00  0.00000000000E+00  0.45593999997E+02  0.45594000000E+02  0.51100000000E-03 0.  1.
         11   -1    0    0    0    0 -0.00000000000E+00 -0.00000000000E+00 -0.45593999997E+02  0.45594000000E+02  0.51100000000E-03 0. -1.
    9900012    2    1    2    0    0  0.14911072679E+02 -0.11131887351E+02  0.21024987532E+01  0.72461561325E+02  0.69999988316E+02 0.  0.
        -12    1    1    2    0    0 -0.14911072679E+02  0.11131887351E+02 -0.21024987532E+01  0.18726438675E+02  0.00000000000E+00 0.  1.
         11    1    3    3    0    0  0.23913023170E+02  0.22079828091E+02 -0.36639174678E+01  0.32753255978E+02  0.51100000000E-03 0. -1.
        -11    1    3    3    0    0 -0.18703489826E+01 -0.78859213868E+00 -0.45184998823E+01  0.49534759841E+01  0.51100000000E-03 0.  1.
        -12    1    3    3    0    0 -0.71316015091E+01 -0.32423123303E+02  0.10284916103E+02  0.34754829363E+02  0.00000000000E+00 0.  1.
</event>
<event>
 7    1  0.1788006E-013  0.7246154E+02  0.7816164E-02  0.1226708E+00
        -11   -1    0    0    0    0  0.00000000000E+00  0.00000000000E+00  0.45593999997E+02  0.45594000000E+02  0.51100000000E-03 0.  1.
         11   -1    0    0    0    0 -0.00000000000E+00 -0.00000000000E+00 -0.45593999997E+02  0.45594000000E+02  0.51100000000E-03 0. -1.
    9900012    2    1    2    0    0 -0.10362374037E+02  0.14947188013E+02 -0.44590380332E+01  0.72461541569E+02  0.69999962580E+02 0.  0.
        -12    1    1    2    0    0  0.10362374037E+02 -0.14947188013E+02  0.44590380332E+01  0.18726458431E+02  0.00000000000E+00 0.  1.
         11    1    3    3    0    0  0.49693161994E+01  0.23492412610E+02 -0.73274127772E+01  0.25105348673E+02  0.51100000000E-03 0. -1.
        -11    1    3    3    0    0  0.74944373470E+01  0.47218638407E+01  0.15680922389E+02  0.18009828331E+02  0.51100000000E-03 0.  1.
         12    1    3    3    0    0 -0.22826127584E+02 -0.13267088437E+02 -0.12812547645E+02  0.29346364566E+02  0.00000000000E+00 0. -1.
</event>
<event>
 7    1  0.1788006E-013  0.7246155E+02  0.7816164E-02  0.1226708E+00
        -11   -1    0    0    0    0  0.00000000000E+00  0.00000000000E+00  0.45593999997E+02  0.45594000000E+02  0.51100000000E-03 0.  1.
         11   -1    0    0    0    0 -0.00000000000E+00 -0.00000000000E+00 -0.45593999997E+02  0.45594000000E+02  0.51100000000E-03 0. -1.
    9900012    2    1    2    0    0  0.69219756240E+01 -0.17349325888E+02  0.13293239863E+01  0.72461549253E+02  0.69999972590E+02 0.  0.
        -12    1    1    2    0    0 -0.69219756240E+01  0.17349325888E+02 -0.13293239863E+01  0.18726450747E+02  0.00000000000E+00 0.  1.
         11    1    3    3    0    0 -0.17498900021E+01 -0.33555217352E+02 -0.19491608719E+01  0.33657301658E+02  0.51100000000E-03 0. -1.
        -11    1    3    3    0    0 -0.75859812842E+01 -0.69260852425E+01 -0.47083418934E+00  0.10282969120E+02  0.51100000000E-03 0.  1.
        -12    1    3    3    0    0  0.16257846910E+02  0.23131976706E+02  0.37493190475E+01  0.28521278474E+02  0.00000000000E+00 0.  1.
</event>
<event>
 7    1  0.1788006E-013  0.7246158E+02  0.7816164E-02  0.1226708E+00
        -11   -1    0    0    0    0  0.00000000000E+00  0.00000000000E+00  0.45593999997E+02  0.45594000000E+02  0.51100000000E-03 0.  1.
         11   -1    0    0    0    0 -0.00000000000E+00 -0.00000000000E+00 -0.45593999997E+02  0.45594000000E+02  0.51100000000E-03 0. -1.
    9900012    2    1    2    0    0 -0.16496198105E+02 -0.62784397023E+01 -0.62558387687E+01  0.72461578139E+02  0.70000010219E+02 0.  0.
        -12    1    1    2    0    0  0.16496198105E+02  0.62784397023E+01  0.62558387687E+01  0.18726421861E+02  0.00000000000E+00 0.  1.
         11    1    3    3    0    0 -0.12583123675E+02  0.92808791057E+01 -0.52199381369E+01  0.16483854914E+02  0.51100000000E-03 0. -1.
        -11    1    3    3    0    0 -0.22505374934E+02 -0.53759003563E+01  0.16538693023E+02  0.28441529016E+02  0.51100000000E-03 0.  1.
         12    1    3    3    0    0  0.18592300504E+02 -0.10183418452E+02 -0.17574593655E+02  0.27536194210E+02  0.00000000000E+00 0. -1.
</event>
<event>
 7    1  0.1788006E-013  0.7246158E+02  0.7816164E-02  0.1226708E+00
        -11   -1    0    0    0    0  0.00000000000E+00  0.00000000000E+00  0.45593999997E+02  0.45594000000E+02  0.51100000000E-03 0. -1.
         11   -1    0    0    0    0 -0.00000000000E+00 -0.00000000000E+00 -0.45593999997E+02  0.45594000000E+02  0.51100000000E-03 0.  1.
    9900012    2    1    2    0    0 -0.27102120158E+01 -0.21870635754E+01  0.18399739873E+02  0.72461576859E+02  0.70000008552E+02 0.  0.
        -12    1    1    2    0    0  0.27102120158E+01  0.21870635754E+01 -0.18399739873E+02  0.18726423141E+02  0.00000000000E+00 0.  1.
         11    1    3    3    0    0 -0.16425562166E+01 -0.43677445428E+01 -0.29779929770E+01  0.55356685005E+01  0.51100000000E-03 0. -1.
        -11    1    3    3    0    0  0.17470388529E+02 -0.66697112349E+01 -0.15779574951E+02  0.24468234698E+02  0.51100000000E-03 0.  1.
         12    1    3    3    0    0 -0.18538044329E+02  0.88503922022E+01  0.37157307801E+02  0.42457673661E+02  0.00000000000E+00 0. -1.
</event>
<event>
 7    1  0.1788006E-013  0.7246158E+02  0.7816164E-02  0.1226708E+00
        -11   -1    0    0    0    0  0.00000000000E+00  0.00000000000E+00  0.45593999997E+02  0.45594000000E+02  0.51100000000E-03 0. -1.
         11   -1    0    0    0    0 -0.00000000000E+00 -0.00000000000E+00 -0.45593999997E+02  0.45594000000E+02  0.51100000000E-03 0.  1.
    9900012    2    1    2    0    0  0.38361436419E+01 -0.15728911386E+02  0.94108587659E+01  0.72461577113E+02  0.70000008883E+02 0.  0.
        -12    1    1    2    0    0 -0.38361436419E+01  0.15728911386E+02 -0.94108587659E+01  0.18726422887E+02  0.00000000000E+00 0.  1.
         11    1    3    3    0    0  0.18204228939E+02  0.39756405109E+01 -0.15765566582E+02  0.24408047005E+02  0.51100000000E-03 0. -1.
        -11    1    3    3    0    0  0.78606085770E+00  0.62615663850E+01 -0.28748262620E+01  0.69346760244E+01  0.51100000000E-03 0.  1.
        -12    1    3    3    0    0 -0.15154146154E+02 -0.25966118282E+02  0.28051251609E+02  0.41118854083E+02  0.00000000000E+00 0.  1.
</event>
<event>
 7    1  0.1788006E-013  0.7246159E+02  0.7816164E-02  0.1226708E+00
        -11   -1    0    0    0    0  0.00000000000E+00  0.00000000000E+00  0.45593999997E+02  0.45594000000E+02  0.51100000000E-03 0.  1.
         11   -1    0    0    0    0 -0.00000000000E+00 -0.00000000000E+00 -0.45593999997E+02  0.45594000000E+02  0.51100000000E-03 0. -1.
    9900012    2    1    2    0    0 -0.50543970734E+01  0.17488711217E+02 -0.43905051756E+01  0.72461588558E+02  0.70000023792E+02 0.  0.
        -12    1    1    2    0    0  0.50543970734E+01 -0.17488711217E+02  0.43905051756E+01  0.18726411442E+02  0.00000000000E+00 0.  1.
         11    1    3    3    0    0  0.27565890809E+01  0.78159582064E+01 -0.74885699330E+01  0.11169899997E+02  0.51100000000E-03 0. -1.
        -11    1    3    3    0    0 -0.32003738586E+02  0.69226118869E+01  0.12696844096E+02  0.35119391924E+02  0.51100000000E-03 0.  1.
         12    1    3    3    0    0  0.24192752432E+02  0.27501411236E+01 -0.95987793388E+01  0.26172296637E+02  0.00000000000E+00 0. -1.
</event>
<event>
 7    1  0.1788006E-013  0.7246154E+02  0.7816164E-02  0.1226708E+00
        -11   -1    0    0    0    0  0.00000000000E+00  0.00000000000E+00  0.45593999997E+02  0.45594000000E+02  0.51100000000E-03 0.  1.
         11   -1    0    0    0    0 -0.00000000000E+00 -0.00000000000E+00 -0.45593999997E+02  0.45594000000E+02  0.51100000000E-03 0. -1.
    9900012    2    1    2    0    0 -0.18585575969E+02 -0.12876513663E+01 -0.18970128420E+01  0.72461539099E+02  0.69999959362E+02 0.  0.
        -12    1    1    2    0    0  0.18585575969E+02  0.12876513663E+01  0.18970128420E+01  0.18726460901E+02  0.00000000000E+00 0.  1.
         11    1    3    3    0    0  0.76502022871E+01 -0.14059908743E+02  0.94519289138E+00  0.16034338737E+02  0.51100000000E-03 0. -1.
        -11    1    3    3    0    0 -0.36237218215E+01 -0.17233304502E+02 -0.62847669109E+01  0.18698033033E+02  0.51100000000E-03 0.  1.
        -12    1    3    3    0    0 -0.22612056435E+02  0.30005561878E+02  0.34425611775E+01  0.37729167329E+02  0.00000000000E+00 0.  1.
</event>
<event>
 7    1  0.1788006E-013  0.7246169E+02  0.7816164E-02  0.1226708E+00
        -11   -1    0    0    0    0  0.00000000000E+00  0.00000000000E+00  0.45593999997E+02  0.45594000000E+02  0.51100000000E-03 0.  1.
         11   -1    0    0    0    0 -0.00000000000E+00 -0.00000000000E+00 -0.45593999997E+02  0.45594000000E+02  0.51100000000E-03 0. -1.
    9900012    2    1    2    0    0 -0.13612712927E+02  0.54605933582E+01  0.11642622641E+02  0.72461689765E+02  0.70000155632E+02 0.  0.
        -12    1    1    2    0    0  0.13612712927E+02 -0.54605933582E+01 -0.11642622641E+02  0.18726310235E+02  0.00000000000E+00 0.  1.
         11    1    3    3    0    0 -0.47406961835E+01  0.67402810274E+01  0.71653227139E+01  0.10920047550E+02  0.51100000000E-03 0. -1.
        -11    1    3    3    0    0 -0.12868114496E+02 -0.16475285652E+02  0.26958282829E+02  0.34114108831E+02  0.51100000000E-03 0.  1.
         12    1    3    3    0    0  0.39960977525E+01  0.15195597982E+02 -0.22480982902E+02  0.27427533384E+02  0.00000000000E+00 0. -1.
</event>
<event>
 7    1  0.1788006E-013  0.7246153E+02  0.7816164E-02  0.1226708E+00
        -11   -1    0    0    0    0  0.00000000000E+00  0.00000000000E+00  0.45593999997E+02  0.45594000000E+02  0.51100000000E-03 0.  1.
         11   -1    0    0    0    0 -0.00000000000E+00 -0.00000000000E+00 -0.45593999997E+02  0.45594000000E+02  0.51100000000E-03 0. -1.
    9900012    2    1    2    0    0  0.16969087018E+02 -0.62114168040E+01  0.49141708767E+01  0.72461529741E+02  0.69999947172E+02 0.  0.
        -12    1    1    2    0    0 -0.16969087018E+02  0.62114168040E+01 -0.49141708767E+01  0.18726470259E+02  0.00000000000E+00 0.  1.
         11    1    3    3    0    0  0.33930674642E+02 -0.54741217533E+01 -0.11300656510E+02  0.36179573359E+02  0.51100000000E-03 0. -1.
        -11    1    3    3    0    0  0.70951514399E+01 -0.35514133820E+01  0.19417021488E+01  0.81684709989E+01  0.51100000000E-03 0.  1.
         12    1    3    3    0    0 -0.24056739063E+02  0.28141183312E+01  0.14273125238E+02  0.28113485384E+02  0.00000000000E+00 0. -1.
</event>
<event>
 7    1  0.1788006E-013  0.7246158E+02  0.7816164E-02  0.1226708E+00
        -11   -1    0    0    0    0  0.00000000000E+00  0.00000000000E+00  0.45593999997E+02  0.45594000000E+02  0.51100000000E-03 0.  1.
         11   -1    0    0    0    0 -0.00000000000E+00 -0.00000000000E+00 -0.45593999997E+02  0.45594000000E+02  0.51100000000E-03 0. -1.
    9900012    2    1    2    0    0 -0.11015564879E+02 -0.91782936689E+01 -0.12045536941E+02  0.72461582711E+02  0.70000016175E+02 0.  0.
        -12    1    1    2    0    0  0.11015564879E+02  0.91782936689E+01  0.12045536941E+02  0.18726417289E+02  0.00000000000E+00 0.  1.
         11    1    3    3    0    0  0.35583979569E+01 -0.16593379701E+00  0.62663219748E+01  0.72080872218E+01  0.51100000000E-03 0. -1.
        -11    1    3    3    0    0  0.15167733488E+02 -0.12619017801E+02  0.11624712264E+02  0.22900517133E+02  0.51100000000E-03 0.  1.
         12    1    3    3    0    0 -0.29741696325E+02  0.36066579296E+01 -0.29936571180E+02  0.42352978357E+02  0.00000000000E+00 0. -1.
</event>
<event>
 7    1  0.1788006E-013  0.7246162E+02  0.7816164E-02  0.1226708E+00
        -11   -1    0    0    0    0  0.00000000000E+00  0.00000000000E+00  0.45593999997E+02  0.45594000000E+02  0.51100000000E-03 0. -1.
         11   -1    0    0    0    0 -0.00000000000E+00 -0.00000000000E+00 -0.45593999997E+02  0.45594000000E+02  0.51100000000E-03 0.  1.
    9900012    2    1    2    0    0 -0.32032251958E+01  0.16569141973E+02  0.81166667798E+01  0.72461617622E+02  0.70000061652E+02 0.  0.
        -12    1    1    2    0    0  0.32032251958E+01 -0.16569141973E+02 -0.81166667798E+01  0.18726382378E+02  0.00000000000E+00 0.  1.
         11    1    3    3    0    0  0.12650925599E+02 -0.67808898250E+01 -0.31901590755E+00  0.14357163952E+02  0.51100000000E-03 0. -1.
        -11    1    3    3    0    0 -0.22509541471E+01  0.19051827520E+02 -0.19113436670E+02  0.27080664468E+02  0.51100000000E-03 0.  1.
        -12    1    3    3    0    0 -0.13603196648E+02  0.42982042773E+01  0.27549119357E+02  0.31023789201E+02  0.00000000000E+00 0.  1.
</event>
<event>
 7    1  0.1788006E-013  0.7246155E+02  0.7816164E-02  0.1226708E+00
        -11   -1    0    0    0    0  0.00000000000E+00  0.00000000000E+00  0.45593999997E+02  0.45594000000E+02  0.51100000000E-03 0. -1.
         11   -1    0    0    0    0 -0.00000000000E+00 -0.00000000000E+00 -0.45593999997E+02  0.45594000000E+02  0.51100000000E-03 0.  1.
    9900012    2    1    2    0    0 -0.26937536145E+00 -0.16977788225E+02  0.78969601376E+01  0.72461552513E+02  0.69999976836E+02 0.  0.
        -12    1    1    2    0    0  0.26937536145E+00  0.16977788225E+02 -0.78969601376E+01  0.18726447487E+02  0.00000000000E+00 0.  1.
         11    1    3    3    0    0  0.93072376033E+00 -0.17370583791E-01  0.33256158850E+01  0.34534431704E+01  0.51100000000E-03 0. -1.
        -11    1    3    3    0    0  0.57210211361E+01  0.25035705731E+02  0.61833914466E+01  0.26414976327E+02  0.51100000000E-03 0.  1.
        -12    1    3    3    0    0 -0.69211202579E+01 -0.41996123372E+02 -0.16120471939E+01  0.42593133015E+02  0.00000000000E+00 0.  1.
</event>
<event>
 7    1  0.1788006E-013  0.7246156E+02  0.7816164E-02  0.1226708E+00
        -11   -1    0    0    0    0  0.00000000000E+00  0.00000000000E+00  0.45593999997E+02  0.45594000000E+02  0.51100000000E-03 0. -1.
         11   -1    0    0    0    0 -0.00000000000E+00 -0.00000000000E+00 -0.45593999997E+02  0.45594000000E+02  0.51100000000E-03 0.  1.
    9900012    2    1    2    0    0 -0.84871499485E+01  0.11819063776E+02  0.11788030311E+02  0.72461557695E+02  0.69999983587E+02 0.  0.
        -12    1    1    2    0    0  0.84871499485E+01 -0.11819063776E+02 -0.11788030311E+02  0.18726442305E+02  0.00000000000E+00 0.  1.
         11    1    3    3    0    0 -0.22566433342E+01  0.95362010437E+01 -0.29039423654E+01  0.10220785244E+02  0.51100000000E-03 0. -1.
        -11    1    3    3    0    0 -0.89745229166E+01  0.85441374933E+01 -0.21820744590E+02  0.25093609581E+02  0.51100000000E-03 0.  1.
         12    1    3    3    0    0  0.27440163023E+01 -0.62612747608E+01  0.36512717266E+02  0.37147162870E+02  0.00000000000E+00 0. -1.
</event>
<event>
 7    1  0.1788006E-013  0.7246171E+02  0.7816164E-02  0.1226708E+00
        -11   -1    0    0    0    0  0.00000000000E+00  0.00000000000E+00  0.45593999997E+02  0.45594000000E+02  0.51100000000E-03 0. -1.
         11   -1    0    0    0    0 -0.00000000000E+00 -0.00000000000E+00 -0.45593999997E+02  0.45594000000E+02  0.51100000000E-03 0.  1.
    9900012    2    1    2    0    0  0.21490809845E+01 -0.91538985819E+01  0.16194486600E+02  0.72461713540E+02  0.70000186604E+02 0.  0.
        -12    1    1    2    0    0 -0.21490809845E+01  0.91538985819E+01 -0.16194486600E+02  0.18726286460E+02  0.00000000000E+00 0.  1.
         11    1    3    3    0    0 -0.17129260208E+02 -0.11628091632E+02 -0.10464620534E+02  0.23197679915E+02  0.51100000000E-03 0.  1.
        -11    1    3    3    0    0  0.88932652291E+01  0.10733062864E+02 -0.51016595840E+01  0.14843036604E+02  0.51100000000E-03 0. -1.
         12    1    3    3    0    0  0.10385075964E+02 -0.82588698136E+01  0.31760766718E+02  0.34420997020E+02  0.00000000000E+00 0. -1.
</event>
<event>
 7    1  0.1788006E-013  0.7246165E+02  0.7816164E-02  0.1226708E+00
        -11   -1    0    0    0    0  0.00000000000E+00  0.00000000000E+00  0.45593999997E+02  0.45594000000E+02  0.51100000000E-03 0.  1.
         11   -1    0    0    0    0 -0.00000000000E+00 -0.00000000000E+00 -0.45593999997E+02  0.45594000000E+02  0.51100000000E-03 0. -1.
    9900012    2    1    2    0    0  0.78774026949E+00  0.15436835538E+02 -0.10571651433E+02  0.72461648509E+02  0.70000101889E+02 0.  0.
        -12    1    1    2    0    0 -0.78774026949E+00 -0.15436835538E+02  0.10571651433E+02  0.18726351491E+02  0.00000000000E+00 0.  1.
         11    1    3    3    0    0  0.88389344746E+01 -0.49651121092E+01 -0.20951139333E+02  0.23275079818E+02  0.51100000000E-03 0. -1.
        -11    1    3    3    0    0  0.11641898255E+02  0.17570694077E+01 -0.98522094452E+01  0.15352104712E+02  0.51100000000E-03 0.  1.
        -12    1    3    3    0    0 -0.19693092460E+02  0.18644878240E+02  0.20231697346E+02  0.33834463978E+02  0.00000000000E+00 0.  1.
</event>
<event>
 7    1  0.1788006E-013  0.7246153E+02  0.7816164E-02  0.1226708E+00
        -11   -1    0    0    0    0  0.00000000000E+00  0.00000000000E+00  0.45593999997E+02  0.45594000000E+02  0.51100000000E-03 0.  1.
         11   -1    0    0    0    0 -0.00000000000E+00 -0.00000000000E+00 -0.45593999997E+02  0.45594000000E+02  0.51100000000E-03 0. -1.
    9900012    2    1    2    0    0 -0.80022146784E+01  0.13753271205E+01 -0.16874646659E+02  0.72461530383E+02  0.69999948008E+02 0.  0.
        -12    1    1    2    0    0  0.80022146784E+01 -0.13753271205E+01  0.16874646659E+02  0.18726469617E+02  0.00000000000E+00 0.  1.
         11    1    3    3    0    0 -0.41604866294E+01 -0.10954524349E+02  0.23462276353E+01  0.11950566392E+02  0.51100000000E-03 0. -1.
        -11    1    3    3    0    0 -0.12953663394E+01 -0.10815235825E+02  0.15354671424E+02  0.18825866107E+02  0.51100000000E-03 0.  1.
         12    1    3    3    0    0 -0.25463617096E+01  0.23145087295E+02 -0.34575545718E+02  0.41685097883E+02  0.00000000000E+00 0. -1.
</event>
<event>
 7    1  0.1788006E-013  0.7246155E+02  0.7816164E-02  0.1226708E+00
        -11   -1    0    0    0    0  0.00000000000E+00  0.00000000000E+00  0.45593999997E+02  0.45594000000E+02  0.51100000000E-03 0.  1.
         11   -1    0    0    0    0 -0.00000000000E+00 -0.00000000000E+00 -0.45593999997E+02  0.45594000000E+02  0.51100000000E-03 0. -1.
    9900012    2    1    2    0    0  0.37750119410E+01  0.17653571776E+02 -0.49780125809E+01  0.72461550233E+02  0.69999973867E+02 0.  0.
        -12    1    1    2    0    0 -0.37750119410E+01 -0.17653571776E+02  0.49780125809E+01  0.18726449767E+02  0.00000000000E+00 0.  1.
         11    1    3    3    0    0 -0.57502556148E+01 -0.14179391809E+02 -0.17727546157E+02  0.23417653271E+02  0.51100000000E-03 0. -1.
        -11    1    3    3    0    0 -0.10980656255E+02  0.66211571011E+01  0.10311903758E+02  0.16454479406E+02  0.51100000000E-03 0.  1.
        -12    1    3    3    0    0  0.20505923811E+02  0.25211806484E+02  0.24376298180E+01  0.32589417556E+02  0.00000000000E+00 0.  1.
</event>
<event>
 7    1  0.1788006E-013  0.7246155E+02  0.7816164E-02  0.1226708E+00
        -11   -1    0    0    0    0  0.00000000000E+00  0.00000000000E+00  0.45593999997E+02  0.45594000000E+02  0.51100000000E-03 0. -1.
         11   -1    0    0    0    0 -0.00000000000E+00 -0.00000000000E+00 -0.45593999997E+02  0.45594000000E+02  0.51100000000E-03 0.  1.
    9900012    2    1    2    0    0 -0.13445132970E+02  0.68330762531E+01  0.11100334319E+02  0.72461549358E+02  0.69999972726E+02 0.  0.
        -12    1    1    2    0    0  0.13445132970E+02 -0.68330762531E+01 -0.11100334319E+02  0.18726450642E+02  0.00000000000E+00 0.  1.
         11    1    3    3    0    0  0.27670951659E+01 -0.49159641446E+01  0.16918079746E+01  0.58894595348E+01  0.51100000000E-03 0. -1.
        -11    1    3    3    0    0  0.21140989828E+02 -0.46873794860E+00  0.16264945330E+02  0.26677886218E+02  0.51100000000E-03 0.  1.
         12    1    3    3    0    0 -0.37353217964E+02  0.12217778346E+02 -0.68564189856E+01  0.39894203605E+02  0.00000000000E+00 0. -1.
</event>
<event>
 7    1  0.1788006E-013  0.7246157E+02  0.7816164E-02  0.1226708E+00
        -11   -1    0    0    0    0  0.00000000000E+00  0.00000000000E+00  0.45593999997E+02  0.45594000000E+02  0.51100000000E-03 0.  1.
         11   -1    0    0    0    0 -0.00000000000E+00 -0.00000000000E+00 -0.45593999997E+02  0.45594000000E+02  0.51100000000E-03 0. -1.
    9900012    2    1    2    0    0 -0.98110760005E+01  0.52611232888E+01 -0.15057967887E+02  0.72461574088E+02  0.70000004943E+02 0.  0.
        -12    1    1    2    0    0  0.98110760005E+01 -0.52611232888E+01  0.15057967887E+02  0.18726425912E+02  0.00000000000E+00 0.  1.
         11    1    3    3    0    0  0.77435397008E+00  0.25847882043E+01  0.86087353608E+01  0.90217004442E+01  0.51100000000E-03 0. -1.
        -11    1    3    3    0    0 -0.44108973561E+01 -0.82390302793E+01  0.17807676220E+02  0.20110966363E+02  0.51100000000E-03 0.  1.
         12    1    3    3    0    0 -0.61745326145E+01  0.10915365364E+02 -0.41474379467E+02  0.43328907282E+02  0.00000000000E+00 0. -1.
</event>
<event>
 7    1  0.1788006E-013  0.7246160E+02  0.7816164E-02  0.1226708E+00
        -11   -1    0    0    0    0  0.00000000000E+00  0.00000000000E+00  0.45593999997E+02  0.45594000000E+02  0.51100000000E-03 0.  1.
         11   -1    0    0    0    0 -0.00000000000E+00 -0.00000000000E+00 -0.45593999997E+02  0.45594000000E+02  0.51100000000E-03 0. -1.
    9900012    2    1    2    0    0  0.11333609480E+02  0.21828386006E+01 -0.14746612859E+02  0.72461599411E+02  0.70000037930E+02 0.  0.
        -12    1    1    2    0    0 -0.11333609480E+02 -0.21828386006E+01  0.14746612859E+02  0.18726400589E+02  0.00000000000E+00 0.  1.
         11    1    3    3    0    0  0.68920270032E+01  0.20675483961E+02 -0.33110663506E+02  0.39639522087E+02  0.51100000000E-03 0. -1.
        -11    1    3    3    0    0 -0.63896424135E+00 -0.43728864545E+01 -0.39528891344E+01  0.59292279443E+01  0.51100000000E-03 0.  1.
        -12    1    3    3    0    0  0.50805467184E+01 -0.14119758906E+02  0.22316939782E+02  0.26892849379E+02  0.00000000000E+00 0.  1.
</event>
<event>
 7    1  0.1788006E-013  0.7246158E+02  0.7816164E-02  0.1226708E+00
        -11   -1    0    0    0    0  0.00000000000E+00  0.00000000000E+00  0.45593999997E+02  0.45594000000E+02  0.51100000000E-03 0.  1.
         11   -1    0    0    0    0 -0.00000000000E+00 -0.00000000000E+00 -0.45593999997E+02  0.45594000000E+02  0.51100000000E-03 0. -1.
    9900012    2    1    2    0    0  0.15561933122E+02  0.58597226218E+01  0.86121281391E+01  0.72461578484E+02  0.70000010669E+02 0.  0.
        -12    1    1    2    0    0 -0.15561933122E+02 -0.58597226218E+01 -0.86121281391E+01  0.18726421516E+02  0.00000000000E+00 0.  1.
         11    1    3    3    0    0 -0.23192188134E+01 -0.10493600292E+02  0.93607012930E+01  0.14251917484E+02  0.51100000000E-03 0. -1.
        -11    1    3    3    0    0 -0.17243985776E+02  0.96162996733E+01  0.81401539353E+01  0.21356272409E+02  0.51100000000E-03 0.  1.
         12    1    3    3    0    0  0.35125137712E+02  0.67370232409E+01 -0.88887270891E+01  0.36853388592E+02  0.00000000000E+00 0. -1.
</event>
<event>
 7    1  0.1788006E-013  0.7246158E+02  0.7816164E-02  0.1226708E+00
        -11   -1    0    0    0    0  0.00000000000E+00  0.00000000000E+00  0.45593999997E+02  0.45594000000E+02  0.51100000000E-03 0.  1.
         11   -1    0    0    0    0 -0.00000000000E+00 -0.00000000000E+00 -0.45593999997E+02  0.45594000000E+02  0.51100000000E-03 0. -1.
    9900012    2    1    2    0    0  0.21110745599E+01  0.16023779878E+02 -0.94583666541E+01  0.72461578635E+02  0.70000010865E+02 0.  0.
        -12    1    1    2    0    0 -0.21110745599E+01 -0.16023779878E+02  0.94583666541E+01  0.18726421365E+02  0.00000000000E+00 0.  1.
         11    1    3    3    0    0 -0.97726863755E+01  0.17394750111E+02 -0.26353414776E+02  0.33054276592E+02  0.51100000000E-03 0. -1.
        -11    1    3    3    0    0 -0.77779800068E+01 -0.19720546188E+01 -0.54022957729E+01  0.96731986584E+01  0.51100000000E-03 0.  1.
        -12    1    3    3    0    0  0.19661740942E+02  0.60108438562E+00  0.22297343895E+02  0.29734103384E+02  0.00000000000E+00 0.  1.
</event>
<event>
 7    1  0.1788006E-013  0.7246158E+02  0.7816164E-02  0.1226708E+00
        -11   -1    0    0    0    0  0.00000000000E+00  0.00000000000E+00  0.45593999997E+02  0.45594000000E+02  0.51100000000E-03 0. -1.
         11   -1    0    0    0    0 -0.00000000000E+00 -0.00000000000E+00 -0.45593999997E+02  0.45594000000E+02  0.51100000000E-03 0.  1.
    9900012    2    1    2    0    0 -0.29041791920E+01  0.41117279946E+01  0.18037137785E+02  0.72461577401E+02  0.70000009257E+02 0.  0.
        -12    1    1    2    0    0  0.29041791920E+01 -0.41117279946E+01 -0.18037137785E+02  0.18726422599E+02  0.00000000000E+00 0.  1.
         11    1    3    3    0    0  0.30113577885E+01 -0.76769844823E+01  0.24979525311E+02  0.26305532716E+02  0.51100000000E-03 0. -1.
        -11    1    3    3    0    0  0.14853391155E+02  0.23261513090E+01 -0.15674890162E+02  0.21719493331E+02  0.51100000000E-03 0.  1.
         12    1    3    3    0    0 -0.20768928135E+02  0.94625611679E+01  0.87325026367E+01  0.24436551353E+02  0.00000000000E+00 0. -1.
</event>
<event>
 7    1  0.1788006E-013  0.7246158E+02  0.7816164E-02  0.1226708E+00
        -11   -1    0    0    0    0  0.00000000000E+00  0.00000000000E+00  0.45593999997E+02  0.45594000000E+02  0.51100000000E-03 0.  1.
         11   -1    0    0    0    0 -0.00000000000E+00 -0.00000000000E+00 -0.45593999997E+02  0.45594000000E+02  0.51100000000E-03 0. -1.
    9900012    2    1    2    0    0 -0.94708320157E+01  0.90380367540E+01 -0.13390153079E+02  0.72461575704E+02  0.70000007047E+02 0.  0.
        -12    1    1    2    0    0  0.94708320157E+01 -0.90380367540E+01  0.13390153079E+02  0.18726424296E+02  0.00000000000E+00 0.  1.
         11    1    3    3    0    0 -0.89470624550E+01 -0.12053896600E+01 -0.44006055244E+01  0.10043317184E+02  0.51100000000E-03 0. -1.
        -11    1    3    3    0    0 -0.69138708837E+01 -0.12015652637E+02  0.20608414423E+02  0.24837154913E+02  0.51100000000E-03 0.  1.
         12    1    3    3    0    0  0.63901013231E+01  0.22259079051E+02 -0.29597961978E+02  0.37581103607E+02  0.00000000000E+00 0. -1.
</event>
<event>
 7    1  0.1788006E-013  0.7246179E+02  0.7816164E-02  0.1226707E+00
        -11   -1    0    0    0    0  0.00000000000E+00  0.00000000000E+00  0.45593999997E+02  0.45594000000E+02  0.51100000000E-03 0. -1.
         11   -1    0    0    0    0 -0.00000000000E+00 -0.00000000000E+00 -0.45593999997E+02  0.45594000000E+02  0.51100000000E-03 0.  1.
    9900012    2    1    2    0    0  0.49134589600E+01  0.14003596272E+02  0.11420518915E+02  0.72461787361E+02  0.70000282769E+02 0.  0.
        -12    1    1    2    0    0 -0.49134589600E+01 -0.14003596272E+02 -0.11420518915E+02  0.18726212639E+02  0.00000000000E+00 0.  1.
         11    1    3    3    0    0  0.11598789989E+02 -0.15384925954E+01  0.18195670008E+02  0.21632875352E+02  0.51100000000E-03 0. -1.
        -11    1    3    3    0    0  0.20515065680E+02  0.53693102816E+01 -0.46564796855E+01  0.21711292364E+02  0.51100000000E-03 0.  1.
        -12    1    3    3    0    0 -0.27200396709E+02  0.10172778586E+02 -0.21186714073E+01  0.29117619646E+02  0.00000000000E+00 0.  1.
</event>
<event>
 7    1  0.1788006E-013  0.7246153E+02  0.7816164E-02  0.1226708E+00
        -11   -1    0    0    0    0  0.00000000000E+00  0.00000000000E+00  0.45593999997E+02  0.45594000000E+02  0.51100000000E-03 0. -1.
         11   -1    0    0    0    0 -0.00000000000E+00 -0.00000000000E+00 -0.45593999997E+02  0.45594000000E+02  0.51100000000E-03 0.  1.
    9900012    2    1    2    0    0 -0.90700680396E+01 -0.72758699543E+01  0.14679103644E+02  0.72461534727E+02  0.69999953667E+02 0.  0.
        -12    1    1    2    0    0  0.90700680396E+01  0.72758699543E+01 -0.14679103644E+02  0.18726465273E+02  0.00000000000E+00 0.  1.
         11    1    3    3    0    0 -0.47716006342E+01 -0.26444405218E+02  0.17677562956E+02  0.32164747353E+02  0.51100000000E-03 0. -1.
        -11    1    3    3    0    0 -0.17298069790E+02  0.43920254876E+00 -0.25752533664E+01  0.17494228977E+02  0.51100000000E-03 0.  1.
         12    1    3    3    0    0  0.12999602385E+02  0.18729332715E+02 -0.42320594600E+00  0.22802558396E+02  0.00000000000E+00 0. -1.
</event>
<event>
 7    1  0.1788006E-013  0.7246142E+02  0.7816164E-02  0.1226708E+00
        -11   -1    0    0    0    0  0.00000000000E+00  0.00000000000E+00  0.45593999997E+02  0.45594000000E+02  0.51100000000E-03 0.  1.
         11   -1    0    0    0    0 -0.00000000000E+00 -0.00000000000E+00 -0.45593999997E+02  0.45594000000E+02  0.51100000000E-03 0. -1.
    9900012    2    1    2    0    0  0.19955192387E+01  0.16638742994E+02 -0.83579319597E+01  0.72461417501E+02  0.69999800958E+02 0.  0.
        -12    1    1    2    0    0 -0.19955192387E+01 -0.16638742994E+02  0.83579319597E+01  0.18726582499E+02  0.00000000000E+00 0.  1.
         11    1    3    3    0    0 -0.90168947813E+01 -0.95041096044E+01  0.61978429477E+01  0.14492955128E+02  0.51100000000E-03 0. -1.
        -11    1    3    3    0    0  0.71433709015E+01  0.22161731956E+02  0.15129745193E+02  0.27768314694E+02  0.51100000000E-03 0.  1.
        -12    1    3    3    0    0  0.38690431185E+01  0.39811206426E+01 -0.29685520100E+02  0.30200147679E+02  0.00000000000E+00 0.  1.
</event>
<event>
 7    1  0.1788006E-013  0.7246157E+02  0.7816164E-02  0.1226708E+00
        -11   -1    0    0    0    0  0.00000000000E+00  0.00000000000E+00  0.45593999997E+02  0.45594000000E+02  0.51100000000E-03 0.  1.
         11   -1    0    0    0    0 -0.00000000000E+00 -0.00000000000E+00 -0.45593999997E+02  0.45594000000E+02  0.51100000000E-03 0. -1.
    9900012    2    1    2    0    0  0.18579152025E+02 -0.10048291136E+01 -0.21176953188E+01  0.72461569348E+02  0.69999998767E+02 0.  0.
        -12    1    1    2    0    0 -0.18579152025E+02  0.10048291136E+01  0.21176953188E+01  0.18726430652E+02  0.00000000000E+00 0.  1.
         11    1    3    3    0    0  0.32916961738E+02 -0.14339758222E+02 -0.61612188857E+01  0.36429598603E+02  0.51100000000E-03 0. -1.
        -11    1    3    3    0    0  0.83440887808E+01 -0.11984619503E+01 -0.14102155510E+01  0.85468612244E+01  0.51100000000E-03 0.  1.
        -12    1    3    3    0    0 -0.22681898494E+02  0.14533391059E+02  0.54537391180E+01  0.27485109520E+02  0.00000000000E+00 0.  1.
</event>
<event>
 7    1  0.1788006E-013  0.7246156E+02  0.7816164E-02  0.1226708E+00
        -11   -1    0    0    0    0  0.00000000000E+00  0.00000000000E+00  0.45593999997E+02  0.45594000000E+02  0.51100000000E-03 0. -1.
         11   -1    0    0    0    0 -0.00000000000E+00 -0.00000000000E+00 -0.45593999997E+02  0.45594000000E+02  0.51100000000E-03 0.  1.
    9900012    2    1    2    0    0 -0.96794277303E+01 -0.74998245080E+01  0.14168306897E+02  0.72461558556E+02  0.69999984709E+02 0.  0.
        -12    1    1    2    0    0  0.96794277303E+01  0.74998245080E+01 -0.14168306897E+02  0.18726441444E+02  0.00000000000E+00 0.  1.
         11    1    3    3    0    0 -0.24745843852E+02 -0.45087611939E+01  0.32751379012E+02  0.41295744852E+02  0.51100000000E-03 0. -1.
        -11    1    3    3    0    0 -0.24007709635E+01 -0.63665204683E+01 -0.27111879313E+01  0.73243992486E+01  0.51100000000E-03 0.  1.
        -12    1    3    3    0    0  0.17467187085E+02  0.33754571543E+01 -0.15871884184E+02  0.23841414455E+02  0.00000000000E+00 0.  1.
</event>
<event>
 7    1  0.1788006E-013  0.7246153E+02  0.7816164E-02  0.1226708E+00
        -11   -1    0    0    0    0  0.00000000000E+00  0.00000000000E+00  0.45593999997E+02  0.45594000000E+02  0.51100000000E-03 0.  1.
         11   -1    0    0    0    0 -0.00000000000E+00 -0.00000000000E+00 -0.45593999997E+02  0.45594000000E+02  0.51100000000E-03 0. -1.
    9900012    2    1    2    0    0  0.93168507497E+01  0.72762152984E+01 -0.14523559434E+02  0.72461526878E+02  0.69999943442E+02 0.  0.
        -12    1    1    2    0    0 -0.93168507497E+01 -0.72762152984E+01  0.14523559434E+02  0.18726473122E+02  0.00000000000E+00 0.  1.
         11    1    3    3    0    0  0.13215311122E+01  0.16713132659E+01  0.53947179684E+01  0.58002340240E+01  0.51100000000E-03 0. -1.
        -11    1    3    3    0    0  0.14423231547E+02  0.14682166757E+02  0.17878221613E+02  0.27262179613E+02  0.51100000000E-03 0.  1.
         12    1    3    3    0    0 -0.64279119095E+01 -0.90772647241E+01 -0.37796499015E+02  0.39399113241E+02  0.00000000000E+00 0. -1.
</event>
<event>
 7    1  0.1788006E-013  0.7246159E+02  0.7816164E-02  0.1226708E+00
        -11   -1    0    0    0    0  0.00000000000E+00  0.00000000000E+00  0.45593999997E+02  0.45594000000E+02  0.51100000000E-03 0.  1.
         11   -1    0    0    0    0 -0.00000000000E+00 -0.00000000000E+00 -0.45593999997E+02  0.45594000000E+02  0.51100000000E-03 0. -1.
    9900012    2    1    2    0    0 -0.10536561367E+02 -0.23800828116E+01 -0.15296882681E+02  0.72461587119E+02  0.70000021917E+02 0.  0.
        -12    1    1    2    0    0  0.10536561367E+02  0.23800828116E+01  0.15296882681E+02  0.18726412881E+02  0.00000000000E+00 0.  1.
         11    1    3    3    0    0 -0.10691025459E+01  0.12007102686E+02  0.85173333324E+01  0.14760029218E+02  0.51100000000E-03 0. -1.
        -11    1    3    3    0    0  0.74363664929E+01  0.16069630278E+02 -0.87415551008E+01  0.19747084588E+02  0.51100000000E-03 0.  1.
         12    1    3    3    0    0 -0.16903825314E+02 -0.30456815776E+02 -0.15072660913E+02  0.37954473313E+02  0.00000000000E+00 0. -1.
</event>
<event>
 7    1  0.1788006E-013  0.7246147E+02  0.7816164E-02  0.1226708E+00
        -11   -1    0    0    0    0  0.00000000000E+00  0.00000000000E+00  0.45593999997E+02  0.45594000000E+02  0.51100000000E-03 0. -1.
         11   -1    0    0    0    0 -0.00000000000E+00 -0.00000000000E+00 -0.45593999997E+02  0.45594000000E+02  0.51100000000E-03 0.  1.
    9900012    2    1    2    0    0 -0.17104992091E+02  0.76029094843E+01  0.54567656008E+00  0.72461474696E+02  0.69999875466E+02 0.  0.
        -12    1    1    2    0    0  0.17104992091E+02 -0.76029094843E+01 -0.54567656008E+00  0.18726525304E+02  0.00000000000E+00 0.  1.
         11    1    3    3    0    0 -0.20539372355E+02  0.10011605940E+02  0.52712585279E+01  0.23449610593E+02  0.51100000000E-03 0. -1.
        -11    1    3    3    0    0 -0.11853557802E+01 -0.13310174616E+02  0.18571141119E+02  0.22879097433E+02  0.51100000000E-03 0.  1.
        -12    1    3    3    0    0  0.46197360450E+01  0.10901478161E+02 -0.23296723087E+02  0.26132766670E+02  0.00000000000E+00 0.  1.
</event>
<event>
 7    1  0.1788006E-013  0.7246162E+02  0.7816164E-02  0.1226708E+00
        -11   -1    0    0    0    0  0.00000000000E+00  0.00000000000E+00  0.45593999997E+02  0.45594000000E+02  0.51100000000E-03 0.  1.
         11   -1    0    0    0    0 -0.00000000000E+00 -0.00000000000E+00 -0.45593999997E+02  0.45594000000E+02  0.51100000000E-03 0. -1.
    9900012    2    1    2    0    0 -0.43690562734E+01  0.60670661648E+01 -0.17169145202E+02  0.72461615097E+02  0.70000058364E+02 0.  0.
        -12    1    1    2    0    0  0.43690562734E+01 -0.60670661648E+01  0.17169145202E+02  0.18726384903E+02  0.00000000000E+00 0.  1.
         11    1    3    3    0    0  0.65518808764E+01 -0.62494153690E+01 -0.14689947332E+02  0.17256213036E+02  0.51100000000E-03 0. -1.
        -11    1    3    3    0    0  0.13731693643E+02  0.16960044357E+02 -0.15667338141E+02  0.26863879086E+02  0.51100000000E-03 0.  1.
        -12    1    3    3    0    0 -0.24652630793E+02 -0.46435628228E+01  0.13188140271E+02  0.28341522974E+02  0.00000000000E+00 0.  1.
</event>
<event>
 7    1  0.1788006E-013  0.7246159E+02  0.7816164E-02  0.1226708E+00
        -11   -1    0    0    0    0  0.00000000000E+00  0.00000000000E+00  0.45593999997E+02  0.45594000000E+02  0.51100000000E-03 0.  1.
         11   -1    0    0    0    0 -0.00000000000E+00 -0.00000000000E+00 -0.45593999997E+02  0.45594000000E+02  0.51100000000E-03 0. -1.
    9900012    2    1    2    0    0 -0.14410940817E+02 -0.84476334033E+01 -0.84640889305E+01  0.72461587456E+02  0.70000022356E+02 0.  0.
        -12    1    1    2    0    0  0.14410940817E+02  0.84476334033E+01  0.84640889305E+01  0.18726412544E+02  0.00000000000E+00 0.  1.
         11    1    3    3    0    0 -0.15773431702E+02 -0.16497376254E+02  0.10775443240E+02  0.25240339700E+02  0.51100000000E-03 0. -1.
        -11    1    3    3    0    0  0.99567568235E+00  0.80516015800E+01  0.12813601052E+02  0.15166015636E+02  0.51100000000E-03 0.  1.
         12    1    3    3    0    0  0.36681520171E+00 -0.18587294259E-02 -0.32053133223E+02  0.32055232120E+02  0.00000000000E+00 0. -1.
</event>
<event>
 7    1  0.1788006E-013  0.7246144E+02  0.7816164E-02  0.1226708E+00
        -11   -1    0    0    0    0  0.00000000000E+00  0.00000000000E+00  0.45593999997E+02  0.45594000000E+02  0.51100000000E-03 0.  1.
         11   -1    0    0    0    0 -0.00000000000E+00 -0.00000000000E+00 -0.45593999997E+02  0.45594000000E+02  0.51100000000E-03 0. -1.
    9900012    2    1    2    0    0 -0.62145757034E+01 -0.91066416967E+01 -0.15137110175E+02  0.72461441891E+02  0.69999832731E+02 0.  0.
        -12    1    1    2    0    0  0.62145757034E+01  0.91066416967E+01  0.15137110175E+02  0.18726558109E+02  0.00000000000E+00 0.  1.
         11    1    3    3    0    0 -0.34408501295E+01  0.35731015609E-01 -0.17978375084E+02  0.18304717896E+02  0.51100000000E-03 0. -1.
        -11    1    3    3    0    0 -0.22173538643E+02 -0.19883395919E+01 -0.15001841403E+02  0.26845382397E+02  0.51100000000E-03 0.  1.
         12    1    3    3    0    0  0.19399813069E+02 -0.71540331204E+01  0.17843106313E+02  0.27311341598E+02  0.00000000000E+00 0. -1.
</event>
<event>
 7    1  0.1788006E-013  0.7246155E+02  0.7816164E-02  0.1226708E+00
        -11   -1    0    0    0    0  0.00000000000E+00  0.00000000000E+00  0.45593999997E+02  0.45594000000E+02  0.51100000000E-03 0.  1.
         11   -1    0    0    0    0 -0.00000000000E+00 -0.00000000000E+00 -0.45593999997E+02  0.45594000000E+02  0.51100000000E-03 0. -1.
    9900012    2    1    2    0    0 -0.76933356770E-01 -0.80212266297E+01 -0.16921403058E+02  0.72461551409E+02  0.69999975398E+02 0.  0.
        -12    1    1    2    0    0  0.76933356770E-01  0.80212266297E+01  0.16921403058E+02  0.18726448591E+02  0.00000000000E+00 0.  1.
         11    1    3    3    0    0 -0.11477941139E+01 -0.25854520470E+02 -0.72045387912E+01  0.26864084565E+02  0.51100000000E-03 0. -1.
        -11    1    3    3    0    0 -0.61024924212E+01 -0.90755672721E+01  0.71245982021E+01  0.13052441720E+02  0.51100000000E-03 0.  1.
         12    1    3    3    0    0  0.71733531783E+01  0.26908861113E+02 -0.16841462469E+02  0.32545025123E+02  0.00000000000E+00 0. -1.
</event>
<event>
 7    1  0.1788006E-013  0.7246157E+02  0.7816164E-02  0.1226708E+00
        -11   -1    0    0    0    0  0.00000000000E+00  0.00000000000E+00  0.45593999997E+02  0.45594000000E+02  0.51100000000E-03 0.  1.
         11   -1    0    0    0    0 -0.00000000000E+00 -0.00000000000E+00 -0.45593999997E+02  0.45594000000E+02  0.51100000000E-03 0. -1.
    9900012    2    1    2    0    0  0.62778715289E+01 -0.81253474987E+01 -0.15660334905E+02  0.72461573960E+02  0.70000004775E+02 0.  0.
        -12    1    1    2    0    0 -0.62778715289E+01  0.81253474987E+01  0.15660334905E+02  0.18726426040E+02  0.00000000000E+00 0.  1.
         11    1    3    3    0    0  0.91992206606E+01 -0.24977560650E+01  0.13416482299E+01  0.96262384323E+01  0.51100000000E-03 0. -1.
        -11    1    3    3    0    0  0.14762985085E+02 -0.28017098691E+02 -0.12016953116E+02  0.33871975291E+02  0.51100000000E-03 0.  1.
        -12    1    3    3    0    0 -0.17684334217E+02  0.22389507257E+02 -0.49850300190E+01  0.28963360236E+02  0.00000000000E+00 0.  1.
</event>
<event>
 7    1  0.1788006E-013  0.7246157E+02  0.7816164E-02  0.1226708E+00
        -11   -1    0    0    0    0  0.00000000000E+00  0.00000000000E+00  0.45593999997E+02  0.45594000000E+02  0.51100000000E-03 0. -1.
         11   -1    0    0    0    0 -0.00000000000E+00 -0.00000000000E+00 -0.45593999997E+02  0.45594000000E+02  0.51100000000E-03 0.  1.
    9900012    2    1    2    0    0  0.10039117390E+02  0.14302023379E+02  0.67340546904E+01  0.72461568325E+02  0.69999997435E+02 0.  0.
        -12    1    1    2    0    0 -0.10039117390E+02 -0.14302023379E+02 -0.67340546904E+01  0.18726431675E+02  0.00000000000E+00 0.  1.
         11    1    3    3    0    0  0.16197046599E+02  0.10291528183E+02  0.43538766446E+01  0.19677807626E+02  0.51100000000E-03 0. -1.
        -11    1    3    3    0    0  0.18612348382E+02 -0.12848844050E+02  0.29949639691E+01  0.22814077127E+02  0.51100000000E-03 0.  1.
         12    1    3    3    0    0 -0.24770277591E+02  0.16859339246E+02 -0.61478592336E+00  0.29969683573E+02  0.00000000000E+00 0. -1.
</event>
<event>
 7    1  0.1788006E-013  0.7246156E+02  0.7816164E-02  0.1226708E+00
        -11   -1    0    0    0    0  0.00000000000E+00  0.00000000000E+00  0.45593999997E+02  0.45594000000E+02  0.51100000000E-03 0.  1.
         11   -1    0    0    0    0 -0.00000000000E+00 -0.00000000000E+00 -0.45593999997E+02  0.45594000000E+02  0.51100000000E-03 0. -1.
    9900012    2    1    2    0    0 -0.64254088157E+00 -0.16721043520E+02 -0.84067506928E+01  0.72461558470E+02  0.69999984596E+02 0.  0.
        -12    1    1    2    0    0  0.64254088157E+00  0.16721043520E+02  0.84067506928E+01  0.18726441530E+02  0.00000000000E+00 0.  1.
         11    1    3    3    0    0  0.12548936257E+02  0.66717668369E+01  0.17839734724E+02  0.22808866898E+02  0.51100000000E-03 0. -1.
        -11    1    3    3    0    0  0.53141512961E+01 -0.13938865413E+02  0.14937446109E+01  0.14992112800E+02  0.51100000000E-03 0.  1.
        -12    1    3    3    0    0 -0.18505628434E+02 -0.94539449439E+01 -0.27740230028E+02  0.34660578771E+02  0.00000000000E+00 0.  1.
</event>
<event>
 7    1  0.1788006E-013  0.7246161E+02  0.7816164E-02  0.1226708E+00
        -11   -1    0    0    0    0  0.00000000000E+00  0.00000000000E+00  0.45593999997E+02  0.45594000000E+02  0.51100000000E-03 0.  1.
         11   -1    0    0    0    0 -0.00000000000E+00 -0.00000000000E+00 -0.45593999997E+02  0.45594000000E+02  0.51100000000E-03 0. -1.
    9900012    2    1    2    0    0 -0.14616043904E+01 -0.18427454242E+02 -0.29950438453E+01  0.72461611003E+02  0.70000053030E+02 0.  0.
        -12    1    1    2    0    0  0.14616043904E+01  0.18427454242E+02  0.29950438453E+01  0.18726388997E+02  0.00000000000E+00 0.  1.
         11    1    3    3    0    0 -0.51504679367E+01 -0.28443082844E+02 -0.18536141477E+02  0.34338387014E+02  0.51100000000E-03 0. -1.
        -11    1    3    3    0    0  0.13863440513E+01 -0.12109488737E+02  0.28665146199E+01  0.12521125094E+02  0.51100000000E-03 0.  1.
        -12    1    3    3    0    0  0.23025194949E+01  0.22125117338E+02  0.12674583012E+02  0.25602098894E+02  0.00000000000E+00 0.  1.
</event>
<event>
 7    1  0.1788006E-013  0.7246158E+02  0.7816164E-02  0.1226708E+00
        -11   -1    0    0    0    0  0.00000000000E+00  0.00000000000E+00  0.45593999997E+02  0.45594000000E+02  0.51100000000E-03 0.  1.
         11   -1    0    0    0    0 -0.00000000000E+00 -0.00000000000E+00 -0.45593999997E+02  0.45594000000E+02  0.51100000000E-03 0. -1.
    9900012    2    1    2    0    0  0.93389284457E+01 -0.12154595111E+02 -0.10757740217E+02  0.72461581726E+02  0.70000014891E+02 0.  0.
        -12    1    1    2    0    0 -0.93389284457E+01  0.12154595111E+02  0.10757740217E+02  0.18726418274E+02  0.00000000000E+00 0.  1.
         11    1    3    3    0    0 -0.14231266228E+02 -0.11236508803E+02 -0.18215617129E+02  0.25702077273E+02  0.51100000000E-03 0. -1.
        -11    1    3    3    0    0 -0.10556490443E+02 -0.19956666188E+01 -0.28108138585E+01  0.11105082194E+02  0.51100000000E-03 0.  1.
        -12    1    3    3    0    0  0.34126685117E+02  0.10775803109E+01  0.10268690770E+02  0.35654422258E+02  0.00000000000E+00 0.  1.
</event>
<event>
 7    1  0.1788006E-013  0.7246168E+02  0.7816164E-02  0.1226708E+00
        -11   -1    0    0    0    0  0.00000000000E+00  0.00000000000E+00  0.45593999997E+02  0.45594000000E+02  0.51100000000E-03 0. -1.
         11   -1    0    0    0    0 -0.00000000000E+00 -0.00000000000E+00 -0.45593999997E+02  0.45594000000E+02  0.51100000000E-03 0.  1.
    9900012    2    1    2    0    0  0.94898121064E-01 -0.18404293499E+02 -0.34565710492E+01  0.72461684071E+02  0.70000148215E+02 0.  0.
        -12    1    1    2    0    0 -0.94898121064E-01  0.18404293499E+02  0.34565710492E+01  0.18726315929E+02  0.00000000000E+00 0.  1.
         11    1    3    3    0    0  0.12203197913E+02 -0.32615331415E+02  0.18165197872E+02  0.39276612590E+02  0.51100000000E-03 0. -1.
        -11    1    3    3    0    0 -0.36937440356E+01  0.45946437574E+01  0.20855876838E+01  0.62533329118E+01  0.51100000000E-03 0.  1.
        -12    1    3    3    0    0 -0.84145557559E+01  0.96163941586E+01 -0.23707356605E+02  0.26931738569E+02  0.00000000000E+00 0.  1.
</event>
<event>
 7    1  0.1788006E-013  0.7246151E+02  0.7816164E-02  0.1226708E+00
        -11   -1    0    0    0    0  0.00000000000E+00  0.00000000000E+00  0.45593999997E+02  0.45594000000E+02  0.51100000000E-03 0. -1.
         11   -1    0    0    0    0 -0.00000000000E+00 -0.00000000000E+00 -0.45593999997E+02  0.45594000000E+02  0.51100000000E-03 0.  1.
    9900012    2    1    2    0    0 -0.17112860126E+01 -0.18585712106E+02  0.15245008330E+01  0.72461513487E+02  0.69999925998E+02 0.  0.
        -12    1    1    2    0    0  0.17112860126E+01  0.18585712106E+02 -0.15245008330E+01  0.18726486513E+02  0.00000000000E+00 0.  1.
         11    1    3    3    0    0  0.15815169659E+01  0.66740970556E+01 -0.42897850170E+01  0.80899334468E+01  0.51100000000E-03 0. -1.
        -11    1    3    3    0    0  0.10983510733E+02  0.16195147160E+02 -0.25586148224E+01  0.19734913469E+02  0.51100000000E-03 0.  1.
         12    1    3    3    0    0 -0.14276313712E+02 -0.41454956323E+02  0.83729006724E+01  0.44636666571E+02  0.00000000000E+00 0. -1.
</event>
<event>
 7    1  0.1788006E-013  0.7246154E+02  0.7816164E-02  0.1226708E+00
        -11   -1    0    0    0    0  0.00000000000E+00  0.00000000000E+00  0.45593999997E+02  0.45594000000E+02  0.51100000000E-03 0.  1.
         11   -1    0    0    0    0 -0.00000000000E+00 -0.00000000000E+00 -0.45593999997E+02  0.45594000000E+02  0.51100000000E-03 0. -1.
    9900012    2    1    2    0    0  0.25417428288E+01  0.13849289973E+01 -0.18501400682E+02  0.72461539787E+02  0.69999960258E+02 0.  0.
        -12    1    1    2    0    0 -0.25417428288E+01 -0.13849289973E+01  0.18501400682E+02  0.18726460213E+02  0.00000000000E+00 0.  1.
         11    1    3    3    0    0  0.18467292815E+02  0.30922875795E+01 -0.14284106477E+02  0.23550771633E+02  0.51100000000E-03 0. -1.
        -11    1    3    3    0    0  0.13364671145E+02  0.96530382047E+01  0.27951163848E+01  0.16721490881E+02  0.51100000000E-03 0.  1.
         12    1    3    3    0    0 -0.29290221132E+02 -0.11360396787E+02 -0.70124105894E+01  0.32189277273E+02  0.00000000000E+00 0. -1.
</event>
<event>
 7    1  0.1788006E-013  0.7246153E+02  0.7816164E-02  0.1226708E+00
        -11   -1    0    0    0    0  0.00000000000E+00  0.00000000000E+00  0.45593999997E+02  0.45594000000E+02  0.51100000000E-03 0.  1.
         11   -1    0    0    0    0 -0.00000000000E+00 -0.00000000000E+00 -0.45593999997E+02  0.45594000000E+02  0.51100000000E-03 0. -1.
    9900012    2    1    2    0    0  0.16069811815E+01 -0.15631530892E+00 -0.18656732593E+02  0.72461534930E+02  0.69999953931E+02 0.  0.
        -12    1    1    2    0    0 -0.16069811815E+01  0.15631530892E+00  0.18656732593E+02  0.18726465070E+02  0.00000000000E+00 0.  1.
         11    1    3    3    0    0  0.57736485518E+01  0.13197670480E+02  0.14359004369E+02  0.20339482059E+02  0.51100000000E-03 0. -1.
        -11    1    3    3    0    0 -0.11187452609E+02 -0.17181366477E+01  0.45308066689E+01  0.12191771765E+02  0.51100000000E-03 0.  1.
         12    1    3    3    0    0  0.70207852391E+01 -0.11635849141E+02 -0.37546543631E+02  0.39930281106E+02  0.00000000000E+00 0. -1.
</event>
<event>
 7    1  0.1788006E-013  0.7246174E+02  0.7816164E-02  0.1226708E+00
        -11   -1    0    0    0    0  0.00000000000E+00  0.00000000000E+00  0.45593999997E+02  0.45594000000E+02  0.51100000000E-03 0. -1.
         11   -1    0    0    0    0 -0.00000000000E+00 -0.00000000000E+00 -0.45593999997E+02  0.45594000000E+02  0.51100000000E-03 0.  1.
    9900012    2    1    2    0    0 -0.11472741623E+02 -0.10003003263E+02  0.10908197174E+02  0.72461744629E+02  0.70000227103E+02 0.  0.
        -12    1    1    2    0    0  0.11472741623E+02  0.10003003263E+02 -0.10908197174E+02  0.18726255371E+02  0.00000000000E+00 0.  1.
         11    1    3    3    0    0  0.38765262540E+01  0.56110941885E+00 -0.35619176598E+01  0.52942947835E+01  0.51100000000E-03 0. -1.
        -11    1    3    3    0    0  0.81575051763E+01 -0.19413285319E+02 -0.16886002394E+02  0.26991806437E+02  0.51100000000E-03 0.  1.
         12    1    3    3    0    0 -0.23506773053E+02  0.88491726373E+01  0.31356117228E+02  0.40175643409E+02  0.00000000000E+00 0. -1.
</event>
<event>
 7    1  0.1788006E-013  0.7246153E+02  0.7816164E-02  0.1226708E+00
        -11   -1    0    0    0    0  0.00000000000E+00  0.00000000000E+00  0.45593999997E+02  0.45594000000E+02  0.51100000000E-03 0.  1.
         11   -1    0    0    0    0 -0.00000000000E+00 -0.00000000000E+00 -0.45593999997E+02  0.45594000000E+02  0.51100000000E-03 0. -1.
    9900012    2    1    2    0    0  0.10427724397E+02  0.11605336250E+02 -0.10356603655E+02  0.72461534641E+02  0.69999953555E+02 0.  0.
        -12    1    1    2    0    0 -0.10427724397E+02 -0.11605336250E+02  0.10356603655E+02  0.18726465359E+02  0.00000000000E+00 0.  1.
         11    1    3    3    0    0 -0.81718440858E+01 -0.65738847736E+01 -0.24428017607E+01  0.10768578248E+02  0.51100000000E-03 0. -1.
        -11    1    3    3    0    0 -0.10790427759E+02 -0.60357440226E+01  0.13253199315E+02  0.18124867710E+02  0.51100000000E-03 0.  1.
         12    1    3    3    0    0  0.29389996242E+02  0.24214965047E+02 -0.21167001210E+02  0.43568088683E+02  0.00000000000E+00 0. -1.
</event>
<event>
 7    1  0.1788006E-013  0.7246140E+02  0.7816164E-02  0.1226708E+00
        -11   -1    0    0    0    0  0.00000000000E+00  0.00000000000E+00  0.45593999997E+02  0.45594000000E+02  0.51100000000E-03 0.  1.
         11   -1    0    0    0    0 -0.00000000000E+00 -0.00000000000E+00 -0.45593999997E+02  0.45594000000E+02  0.51100000000E-03 0. -1.
    9900012    2    1    2    0    0 -0.24471056017E+01 -0.18075478344E+02  0.42396077764E+01  0.72461400808E+02  0.69999779213E+02 0.  0.
        -12    1    1    2    0    0  0.24471056017E+01  0.18075478344E+02 -0.42396077764E+01  0.18726599192E+02  0.00000000000E+00 0.  1.
         11    1    3    3    0    0  0.55094370013E+01  0.61868271565E+01  0.16129392741E+02  0.18132513251E+02  0.51100000000E-03 0.  1.
        -11    1    3    3    0    0 -0.19207377377E+02 -0.26477382254E+02 -0.21687000651E+02  0.39246670103E+02  0.51100000000E-03 0. -1.
         12    1    3    3    0    0  0.11250834774E+02  0.22150767535E+01  0.97972156866E+01  0.15082217454E+02  0.00000000000E+00 0. -1.
</event>
<event>
 7    1  0.1788006E-013  0.7246130E+02  0.7816164E-02  0.1226709E+00
        -11   -1    0    0    0    0  0.00000000000E+00  0.00000000000E+00  0.45593999997E+02  0.45594000000E+02  0.51100000000E-03 0.  1.
         11   -1    0    0    0    0 -0.00000000000E+00 -0.00000000000E+00 -0.45593999997E+02  0.45594000000E+02  0.51100000000E-03 0. -1.
    9900012    2    1    2    0    0  0.84649201657E+01  0.11791981259E+02  0.11831459571E+02  0.72461304322E+02  0.69999653521E+02 0.  0.
        -12    1    1    2    0    0 -0.84649201657E+01 -0.11791981259E+02 -0.11831459571E+02  0.18726695678E+02  0.00000000000E+00 0.  1.
         11    1    3    3    0    0  0.21814778749E+02  0.91540475816E+01  0.17332003492E+02  0.29327112103E+02  0.51100000000E-03 0. -1.
        -11    1    3    3    0    0  0.44139985696E+01  0.10493877274E+01  0.15169514778E+02  0.15833470145E+02  0.51100000000E-03 0.  1.
         12    1    3    3    0    0 -0.17763857153E+02  0.15885459505E+01 -0.20670058699E+02  0.27300722074E+02  0.00000000000E+00 0. -1.
</event>
<event>
 7    1  0.1788006E-013  0.7246160E+02  0.7816164E-02  0.1226708E+00
        -11   -1    0    0    0    0  0.00000000000E+00  0.00000000000E+00  0.45593999997E+02  0.45594000000E+02  0.51100000000E-03 0.  1.
         11   -1    0    0    0    0 -0.00000000000E+00 -0.00000000000E+00 -0.45593999997E+02  0.45594000000E+02  0.51100000000E-03 0. -1.
    9900012    2    1    2    0    0  0.15505094211E+02 -0.90621532399E+01 -0.53054167442E+01  0.72461601129E+02  0.70000040168E+02 0.  0.
        -12    1    1    2    0    0 -0.15505094211E+02  0.90621532399E+01  0.53054167442E+01  0.18726398871E+02  0.00000000000E+00 0.  1.
         11    1    3    3    0    0  0.23457156646E+02  0.14179115888E+02  0.14034326411E+02  0.30793633162E+02  0.51100000000E-03 0. -1.
        -11    1    3    3    0    0  0.78047602095E+01 -0.54347059498E+01  0.20005230032E+01  0.97186626259E+01  0.51100000000E-03 0.  1.
        -12    1    3    3    0    0 -0.15756822644E+02 -0.17806563178E+02 -0.21340266159E+02  0.31949305341E+02  0.00000000000E+00 0.  1.
</event>
<event>
 7    1  0.1788006E-013  0.7246157E+02  0.7816164E-02  0.1226708E+00
        -11   -1    0    0    0    0  0.00000000000E+00  0.00000000000E+00  0.45593999997E+02  0.45594000000E+02  0.51100000000E-03 0. -1.
         11   -1    0    0    0    0 -0.00000000000E+00 -0.00000000000E+00 -0.45593999997E+02  0.45594000000E+02  0.51100000000E-03 0.  1.
    9900012    2    1    2    0    0 -0.10908090673E+02  0.15139323442E+02 -0.15791406026E+01  0.72461568374E+02  0.69999997499E+02 0.  0.
        -12    1    1    2    0    0  0.10908090673E+02 -0.15139323442E+02  0.15791406026E+01  0.18726431626E+02  0.00000000000E+00 0.  1.
         11    1    3    3    0    0  0.52915115470E+00 -0.13725080788E+01  0.89981392868E+01  0.91175813819E+01  0.51100000000E-03 0. -1.
        -11    1    3    3    0    0 -0.34711467095E+02  0.15737204909E+01 -0.71704031906E+01  0.35479250644E+02  0.51100000000E-03 0.  1.
         12    1    3    3    0    0  0.23274225268E+02  0.14938111030E+02 -0.34068766987E+01  0.27864736349E+02  0.00000000000E+00 0. -1.
</event>
<event>
 7    1  0.1788006E-013  0.7246151E+02  0.7816164E-02  0.1226708E+00
        -11   -1    0    0    0    0  0.00000000000E+00  0.00000000000E+00  0.45593999997E+02  0.45594000000E+02  0.51100000000E-03 0.  1.
         11   -1    0    0    0    0 -0.00000000000E+00 -0.00000000000E+00 -0.45593999997E+02  0.45594000000E+02  0.51100000000E-03 0. -1.
    9900012    2    1    2    0    0  0.17255441163E+02  0.48383116023E+01 -0.54334048310E+01  0.72461510822E+02  0.69999922526E+02 0.  0.
        -12    1    1    2    0    0 -0.17255441163E+02 -0.48383116023E+01  0.54334048310E+01  0.18726489178E+02  0.00000000000E+00 0.  1.
         11    1    3    3    0    0  0.89446727170E+01  0.22487365820E+02 -0.18999725778E+02  0.30768138901E+02  0.51100000000E-03 0. -1.
        -11    1    3    3    0    0  0.20859532951E+02 -0.46994483621E+01  0.78240108334E+01  0.22768840015E+02  0.51100000000E-03 0.  1.
        -12    1    3    3    0    0 -0.12548764505E+02 -0.12949605855E+02  0.57423101137E+01  0.18924531906E+02  0.00000000000E+00 0.  1.
</event>
<event>
 7    1  0.1788006E-013  0.7246158E+02  0.7816164E-02  0.1226708E+00
        -11   -1    0    0    0    0  0.00000000000E+00  0.00000000000E+00  0.45593999997E+02  0.45594000000E+02  0.51100000000E-03 0.  1.
         11   -1    0    0    0    0 -0.00000000000E+00 -0.00000000000E+00 -0.45593999997E+02  0.45594000000E+02  0.51100000000E-03 0. -1.
    9900012    2    1    2    0    0 -0.12683563388E+02 -0.81257814770E+01 -0.11125551049E+02  0.72461575062E+02  0.70000006210E+02 0.  0.
        -12    1    1    2    0    0  0.12683563388E+02  0.81257814770E+01  0.11125551049E+02  0.18726424938E+02  0.00000000000E+00 0.  1.
         11    1    3    3    0    0  0.10770242056E+02 -0.28635380449E+02 -0.19476245891E+02  0.36267165338E+02  0.51100000000E-03 0. -1.
        -11    1    3    3    0    0 -0.19542414981E+01  0.11876095279E+02  0.33372048965E+01  0.12489901348E+02  0.51100000000E-03 0.  1.
        -12    1    3    3    0    0 -0.21499563946E+02  0.86335036923E+01  0.50134899452E+01  0.23704508375E+02  0.00000000000E+00 0.  1.
</event>
<event>
 7    1  0.1788006E-013  0.7246154E+02  0.7816164E-02  0.1226708E+00
        -11   -1    0    0    0    0  0.00000000000E+00  0.00000000000E+00  0.45593999997E+02  0.45594000000E+02  0.51100000000E-03 0.  1.
         11   -1    0    0    0    0 -0.00000000000E+00 -0.00000000000E+00 -0.45593999997E+02  0.45594000000E+02  0.51100000000E-03 0. -1.
    9900012    2    1    2    0    0 -0.17745798048E+02  0.36329860445E+01  0.47506296232E+01  0.72461536965E+02  0.69999956583E+02 0.  0.
        -12    1    1    2    0    0  0.17745798048E+02 -0.36329860445E+01 -0.47506296232E+01  0.18726463035E+02  0.00000000000E+00 0.  1.
         11    1    3    3    0    0  0.27556376301E+01  0.12489374655E+01 -0.48286041760E+01  0.56981402308E+01  0.51100000000E-03 0. -1.
        -11    1    3    3    0    0 -0.41652093736E+02 -0.81300901571E+01  0.54803454503E+01  0.42790530086E+02  0.51100000000E-03 0.  1.
         12    1    3    3    0    0  0.21150658058E+02  0.10514138736E+02  0.40988883489E+01  0.23972866648E+02  0.00000000000E+00 0. -1.
</event>
<event>
 7    1  0.1788006E-013  0.7246172E+02  0.7816164E-02  0.1226708E+00
        -11   -1    0    0    0    0  0.00000000000E+00  0.00000000000E+00  0.45593999997E+02  0.45594000000E+02  0.51100000000E-03 0. -1.
         11   -1    0    0    0    0 -0.00000000000E+00 -0.00000000000E+00 -0.45593999997E+02  0.45594000000E+02  0.51100000000E-03 0.  1.
    9900012    2    1    2    0    0  0.83061103532E+01  0.14951211338E+02  0.76251766076E+01  0.72461721460E+02  0.70000196920E+02 0.  0.
        -12    1    1    2    0    0 -0.83061103532E+01 -0.14951211338E+02 -0.76251766076E+01  0.18726278540E+02  0.00000000000E+00 0.  1.
         11    1    3    3    0    0 -0.53455737936E+00  0.19423500915E+02 -0.15234959916E+02  0.24691337414E+02  0.51100000000E-03 0. -1.
        -11    1    3    3    0    0 -0.64113928697E+01 -0.16800069210E+02  0.44526056199E+00  0.17987399512E+02  0.51100000000E-03 0.  1.
         12    1    3    3    0    0  0.15252060602E+02  0.12327779633E+02  0.22414875962E+02  0.29782984533E+02  0.00000000000E+00 0. -1.
</event>
<event>
 7    1  0.1788006E-013  0.7246169E+02  0.7816164E-02  0.1226708E+00
        -11   -1    0    0    0    0  0.00000000000E+00  0.00000000000E+00  0.45593999997E+02  0.45594000000E+02  0.51100000000E-03 0.  1.
         11   -1    0    0    0    0 -0.00000000000E+00 -0.00000000000E+00 -0.45593999997E+02  0.45594000000E+02  0.51100000000E-03 0. -1.
    9900012    2    1    2    0    0 -0.57568640103E+01 -0.96081971393E+01 -0.15007189856E+02  0.72461690089E+02  0.70000156055E+02 0.  0.
        -12    1    1    2    0    0  0.57568640103E+01  0.96081971393E+01  0.15007189856E+02  0.18726309911E+02  0.00000000000E+00 0.  1.
         11    1    3    3    0    0 -0.23215250811E+02 -0.74203866591E+01 -0.23647720113E+02  0.33959161874E+02  0.51100000000E-03 0. -1.
        -11    1    3    3    0    0  0.47936554941E+00  0.61655719010E+00 -0.11775350359E+02  0.11801220719E+02  0.51100000000E-03 0.  1.
        -12    1    3    3    0    0  0.16979021252E+02 -0.28043676703E+01  0.20415880616E+02  0.26701307496E+02  0.00000000000E+00 0.  1.
</event>
<event>
 7    1  0.1788006E-013  0.7246163E+02  0.7816164E-02  0.1226708E+00
        -11   -1    0    0    0    0  0.00000000000E+00  0.00000000000E+00  0.45593999997E+02  0.45594000000E+02  0.51100000000E-03 0. -1.
         11   -1    0    0    0    0 -0.00000000000E+00 -0.00000000000E+00 -0.45593999997E+02  0.45594000000E+02  0.51100000000E-03 0.  1.
    9900012    2    1    2    0    0 -0.28686635724E+00 -0.63683180441E+01  0.17607927694E+02  0.72461631300E+02  0.70000079471E+02 0.  0.
        -12    1    1    2    0    0  0.28686635724E+00  0.63683180441E+01 -0.17607927694E+02  0.18726368700E+02  0.00000000000E+00 0.  1.
         11    1    3    3    0    0  0.24739891294E+02  0.79695294857E+00  0.72135691996E+01  0.25782415249E+02  0.51100000000E-03 0. -1.
        -11    1    3    3    0    0 -0.15005987863E+02 -0.47953050446E+01 -0.13445052444E+02  0.20710964673E+02  0.51100000000E-03 0.  1.
        -12    1    3    3    0    0 -0.10020769788E+02 -0.23699659481E+01  0.23839410938E+02  0.25968251378E+02  0.00000000000E+00 0.  1.
</event>
<event>
 7    1  0.1788006E-013  0.7246155E+02  0.7816164E-02  0.1226708E+00
        -11   -1    0    0    0    0  0.00000000000E+00  0.00000000000E+00  0.45593999997E+02  0.45594000000E+02  0.51100000000E-03 0.  1.
         11   -1    0    0    0    0 -0.00000000000E+00 -0.00000000000E+00 -0.45593999997E+02  0.45594000000E+02  0.51100000000E-03 0. -1.
    9900012    2    1    2    0    0 -0.36021080155E+01 -0.43019248586E+00 -0.18371711037E+02  0.72461547743E+02  0.69999970622E+02 0.  0.
        -12    1    1    2    0    0  0.36021080155E+01  0.43019248586E+00  0.18371711037E+02  0.18726452257E+02  0.00000000000E+00 0.  1.
         11    1    3    3    0    0  0.10568437881E+02  0.27574143224E+01 -0.26532721061E+02  0.28692864969E+02  0.51100000000E-03 0. -1.
        -11    1    3    3    0    0  0.97171729613E+01 -0.10791433141E+02  0.11439835979E+02  0.18486436300E+02  0.51100000000E-03 0.  1.
        -12    1    3    3    0    0 -0.23887718858E+02  0.76038263327E+01 -0.32788259547E+01  0.25282246474E+02  0.00000000000E+00 0.  1.
</event>
<event>
 7    1  0.1788006E-013  0.7246146E+02  0.7816164E-02  0.1226708E+00
        -11   -1    0    0    0    0  0.00000000000E+00  0.00000000000E+00  0.45593999997E+02  0.45594000000E+02  0.51100000000E-03 0. -1.
         11   -1    0    0    0    0 -0.00000000000E+00 -0.00000000000E+00 -0.45593999997E+02  0.45594000000E+02  0.51100000000E-03 0.  1.
    9900012    2    1    2    0    0 -0.12616704157E+02 -0.73583942921E+01  0.11719894606E+02  0.72461464818E+02  0.69999862597E+02 0.  0.
        -12    1    1    2    0    0  0.12616704157E+02  0.73583942921E+01 -0.11719894606E+02  0.18726535182E+02  0.00000000000E+00 0.  1.
         11    1    3    3    0    0 -0.16405102803E+00 -0.27022234147E+02  0.67227100408E+01  0.27846415956E+02  0.51100000000E-03 0. -1.
        -11    1    3    3    0    0 -0.20511074498E+02 -0.24992170685E+01  0.92523615895E+00  0.20683479524E+02  0.51100000000E-03 0.  1.
        -12    1    3    3    0    0  0.80584213683E+01  0.22163056924E+02  0.40719484062E+01  0.23931569338E+02  0.00000000000E+00 0.  1.
</event>
<event>
 7    1  0.1788006E-013  0.7246176E+02  0.7816164E-02  0.1226708E+00
        -11   -1    0    0    0    0  0.00000000000E+00  0.00000000000E+00  0.45593999997E+02  0.45594000000E+02  0.51100000000E-03 0.  1.
         11   -1    0    0    0    0 -0.00000000000E+00 -0.00000000000E+00 -0.45593999997E+02  0.45594000000E+02  0.51100000000E-03 0. -1.
    9900012    2    1    2    0    0 -0.16785509915E+02  0.62409190278E+00 -0.82782388002E+01  0.72461759816E+02  0.70000246886E+02 0.  0.
        -12    1    1    2    0    0  0.16785509915E+02 -0.62409190278E+00  0.82782388002E+01  0.18726240184E+02  0.00000000000E+00 0.  1.
         11    1    3    3    0    0 -0.15847157249E+02  0.12535371609E+02  0.20970949342E+02  0.29121274883E+02  0.51100000000E-03 0. -1.
        -11    1    3    3    0    0  0.16021464216E+01 -0.37970498505E+01  0.58892156101E+01  0.71879984340E+01  0.51100000000E-03 0.  1.
         12    1    3    3    0    0 -0.25404990875E+01 -0.81142298553E+01 -0.35138403753E+02  0.36152486499E+02  0.00000000000E+00 0. -1.
</event>
<event>
 7    1  0.1788006E-013  0.7246157E+02  0.7816164E-02  0.1226708E+00
        -11   -1    0    0    0    0  0.00000000000E+00  0.00000000000E+00  0.45593999997E+02  0.45594000000E+02  0.51100000000E-03 0. -1.
         11   -1    0    0    0    0 -0.00000000000E+00 -0.00000000000E+00 -0.45593999997E+02  0.45594000000E+02  0.51100000000E-03 0.  1.
    9900012    2    1    2    0    0 -0.11644869342E+02  0.19234442773E+01  0.14538791709E+02  0.72461572571E+02  0.70000002966E+02 0.  0.
        -12    1    1    2    0    0  0.11644869342E+02 -0.19234442773E+01 -0.14538791709E+02  0.18726427429E+02  0.00000000000E+00 0.  1.
         11    1    3    3    0    0 -0.13177883628E+02  0.19539618237E+02  0.72757772142E+00  0.23579284708E+02  0.51100000000E-03 0. -1.
        -11    1    3    3    0    0  0.19106793252E+02 -0.13430946554E+01 -0.33142644512E+01  0.19438564781E+02  0.51100000000E-03 0.  1.
        -12    1    3    3    0    0 -0.17573778966E+02 -0.16273079304E+02  0.17125478439E+02  0.29443723082E+02  0.00000000000E+00 0.  1.
</event>
<event>
 7    1  0.1788006E-013  0.7246156E+02  0.7816164E-02  0.1226708E+00
        -11   -1    0    0    0    0  0.00000000000E+00  0.00000000000E+00  0.45593999997E+02  0.45594000000E+02  0.51100000000E-03 0. -1.
         11   -1    0    0    0    0 -0.00000000000E+00 -0.00000000000E+00 -0.45593999997E+02  0.45594000000E+02  0.51100000000E-03 0.  1.
    9900012    2    1    2    0    0  0.48614673861E+01  0.18082203603E+02 -0.28213968883E+00  0.72461559999E+02  0.69999986589E+02 0.  0.
        -12    1    1    2    0    0 -0.48614673861E+01 -0.18082203603E+02  0.28213968883E+00  0.18726440001E+02  0.00000000000E+00 0.  1.
         11    1    3    3    0    0 -0.17939635445E+02  0.30745314891E+01 -0.85523752299E+01  0.20110355196E+02  0.51100000000E-03 0. -1.
        -11    1    3    3    0    0  0.24615095342E+01 -0.11706787963E+02 -0.86404640378E+01  0.14756880857E+02  0.51100000000E-03 0.  1.
         12    1    3    3    0    0  0.20339593297E+02  0.26714460077E+02  0.16910699579E+02  0.37594323946E+02  0.00000000000E+00 0. -1.
</event>
<event>
 7    1  0.1788006E-013  0.7246139E+02  0.7816164E-02  0.1226708E+00
        -11   -1    0    0    0    0  0.00000000000E+00  0.00000000000E+00  0.45593999997E+02  0.45594000000E+02  0.51100000000E-03 0.  1.
         11   -1    0    0    0    0 -0.00000000000E+00 -0.00000000000E+00 -0.45593999997E+02  0.45594000000E+02  0.51100000000E-03 0. -1.
    9900012    2    1    2    0    0  0.98551141012E+00  0.10990511081E+02 -0.15130208106E+02  0.72461394224E+02  0.69999770636E+02 0.  0.
        -12    1    1    2    0    0 -0.98551141012E+00 -0.10990511081E+02  0.15130208106E+02  0.18726605776E+02  0.00000000000E+00 0.  1.
         11    1    3    3    0    0  0.82953969715E+01  0.23697992963E+02 -0.56127080031E+01  0.25727630532E+02  0.51100000000E-03 0. -1.
        -11    1    3    3    0    0 -0.27779146626E+01  0.13916159492E+02  0.62004546092E+01  0.15486185537E+02  0.51100000000E-03 0.  1.
         12    1    3    3    0    0 -0.45319708988E+01 -0.26623641374E+02 -0.15717954712E+02  0.31247578155E+02  0.00000000000E+00 0. -1.
</event>
<event>
 7    1  0.1788006E-013  0.7246130E+02  0.7816164E-02  0.1226709E+00
        -11   -1    0    0    0    0  0.00000000000E+00  0.00000000000E+00  0.45593999997E+02  0.45594000000E+02  0.51100000000E-03 0.  1.
         11   -1    0    0    0    0 -0.00000000000E+00 -0.00000000000E+00 -0.45593999997E+02  0.45594000000E+02  0.51100000000E-03 0. -1.
    9900012    2    1    2    0    0  0.17773365084E+02  0.42255506882E+01  0.41160169855E+01  0.72461297652E+02  0.69999644831E+02 0.  0.
        -12    1    1    2    0    0 -0.17773365084E+02 -0.42255506882E+01 -0.41160169855E+01  0.18726702348E+02  0.00000000000E+00 0.  1.
         11    1    3    3    0    0 -0.79972594938E+01  0.15104639577E+02  0.14838972836E+02  0.22634076329E+02  0.51100000000E-03 0. -1.
        -11    1    3    3    0    0 -0.10112104974E+02 -0.62815583190E+01  0.60318349650E+00  0.11919583571E+02  0.51100000000E-03 0.  1.
         12    1    3    3    0    0  0.35882729552E+02 -0.45975305700E+01 -0.11326139347E+02  0.37907637752E+02  0.00000000000E+00 0. -1.
</event>
<event>
 7    1  0.1788006E-013  0.7246153E+02  0.7816164E-02  0.1226708E+00
        -11   -1    0    0    0    0  0.00000000000E+00  0.00000000000E+00  0.45593999997E+02  0.45594000000E+02  0.51100000000E-03 0. -1.
         11   -1    0    0    0    0 -0.00000000000E+00 -0.00000000000E+00 -0.45593999997E+02  0.45594000000E+02  0.51100000000E-03 0.  1.
    9900012    2    1    2    0    0  0.10137544378E+02  0.15339008685E+02  0.35532661442E+01  0.72461529597E+02  0.69999946984E+02 0.  0.
        -12    1    1    2    0    0 -0.10137544378E+02 -0.15339008685E+02 -0.35532661442E+01  0.18726470403E+02  0.00000000000E+00 0.  1.
         11    1    3    3    0    0  0.15425582693E+02  0.17306448175E+02  0.20477770277E+02  0.30932197233E+02  0.51100000000E-03 0. -1.
        -11    1    3    3    0    0  0.99199070845E+01  0.13131725871E+02 -0.64532188216E+01  0.17677409718E+02  0.51100000000E-03 0.  1.
        -12    1    3    3    0    0 -0.15207945399E+02 -0.15099165361E+02 -0.10471285312E+02  0.23851922646E+02  0.00000000000E+00 0.  1.
</event>
<event>
 7    1  0.1788006E-013  0.7246146E+02  0.7816164E-02  0.1226708E+00
        -11   -1    0    0    0    0  0.00000000000E+00  0.00000000000E+00  0.45593999997E+02  0.45594000000E+02  0.51100000000E-03 0.  1.
         11   -1    0    0    0    0 -0.00000000000E+00 -0.00000000000E+00 -0.45593999997E+02  0.45594000000E+02  0.51100000000E-03 0. -1.
    9900012    2    1    2    0    0 -0.10010459515E+02  0.11536681022E+02 -0.10834152890E+02  0.72461463279E+02  0.69999860593E+02 0.  0.
        -12    1    1    2    0    0  0.10010459515E+02 -0.11536681022E+02  0.10834152890E+02  0.18726536721E+02  0.00000000000E+00 0.  1.
         11    1    3    3    0    0  0.17488113641E+02  0.23278304673E+02 -0.14320817074E+02  0.32446870251E+02  0.51100000000E-03 0. -1.
        -11    1    3    3    0    0 -0.80388154017E+01  0.84682815900E+01  0.25038845757E+01  0.11941682644E+02  0.51100000000E-03 0.  1.
        -12    1    3    3    0    0 -0.19459757754E+02 -0.20209905241E+02  0.98277960847E+00  0.28072910384E+02  0.00000000000E+00 0.  1.
</event>
<event>
 7    1  0.1788006E-013  0.7246166E+02  0.7816164E-02  0.1226708E+00
        -11   -1    0    0    0    0  0.00000000000E+00  0.00000000000E+00  0.45593999997E+02  0.45594000000E+02  0.51100000000E-03 0. -1.
         11   -1    0    0    0    0 -0.00000000000E+00 -0.00000000000E+00 -0.45593999997E+02  0.45594000000E+02  0.51100000000E-03 0.  1.
    9900012    2    1    2    0    0  0.74782789375E+01 -0.12443514077E+02  0.11828356983E+02  0.72461662201E+02  0.70000119725E+02 0.  0.
        -12    1    1    2    0    0 -0.74782789375E+01  0.12443514077E+02 -0.11828356983E+02  0.18726337799E+02  0.00000000000E+00 0.  1.
         11    1    3    3    0    0  0.11401363939E+02 -0.15641604279E+02 -0.19095966118E+01  0.19449870014E+02  0.51100000000E-03 0. -1.
        -11    1    3    3    0    0 -0.20842635028E+02 -0.11130527936E+02  0.18887926168E+02  0.30249923012E+02  0.51100000000E-03 0.  1.
         12    1    3    3    0    0  0.16919550026E+02  0.14328618138E+02 -0.51499725729E+01  0.22761869175E+02  0.00000000000E+00 0. -1.
</event>
<event>
 7    1  0.1788006E-013  0.7246164E+02  0.7816164E-02  0.1226708E+00
        -11   -1    0    0    0    0  0.00000000000E+00  0.00000000000E+00  0.45593999997E+02  0.45594000000E+02  0.51100000000E-03 0.  1.
         11   -1    0    0    0    0 -0.00000000000E+00 -0.00000000000E+00 -0.45593999997E+02  0.45594000000E+02  0.51100000000E-03 0. -1.
    9900012    2    1    2    0    0  0.13974448416E+02  0.10535472917E+02  0.66629740638E+01  0.72461638327E+02  0.70000088626E+02 0.  0.
        -12    1    1    2    0    0 -0.13974448416E+02 -0.10535472917E+02 -0.66629740638E+01  0.18726361673E+02  0.00000000000E+00 0.  1.
         11    1    3    3    0    0 -0.61675142173E+01  0.45933376788E+01 -0.88421163145E+01  0.11718361824E+02  0.51100000000E-03 0. -1.
        -11    1    3    3    0    0  0.13484815019E+02  0.26770261656E+02 -0.54396967053E+01  0.30464363538E+02  0.51100000000E-03 0.  1.
        -12    1    3    3    0    0  0.66571476138E+01 -0.20828126418E+02  0.20944787084E+02  0.30278912966E+02  0.00000000000E+00 0.  1.
</event>
<event>
 7    1  0.1788006E-013  0.7246156E+02  0.7816164E-02  0.1226708E+00
        -11   -1    0    0    0    0  0.00000000000E+00  0.00000000000E+00  0.45593999997E+02  0.45594000000E+02  0.51100000000E-03 0.  1.
         11   -1    0    0    0    0 -0.00000000000E+00 -0.00000000000E+00 -0.45593999997E+02  0.45594000000E+02  0.51100000000E-03 0. -1.
    9900012    2    1    2    0    0 -0.16211079324E+02  0.93191011858E+01  0.10172503937E+01  0.72461560452E+02  0.69999987179E+02 0.  0.
        -12    1    1    2    0    0  0.16211079324E+02 -0.93191011858E+01 -0.10172503937E+01  0.18726439548E+02  0.00000000000E+00 0.  1.
         11    1    3    3    0    0  0.57120220016E+01 -0.41426706194E+01  0.25386766950E+02  0.26349133793E+02  0.51100000000E-03 0. -1.
        -11    1    3    3    0    0 -0.12103075674E+02 -0.80895017685E+01 -0.46138753868E+01  0.15271290907E+02  0.51100000000E-03 0.  1.
         12    1    3    3    0    0 -0.98200256521E+01  0.21551273574E+02 -0.19755641169E+02  0.30841135752E+02  0.00000000000E+00 0. -1.
</event>
<event>
 7    1  0.1788006E-013  0.7246161E+02  0.7816164E-02  0.1226708E+00
        -11   -1    0    0    0    0  0.00000000000E+00  0.00000000000E+00  0.45593999997E+02  0.45594000000E+02  0.51100000000E-03 0. -1.
         11   -1    0    0    0    0 -0.00000000000E+00 -0.00000000000E+00 -0.45593999997E+02  0.45594000000E+02  0.51100000000E-03 0.  1.
    9900012    2    1    2    0    0  0.60632614126E+01  0.15210553272E+02 -0.90858944706E+01  0.72461613586E+02  0.70000056395E+02 0.  0.
        -12    1    1    2    0    0 -0.60632614126E+01 -0.15210553272E+02  0.90858944706E+01  0.18726386414E+02  0.00000000000E+00 0.  1.
         11    1    3    3    0    0  0.10410898644E+02  0.17559088001E+02  0.10508304821E+02  0.22959373957E+02  0.51100000000E-03 0. -1.
        -11    1    3    3    0    0  0.15009405639E+02  0.13686412002E+02 -0.92922601946E+01  0.22337104354E+02  0.51100000000E-03 0.  1.
        -12    1    3    3    0    0 -0.19357042870E+02 -0.16034946731E+02 -0.10301939097E+02  0.27165135275E+02  0.00000000000E+00 0.  1.
</event>
<event>
 7    1  0.1788006E-013  0.7246156E+02  0.7816164E-02  0.1226708E+00
        -11   -1    0    0    0    0  0.00000000000E+00  0.00000000000E+00  0.45593999997E+02  0.45594000000E+02  0.51100000000E-03 0. -1.
         11   -1    0    0    0    0 -0.00000000000E+00 -0.00000000000E+00 -0.45593999997E+02  0.45594000000E+02  0.51100000000E-03 0.  1.
    9900012    2    1    2    0    0 -0.10972567069E+02 -0.10988440854E+02  0.10465967895E+02  0.72461560283E+02  0.69999986959E+02 0.  0.
        -12    1    1    2    0    0  0.10972567069E+02  0.10988440854E+02 -0.10465967895E+02  0.18726439717E+02  0.00000000000E+00 0.  1.
         11    1    3    3    0    0  0.57442329244E+01 -0.37578464746E+02  0.39258419550E+01  0.38217135684E+02  0.51100000000E-03 0. -1.
        -11    1    3    3    0    0 -0.82935242120E+01  0.40184044834E+01 -0.23179371207E+00  0.92186683981E+01  0.51100000000E-03 0.  1.
        -12    1    3    3    0    0 -0.84232757816E+01  0.22571619409E+02  0.67719196523E+01  0.25025756201E+02  0.00000000000E+00 0.  1.
</event>
<event>
 7    1  0.1788006E-013  0.7246141E+02  0.7816164E-02  0.1226708E+00
        -11   -1    0    0    0    0  0.00000000000E+00  0.00000000000E+00  0.45593999997E+02  0.45594000000E+02  0.51100000000E-03 0.  1.
         11   -1    0    0    0    0 -0.00000000000E+00 -0.00000000000E+00 -0.45593999997E+02  0.45594000000E+02  0.51100000000E-03 0. -1.
    9900012    2    1    2    0    0  0.14193075489E+02 -0.11497102126E+02  0.41301930488E+01  0.72461408112E+02  0.69999788727E+02 0.  0.
        -12    1    1    2    0    0 -0.14193075489E+02  0.11497102126E+02 -0.41301930488E+01  0.18726591888E+02  0.00000000000E+00 0.  1.
         11    1    3    3    0    0  0.68582245749E+01  0.68369966794E+00  0.17686596707E+02  0.18982054496E+02  0.51100000000E-03 0. -1.
        -11    1    3    3    0    0  0.17164218367E+02 -0.45113423465E+01  0.14409432485E+02  0.22860322542E+02  0.51100000000E-03 0.  1.
         12    1    3    3    0    0 -0.98293674533E+01 -0.76694594472E+01 -0.27965836143E+02  0.30619031074E+02  0.00000000000E+00 0. -1.
</event>
<event>
 7    1  0.1788006E-013  0.7246157E+02  0.7816164E-02  0.1226708E+00
        -11   -1    0    0    0    0  0.00000000000E+00  0.00000000000E+00  0.45593999997E+02  0.45594000000E+02  0.51100000000E-03 0. -1.
         11   -1    0    0    0    0 -0.00000000000E+00 -0.00000000000E+00 -0.45593999997E+02  0.45594000000E+02  0.51100000000E-03 0.  1.
    9900012    2    1    2    0    0  0.44117820022E+01  0.17035749332E+02  0.64030075978E+01  0.72461572630E+02  0.70000003043E+02 0.  0.
        -12    1    1    2    0    0 -0.44117820022E+01 -0.17035749332E+02 -0.64030075978E+01  0.18726427370E+02  0.00000000000E+00 0.  1.
         11    1    3    3    0    0 -0.21487999559E+02  0.13921906673E+02  0.26958649591E+01  0.25745316051E+02  0.51100000000E-03 0. -1.
        -11    1    3    3    0    0 -0.76837948187E+01 -0.74672137805E+01  0.41829084759E+01  0.11502030605E+02  0.51100000000E-03 0.  1.
        -12    1    3    3    0    0  0.33583576380E+02  0.10581056440E+02 -0.47576583720E+00  0.35214225974E+02  0.00000000000E+00 0.  1.
</event>
<event>
 7    1  0.1788006E-013  0.7246155E+02  0.7816164E-02  0.1226708E+00
        -11   -1    0    0    0    0  0.00000000000E+00  0.00000000000E+00  0.45593999997E+02  0.45594000000E+02  0.51100000000E-03 0. -1.
         11   -1    0    0    0    0 -0.00000000000E+00 -0.00000000000E+00 -0.45593999997E+02  0.45594000000E+02  0.51100000000E-03 0.  1.
    9900012    2    1    2    0    0  0.14216423776E+02  0.76351678206E+01  0.95014489317E+01  0.72461547468E+02  0.69999970265E+02 0.  0.
        -12    1    1    2    0    0 -0.14216423776E+02 -0.76351678206E+01 -0.95014489317E+01  0.18726452532E+02  0.00000000000E+00 0.  1.
         11    1    3    3    0    0  0.23646844644E+02 -0.12847631698E+02  0.17298510242E+02  0.31991770171E+02  0.51100000000E-03 0. -1.
        -11    1    3    3    0    0 -0.78492708065E+01 -0.76946638264E+01  0.64995865062E+00  0.11010964994E+02  0.51100000000E-03 0.  1.
        -12    1    3    3    0    0 -0.15811500618E+01  0.28177463345E+02 -0.84470199607E+01  0.29458812303E+02  0.00000000000E+00 0.  1.
</event>
<event>
 7    1  0.1788006E-013  0.7246164E+02  0.7816164E-02  0.1226708E+00
        -11   -1    0    0    0    0  0.00000000000E+00  0.00000000000E+00  0.45593999997E+02  0.45594000000E+02  0.51100000000E-03 0. -1.
         11   -1    0    0    0    0 -0.00000000000E+00 -0.00000000000E+00 -0.45593999997E+02  0.45594000000E+02  0.51100000000E-03 0.  1.
    9900012    2    1    2    0    0 -0.98248997378E+00  0.18577839524E+02 -0.21389913130E+01  0.72461636452E+02  0.70000086182E+02 0.  0.
        -12    1    1    2    0    0  0.98248997378E+00 -0.18577839524E+02  0.21389913130E+01  0.18726363548E+02  0.00000000000E+00 0.  1.
         11    1    3    3    0    0 -0.16338469823E+02  0.56379324115E+01  0.20330141312E+02  0.26684199895E+02  0.51100000000E-03 0. -1.
        -11    1    3    3    0    0  0.15113850995E+02  0.13211370647E+02  0.30075719335E+01  0.20298135271E+02  0.51100000000E-03 0.  1.
        -12    1    3    3    0    0  0.24212885396E+00 -0.27146353497E+00 -0.25476704558E+02  0.25479301285E+02  0.00000000000E+00 0.  1.
</event>
<event>
 7    1  0.1788006E-013  0.7246136E+02  0.7816164E-02  0.1226709E+00
        -11   -1    0    0    0    0  0.00000000000E+00  0.00000000000E+00  0.45593999997E+02  0.45594000000E+02  0.51100000000E-03 0.  1.
         11   -1    0    0    0    0 -0.00000000000E+00 -0.00000000000E+00 -0.45593999997E+02  0.45594000000E+02  0.51100000000E-03 0. -1.
    9900012    2    1    2    0    0 -0.56234860082E+01 -0.16695824035E+02 -0.63492463198E+01  0.72461359513E+02  0.69999725418E+02 0.  0.
        -12    1    1    2    0    0  0.56234860082E+01  0.16695824035E+02  0.63492463198E+01  0.18726640487E+02  0.00000000000E+00 0.  1.
         11    1    3    3    0    0  0.69645869176E+01 -0.62829301501E+01 -0.69003229035E+01  0.11644532564E+02  0.51100000000E-03 0. -1.
        -11    1    3    3    0    0  0.12841442165E+02 -0.27361380598E+02 -0.67159011061E+00  0.30232413378E+02  0.51100000000E-03 0.  1.
        -12    1    3    3    0    0 -0.25429515091E+02  0.16948486713E+02  0.12226666942E+01  0.30584413571E+02  0.00000000000E+00 0.  1.
</event>
<event>
 7    1  0.1788006E-013  0.7246175E+02  0.7816164E-02  0.1226708E+00
        -11   -1    0    0    0    0  0.00000000000E+00  0.00000000000E+00  0.45593999997E+02  0.45594000000E+02  0.51100000000E-03 0.  1.
         11   -1    0    0    0    0 -0.00000000000E+00 -0.00000000000E+00 -0.45593999997E+02  0.45594000000E+02  0.51100000000E-03 0. -1.
    9900012    2    1    2    0    0 -0.14272714843E+02 -0.11845190989E+02  0.25794449032E+01  0.72461749052E+02  0.70000232865E+02 0.  0.
        -12    1    1    2    0    0  0.14272714843E+02  0.11845190989E+02 -0.25794449032E+01  0.18726250948E+02  0.00000000000E+00 0.  1.
         11    1    3    3    0    0  0.77003161991E+01  0.37923695430E+01 -0.79781173567E+01  0.11718672840E+02  0.51100000000E-03 0. -1.
        -11    1    3    3    0    0 -0.82572095325E+01 -0.20615531461E+02 -0.18057472552E+02  0.28622612773E+02  0.51100000000E-03 0.  1.
         12    1    3    3    0    0 -0.13715821510E+02  0.49779709295E+01  0.28615034812E+02  0.32120463439E+02  0.00000000000E+00 0. -1.
</event>
<event>
 7    1  0.1788006E-013  0.7246156E+02  0.7816164E-02  0.1226708E+00
        -11   -1    0    0    0    0  0.00000000000E+00  0.00000000000E+00  0.45593999997E+02  0.45594000000E+02  0.51100000000E-03 0.  1.
         11   -1    0    0    0    0 -0.00000000000E+00 -0.00000000000E+00 -0.45593999997E+02  0.45594000000E+02  0.51100000000E-03 0. -1.
    9900012    2    1    2    0    0  0.37593020832E+01 -0.16153462456E+02 -0.86955713641E+01  0.72461557123E+02  0.69999982842E+02 0.  0.
        -12    1    1    2    0    0 -0.37593020832E+01  0.16153462456E+02  0.86955713641E+01  0.18726442877E+02  0.00000000000E+00 0.  1.
         11    1    3    3    0    0  0.74939192875E+01  0.51255334181E+01  0.21691985482E+01  0.93346313109E+01  0.51100000000E-03 0. -1.
        -11    1    3    3    0    0 -0.19816201697E+02  0.86701192686E+01  0.93639043125E+01  0.23569801061E+02  0.51100000000E-03 0.  1.
         12    1    3    3    0    0  0.16081584493E+02 -0.29949115143E+02 -0.20228674225E+02  0.39557124751E+02  0.00000000000E+00 0. -1.
</event>
<event>
 7    1  0.1788006E-013  0.7246162E+02  0.7816164E-02  0.1226708E+00
        -11   -1    0    0    0    0  0.00000000000E+00  0.00000000000E+00  0.45593999997E+02  0.45594000000E+02  0.51100000000E-03 0.  1.
         11   -1    0    0    0    0 -0.00000000000E+00 -0.00000000000E+00 -0.45593999997E+02  0.45594000000E+02  0.51100000000E-03 0. -1.
    9900012    2    1    2    0    0 -0.10128199242E+02  0.73128987409E+01 -0.13950575896E+02  0.72461615520E+02  0.70000058914E+02 0.  0.
        -12    1    1    2    0    0  0.10128199242E+02 -0.73128987409E+01  0.13950575896E+02  0.18726384480E+02  0.00000000000E+00 0.  1.
         11    1    3    3    0    0  0.66642268737E+01  0.40102099329E+01 -0.34197180640E+01  0.84963624822E+01  0.51100000000E-03 0. -1.
        -11    1    3    3    0    0  0.16143264663E+02  0.42276002589E+01  0.14878254224E+02  0.22357102830E+02  0.51100000000E-03 0.  1.
         12    1    3    3    0    0 -0.32935690779E+02 -0.92491145096E+00 -0.25409112056E+02  0.41608150208E+02  0.00000000000E+00 0. -1.
</event>
<event>
 7    1  0.1788006E-013  0.7246155E+02  0.7816164E-02  0.1226708E+00
        -11   -1    0    0    0    0  0.00000000000E+00  0.00000000000E+00  0.45593999997E+02  0.45594000000E+02  0.51100000000E-03 0. -1.
         11   -1    0    0    0    0 -0.00000000000E+00 -0.00000000000E+00 -0.45593999997E+02  0.45594000000E+02  0.51100000000E-03 0.  1.
    9900012    2    1    2    0    0 -0.82836407930E+01 -0.13388517025E+02  0.10139475362E+02  0.72461546691E+02  0.69999969252E+02 0.  0.
        -12    1    1    2    0    0  0.82836407930E+01  0.13388517025E+02 -0.10139475362E+02  0.18726453309E+02  0.00000000000E+00 0.  1.
         11    1    3    3    0    0  0.37543039581E+01 -0.18164354302E+02  0.12469525873E+02  0.22350115015E+02  0.51100000000E-03 0. -1.
        -11    1    3    3    0    0 -0.83580311776E+01 -0.20252766487E+02 -0.94051879642E+01  0.23843003092E+02  0.51100000000E-03 0.  1.
         12    1    3    3    0    0 -0.36799135734E+01  0.25028603764E+02  0.70751374532E+01  0.26268428584E+02  0.00000000000E+00 0. -1.
</event>
<event>
 7    1  0.1788006E-013  0.7246159E+02  0.7816164E-02  0.1226708E+00
        -11   -1    0    0    0    0  0.00000000000E+00  0.00000000000E+00  0.45593999997E+02  0.45594000000E+02  0.51100000000E-03 0. -1.
         11   -1    0    0    0    0 -0.00000000000E+00 -0.00000000000E+00 -0.45593999997E+02  0.45594000000E+02  0.51100000000E-03 0.  1.
    9900012    2    1    2    0    0 -0.27110367853E+01 -0.50558236789E+01  0.17826025913E+02  0.72461594222E+02  0.70000031170E+02 0.  0.
        -12    1    1    2    0    0  0.27110367853E+01  0.50558236789E+01 -0.17826025913E+02  0.18726405778E+02  0.00000000000E+00 0.  1.
         11    1    3    3    0    0  0.11230674516E+02 -0.36596422649E+01  0.12270790184E+02  0.17032126220E+02  0.51100000000E-03 0. -1.
        -11    1    3    3    0    0  0.20434337313E+02 -0.90899371487E+00 -0.78783157234E+00  0.20469711524E+02  0.51100000000E-03 0.  1.
         12    1    3    3    0    0 -0.34376048615E+02 -0.48718769908E+00  0.63430673015E+01  0.34959756478E+02  0.00000000000E+00 0. -1.
</event>
<event>
 7    1  0.1788006E-013  0.7246158E+02  0.7816164E-02  0.1226708E+00
        -11   -1    0    0    0    0  0.00000000000E+00  0.00000000000E+00  0.45593999997E+02  0.45594000000E+02  0.51100000000E-03 0.  1.
         11   -1    0    0    0    0 -0.00000000000E+00 -0.00000000000E+00 -0.45593999997E+02  0.45594000000E+02  0.51100000000E-03 0. -1.
    9900012    2    1    2    0    0  0.14262047751E+01 -0.97205194844E+01 -0.15942281670E+02  0.72461577385E+02  0.70000009237E+02 0.  0.
        -12    1    1    2    0    0 -0.14262047751E+01  0.97205194844E+01  0.15942281670E+02  0.18726422615E+02  0.00000000000E+00 0.  1.
         11    1    3    3    0    0  0.20551757750E+02 -0.54300604781E+01 -0.33592830326E+02  0.39753472213E+02  0.51100000000E-03 0. -1.
        -11    1    3    3    0    0 -0.35619507876E+01 -0.59298688947E+01 -0.23561482462E+01  0.73076859087E+01  0.51100000000E-03 0.  1.
         12    1    3    3    0    0 -0.15563602187E+02  0.16394098884E+01  0.20006696902E+02  0.25400419263E+02  0.00000000000E+00 0. -1.
</event>
<event>
 7    1  0.1788006E-013  0.7246154E+02  0.7816164E-02  0.1226708E+00
        -11   -1    0    0    0    0  0.00000000000E+00  0.00000000000E+00  0.45593999997E+02  0.45594000000E+02  0.51100000000E-03 0.  1.
         11   -1    0    0    0    0 -0.00000000000E+00 -0.00000000000E+00 -0.45593999997E+02  0.45594000000E+02  0.51100000000E-03 0. -1.
    9900012    2    1    2    0    0  0.84564551208E+00 -0.15510455621E+02  0.10459011533E+02  0.72461540854E+02  0.69999961648E+02 0.  0.
        -12    1    1    2    0    0 -0.84564551208E+00  0.15510455621E+02 -0.10459011533E+02  0.18726459146E+02  0.00000000000E+00 0.  1.
         11    1    3    3    0    0 -0.10213224626E+02 -0.33038465581E+02  0.13788447028E+00  0.34581341466E+02  0.51100000000E-03 0. -1.
        -11    1    3    3    0    0  0.34257045277E+01 -0.85832314019E+01  0.27570335452E+01  0.96440938941E+01  0.51100000000E-03 0.  1.
        -12    1    3    3    0    0  0.76331656101E+01  0.26111241362E+02  0.75640935179E+01  0.28236105494E+02  0.00000000000E+00 0.  1.
</event>
<event>
 7    1  0.1788006E-013  0.7246150E+02  0.7816164E-02  0.1226708E+00
        -11   -1    0    0    0    0  0.00000000000E+00  0.00000000000E+00  0.45593999997E+02  0.45594000000E+02  0.51100000000E-03 0. -1.
         11   -1    0    0    0    0 -0.00000000000E+00 -0.00000000000E+00 -0.45593999997E+02  0.45594000000E+02  0.51100000000E-03 0.  1.
    9900012    2    1    2    0    0  0.72613394874E+01 -0.66579593377E+01 -0.15925646284E+02  0.72461503177E+02  0.69999912567E+02 0.  0.
        -12    1    1    2    0    0 -0.72613394874E+01  0.66579593377E+01  0.15925646284E+02  0.18726496823E+02  0.00000000000E+00 0.  1.
         11    1    3    3    0    0  0.78959344903E+01  0.86644494246E+01 -0.16898385280E+02  0.20566329051E+02  0.51100000000E-03 0. -1.
        -11    1    3    3    0    0 -0.60749605668E+01 -0.86883536136E+01 -0.23597781222E+02  0.25869826309E+02  0.51100000000E-03 0.  1.
         12    1    3    3    0    0  0.54403655638E+01 -0.66340551487E+01  0.24570520218E+02  0.26025347816E+02  0.00000000000E+00 0. -1.
</event>
<event>
 7    1  0.1788006E-013  0.7246160E+02  0.7816164E-02  0.1226708E+00
        -11   -1    0    0    0    0  0.00000000000E+00  0.00000000000E+00  0.45593999997E+02  0.45594000000E+02  0.51100000000E-03 0.  1.
         11   -1    0    0    0    0 -0.00000000000E+00 -0.00000000000E+00 -0.45593999997E+02  0.45594000000E+02  0.51100000000E-03 0. -1.
    9900012    2    1    2    0    0 -0.53049270930E+01  0.17055813495E+02 -0.56245076672E+01  0.72461598532E+02  0.70000036785E+02 0.  0.
        -12    1    1    2    0    0  0.53049270930E+01 -0.17055813495E+02  0.56245076672E+01  0.18726401468E+02  0.00000000000E+00 0.  1.
         11    1    3    3    0    0  0.76889191663E+01  0.27754428144E+02 -0.22437026850E+02  0.36508189953E+02  0.51100000000E-03 0. -1.
        -11    1    3    3    0    0 -0.80609525855E+01  0.76149502752E+01  0.77600730179E+00  0.11116141951E+02  0.51100000000E-03 0.  1.
        -12    1    3    3    0    0 -0.49328936737E+01 -0.18313564924E+02  0.16036511881E+02  0.24837266628E+02  0.00000000000E+00 0.  1.
</event>
<event>
 7    1  0.1788006E-013  0.7246158E+02  0.7816164E-02  0.1226708E+00
        -11   -1    0    0    0    0  0.00000000000E+00  0.00000000000E+00  0.45593999997E+02  0.45594000000E+02  0.51100000000E-03 0. -1.
         11   -1    0    0    0    0 -0.00000000000E+00 -0.00000000000E+00 -0.45593999997E+02  0.45594000000E+02  0.51100000000E-03 0.  1.
    9900012    2    1    2    0    0 -0.15390682420E+02  0.10186733972E+02  0.31679867608E+01  0.72461580308E+02  0.70000013045E+02 0.  0.
        -12    1    1    2    0    0  0.15390682420E+02 -0.10186733972E+02 -0.31679867608E+01  0.18726419692E+02  0.00000000000E+00 0.  1.
         11    1    3    3    0    0  0.38857938169E+01  0.13340501199E+02  0.17531673294E+02  0.22370246636E+02  0.51100000000E-03 0. -1.
        -11    1    3    3    0    0  0.73699295447E+01 -0.10030225462E+01  0.10974949944E+02  0.13257882269E+02  0.51100000000E-03 0.  1.
         12    1    3    3    0    0 -0.26646405781E+02 -0.21507446814E+01 -0.25338636477E+02  0.36833451403E+02  0.00000000000E+00 0. -1.
</event>
<event>
 7    1  0.1788006E-013  0.7246149E+02  0.7816164E-02  0.1226708E+00
        -11   -1    0    0    0    0  0.00000000000E+00  0.00000000000E+00  0.45593999997E+02  0.45594000000E+02  0.51100000000E-03 0.  1.
         11   -1    0    0    0    0 -0.00000000000E+00 -0.00000000000E+00 -0.45593999997E+02  0.45594000000E+02  0.51100000000E-03 0. -1.
    9900012    2    1    2    0    0 -0.73596885008E+01 -0.25604523044E+01 -0.17028250936E+02  0.72461487757E+02  0.69999892480E+02 0.  0.
        -12    1    1    2    0    0  0.73596885008E+01  0.25604523044E+01  0.17028250936E+02  0.18726512243E+02  0.00000000000E+00 0.  1.
         11    1    3    3    0    0 -0.12156520123E+02 -0.11274393626E+01 -0.28519996122E+02  0.31023253861E+02  0.51100000000E-03 0. -1.
        -11    1    3    3    0    0 -0.14422278599E+02  0.83357753118E+01 -0.69591936302E+00  0.16672479541E+02  0.51100000000E-03 0.  1.
        -12    1    3    3    0    0  0.19219110221E+02 -0.97687882535E+01  0.12187664549E+02  0.24765754356E+02  0.00000000000E+00 0.  1.
</event>
<event>
 7    1  0.1788006E-013  0.7246161E+02  0.7816164E-02  0.1226708E+00
        -11   -1    0    0    0    0  0.00000000000E+00  0.00000000000E+00  0.45593999997E+02  0.45594000000E+02  0.51100000000E-03 0.  1.
         11   -1    0    0    0    0 -0.00000000000E+00 -0.00000000000E+00 -0.45593999997E+02  0.45594000000E+02  0.51100000000E-03 0. -1.
    9900012    2    1    2    0    0 -0.13498956001E+02  0.18388200326E+01 -0.12848133797E+02  0.72461611819E+02  0.70000054094E+02 0.  0.
        -12    1    1    2    0    0  0.13498956001E+02 -0.18388200326E+01  0.12848133797E+02  0.18726388181E+02  0.00000000000E+00 0.  1.
         11    1    3    3    0    0 -0.21744840237E+02  0.44738796988E+01 -0.16877891838E+02  0.27887576260E+02  0.51100000000E-03 0. -1.
        -11    1    3    3    0    0 -0.18339497124E+01  0.17854261963E+02  0.10559739687E+02  0.20824172116E+02  0.51100000000E-03 0.  1.
        -12    1    3    3    0    0  0.10079833949E+02 -0.20489321630E+02 -0.65299816454E+01  0.23749863443E+02  0.00000000000E+00 0.  1.
</event>
<event>
 7    1  0.1788006E-013  0.7246164E+02  0.7816164E-02  0.1226708E+00
        -11   -1    0    0    0    0  0.00000000000E+00  0.00000000000E+00  0.45593999997E+02  0.45594000000E+02  0.51100000000E-03 0. -1.
         11   -1    0    0    0    0 -0.00000000000E+00 -0.00000000000E+00 -0.45593999997E+02  0.45594000000E+02  0.51100000000E-03 0.  1.
    9900012    2    1    2    0    0  0.10068873969E+01 -0.20616805043E+01  0.18585268740E+02  0.72461639893E+02  0.70000090665E+02 0.  0.
        -12    1    1    2    0    0 -0.10068873969E+01  0.20616805043E+01 -0.18585268740E+02  0.18726360107E+02  0.00000000000E+00 0.  1.
         11    1    3    3    0    0  0.62717002852E+01  0.17004076541E+01  0.20263126047E+02  0.21279565036E+02  0.51100000000E-03 0. -1.
        -11    1    3    3    0    0 -0.21122570485E+02  0.59183497997E+01  0.14707249208E+02  0.26410093293E+02  0.51100000000E-03 0.  1.
        -12    1    3    3    0    0  0.15857757596E+02 -0.96804379581E+01 -0.16385106516E+02  0.24771981563E+02  0.00000000000E+00 0.  1.
</event>
<event>
 7    1  0.1788006E-013  0.7246152E+02  0.7816164E-02  0.1226708E+00
        -11   -1    0    0    0    0  0.00000000000E+00  0.00000000000E+00  0.45593999997E+02  0.45594000000E+02  0.51100000000E-03 0. -1.
         11   -1    0    0    0    0 -0.00000000000E+00 -0.00000000000E+00 -0.45593999997E+02  0.45594000000E+02  0.51100000000E-03 0.  1.
    9900012    2    1    2    0    0  0.15590178142E+01 -0.15853958108E+02  0.98439090337E+01  0.72461519570E+02  0.69999933922E+02 0.  0.
        -12    1    1    2    0    0 -0.15590178142E+01  0.15853958108E+02 -0.98439090337E+01  0.18726480430E+02  0.00000000000E+00 0.  1.
         11    1    3    3    0    0 -0.12589487185E+02 -0.36074971199E+01 -0.80409811656E+01  0.15367712953E+02  0.51100000000E-03 0. -1.
        -11    1    3    3    0    0  0.16917085124E+02  0.80770888768E+01 -0.10948309154E+02  0.21709274686E+02  0.51100000000E-03 0.  1.
         12    1    3    3    0    0 -0.27685801246E+01 -0.20323549864E+02  0.28833199353E+02  0.35384531931E+02  0.00000000000E+00 0. -1.
</event>
<event>
 7    1  0.1788006E-013  0.7246155E+02  0.7816164E-02  0.1226708E+00
        -11   -1    0    0    0    0  0.00000000000E+00  0.00000000000E+00  0.45593999997E+02  0.45594000000E+02  0.51100000000E-03 0. -1.
         11   -1    0    0    0    0 -0.00000000000E+00 -0.00000000000E+00 -0.45593999997E+02  0.45594000000E+02  0.51100000000E-03 0.  1.
    9900012    2    1    2    0    0  0.87170834117E+01 -0.15515310865E+02  0.58281546671E+01  0.72461553427E+02  0.69999978027E+02 0.  0.
        -12    1    1    2    0    0 -0.87170834117E+01  0.15515310865E+02 -0.58281546671E+01  0.18726446573E+02  0.00000000000E+00 0.  1.
         11    1    3    3    0    0  0.11861713549E+02  0.36014250320E+01 -0.12858925492E+01  0.12462906181E+02  0.51100000000E-03 0. -1.
        -11    1    3    3    0    0  0.61844425440E+01 -0.14711964430E+02 -0.23097260538E+02  0.28074413112E+02  0.51100000000E-03 0.  1.
         12    1    3    3    0    0 -0.93290726809E+01 -0.44047714666E+01  0.30211307754E+02  0.31924234133E+02  0.00000000000E+00 0. -1.
</event>
<event>
 7    1  0.1788006E-013  0.7246161E+02  0.7816164E-02  0.1226708E+00
        -11   -1    0    0    0    0  0.00000000000E+00  0.00000000000E+00  0.45593999997E+02  0.45594000000E+02  0.51100000000E-03 0. -1.
         11   -1    0    0    0    0 -0.00000000000E+00 -0.00000000000E+00 -0.45593999997E+02  0.45594000000E+02  0.51100000000E-03 0.  1.
    9900012    2    1    2    0    0  0.34805627135E+01  0.17038486261E+02  0.69464686864E+01  0.72461607981E+02  0.70000049093E+02 0.  0.
        -12    1    1    2    0    0 -0.34805627135E+01 -0.17038486261E+02 -0.69464686864E+01  0.18726392019E+02  0.00000000000E+00 0.  1.
         11    1    3    3    0    0  0.30046860594E+01  0.25602555590E+02 -0.41495315791E+01  0.26110105393E+02  0.51100000000E-03 0. -1.
        -11    1    3    3    0    0  0.18558430173E+02 -0.34284837964E+01 -0.71245439470E+01  0.20172480223E+02  0.51100000000E-03 0.  1.
         12    1    3    3    0    0 -0.18082553519E+02 -0.51355855332E+01  0.18220544213E+02  0.26179022364E+02  0.00000000000E+00 0. -1.
</event>
<event>
 7    1  0.1788006E-013  0.7246157E+02  0.7816164E-02  0.1226708E+00
        -11   -1    0    0    0    0  0.00000000000E+00  0.00000000000E+00  0.45593999997E+02  0.45594000000E+02  0.51100000000E-03 0.  1.
         11   -1    0    0    0    0 -0.00000000000E+00 -0.00000000000E+00 -0.45593999997E+02  0.45594000000E+02  0.51100000000E-03 0. -1.
    9900012    2    1    2    0    0  0.58416553086E+01 -0.29998815103E+00 -0.17789446296E+02  0.72461566032E+02  0.69999994447E+02 0.  0.
        -12    1    1    2    0    0 -0.58416553086E+01  0.29998815103E+00  0.17789446296E+02  0.18726433968E+02  0.00000000000E+00 0.  1.
         11    1    3    3    0    0  0.28584784861E+02 -0.28444714235E+01 -0.93217581684E+01  0.30200597988E+02  0.51100000000E-03 0. -1.
        -11    1    3    3    0    0 -0.10869790182E+02 -0.16024605342E+02 -0.39601110491E+01  0.19764179587E+02  0.51100000000E-03 0.  1.
        -12    1    3    3    0    0 -0.11873339370E+02  0.18569088614E+02 -0.45075770787E+01  0.22496788457E+02  0.00000000000E+00 0.  1.
</event>
<event>
 7    1  0.1788006E-013  0.7246153E+02  0.7816164E-02  0.1226708E+00
        -11   -1    0    0    0    0  0.00000000000E+00  0.00000000000E+00  0.45593999997E+02  0.45594000000E+02  0.51100000000E-03 0.  1.
         11   -1    0    0    0    0 -0.00000000000E+00 -0.00000000000E+00 -0.45593999997E+02  0.45594000000E+02  0.51100000000E-03 0. -1.
    9900012    2    1    2    0    0  0.12504475117E+02  0.12319844512E+02 -0.65222766458E+01  0.72461533185E+02  0.69999951658E+02 0.  0.
        -12    1    1    2    0    0 -0.12504475117E+02 -0.12319844512E+02  0.65222766458E+01  0.18726466815E+02  0.00000000000E+00 0.  1.
         11    1    3    3    0    0  0.24525132089E+02  0.14107954365E+02 -0.73996736481E+01  0.29245027794E+02  0.51100000000E-03 0. -1.
        -11    1    3    3    0    0 -0.46319984336E+00  0.16328759687E+02  0.10762970583E+02  0.19562323049E+02  0.51100000000E-03 0.  1.
        -12    1    3    3    0    0 -0.11557457129E+02 -0.18116869541E+02 -0.98855735805E+01  0.23654182342E+02  0.00000000000E+00 0.  1.
</event>
<event>
 7    1  0.1788006E-013  0.7246165E+02  0.7816164E-02  0.1226708E+00
        -11   -1    0    0    0    0  0.00000000000E+00  0.00000000000E+00  0.45593999997E+02  0.45594000000E+02  0.51100000000E-03 0. -1.
         11   -1    0    0    0    0 -0.00000000000E+00 -0.00000000000E+00 -0.45593999997E+02  0.45594000000E+02  0.51100000000E-03 0.  1.
    9900012    2    1    2    0    0  0.14199133979E+02 -0.44939387749E+01  0.11351885218E+02  0.72461649862E+02  0.70000103652E+02 0.  0.
        -12    1    1    2    0    0 -0.14199133979E+02  0.44939387749E+01 -0.11351885218E+02  0.18726350138E+02  0.00000000000E+00 0.  1.
         11    1    3    3    0    0  0.18037800024E+02 -0.26063658088E+02  0.40127790191E+01  0.31949630645E+02  0.51100000000E-03 0. -1.
        -11    1    3    3    0    0  0.12690269122E+02  0.73463214424E+01  0.11091040056E+02  0.18385389279E+02  0.51100000000E-03 0.  1.
        -12    1    3    3    0    0 -0.16528935167E+02  0.14223397871E+02 -0.37519338571E+01  0.22126629938E+02  0.00000000000E+00 0.  1.
</event>
<event>
 7    1  0.1788006E-013  0.7246159E+02  0.7816164E-02  0.1226708E+00
        -11   -1    0    0    0    0  0.00000000000E+00  0.00000000000E+00  0.45593999997E+02  0.45594000000E+02  0.51100000000E-03 0.  1.
         11   -1    0    0    0    0 -0.00000000000E+00 -0.00000000000E+00 -0.45593999997E+02  0.45594000000E+02  0.51100000000E-03 0. -1.
    9900012    2    1    2    0    0 -0.96458329031E+01  0.68374163217E+01 -0.14521921087E+02  0.72461586932E+02  0.70000021673E+02 0.  0.
        -12    1    1    2    0    0  0.96458329031E+01 -0.68374163217E+01  0.14521921087E+02  0.18726413068E+02  0.00000000000E+00 0.  1.
         11    1    3    3    0    0  0.25150300665E+02  0.60541228025E+01 -0.76423936374E+00  0.25879993982E+02  0.51100000000E-03 0. -1.
        -11    1    3    3    0    0 -0.17725495474E+01  0.95586954183E+01  0.65271583741E-01  0.97218748520E+01  0.51100000000E-03 0.  1.
         12    1    3    3    0    0 -0.33023584021E+02 -0.87754018991E+01 -0.13822953307E+02  0.36859718097E+02  0.00000000000E+00 0. -1.
</event>
<event>
 7    1  0.1788006E-013  0.7246159E+02  0.7816164E-02  0.1226708E+00
        -11   -1    0    0    0    0  0.00000000000E+00  0.00000000000E+00  0.45593999997E+02  0.45594000000E+02  0.51100000000E-03 0.  1.
         11   -1    0    0    0    0 -0.00000000000E+00 -0.00000000000E+00 -0.45593999997E+02  0.45594000000E+02  0.51100000000E-03 0. -1.
    9900012    2    1    2    0    0  0.91659252741E+01  0.11880080536E+02 -0.11203921516E+02  0.72461591989E+02  0.70000028261E+02 0.  0.
        -12    1    1    2    0    0 -0.91659252741E+01 -0.11880080536E+02  0.11203921516E+02  0.18726408011E+02  0.00000000000E+00 0.  1.
         11    1    3    3    0    0 -0.13447866206E+01 -0.32298983306E+01 -0.85212812390E+01  0.92115649320E+01  0.51100000000E-03 0. -1.
        -11    1    3    3    0    0 -0.20704001800E+02  0.16336367226E+02  0.11709170841E+02  0.28855454713E+02  0.51100000000E-03 0.  1.
         12    1    3    3    0    0  0.31214713694E+02 -0.12263883594E+01 -0.14391811118E+02  0.34394572343E+02  0.00000000000E+00 0. -1.
</event>
<event>
 7    1  0.1788006E-013  0.7246150E+02  0.7816164E-02  0.1226708E+00
        -11   -1    0    0    0    0  0.00000000000E+00  0.00000000000E+00  0.45593999997E+02  0.45594000000E+02  0.51100000000E-03 0.  1.
         11   -1    0    0    0    0 -0.00000000000E+00 -0.00000000000E+00 -0.45593999997E+02  0.45594000000E+02  0.51100000000E-03 0. -1.
    9900012    2    1    2    0    0  0.25188300115E+01  0.14768731105E+02 -0.11234843278E+02  0.72461504691E+02  0.69999914539E+02 0.  0.
        -12    1    1    2    0    0 -0.25188300115E+01 -0.14768731105E+02  0.11234843278E+02  0.18726495309E+02  0.00000000000E+00 0.  1.
         11    1    3    3    0    0  0.14692264072E+02  0.19484790973E+01 -0.18951395438E+02  0.24058565703E+02  0.51100000000E-03 0. -1.
        -11    1    3    3    0    0  0.86413244453E+01 -0.11246149254E+02  0.85730978564E+01  0.16572458126E+02  0.51100000000E-03 0.  1.
         12    1    3    3    0    0 -0.20814758506E+02  0.24066401262E+02 -0.85654569571E+00  0.31830480862E+02  0.00000000000E+00 0. -1.
</event>
<event>
 7    1  0.1788006E-013  0.7246157E+02  0.7816164E-02  0.1226708E+00
        -11   -1    0    0    0    0  0.00000000000E+00  0.00000000000E+00  0.45593999997E+02  0.45594000000E+02  0.51100000000E-03 0. -1.
         11   -1    0    0    0    0 -0.00000000000E+00 -0.00000000000E+00 -0.45593999997E+02  0.45594000000E+02  0.51100000000E-03 0.  1.
    9900012    2    1    2    0    0  0.15992687897E+02 -0.96331448828E+01 -0.14545502863E+01  0.72461567798E+02  0.69999996748E+02 0.  0.
        -12    1    1    2    0    0 -0.15992687897E+02  0.96331448828E+01  0.14545502863E+01  0.18726432202E+02  0.00000000000E+00 0.  1.
         11    1    3    3    0    0  0.12482522130E+01 -0.67225490134E+01  0.14791868246E+02  0.16295710027E+02  0.51100000000E-03 0. -1.
        -11    1    3    3    0    0 -0.56960099329E+01 -0.23611365867E+02 -0.40643300974E+01  0.24626406695E+02  0.51100000000E-03 0.  1.
         12    1    3    3    0    0  0.20440445617E+02  0.20700769998E+02 -0.12182088435E+02  0.31539451076E+02  0.00000000000E+00 0. -1.
</event>
<event>
 7    1  0.2653251E-013  0.7246156E+02  0.7816164E-02  0.1226708E+00
        -11   -1    0    0    0    0  0.00000000000E+00  0.00000000000E+00  0.45593999997E+02  0.45594000000E+02  0.51100000000E-03 0. -1.
         11   -1    0    0    0    0 -0.00000000000E+00 -0.00000000000E+00 -0.45593999997E+02  0.45594000000E+02  0.51100000000E-03 0.  1.
    9900012    2    1    2    0    0 -0.83954434118E+01 -0.16912125004E+00  0.16738209301E+02  0.72461555525E+02  0.69999980760E+02 0.  0.
        -12    1    1    2    0    0  0.83954434118E+01  0.16912125004E+00 -0.16738209301E+02  0.18726444475E+02  0.00000000000E+00 0.  1.
         11    1    3    3    0    0 -0.74467829972E+01  0.43321472525E+01  0.61307556313E+00  0.86370098259E+01  0.51100000000E-03 0. -1.
        -11    1    3    3    0    0 -0.93396245102E+01  0.12345742926E+02 -0.18677390743E+02  0.24258830961E+02  0.51100000000E-03 0.  1.
         12    1    3    3    0    0  0.83909640956E+01 -0.16847011428E+02  0.34802524481E+02  0.39565714738E+02  0.00000000000E+00 0. -1.
</event>
<event>
 7    1  0.1788006E-013  0.7246157E+02  0.7816164E-02  0.1226708E+00
        -11   -1    0    0    0    0  0.00000000000E+00  0.00000000000E+00  0.45593999997E+02  0.45594000000E+02  0.51100000000E-03 0.  1.
         11   -1    0    0    0    0 -0.00000000000E+00 -0.00000000000E+00 -0.45593999997E+02  0.45594000000E+02  0.51100000000E-03 0. -1.
    9900012    2    1    2    0    0  0.89329658280E+01 -0.14104373263E+02 -0.84822196860E+01  0.72461567494E+02  0.69999996352E+02 0.  0.
        -12    1    1    2    0    0 -0.89329658280E+01  0.14104373263E+02  0.84822196860E+01  0.18726432506E+02  0.00000000000E+00 0.  1.
         11    1    3    3    0    0 -0.39030110902E+01 -0.59146867432E+01 -0.21173980622E+02  0.22328333356E+02  0.51100000000E-03 0. -1.
        -11    1    3    3    0    0 -0.68072823277E+01  0.45502639967E+01 -0.13006244479E+02  0.15369007478E+02  0.51100000000E-03 0.  1.
        -12    1    3    3    0    0  0.19643259246E+02 -0.12739950516E+02  0.25698005415E+02  0.34764226660E+02  0.00000000000E+00 0.  1.
</event>
<event>
 7    1  0.1788006E-013  0.7246136E+02  0.7816164E-02  0.1226709E+00
        -11   -1    0    0    0    0  0.00000000000E+00  0.00000000000E+00  0.45593999997E+02  0.45594000000E+02  0.51100000000E-03 0. -1.
         11   -1    0    0    0    0 -0.00000000000E+00 -0.00000000000E+00 -0.45593999997E+02  0.45594000000E+02  0.51100000000E-03 0.  1.
    9900012    2    1    2    0    0  0.91081304466E+01  0.57570558104E+01  0.15316182139E+02  0.72461356757E+02  0.69999721827E+02 0.  0.
        -12    1    1    2    0    0 -0.91081304466E+01 -0.57570558104E+01 -0.15316182139E+02  0.18726643243E+02  0.00000000000E+00 0.  1.
         11    1    3    3    0    0 -0.11588148087E+01 -0.13801029985E+02 -0.79419309580E+01  0.15965135390E+02  0.51100000000E-03 0. -1.
        -11    1    3    3    0    0  0.76958536987E+01 -0.13341872944E+02  0.16942284321E+02  0.22897002775E+02  0.51100000000E-03 0.  1.
        -12    1    3    3    0    0  0.25710915566E+01  0.32899958740E+02  0.63158287757E+01  0.33599218592E+02  0.00000000000E+00 0.  1.
</event>
<event>
 7    1  0.1788006E-013  0.7246158E+02  0.7816164E-02  0.1226708E+00
        -11   -1    0    0    0    0  0.00000000000E+00  0.00000000000E+00  0.45593999997E+02  0.45594000000E+02  0.51100000000E-03 0.  1.
         11   -1    0    0    0    0 -0.00000000000E+00 -0.00000000000E+00 -0.45593999997E+02  0.45594000000E+02  0.51100000000E-03 0. -1.
    9900012    2    1    2    0    0 -0.63688346230E+01  0.15901010942E+02 -0.75679988245E+01  0.72461579903E+02  0.70000012517E+02 0.  0.
        -12    1    1    2    0    0  0.63688346230E+01 -0.15901010942E+02  0.75679988245E+01  0.18726420097E+02  0.00000000000E+00 0.  1.
         11    1    3    3    0    0  0.14431444627E+02 -0.79660877244E+01  0.82180433997E+01  0.18419049521E+02  0.51100000000E-03 0. -1.
        -11    1    3    3    0    0  0.23820424151E+00 -0.62297201172E+01  0.81112230472E+01  0.10230253838E+02  0.51100000000E-03 0.  1.
        -12    1    3    3    0    0 -0.21038483492E+02  0.30096818784E+02 -0.23897265271E+02  0.43812276545E+02  0.00000000000E+00 0.  1.
</event>
<event>
 7    1  0.1788006E-013  0.7246163E+02  0.7816164E-02  0.1226708E+00
        -11   -1    0    0    0    0  0.00000000000E+00  0.00000000000E+00  0.45593999997E+02  0.45594000000E+02  0.51100000000E-03 0. -1.
         11   -1    0    0    0    0 -0.00000000000E+00 -0.00000000000E+00 -0.45593999997E+02  0.45594000000E+02  0.51100000000E-03 0.  1.
    9900012    2    1    2    0    0  0.35854822505E+01 -0.15202129667E+02  0.10330372277E+02  0.72461627667E+02  0.70000074738E+02 0.  0.
        -12    1    1    2    0    0 -0.35854822505E+01  0.15202129667E+02 -0.10330372277E+02  0.18726372333E+02  0.00000000000E+00 0.  1.
         11    1    3    3    0    0  0.19529267793E+02 -0.19166038802E+01  0.18560452639E+02  0.27010295692E+02  0.51100000000E-03 0. -1.
        -11    1    3    3    0    0  0.84000734352E+01 -0.12803906344E+02  0.68877952953E+01  0.16791157663E+02  0.51100000000E-03 0.  1.
        -12    1    3    3    0    0 -0.24343858977E+02 -0.48161944336E+00 -0.15117875657E+02  0.28660174312E+02  0.00000000000E+00 0.  1.
</event>
<event>
 7    1  0.1788006E-013  0.7246160E+02  0.7816164E-02  0.1226708E+00
        -11   -1    0    0    0    0  0.00000000000E+00  0.00000000000E+00  0.45593999997E+02  0.45594000000E+02  0.51100000000E-03 0. -1.
         11   -1    0    0    0    0 -0.00000000000E+00 -0.00000000000E+00 -0.45593999997E+02  0.45594000000E+02  0.51100000000E-03 0.  1.
    9900012    2    1    2    0    0 -0.67110523177E+01  0.12446536774E+02  0.12276955919E+02  0.72461597582E+02  0.70000035547E+02 0.  0.
        -12    1    1    2    0    0  0.67110523177E+01 -0.12446536774E+02 -0.12276955919E+02  0.18726402418E+02  0.00000000000E+00 0.  1.
         11    1    3    3    0    0  0.77493725662E+01  0.87132913778E+01 -0.83769832212E+01  0.14357857429E+02  0.51100000000E-03 0. -1.
        -11    1    3    3    0    0  0.19012793690E+02 -0.35566873222E+01  0.12025270680E+02  0.22775940898E+02  0.51100000000E-03 0.  1.
         12    1    3    3    0    0 -0.33473218574E+02  0.72899327187E+01  0.86286684603E+01  0.35327799254E+02  0.00000000000E+00 0. -1.
</event>
<event>
 7    1  0.1788006E-013  0.7246171E+02  0.7816164E-02  0.1226708E+00
        -11   -1    0    0    0    0  0.00000000000E+00  0.00000000000E+00  0.45593999997E+02  0.45594000000E+02  0.51100000000E-03 0.  1.
         11   -1    0    0    0    0 -0.00000000000E+00 -0.00000000000E+00 -0.45593999997E+02  0.45594000000E+02  0.51100000000E-03 0. -1.
    9900012    2    1    2    0    0 -0.79165930753E+01  0.83880727240E+01 -0.14752685121E+02  0.72461710239E+02  0.70000182303E+02 0.  0.
        -12    1    1    2    0    0  0.79165930753E+01 -0.83880727240E+01  0.14752685121E+02  0.18726289761E+02  0.00000000000E+00 0.  1.
         11    1    3    3    0    0 -0.27708802518E+02 -0.91076103799E+01  0.17302386756E+01  0.29218487811E+02  0.51100000000E-03 0. -1.
        -11    1    3    3    0    0  0.14446903227E+01 -0.71711935575E+01  0.17217181093E+01  0.75151487461E+01  0.51100000000E-03 0.  1.
        -12    1    3    3    0    0  0.18347519120E+02  0.24666876661E+02 -0.18204641906E+02  0.35728073682E+02  0.00000000000E+00 0.  1.
</event>
<event>
 7    1  0.1788006E-013  0.7246155E+02  0.7816164E-02  0.1226708E+00
        -11   -1    0    0    0    0  0.00000000000E+00  0.00000000000E+00  0.45593999997E+02  0.45594000000E+02  0.51100000000E-03 0. -1.
         11   -1    0    0    0    0 -0.00000000000E+00 -0.00000000000E+00 -0.45593999997E+02  0.45594000000E+02  0.51100000000E-03 0.  1.
    9900012    2    1    2    0    0  0.16930538157E+02  0.47966361196E+01  0.64054058976E+01  0.72461546384E+02  0.69999968852E+02 0.  0.
        -12    1    1    2    0    0 -0.16930538157E+02 -0.47966361196E+01 -0.64054058976E+01  0.18726453616E+02  0.00000000000E+00 0.  1.
         11    1    3    3    0    0  0.10001408691E+02 -0.79634819521E+01  0.14858112083E+02  0.19601242704E+02  0.51100000000E-03 0. -1.
        -11    1    3    3    0    0  0.25829551705E+02  0.16393801653E+02 -0.12744104046E+02  0.33141132481E+02  0.51100000000E-03 0.  1.
         12    1    3    3    0    0 -0.18900422239E+02 -0.36336835807E+01  0.42913978612E+01  0.19719171199E+02  0.00000000000E+00 0. -1.
</event>
<event>
 7    1  0.1788006E-013  0.7246151E+02  0.7816164E-02  0.1226708E+00
        -11   -1    0    0    0    0  0.00000000000E+00  0.00000000000E+00  0.45593999997E+02  0.45594000000E+02  0.51100000000E-03 0. -1.
         11   -1    0    0    0    0 -0.00000000000E+00 -0.00000000000E+00 -0.45593999997E+02  0.45594000000E+02  0.51100000000E-03 0.  1.
    9900012    2    1    2    0    0 -0.16674279738E+02 -0.85110682425E+01  0.46009997485E+00  0.72461505950E+02  0.69999916179E+02 0.  0.
        -12    1    1    2    0    0  0.16674279738E+02  0.85110682425E+01 -0.46009997485E+00  0.18726494050E+02  0.00000000000E+00 0.  1.
         11    1    3    3    0    0  0.57661595366E+01 -0.13076227567E+02 -0.15233825712E+02  0.20887933581E+02  0.51100000000E-03 0. -1.
        -11    1    3    3    0    0  0.62711231685E+01  0.25656845820E+01 -0.10606214020E+02  0.12585765740E+02  0.51100000000E-03 0.  1.
         12    1    3    3    0    0 -0.28711562444E+02  0.19994747425E+01  0.26300139706E+02  0.38987806629E+02  0.00000000000E+00 0. -1.
</event>
<event>
 7    1  0.1788006E-013  0.7246156E+02  0.7816164E-02  0.1226708E+00
        -11   -1    0    0    0    0  0.00000000000E+00  0.00000000000E+00  0.45593999997E+02  0.45594000000E+02  0.51100000000E-03 0.  1.
         11   -1    0    0    0    0 -0.00000000000E+00 -0.00000000000E+00 -0.45593999997E+02  0.45594000000E+02  0.51100000000E-03 0. -1.
    9900012    2    1    2    0    0  0.10666425585E+02 -0.94956858072E+01 -0.12113578203E+02  0.72461562523E+02  0.69999989877E+02 0.  0.
        -12    1    1    2    0    0 -0.10666425585E+02  0.94956858072E+01  0.12113578203E+02  0.18726437477E+02  0.00000000000E+00 0.  1.
         11    1    3    3    0    0  0.63834410428E+01  0.26465990472E+01 -0.42025394176E+00  0.69231076620E+01  0.51100000000E-03 0. -1.
        -11    1    3    3    0    0  0.24782504458E+02  0.15021373534E+02 -0.12349887868E+02  0.31501332046E+02  0.51100000000E-03 0.  1.
        -12    1    3    3    0    0 -0.20499519916E+02 -0.27163658388E+02  0.65656360730E+00  0.34037122816E+02  0.00000000000E+00 0.  1.
</event>
<event>
 7    1  0.1788006E-013  0.7246157E+02  0.7816164E-02  0.1226708E+00
        -11   -1    0    0    0    0  0.00000000000E+00  0.00000000000E+00  0.45593999997E+02  0.45594000000E+02  0.51100000000E-03 0.  1.
         11   -1    0    0    0    0 -0.00000000000E+00 -0.00000000000E+00 -0.45593999997E+02  0.45594000000E+02  0.51100000000E-03 0. -1.
    9900012    2    1    2    0    0  0.10285475442E+02 -0.50559309667E+01 -0.14809645943E+02  0.72461573326E+02  0.70000003949E+02 0.  0.
        -12    1    1    2    0    0 -0.10285475442E+02  0.50559309667E+01  0.14809645943E+02  0.18726426674E+02  0.00000000000E+00 0.  1.
         11    1    3    3    0    0  0.59873717003E+01 -0.24327489204E+01 -0.92829371471E+01  0.11311048118E+02  0.51100000000E-03 0. -1.
        -11    1    3    3    0    0 -0.23861539779E+02 -0.14363757487E+02 -0.11377402443E+02  0.30085476503E+02  0.51100000000E-03 0.  1.
         12    1    3    3    0    0  0.28159643521E+02  0.11740575441E+02  0.58506936463E+01  0.31065048705E+02  0.00000000000E+00 0. -1.
</event>
<event>
 7    1  0.1788006E-013  0.7246155E+02  0.7816164E-02  0.1226708E+00
        -11   -1    0    0    0    0  0.00000000000E+00  0.00000000000E+00  0.45593999997E+02  0.45594000000E+02  0.51100000000E-03 0. -1.
         11   -1    0    0    0    0 -0.00000000000E+00 -0.00000000000E+00 -0.45593999997E+02  0.45594000000E+02  0.51100000000E-03 0.  1.
    9900012    2    1    2    0    0  0.11446612196E+02 -0.13982460278E+02  0.49138194833E+01  0.72461554846E+02  0.69999979876E+02 0.  0.
        -12    1    1    2    0    0 -0.11446612196E+02  0.13982460278E+02 -0.49138194833E+01  0.18726445154E+02  0.00000000000E+00 0.  1.
         11    1    3    3    0    0  0.14531925457E+02 -0.73269488740E+01 -0.35600763124E+00  0.16278445226E+02  0.51100000000E-03 0. -1.
        -11    1    3    3    0    0  0.20379784855E+02  0.11472364659E+02 -0.65114697684E+01  0.24276532298E+02  0.51100000000E-03 0.  1.
         12    1    3    3    0    0 -0.23465098116E+02 -0.18127876063E+02  0.11781296883E+02  0.31906577322E+02  0.00000000000E+00 0. -1.
</event>
<event>
 7    1  0.1788006E-013  0.7246153E+02  0.7816164E-02  0.1226708E+00
        -11   -1    0    0    0    0  0.00000000000E+00  0.00000000000E+00  0.45593999997E+02  0.45594000000E+02  0.51100000000E-03 0. -1.
         11   -1    0    0    0    0 -0.00000000000E+00 -0.00000000000E+00 -0.45593999997E+02  0.45594000000E+02  0.51100000000E-03 0.  1.
    9900012    2    1    2    0    0  0.19914289199E+01  0.83386743721E+01  0.16648768636E+02  0.72461527387E+02  0.69999944105E+02 0.  0.
        -12    1    1    2    0    0 -0.19914289199E+01 -0.83386743721E+01 -0.16648768636E+02  0.18726472613E+02  0.00000000000E+00 0.  1.
         11    1    3    3    0    0 -0.72619943114E+01 -0.67886552286E+01  0.63784234315E+01  0.11811294888E+02  0.51100000000E-03 0. -1.
        -11    1    3    3    0    0  0.33315024547E+02  0.66572571342E+01  0.28962786533E+01  0.34096896683E+02  0.51100000000E-03 0.  1.
         12    1    3    3    0    0 -0.24061601316E+02  0.84700724665E+01  0.73740665514E+01  0.26553335816E+02  0.00000000000E+00 0. -1.
</event>
<event>
 7    1  0.1788006E-013  0.7246161E+02  0.7816164E-02  0.1226708E+00
        -11   -1    0    0    0    0  0.00000000000E+00  0.00000000000E+00  0.45593999997E+02  0.45594000000E+02  0.51100000000E-03 0. -1.
         11   -1    0    0    0    0 -0.00000000000E+00 -0.00000000000E+00 -0.45593999997E+02  0.45594000000E+02  0.51100000000E-03 0.  1.
    9900012    2    1    2    0    0  0.18547286471E+02  0.16867538634E+01 -0.19572083085E+01  0.72461611176E+02  0.70000053256E+02 0.  0.
        -12    1    1    2    0    0 -0.18547286471E+02 -0.16867538634E+01  0.19572083085E+01  0.18726388824E+02  0.00000000000E+00 0.  1.
         11    1    3    3    0    0 -0.92518879832E+01 -0.26096702409E+01  0.22208584412E+00  0.96154631923E+01  0.51100000000E-03 0. -1.
        -11    1    3    3    0    0  0.15114376285E+02 -0.10338811240E+02 -0.26215638257E+02  0.31978040557E+02  0.51100000000E-03 0.  1.
        -12    1    3    3    0    0  0.12684798169E+02  0.14635235345E+02  0.24036344105E+02  0.30868107427E+02  0.00000000000E+00 0.  1.
</event>
<event>
 7    1  0.1788006E-013  0.7246144E+02  0.7816164E-02  0.1226708E+00
        -11   -1    0    0    0    0  0.00000000000E+00  0.00000000000E+00  0.45593999997E+02  0.45594000000E+02  0.51100000000E-03 0. -1.
         11   -1    0    0    0    0 -0.00000000000E+00 -0.00000000000E+00 -0.45593999997E+02  0.45594000000E+02  0.51100000000E-03 0.  1.
    9900012    2    1    2    0    0 -0.22098859478E+01  0.12747597878E+01  0.18551965868E+02  0.72461440092E+02  0.69999830387E+02 0.  0.
        -12    1    1    2    0    0  0.22098859478E+01 -0.12747597878E+01 -0.18551965868E+02  0.18726559908E+02  0.00000000000E+00 0.  1.
         11    1    3    3    0    0  0.23262396878E+01 -0.14685139039E+02  0.78096486888E+00  0.14888740916E+02  0.51100000000E-03 0. -1.
        -11    1    3    3    0    0 -0.25169384647E+02  0.76922441904E+00 -0.19258699627E+01  0.25254674916E+02  0.51100000000E-03 0.  1.
         12    1    3    3    0    0  0.20633259012E+02  0.15190674408E+02  0.19696870962E+02  0.32318024260E+02  0.00000000000E+00 0. -1.
</event>
<event>
 7    1  0.1788006E-013  0.7246156E+02  0.7816164E-02  0.1226708E+00
        -11   -1    0    0    0    0  0.00000000000E+00  0.00000000000E+00  0.45593999997E+02  0.45594000000E+02  0.51100000000E-03 0.  1.
         11   -1    0    0    0    0 -0.00000000000E+00 -0.00000000000E+00 -0.45593999997E+02  0.45594000000E+02  0.51100000000E-03 0. -1.
    9900012    2    1    2    0    0 -0.59007477681E+00 -0.90424574702E+01 -0.16387962076E+02  0.72461560767E+02  0.69999987588E+02 0.  0.
        -12    1    1    2    0    0  0.59007477681E+00  0.90424574702E+01  0.16387962076E+02  0.18726439233E+02  0.00000000000E+00 0.  1.
         11    1    3    3    0    0  0.76156062143E+01  0.64009609945E+01 -0.10514082252E+01  0.10003760252E+02  0.51100000000E-03 0. -1.
        -11    1    3    3    0    0  0.68410008729E+01  0.12209781398E+02  0.13732704171E+02  0.19607784649E+02  0.51100000000E-03 0.  1.
         12    1    3    3    0    0 -0.15046681864E+02 -0.27653199863E+02 -0.29069258022E+02  0.42850015866E+02  0.00000000000E+00 0. -1.
</event>
<event>
 7    1  0.1788006E-013  0.7246158E+02  0.7816164E-02  0.1226708E+00
        -11   -1    0    0    0    0  0.00000000000E+00  0.00000000000E+00  0.45593999997E+02  0.45594000000E+02  0.51100000000E-03 0.  1.
         11   -1    0    0    0    0 -0.00000000000E+00 -0.00000000000E+00 -0.45593999997E+02  0.45594000000E+02  0.51100000000E-03 0. -1.
    9900012    2    1    2    0    0 -0.77411609214E+01  0.11210550556E+02  0.12848225996E+02  0.72461576758E+02  0.70000008420E+02 0.  0.
        -12    1    1    2    0    0  0.77411609214E+01 -0.11210550556E+02 -0.12848225996E+02  0.18726423242E+02  0.00000000000E+00 0.  1.
         11    1    3    3    0    0  0.93083835765E+01 -0.11045610931E+02 -0.15405571119E+02  0.21118313082E+02  0.51100000000E-03 0. -1.
        -11    1    3    3    0    0  0.66839325512E+01 -0.20894015630E+01 -0.20356588964E+00  0.70058541644E+01  0.51100000000E-03 0.  1.
        -12    1    3    3    0    0 -0.23733477049E+02  0.24345563050E+02  0.28457363005E+02  0.44337409512E+02  0.00000000000E+00 0.  1.
</event>
<event>
 7    1  0.1788006E-013  0.7246160E+02  0.7816164E-02  0.1226708E+00
        -11   -1    0    0    0    0  0.00000000000E+00  0.00000000000E+00  0.45593999997E+02  0.45594000000E+02  0.51100000000E-03 0.  1.
         11   -1    0    0    0    0 -0.00000000000E+00 -0.00000000000E+00 -0.45593999997E+02  0.45594000000E+02  0.51100000000E-03 0. -1.
    9900012    2    1    2    0    0 -0.13638439881E+02 -0.10322114935E+02 -0.76239725536E+01  0.72461600009E+02  0.70000038709E+02 0.  0.
        -12    1    1    2    0    0  0.13638439881E+02  0.10322114935E+02  0.76239725536E+01  0.18726399991E+02  0.00000000000E+00 0.  1.
         11    1    3    3    0    0 -0.84685085889E-01 -0.26410324033E+02 -0.25135521738E+01  0.26529800826E+02  0.51100000000E-03 0. -1.
        -11    1    3    3    0    0  0.88081300628E+01 -0.75230666322E+01  0.38385238716E+01  0.12203030465E+02  0.51100000000E-03 0.  1.
         12    1    3    3    0    0 -0.22361884858E+02  0.23611275730E+02 -0.89489442514E+01  0.33728768718E+02  0.00000000000E+00 0. -1.
</event>
<event>
 7    1  0.1788006E-013  0.7246157E+02  0.7816164E-02  0.1226708E+00
        -11   -1    0    0    0    0  0.00000000000E+00  0.00000000000E+00  0.45593999997E+02  0.45594000000E+02  0.51100000000E-03 0.  1.
         11   -1    0    0    0    0 -0.00000000000E+00 -0.00000000000E+00 -0.45593999997E+02  0.45594000000E+02  0.51100000000E-03 0. -1.
    9900012    2    1    2    0    0  0.18556992367E+02 -0.24272456770E+01 -0.65231881091E+00  0.72461574631E+02  0.70000005649E+02 0.  0.
        -12    1    1    2    0    0 -0.18556992367E+02  0.24272456770E+01  0.65231881091E+00  0.18726425369E+02  0.00000000000E+00 0.  1.
         11    1    3    3    0    0  0.54828388378E+01 -0.10799873876E+02 -0.36285743881E+01  0.12643787005E+02  0.51100000000E-03 0. -1.
        -11    1    3    3    0    0  0.20752080768E+02 -0.17501707807E+02  0.14142115368E+02  0.30609770657E+02  0.51100000000E-03 0.  1.
         12    1    3    3    0    0 -0.76779272389E+01  0.25874336006E+02 -0.11165859791E+02  0.29208016970E+02  0.00000000000E+00 0. -1.
</event>
<event>
 7    1  0.1788006E-013  0.7246153E+02  0.7816164E-02  0.1226708E+00
        -11   -1    0    0    0    0  0.00000000000E+00  0.00000000000E+00  0.45593999997E+02  0.45594000000E+02  0.51100000000E-03 0.  1.
         11   -1    0    0    0    0 -0.00000000000E+00 -0.00000000000E+00 -0.45593999997E+02  0.45594000000E+02  0.51100000000E-03 0. -1.
    9900012    2    1    2    0    0 -0.86559686368E+01  0.12061344173E+02 -0.11413970047E+02  0.72461534008E+02  0.69999952731E+02 0.  0.
        -12    1    1    2    0    0  0.86559686368E+01 -0.12061344173E+02  0.11413970047E+02  0.18726465992E+02  0.00000000000E+00 0.  1.
         11    1    3    3    0    0 -0.25688855601E+02  0.14117165698E+02  0.32360631462E+01  0.29490401395E+02  0.51100000000E-03 0. -1.
        -11    1    3    3    0    0 -0.39280685980E+01 -0.11317032901E+02  0.48085335962E+01  0.12908406261E+02  0.51100000000E-03 0.  1.
        -12    1    3    3    0    0  0.20960955563E+02  0.92612113757E+01 -0.19458566790E+02  0.30062726353E+02  0.00000000000E+00 0.  1.
</event>
<event>
 7    1  0.1788006E-013  0.7246154E+02  0.7816164E-02  0.1226708E+00
        -11   -1    0    0    0    0  0.00000000000E+00  0.00000000000E+00  0.45593999997E+02  0.45594000000E+02  0.51100000000E-03 0.  1.
         11   -1    0    0    0    0 -0.00000000000E+00 -0.00000000000E+00 -0.45593999997E+02  0.45594000000E+02  0.51100000000E-03 0. -1.
    9900012    2    1    2    0    0  0.13160618270E+01  0.18449886993E+02 -0.29240524476E+01  0.72461536599E+02  0.69999956106E+02 0.  0.
        -12    1    1    2    0    0 -0.13160618270E+01 -0.18449886993E+02  0.29240524476E+01  0.18726463401E+02  0.00000000000E+00 0.  1.
         11    1    3    3    0    0  0.50632302290E+01 -0.60967805967E+01 -0.99989071017E+01  0.12758729462E+02  0.51100000000E-03 0. -1.
        -11    1    3    3    0    0  0.14499640588E+02  0.54453090360E+01  0.23830015486E+02  0.28421129570E+02  0.51100000000E-03 0.  1.
         12    1    3    3    0    0 -0.18246808990E+02  0.19101358554E+02 -0.16755160832E+02  0.31281677567E+02  0.00000000000E+00 0. -1.
</event>
<event>
 7    1  0.1788006E-013  0.7246172E+02  0.7816164E-02  0.1226708E+00
        -11   -1    0    0    0    0  0.00000000000E+00  0.00000000000E+00  0.45593999997E+02  0.45594000000E+02  0.51100000000E-03 0.  1.
         11   -1    0    0    0    0 -0.00000000000E+00 -0.00000000000E+00 -0.45593999997E+02  0.45594000000E+02  0.51100000000E-03 0. -1.
    9900012    2    1    2    0    0  0.75011364473E+01 -0.17142295679E+02  0.74035850071E+00  0.72461722210E+02  0.70000197899E+02 0.  0.
        -12    1    1    2    0    0 -0.75011364473E+01  0.17142295679E+02 -0.74035850071E+00  0.18726277790E+02  0.00000000000E+00 0.  1.
         11    1    3    3    0    0 -0.21683428414E+02 -0.72138377196E+00  0.17989590693E+02  0.28183627089E+02  0.51100000000E-03 0. -1.
        -11    1    3    3    0    0  0.83887826745E+00  0.49574212151E+01 -0.59704689455E+00  0.50632210209E+01  0.51100000000E-03 0.  1.
        -12    1    3    3    0    0  0.28345686594E+02 -0.21378333122E+02 -0.16652185298E+02  0.39214874101E+02  0.00000000000E+00 0.  1.
</event>
<event>
 7    1  0.1788006E-013  0.7246152E+02  0.7816164E-02  0.1226708E+00
        -11   -1    0    0    0    0  0.00000000000E+00  0.00000000000E+00  0.45593999997E+02  0.45594000000E+02  0.51100000000E-03 0. -1.
         11   -1    0    0    0    0 -0.00000000000E+00 -0.00000000000E+00 -0.45593999997E+02  0.45594000000E+02  0.51100000000E-03 0.  1.
    9900012    2    1    2    0    0 -0.11284157675E+02  0.14866151210E+02  0.15317889051E+01  0.72461520259E+02  0.69999934820E+02 0.  0.
        -12    1    1    2    0    0  0.11284157675E+02 -0.14866151210E+02 -0.15317889051E+01  0.18726479741E+02  0.00000000000E+00 0.  1.
         11    1    3    3    0    0 -0.12216298016E+02  0.23595283468E+02  0.51596172026E+01  0.27066528944E+02  0.51100000000E-03 0. -1.
        -11    1    3    3    0    0 -0.77987609850E+01 -0.31243427307E+01 -0.22412612978E+02  0.23935484352E+02  0.51100000000E-03 0.  1.
         12    1    3    3    0    0  0.87309013258E+01 -0.56047895272E+01  0.18784784680E+02  0.21459506963E+02  0.00000000000E+00 0. -1.
</event>
<event>
 7    1  0.1788006E-013  0.7246143E+02  0.7816164E-02  0.1226708E+00
        -11   -1    0    0    0    0  0.00000000000E+00  0.00000000000E+00  0.45593999997E+02  0.45594000000E+02  0.51100000000E-03 0.  1.
         11   -1    0    0    0    0 -0.00000000000E+00 -0.00000000000E+00 -0.45593999997E+02  0.45594000000E+02  0.51100000000E-03 0. -1.
    9900012    2    1    2    0    0  0.13435995756E+01 -0.87439400724E+01 -0.16505231331E+02  0.72461430397E+02  0.69999817758E+02 0.  0.
        -12    1    1    2    0    0 -0.13435995756E+01  0.87439400724E+01  0.16505231331E+02  0.18726569603E+02  0.00000000000E+00 0.  1.
         11    1    3    3    0    0 -0.22189260363E+02 -0.91222056768E+00 -0.25240449900E+02  0.33619573662E+02  0.51100000000E-03 0. -1.
        -11    1    3    3    0    0 -0.46457602372E+01  0.50482470149E+01  0.17894240407E+01  0.70901286846E+01  0.51100000000E-03 0.  1.
        -12    1    3    3    0    0  0.28178620175E+02 -0.12879966520E+02  0.69457945288E+01  0.31751728050E+02  0.00000000000E+00 0.  1.
</event>
<event>
 7    1  0.1788006E-013  0.7246170E+02  0.7816164E-02  0.1226708E+00
        -11   -1    0    0    0    0  0.00000000000E+00  0.00000000000E+00  0.45593999997E+02  0.45594000000E+02  0.51100000000E-03 0.  1.
         11   -1    0    0    0    0 -0.00000000000E+00 -0.00000000000E+00 -0.45593999997E+02  0.45594000000E+02  0.51100000000E-03 0. -1.
    9900012    2    1    2    0    0 -0.66470939394E+01 -0.16971322019E+02  0.42970754592E+01  0.72461695335E+02  0.70000162888E+02 0.  0.
        -12    1    1    2    0    0  0.66470939394E+01  0.16971322019E+02 -0.42970754592E+01  0.18726304665E+02  0.00000000000E+00 0.  1.
         11    1    3    3    0    0 -0.72193411486E+01  0.11954862951E+02  0.25375573677E+02  0.28964760908E+02  0.51100000000E-03 0.  1.
        -11    1    3    3    0    0 -0.38659237088E+01 -0.50248469927E+01 -0.17888350538E+02  0.18978607395E+02  0.51100000000E-03 0. -1.
        -12    1    3    3    0    0  0.44381709180E+01 -0.23901337977E+02 -0.31901476793E+01  0.24518327031E+02  0.00000000000E+00 0.  1.
</event>
<event>
 7    1  0.1788006E-013  0.7246156E+02  0.7816164E-02  0.1226708E+00
        -11   -1    0    0    0    0  0.00000000000E+00  0.00000000000E+00  0.45593999997E+02  0.45594000000E+02  0.51100000000E-03 0.  1.
         11   -1    0    0    0    0 -0.00000000000E+00 -0.00000000000E+00 -0.45593999997E+02  0.45594000000E+02  0.51100000000E-03 0. -1.
    9900012    2    1    2    0    0  0.12689485151E+02 -0.13730838717E+02 -0.10585559839E+01  0.72461561309E+02  0.69999988295E+02 0.  0.
        -12    1    1    2    0    0 -0.12689485151E+02  0.13730838717E+02  0.10585559839E+01  0.18726438691E+02  0.00000000000E+00 0.  1.
         11    1    3    3    0    0  0.12027354211E+02  0.15213882192E+02 -0.44962584736E+01  0.19908184277E+02  0.51100000000E-03 0. -1.
        -11    1    3    3    0    0  0.17638323055E+02 -0.21076684975E+02  0.14234480233E+02  0.30950888800E+02  0.51100000000E-03 0.  1.
        -12    1    3    3    0    0 -0.16976192115E+02 -0.78680359338E+01 -0.10796777744E+02  0.21602488232E+02  0.00000000000E+00 0.  1.
</event>
<event>
 7    1  0.1788006E-013  0.7246164E+02  0.7816164E-02  0.1226708E+00
        -11   -1    0    0    0    0  0.00000000000E+00  0.00000000000E+00  0.45593999997E+02  0.45594000000E+02  0.51100000000E-03 0.  1.
         11   -1    0    0    0    0 -0.00000000000E+00 -0.00000000000E+00 -0.45593999997E+02  0.45594000000E+02  0.51100000000E-03 0. -1.
    9900012    2    1    2    0    0  0.36507674795E+01  0.14252413758E+02 -0.11585212897E+02  0.72461639996E+02  0.70000090799E+02 0.  0.
        -12    1    1    2    0    0 -0.36507674795E+01 -0.14252413758E+02  0.11585212897E+02  0.18726360004E+02  0.00000000000E+00 0.  1.
         11    1    3    3    0    0  0.24788630384E+02  0.19339941067E+02 -0.22590916343E+02  0.38715100649E+02  0.51100000000E-03 0. -1.
        -11    1    3    3    0    0  0.34182846819E+01 -0.13348079335E+01 -0.34235451670E+01  0.50186695606E+01  0.51100000000E-03 0.  1.
        -12    1    3    3    0    0 -0.24556147586E+02 -0.37527193758E+01  0.14429248612E+02  0.28727869787E+02  0.00000000000E+00 0.  1.
</event>
<event>
 7    1  0.1788006E-013  0.7246157E+02  0.7816164E-02  0.1226708E+00
        -11   -1    0    0    0    0  0.00000000000E+00  0.00000000000E+00  0.45593999997E+02  0.45594000000E+02  0.51100000000E-03 0. -1.
         11   -1    0    0    0    0 -0.00000000000E+00 -0.00000000000E+00 -0.45593999997E+02  0.45594000000E+02  0.51100000000E-03 0.  1.
    9900012    2    1    2    0    0 -0.50073735447E+01 -0.37729257380E+01  0.17645694250E+02  0.72461567238E+02  0.69999996018E+02 0.  0.
        -12    1    1    2    0    0  0.50073735447E+01  0.37729257380E+01 -0.17645694250E+02  0.18726432762E+02  0.00000000000E+00 0.  1.
         11    1    3    3    0    0  0.26514980666E+02  0.15089615318E+02  0.50901594473E+01  0.30929765819E+02  0.51100000000E-03 0. -1.
        -11    1    3    3    0    0 -0.44133592198E+01 -0.99337831921E+01  0.17332971256E+01  0.11007366047E+02  0.51100000000E-03 0.  1.
        -12    1    3    3    0    0 -0.27108994991E+02 -0.89287578638E+01  0.10822237677E+02  0.30524435371E+02  0.00000000000E+00 0.  1.
</event>
<event>
 7    1  0.1788006E-013  0.7246161E+02  0.7816164E-02  0.1226708E+00
        -11   -1    0    0    0    0  0.00000000000E+00  0.00000000000E+00  0.45593999997E+02  0.45594000000E+02  0.51100000000E-03 0. -1.
         11   -1    0    0    0    0 -0.00000000000E+00 -0.00000000000E+00 -0.45593999997E+02  0.45594000000E+02  0.51100000000E-03 0.  1.
    9900012    2    1    2    0    0  0.11179066893E+02  0.78280895187E+01  0.12822912571E+02  0.72461611963E+02  0.70000054281E+02 0.  0.
        -12    1    1    2    0    0 -0.11179066893E+02 -0.78280895187E+01 -0.12822912571E+02  0.18726388037E+02  0.00000000000E+00 0.  1.
         11    1    3    3    0    0  0.13828830829E+02 -0.17812454716E+02  0.24274511593E+02  0.33132642793E+02  0.51100000000E-03 0. -1.
        -11    1    3    3    0    0 -0.93476667502E+00 -0.56844094769E+01 -0.42017855993E+01  0.71303087115E+01  0.51100000000E-03 0.  1.
         12    1    3    3    0    0 -0.17149972607E+01  0.31324953712E+02 -0.72498134233E+01  0.32198660458E+02  0.00000000000E+00 0. -1.
</event>
<event>
 7    1  0.1788006E-013  0.7246153E+02  0.7816164E-02  0.1226708E+00
        -11   -1    0    0    0    0  0.00000000000E+00  0.00000000000E+00  0.45593999997E+02  0.45594000000E+02  0.51100000000E-03 0. -1.
         11   -1    0    0    0    0 -0.00000000000E+00 -0.00000000000E+00 -0.45593999997E+02  0.45594000000E+02  0.51100000000E-03 0.  1.
    9900012    2    1    2    0    0 -0.53014544127E+01 -0.14749439675E+02  0.10248373308E+02  0.72461533567E+02  0.69999952155E+02 0.  0.
        -12    1    1    2    0    0  0.53014544127E+01  0.14749439675E+02 -0.10248373308E+02  0.18726466433E+02  0.00000000000E+00 0.  1.
         11    1    3    3    0    0 -0.19490009215E+02 -0.25437165783E+02  0.18679157141E+02  0.37092058099E+02  0.51100000000E-03 0. -1.
        -11    1    3    3    0    0 -0.53957488228E+01  0.81653086718E+01  0.54787149113E+01  0.11216179760E+02  0.51100000000E-03 0.  1.
        -12    1    3    3    0    0  0.19584303625E+02  0.25224174364E+01 -0.13909498745E+02  0.24153295707E+02  0.00000000000E+00 0.  1.
</event>
<event>
 7    1  0.1788006E-013  0.7246176E+02  0.7816164E-02  0.1226708E+00
        -11   -1    0    0    0    0  0.00000000000E+00  0.00000000000E+00  0.45593999997E+02  0.45594000000E+02  0.51100000000E-03 0.  1.
         11   -1    0    0    0    0 -0.00000000000E+00 -0.00000000000E+00 -0.45593999997E+02  0.45594000000E+02  0.51100000000E-03 0. -1.
    9900012    2    1    2    0    0  0.76211778307E+01  0.23608833586E+01 -0.16941542822E+02  0.72461761858E+02  0.70000249547E+02 0.  0.
        -12    1    1    2    0    0 -0.76211778307E+01 -0.23608833586E+01  0.16941542822E+02  0.18726238142E+02  0.00000000000E+00 0.  1.
         11    1    3    3    0    0 -0.74449387781E+01  0.62176594652E+01 -0.63689793388E+01  0.11603891619E+02  0.51100000000E-03 0. -1.
        -11    1    3    3    0    0 -0.10023565280E+02 -0.12930781422E+02  0.16226039269E+02  0.23042597938E+02  0.51100000000E-03 0.  1.
        -12    1    3    3    0    0  0.25089681889E+02  0.90740053149E+01 -0.26798602752E+02  0.37815272301E+02  0.00000000000E+00 0.  1.
</event>
<event>
 7    1  0.1788006E-013  0.7246174E+02  0.7816164E-02  0.1226708E+00
        -11   -1    0    0    0    0  0.00000000000E+00  0.00000000000E+00  0.45593999997E+02  0.45594000000E+02  0.51100000000E-03 0. -1.
         11   -1    0    0    0    0 -0.00000000000E+00 -0.00000000000E+00 -0.45593999997E+02  0.45594000000E+02  0.51100000000E-03 0.  1.
    9900012    2    1    2    0    0 -0.97285019227E+01  0.46830418319E+01 -0.15300268298E+02  0.72461739283E+02  0.70000220138E+02 0.  0.
        -12    1    1    2    0    0  0.97285019227E+01 -0.46830418319E+01  0.15300268298E+02  0.18726260717E+02  0.00000000000E+00 0.  1.
         11    1    3    3    0    0  0.53187632060E+01  0.11701025919E+02  0.16853983779E+02  0.21195754742E+02  0.51100000000E-03 0. -1.
        -11    1    3    3    0    0  0.21457902652E+01 -0.15602996870E+02 -0.25259602746E+01  0.15951125439E+02  0.51100000000E-03 0.  1.
        -12    1    3    3    0    0 -0.17193055394E+02  0.85850127832E+01 -0.29628291802E+02  0.35314859102E+02  0.00000000000E+00 0.  1.
</event>
<event>
 7    1  0.1788006E-013  0.7246166E+02  0.7816164E-02  0.1226708E+00
        -11   -1    0    0    0    0  0.00000000000E+00  0.00000000000E+00  0.45593999997E+02  0.45594000000E+02  0.51100000000E-03 0.  1.
         11   -1    0    0    0    0 -0.00000000000E+00 -0.00000000000E+00 -0.45593999997E+02  0.45594000000E+02  0.51100000000E-03 0. -1.
    9900012    2    1    2    0    0  0.12318311985E+02  0.13852072737E+02 -0.26561696034E+01  0.72461655823E+02  0.70000111417E+02 0.  0.
        -12    1    1    2    0    0 -0.12318311985E+02 -0.13852072737E+02  0.26561696034E+01  0.18726344177E+02  0.00000000000E+00 0.  1.
         11    1    3    3    0    0  0.97706635451E+00 -0.16216299618E+02  0.86924661850E+00  0.16268946552E+02  0.51100000000E-03 0. -1.
        -11    1    3    3    0    0 -0.12894205763E+02  0.28673147201E+02 -0.51710576223E+01  0.31861414750E+02  0.51100000000E-03 0.  1.
         12    1    3    3    0    0  0.24235451393E+02  0.13952251538E+01  0.16456414004E+01  0.24331294521E+02  0.00000000000E+00 0. -1.
</event>
<event>
 7    1  0.1788006E-013  0.7246117E+02  0.7816164E-02  0.1226709E+00
        -11   -1    0    0    0    0  0.00000000000E+00  0.00000000000E+00  0.45593999997E+02  0.45594000000E+02  0.51100000000E-03 0.  1.
         11   -1    0    0    0    0 -0.00000000000E+00 -0.00000000000E+00 -0.45593999997E+02  0.45594000000E+02  0.51100000000E-03 0. -1.
    9900012    2    1    2    0    0  0.16068568588E+02  0.28541139354E+01 -0.91841921784E+01  0.72461167678E+02  0.69999475516E+02 0.  0.
        -12    1    1    2    0    0 -0.16068568588E+02 -0.28541139354E+01  0.91841921784E+01  0.18726832322E+02  0.00000000000E+00 0.  1.
         11    1    3    3    0    0  0.26029595409E+02  0.12202751813E+02 -0.92243813674E+00  0.28762786398E+02  0.51100000000E-03 0. -1.
        -11    1    3    3    0    0 -0.14477859969E+02  0.13393288307E+02 -0.39699758029E+01  0.20118382368E+02  0.51100000000E-03 0.  1.
         12    1    3    3    0    0  0.45168331478E+01 -0.22741926185E+02 -0.42917782388E+01  0.23579998913E+02  0.00000000000E+00 0. -1.
</event>
<event>
 7    1  0.1788006E-013  0.7246159E+02  0.7816164E-02  0.1226708E+00
        -11   -1    0    0    0    0  0.00000000000E+00  0.00000000000E+00  0.45593999997E+02  0.45594000000E+02  0.51100000000E-03 0. -1.
         11   -1    0    0    0    0 -0.00000000000E+00 -0.00000000000E+00 -0.45593999997E+02  0.45594000000E+02  0.51100000000E-03 0.  1.
    9900012    2    1    2    0    0 -0.13144866784E+02 -0.12251576864E+02  0.52715921976E+01  0.72461592370E+02  0.70000028758E+02 0.  0.
        -12    1    1    2    0    0  0.13144866784E+02  0.12251576864E+02 -0.52715921976E+01  0.18726407630E+02  0.00000000000E+00 0.  1.
         11    1    3    3    0    0 -0.20897436844E+02 -0.70094808710E+01 -0.25848077188E+01  0.22192722229E+02  0.51100000000E-03 0. -1.
        -11    1    3    3    0    0  0.45875048739E+01 -0.22241125360E+02 -0.10527631106E+02  0.25030858459E+02  0.51100000000E-03 0.  1.
         12    1    3    3    0    0  0.31650651864E+01  0.16999029367E+02  0.18384031022E+02  0.25238011682E+02  0.00000000000E+00 0. -1.
</event>
<event>
 7    1  0.1788006E-013  0.7246159E+02  0.7816164E-02  0.1226708E+00
        -11   -1    0    0    0    0  0.00000000000E+00  0.00000000000E+00  0.45593999997E+02  0.45594000000E+02  0.51100000000E-03 0.  1.
         11   -1    0    0    0    0 -0.00000000000E+00 -0.00000000000E+00 -0.45593999997E+02  0.45594000000E+02  0.51100000000E-03 0. -1.
    9900012    2    1    2    0    0 -0.13163118806E+02 -0.13318890844E+02  0.13403267372E+00  0.72461587776E+02  0.70000022773E+02 0.  0.
        -12    1    1    2    0    0  0.13163118806E+02  0.13318890844E+02 -0.13403267372E+00  0.18726412224E+02  0.00000000000E+00 0.  1.
         11    1    3    3    0    0  0.15270310534E+02 -0.20457416964E+02  0.40806030076E+01  0.25852265158E+02  0.51100000000E-03 0. -1.
        -11    1    3    3    0    0  0.73317474131E+01  0.52867989341E+01  0.40650197223E+01  0.99110619362E+01  0.51100000000E-03 0.  1.
        -12    1    3    3    0    0 -0.35765176754E+02  0.18517271854E+01 -0.80115900562E+01  0.36698260681E+02  0.00000000000E+00 0.  1.
</event>
<event>
 7    1  0.1788006E-013  0.7246157E+02  0.7816164E-02  0.1226708E+00
        -11   -1    0    0    0    0  0.00000000000E+00  0.00000000000E+00  0.45593999997E+02  0.45594000000E+02  0.51100000000E-03 0.  1.
         11   -1    0    0    0    0 -0.00000000000E+00 -0.00000000000E+00 -0.45593999997E+02  0.45594000000E+02  0.51100000000E-03 0. -1.
    9900012    2    1    2    0    0 -0.18030548986E+02 -0.47648331320E+01 -0.16955182030E+01  0.72461571790E+02  0.70000001949E+02 0.  0.
        -12    1    1    2    0    0  0.18030548986E+02  0.47648331320E+01  0.16955182030E+01  0.18726428210E+02  0.00000000000E+00 0.  1.
         11    1    3    3    0    0 -0.62326034342E+01 -0.24087544558E+02 -0.75409973730E+01  0.25998495919E+02  0.51100000000E-03 0. -1.
        -11    1    3    3    0    0 -0.33686937596E+01 -0.12066127958E+02  0.61610658883E+01  0.13960597218E+02  0.51100000000E-03 0.  1.
        -12    1    3    3    0    0 -0.84292517923E+01  0.31388839384E+02 -0.31558671825E+00  0.32502478654E+02  0.00000000000E+00 0.  1.
</event>
<event>
 7    1  0.1788006E-013  0.7246160E+02  0.7816164E-02  0.1226708E+00
        -11   -1    0    0    0    0  0.00000000000E+00  0.00000000000E+00  0.45593999997E+02  0.45594000000E+02  0.51100000000E-03 0.  1.
         11   -1    0    0    0    0 -0.00000000000E+00 -0.00000000000E+00 -0.45593999997E+02  0.45594000000E+02  0.51100000000E-03 0. -1.
    9900012    2    1    2    0    0 -0.90793988589E+01 -0.52492349833E+01 -0.15514128640E+02  0.72461597809E+02  0.70000035844E+02 0.  0.
        -12    1    1    2    0    0  0.90793988589E+01  0.52492349833E+01  0.15514128640E+02  0.18726402191E+02  0.00000000000E+00 0.  1.
         11    1    3    3    0    0  0.28535053442E+02 -0.30318216760E+01 -0.16703287378E+02  0.33203027378E+02  0.51100000000E-03 0. -1.
        -11    1    3    3    0    0  0.12395450404E-01 -0.10643046657E+01  0.12133668558E+01  0.16140500167E+01  0.51100000000E-03 0.  1.
        -12    1    3    3    0    0 -0.37626847751E+02 -0.11531086415E+01 -0.24208117609E-01  0.37644520415E+02  0.00000000000E+00 0.  1.
</event>
<event>
 7    1  0.1788006E-013  0.7246158E+02  0.7816164E-02  0.1226708E+00
        -11   -1    0    0    0    0  0.00000000000E+00  0.00000000000E+00  0.45593999997E+02  0.45594000000E+02  0.51100000000E-03 0. -1.
         11   -1    0    0    0    0 -0.00000000000E+00 -0.00000000000E+00 -0.45593999997E+02  0.45594000000E+02  0.51100000000E-03 0.  1.
    9900012    2    1    2    0    0 -0.72140027696E+01 -0.14938863249E+02  0.86871986239E+01  0.72461577729E+02  0.70000009686E+02 0.  0.
        -12    1    1    2    0    0  0.72140027696E+01  0.14938863249E+02 -0.86871986239E+01  0.18726422271E+02  0.00000000000E+00 0.  1.
         11    1    3    3    0    0  0.46517766422E+00  0.10472513759E+02 -0.65439900982E+00  0.10503245833E+02  0.51100000000E-03 0. -1.
        -11    1    3    3    0    0  0.15196532117E+02 -0.72167037710E+01 -0.16041988640E+02  0.23245661993E+02  0.51100000000E-03 0.  1.
         12    1    3    3    0    0 -0.22875712551E+02 -0.18194673237E+02  0.25383586274E+02  0.38712669903E+02  0.00000000000E+00 0. -1.
</event>
<event>
 7    1  0.1788006E-013  0.7246156E+02  0.7816164E-02  0.1226708E+00
        -11   -1    0    0    0    0  0.00000000000E+00  0.00000000000E+00  0.45593999997E+02  0.45594000000E+02  0.51100000000E-03 0. -1.
         11   -1    0    0    0    0 -0.00000000000E+00 -0.00000000000E+00 -0.45593999997E+02  0.45594000000E+02  0.51100000000E-03 0.  1.
    9900012    2    1    2    0    0  0.99328706031E+01  0.14585305497E+02 -0.62678800402E+01  0.72461564807E+02  0.69999992851E+02 0.  0.
        -12    1    1    2    0    0 -0.99328706031E+01 -0.14585305497E+02  0.62678800402E+01  0.18726435193E+02  0.00000000000E+00 0.  1.
         11    1    3    3    0    0  0.13709891004E+01  0.19501584009E+02  0.18033683737E+02  0.26597088926E+02  0.51100000000E-03 0. -1.
        -11    1    3    3    0    0 -0.12882109511E+02  0.65764997834E+01 -0.10696510469E+02  0.17989286570E+02  0.51100000000E-03 0.  1.
        -12    1    3    3    0    0  0.21443991013E+02 -0.11492778296E+02 -0.13605053308E+02  0.27875189310E+02  0.00000000000E+00 0.  1.
</event>
<event>
 7    1  0.1788006E-013  0.7246164E+02  0.7816164E-02  0.1226708E+00
        -11   -1    0    0    0    0  0.00000000000E+00  0.00000000000E+00  0.45593999997E+02  0.45594000000E+02  0.51100000000E-03 0.  1.
         11   -1    0    0    0    0 -0.00000000000E+00 -0.00000000000E+00 -0.45593999997E+02  0.45594000000E+02  0.51100000000E-03 0. -1.
    9900012    2    1    2    0    0  0.14263062256E+02  0.13658492123E+01 -0.12057202997E+02  0.72461638018E+02  0.70000088222E+02 0.  0.
        -12    1    1    2    0    0 -0.14263062256E+02 -0.13658492123E+01  0.12057202997E+02  0.18726361982E+02  0.00000000000E+00 0.  1.
         11    1    3    3    0    0  0.89450145577E+01  0.20401491314E+02 -0.87410140000E+01  0.23929886320E+02  0.51100000000E-03 0. -1.
        -11    1    3    3    0    0 -0.43549352120E+01  0.93260795287E+01  0.11220276841E+02  0.15226156203E+02  0.51100000000E-03 0.  1.
         12    1    3    3    0    0  0.96729829100E+01 -0.28361721630E+02 -0.14536465838E+02  0.33305595495E+02  0.00000000000E+00 0. -1.
</event>
<event>
 7    1  0.1788006E-013  0.7246152E+02  0.7816164E-02  0.1226708E+00
        -11   -1    0    0    0    0  0.00000000000E+00  0.00000000000E+00  0.45593999997E+02  0.45594000000E+02  0.51100000000E-03 0.  1.
         11   -1    0    0    0    0 -0.00000000000E+00 -0.00000000000E+00 -0.45593999997E+02  0.45594000000E+02  0.51100000000E-03 0. -1.
    9900012    2    1    2    0    0 -0.93148122900E+01  0.13945676828E+02 -0.83326616178E+01  0.72461524629E+02  0.69999940512E+02 0.  0.
        -12    1    1    2    0    0  0.93148122900E+01 -0.13945676828E+02  0.83326616178E+01  0.18726475371E+02  0.00000000000E+00 0.  1.
         11    1    3    3    0    0 -0.20891195801E+02  0.16901711649E+02  0.18204557171E+02  0.32457908447E+02  0.51100000000E-03 0. -1.
        -11    1    3    3    0    0  0.33481109596E+00  0.95428059415E+01 -0.12380625497E+01  0.96286054465E+01  0.51100000000E-03 0.  1.
        -12    1    3    3    0    0  0.11241572415E+02 -0.12498840762E+02 -0.25299156240E+02  0.30375010736E+02  0.00000000000E+00 0.  1.
</event>
<event>
 7    1  0.1788006E-013  0.7246153E+02  0.7816164E-02  0.1226708E+00
        -11   -1    0    0    0    0  0.00000000000E+00  0.00000000000E+00  0.45593999997E+02  0.45594000000E+02  0.51100000000E-03 0.  1.
         11   -1    0    0    0    0 -0.00000000000E+00 -0.00000000000E+00 -0.45593999997E+02  0.45594000000E+02  0.51100000000E-03 0. -1.
    9900012    2    1    2    0    0 -0.35926901398E+01  0.74859633180E+01  0.16784927616E+02  0.72461525043E+02  0.69999941052E+02 0.  0.
        -12    1    1    2    0    0  0.35926901398E+01 -0.74859633180E+01 -0.16784927616E+02  0.18726474957E+02  0.00000000000E+00 0.  1.
         11    1    3    3    0    0 -0.80334647436E+01  0.21317856648E+02  0.19060214613E+02  0.29703187526E+02  0.51100000000E-03 0. -1.
        -11    1    3    3    0    0  0.23964096114E+01 -0.14459807311E+02  0.17523051104E+02  0.22844827134E+02  0.51100000000E-03 0.  1.
        -12    1    3    3    0    0  0.20443649923E+01  0.62791398084E+00 -0.19798338102E+02  0.19913510383E+02  0.00000000000E+00 0.  1.
</event>
<event>
 7    1  0.1788006E-013  0.7246157E+02  0.7816164E-02  0.1226708E+00
        -11   -1    0    0    0    0  0.00000000000E+00  0.00000000000E+00  0.45593999997E+02  0.45594000000E+02  0.51100000000E-03 0.  1.
         11   -1    0    0    0    0 -0.00000000000E+00 -0.00000000000E+00 -0.45593999997E+02  0.45594000000E+02  0.51100000000E-03 0. -1.
    9900012    2    1    2    0    0  0.17815808104E+02  0.43038125978E+01 -0.38410246623E+01  0.72461567031E+02  0.69999995749E+02 0.  0.
        -12    1    1    2    0    0 -0.17815808104E+02 -0.43038125978E+01  0.38410246623E+01  0.18726432969E+02  0.00000000000E+00 0.  1.
         11    1    3    3    0    0  0.89740430467E+01  0.64357563029E+01 -0.14258991376E+02  0.18035277739E+02  0.51100000000E-03 0. -1.
        -11    1    3    3    0    0  0.15819336943E+02 -0.24841291009E+02  0.33529858724E+01  0.29640912179E+02  0.51100000000E-03 0.  1.
        -12    1    3    3    0    0 -0.69775718862E+01  0.22709347303E+02  0.70649808411E+01  0.24785377114E+02  0.00000000000E+00 0.  1.
</event>
<event>
 7    1  0.1788006E-013  0.7246156E+02  0.7816164E-02  0.1226708E+00
        -11   -1    0    0    0    0  0.00000000000E+00  0.00000000000E+00  0.45593999997E+02  0.45594000000E+02  0.51100000000E-03 0. -1.
         11   -1    0    0    0    0 -0.00000000000E+00 -0.00000000000E+00 -0.45593999997E+02  0.45594000000E+02  0.51100000000E-03 0.  1.
    9900012    2    1    2    0    0 -0.46225176328E+01 -0.74784507324E+01  0.16534351116E+02  0.72461557160E+02  0.69999982890E+02 0.  0.
        -12    1    1    2    0    0  0.46225176328E+01  0.74784507324E+01 -0.16534351116E+02  0.18726442840E+02  0.00000000000E+00 0.  1.
         11    1    3    3    0    0 -0.15040660641E+02 -0.19817348830E-01  0.20423466238E+02  0.25364144745E+02  0.51100000000E-03 0. -1.
        -11    1    3    3    0    0 -0.11073862178E+02  0.12759028488E+02 -0.48434075889E+01  0.17575034248E+02  0.51100000000E-03 0.  1.
         12    1    3    3    0    0  0.21492005186E+02 -0.20217661871E+02  0.95429246742E+00  0.29522378166E+02  0.00000000000E+00 0. -1.
</event>
<event>
 7    1  0.1788006E-013  0.7246163E+02  0.7816164E-02  0.1226708E+00
        -11   -1    0    0    0    0  0.00000000000E+00  0.00000000000E+00  0.45593999997E+02  0.45594000000E+02  0.51100000000E-03 0. -1.
         11   -1    0    0    0    0 -0.00000000000E+00 -0.00000000000E+00 -0.45593999997E+02  0.45594000000E+02  0.51100000000E-03 0.  1.
    9900012    2    1    2    0    0 -0.14659858048E+02 -0.10810773004E+02 -0.43465687197E+01  0.72461630609E+02  0.70000078571E+02 0.  0.
        -12    1    1    2    0    0  0.14659858048E+02  0.10810773004E+02  0.43465687197E+01  0.18726369391E+02  0.00000000000E+00 0.  1.
         11    1    3    3    0    0  0.12088910402E+02 -0.22702456663E+02  0.11653851407E+02  0.28237484770E+02  0.51100000000E-03 0. -1.
        -11    1    3    3    0    0 -0.89558053618E+01 -0.97264551219E+01 -0.55339264456E+01  0.14332994142E+02  0.51100000000E-03 0.  1.
         12    1    3    3    0    0 -0.17792963088E+02  0.21618138780E+02 -0.10466493681E+02  0.29891151697E+02  0.00000000000E+00 0. -1.
</event>
<event>
 7    1  0.1788006E-013  0.7246160E+02  0.7816164E-02  0.1226708E+00
        -11   -1    0    0    0    0  0.00000000000E+00  0.00000000000E+00  0.45593999997E+02  0.45594000000E+02  0.51100000000E-03 0. -1.
         11   -1    0    0    0    0 -0.00000000000E+00 -0.00000000000E+00 -0.45593999997E+02  0.45594000000E+02  0.51100000000E-03 0.  1.
    9900012    2    1    2    0    0 -0.30908709444E+01 -0.13992147637E+02 -0.12055892231E+02  0.72461595749E+02  0.70000033159E+02 0.  0.
        -12    1    1    2    0    0  0.30908709444E+01  0.13992147637E+02  0.12055892231E+02  0.18726404251E+02  0.00000000000E+00 0.  1.
         11    1    3    3    0    0 -0.97705529103E+01 -0.20070031419E+01 -0.17759896153E+01  0.10131431545E+02  0.51100000000E-03 0. -1.
        -11    1    3    3    0    0 -0.18380659012E+02 -0.21732105486E+02  0.82975844449E+01  0.29647646491E+02  0.51100000000E-03 0.  1.
         12    1    3    3    0    0  0.25060340978E+02  0.97469609916E+01 -0.18577487061E+02  0.32682517712E+02  0.00000000000E+00 0. -1.
</event>
<event>
 7    1  0.1788006E-013  0.7246157E+02  0.7816164E-02  0.1226708E+00
        -11   -1    0    0    0    0  0.00000000000E+00  0.00000000000E+00  0.45593999997E+02  0.45594000000E+02  0.51100000000E-03 0.  1.
         11   -1    0    0    0    0 -0.00000000000E+00 -0.00000000000E+00 -0.45593999997E+02  0.45594000000E+02  0.51100000000E-03 0. -1.
    9900012    2    1    2    0    0 -0.12428236037E+02 -0.10913111129E+02 -0.87819212386E+01  0.72461569850E+02  0.69999999422E+02 0.  0.
        -12    1    1    2    0    0  0.12428236037E+02  0.10913111129E+02  0.87819212386E+01  0.18726430150E+02  0.00000000000E+00 0.  1.
         11    1    3    3    0    0 -0.15000075652E+02 -0.46042118478E+01 -0.17461404663E+02  0.23475555145E+02  0.51100000000E-03 0. -1.
        -11    1    3    3    0    0 -0.21578722349E+02 -0.62196222828E+01 -0.20672677518E+01  0.22552129740E+02  0.51100000000E-03 0.  1.
        -12    1    3    3    0    0  0.24150561964E+02 -0.89276998329E-01  0.10746751176E+02  0.26433884966E+02  0.00000000000E+00 0.  1.
</event>
<event>
 7    1  0.1788006E-013  0.7246135E+02  0.7816164E-02  0.1226709E+00
        -11   -1    0    0    0    0  0.00000000000E+00  0.00000000000E+00  0.45593999997E+02  0.45594000000E+02  0.51100000000E-03 0.  1.
         11   -1    0    0    0    0 -0.00000000000E+00 -0.00000000000E+00 -0.45593999997E+02  0.45594000000E+02  0.51100000000E-03 0. -1.
    9900012    2    1    2    0    0 -0.63131364262E+01 -0.14972496547E+02 -0.93089319310E+01  0.72461346319E+02  0.69999708230E+02 0.  0.
        -12    1    1    2    0    0  0.63131364262E+01  0.14972496547E+02  0.93089319310E+01  0.18726653681E+02  0.00000000000E+00 0.  1.
         11    1    3    3    0    0 -0.17804048546E+02 -0.12391801531E+00 -0.63955398991E+01  0.18918309416E+02  0.51100000000E-03 0. -1.
        -11    1    3    3    0    0  0.49696227654E+01 -0.11099570787E+02  0.23293987493E+02  0.26277508933E+02  0.51100000000E-03 0.  1.
         12    1    3    3    0    0  0.65212893547E+01 -0.37490077442E+01 -0.26207379525E+02  0.27265527970E+02  0.00000000000E+00 0. -1.
</event>
<event>
 7    1  0.1788006E-013  0.7246156E+02  0.7816164E-02  0.1226708E+00
        -11   -1    0    0    0    0  0.00000000000E+00  0.00000000000E+00  0.45593999997E+02  0.45594000000E+02  0.51100000000E-03 0.  1.
         11   -1    0    0    0    0 -0.00000000000E+00 -0.00000000000E+00 -0.45593999997E+02  0.45594000000E+02  0.51100000000E-03 0. -1.
    9900012    2    1    2    0    0  0.90172175710E+01 -0.10620051875E+02  0.12513350741E+02  0.72461557163E+02  0.69999982894E+02 0.  0.
        -12    1    1    2    0    0 -0.90172175710E+01  0.10620051875E+02 -0.12513350741E+02  0.18726442837E+02  0.00000000000E+00 0.  1.
         11    1    3    3    0    0  0.14970872173E+01  0.94885527714E+01  0.12722418181E+02  0.15941575470E+02  0.51100000000E-03 0. -1.
        -11    1    3    3    0    0  0.39760408410E+01 -0.24938159685E+02  0.22015471810E+02  0.33502264230E+02  0.51100000000E-03 0.  1.
         12    1    3    3    0    0  0.35440895127E+01  0.48295550385E+01 -0.22224539250E+02  0.23017717463E+02  0.00000000000E+00 0. -1.
</event>
<event>
 7    1  0.1788006E-013  0.7246145E+02  0.7816164E-02  0.1226708E+00
        -11   -1    0    0    0    0  0.00000000000E+00  0.00000000000E+00  0.45593999997E+02  0.45594000000E+02  0.51100000000E-03 0.  1.
         11   -1    0    0    0    0 -0.00000000000E+00 -0.00000000000E+00 -0.45593999997E+02  0.45594000000E+02  0.51100000000E-03 0. -1.
    9900012    2    1    2    0    0  0.14335367247E+02  0.63437373583E+01 -0.10243921553E+02  0.72461449689E+02  0.69999842888E+02 0.  0.
        -12    1    1    2    0    0 -0.14335367247E+02 -0.63437373583E+01  0.10243921553E+02  0.18726550311E+02  0.00000000000E+00 0.  1.
         11    1    3    3    0    0 -0.12065099121E+02  0.13736245230E+02 -0.53389553300E+01  0.19046141187E+02  0.51100000000E-03 0. -1.
        -11    1    3    3    0    0  0.51369201727E+01 -0.20340991551E+02  0.11182708845E+02  0.23773869342E+02  0.51100000000E-03 0.  1.
        -12    1    3    3    0    0  0.21263546195E+02  0.12948483679E+02 -0.16087675068E+02  0.29641439160E+02  0.00000000000E+00 0.  1.
</event>
<event>
 7    1  0.1788006E-013  0.7246158E+02  0.7816164E-02  0.1226708E+00
        -11   -1    0    0    0    0  0.00000000000E+00  0.00000000000E+00  0.45593999997E+02  0.45594000000E+02  0.51100000000E-03 0. -1.
         11   -1    0    0    0    0 -0.00000000000E+00 -0.00000000000E+00 -0.45593999997E+02  0.45594000000E+02  0.51100000000E-03 0.  1.
    9900012    2    1    2    0    0  0.38606792115E+01  0.16257156447E+02  0.84545061373E+01  0.72461584065E+02  0.70000017939E+02 0.  0.
        -12    1    1    2    0    0 -0.38606792115E+01 -0.16257156447E+02 -0.84545061373E+01  0.18726415935E+02  0.00000000000E+00 0.  1.
         11    1    3    3    0    0 -0.18819975612E+02 -0.72086359941E+01  0.10493800650E+02  0.22721702561E+02  0.51100000000E-03 0. -1.
        -11    1    3    3    0    0 -0.18915044006E+01 -0.55308874721E+01  0.84834041773E+01  0.10302264403E+02  0.51100000000E-03 0.  1.
        -12    1    3    3    0    0  0.24572159224E+02  0.28996679914E+02 -0.10522698690E+02  0.39437617102E+02  0.00000000000E+00 0.  1.
</event>
<event>
 7    1  0.1788006E-013  0.7246185E+02  0.7816164E-02  0.1226707E+00
        -11   -1    0    0    0    0  0.00000000000E+00  0.00000000000E+00  0.45593999997E+02  0.45594000000E+02  0.51100000000E-03 0.  1.
         11   -1    0    0    0    0 -0.00000000000E+00 -0.00000000000E+00 -0.45593999997E+02  0.45594000000E+02  0.51100000000E-03 0. -1.
    9900012    2    1    2    0    0 -0.76385805685E+01 -0.12154896946E+01 -0.17054126346E+02  0.72461853741E+02  0.70000369241E+02 0.  0.
        -12    1    1    2    0    0  0.76385805685E+01  0.12154896946E+01  0.17054126346E+02  0.18726146259E+02  0.00000000000E+00 0.  1.
         11    1    3    3    0    0 -0.64115036911E+01 -0.23886095842E+02 -0.42495326584E+01  0.25094052726E+02  0.51100000000E-03 0. -1.
        -11    1    3    3    0    0 -0.18575218689E+02  0.78002792369E+01  0.18367932349E+01  0.20230099238E+02  0.51100000000E-03 0.  1.
        -12    1    3    3    0    0  0.17348141812E+02  0.14870326910E+02 -0.14641386923E+02  0.27137701777E+02  0.00000000000E+00 0.  1.
</event>
<event>
 7    1  0.1788006E-013  0.7246160E+02  0.7816164E-02  0.1226708E+00
        -11   -1    0    0    0    0  0.00000000000E+00  0.00000000000E+00  0.45593999997E+02  0.45594000000E+02  0.51100000000E-03 0.  1.
         11   -1    0    0    0    0 -0.00000000000E+00 -0.00000000000E+00 -0.45593999997E+02  0.45594000000E+02  0.51100000000E-03 0. -1.
    9900012    2    1    2    0    0 -0.97340160368E+01  0.56425453285E+01 -0.14969594638E+02  0.72461597526E+02  0.70000035475E+02 0.  0.
        -12    1    1    2    0    0  0.97340160368E+01 -0.56425453285E+01  0.14969594638E+02  0.18726402474E+02  0.00000000000E+00 0.  1.
         11    1    3    3    0    0  0.13359122420E+02  0.24695027513E+02 -0.99790324532E+01  0.29797510377E+02  0.51100000000E-03 0. -1.
        -11    1    3    3    0    0  0.30071125404E+01  0.43845272567E+01 -0.54068058623E+01  0.75828988513E+01  0.51100000000E-03 0.  1.
        -12    1    3    3    0    0 -0.26100250997E+02 -0.23437009441E+02  0.41624367790E+00  0.35081188299E+02  0.00000000000E+00 0.  1.
</event>
<event>
 7    1  0.1788006E-013  0.7246159E+02  0.7816164E-02  0.1226708E+00
        -11   -1    0    0    0    0  0.00000000000E+00  0.00000000000E+00  0.45593999997E+02  0.45594000000E+02  0.51100000000E-03 0. -1.
         11   -1    0    0    0    0 -0.00000000000E+00 -0.00000000000E+00 -0.45593999997E+02  0.45594000000E+02  0.51100000000E-03 0.  1.
    9900012    2    1    2    0    0 -0.12561621100E+02  0.54119691386E+01  0.12790409488E+02  0.72461593257E+02  0.70000029914E+02 0.  0.
        -12    1    1    2    0    0  0.12561621100E+02 -0.54119691386E+01 -0.12790409488E+02  0.18726406743E+02  0.00000000000E+00 0.  1.
         11    1    3    3    0    0 -0.18390696145E+01 -0.19722268316E+01  0.17806398019E+02  0.18009432706E+02  0.51100000000E-03 0. -1.
        -11    1    3    3    0    0  0.21135840457E+02  0.72779941950E+01 -0.16006508294E+01  0.22411047157E+02  0.51100000000E-03 0.  1.
         12    1    3    3    0    0 -0.31858391942E+02  0.10620177520E+00 -0.34153377009E+01  0.32041113395E+02  0.00000000000E+00 0. -1.
</event>
<event>
 7    1  0.1788006E-013  0.7246155E+02  0.7816164E-02  0.1226708E+00
        -11   -1    0    0    0    0  0.00000000000E+00  0.00000000000E+00  0.45593999997E+02  0.45594000000E+02  0.51100000000E-03 0.  1.
         11   -1    0    0    0    0 -0.00000000000E+00 -0.00000000000E+00 -0.45593999997E+02  0.45594000000E+02  0.51100000000E-03 0. -1.
    9900012    2    1    2    0    0  0.32149675854E+01  0.17044732213E+02  0.70584120945E+01  0.72461545608E+02  0.69999967841E+02 0.  0.
        -12    1    1    2    0    0 -0.32149675854E+01 -0.17044732213E+02 -0.70584120945E+01  0.18726454392E+02  0.00000000000E+00 0.  1.
         11    1    3    3    0    0  0.17098165685E+02  0.37201173190E+02 -0.42440425153E+01  0.41161711015E+02  0.51100000000E-03 0. -1.
        -11    1    3    3    0    0 -0.90939237272E+01 -0.29008528793E+01  0.92202504846E+01  0.13271300443E+02  0.51100000000E-03 0.  1.
        -12    1    3    3    0    0 -0.47892743722E+01 -0.17255588097E+02  0.20822041252E+01  0.18028534151E+02  0.00000000000E+00 0.  1.
</event>
<event>
 7    1  0.1788006E-013  0.7246161E+02  0.7816164E-02  0.1226708E+00
        -11   -1    0    0    0    0  0.00000000000E+00  0.00000000000E+00  0.45593999997E+02  0.45594000000E+02  0.51100000000E-03 0.  1.
         11   -1    0    0    0    0 -0.00000000000E+00 -0.00000000000E+00 -0.45593999997E+02  0.45594000000E+02  0.51100000000E-03 0. -1.
    9900012    2    1    2    0    0 -0.45590154468E+01  0.88793278683E+01 -0.15844572358E+02  0.72461613311E+02  0.70000056037E+02 0.  0.
        -12    1    1    2    0    0  0.45590154468E+01 -0.88793278683E+01  0.15844572358E+02  0.18726386689E+02  0.00000000000E+00 0.  1.
         11    1    3    3    0    0  0.24916772082E+01 -0.83116067110E+00 -0.78402181764E+00  0.27411628632E+01  0.51100000000E-03 0. -1.
        -11    1    3    3    0    0 -0.81914772149E+01 -0.27487942276E+02  0.20578821923E+01  0.28756254083E+02  0.51100000000E-03 0.  1.
         12    1    3    3    0    0  0.11407845598E+01  0.37198430815E+02 -0.17118432733E+02  0.40964196364E+02  0.00000000000E+00 0. -1.
</event>
<event>
 7    1  0.1788006E-013  0.7246151E+02  0.7816164E-02  0.1226708E+00
        -11   -1    0    0    0    0  0.00000000000E+00  0.00000000000E+00  0.45593999997E+02  0.45594000000E+02  0.51100000000E-03 0.  1.
         11   -1    0    0    0    0 -0.00000000000E+00 -0.00000000000E+00 -0.45593999997E+02  0.45594000000E+02  0.51100000000E-03 0. -1.
    9900012    2    1    2    0    0  0.12100834871E+02 -0.10754216710E+01 -0.14251133919E+02  0.72461506619E+02  0.69999917051E+02 0.  0.
        -12    1    1    2    0    0 -0.12100834871E+02  0.10754216710E+01  0.14251133919E+02  0.18726493381E+02  0.00000000000E+00 0.  1.
         11    1    3    3    0    0 -0.89714089218E+01  0.96757694410E+01 -0.23146738019E+02  0.26643539058E+02  0.51100000000E-03 0. -1.
        -11    1    3    3    0    0 -0.49936383558E+01 -0.12866722968E+02  0.13451422444E+02  0.19272512810E+02  0.51100000000E-03 0.  1.
        -12    1    3    3    0    0  0.26065882149E+02  0.21155318564E+01 -0.45558183437E+01  0.26545454752E+02  0.00000000000E+00 0.  1.
</event>
<event>
 7    1  0.1788006E-013  0.7246155E+02  0.7816164E-02  0.1226708E+00
        -11   -1    0    0    0    0  0.00000000000E+00  0.00000000000E+00  0.45593999997E+02  0.45594000000E+02  0.51100000000E-03 0.  1.
         11   -1    0    0    0    0 -0.00000000000E+00 -0.00000000000E+00 -0.45593999997E+02  0.45594000000E+02  0.51100000000E-03 0. -1.
    9900012    2    1    2    0    0 -0.76260419823E+01  0.16976913575E+02 -0.20754972764E+01  0.72461553466E+02  0.69999978078E+02 0.  0.
        -12    1    1    2    0    0  0.76260419823E+01 -0.16976913575E+02  0.20754972764E+01  0.18726446534E+02  0.00000000000E+00 0.  1.
         11    1    3    3    0    0 -0.92633274400E+01  0.16492074870E+02 -0.18266145499E+02  0.26295433832E+02  0.51100000000E-03 0. -1.
        -11    1    3    3    0    0  0.21159659341E+01  0.53631353108E+01 -0.14229727132E+02  0.15353360111E+02  0.51100000000E-03 0.  1.
        -12    1    3    3    0    0 -0.47868047635E+00 -0.48782966058E+01  0.30420375354E+02  0.30812759523E+02  0.00000000000E+00 0.  1.
</event>
<event>
 7    1  0.1788006E-013  0.7246157E+02  0.7816164E-02  0.1226708E+00
        -11   -1    0    0    0    0  0.00000000000E+00  0.00000000000E+00  0.45593999997E+02  0.45594000000E+02  0.51100000000E-03 0.  1.
         11   -1    0    0    0    0 -0.00000000000E+00 -0.00000000000E+00 -0.45593999997E+02  0.45594000000E+02  0.51100000000E-03 0. -1.
    9900012    2    1    2    0    0  0.79572077784E+01 -0.15237519718E+02 -0.74283151135E+01  0.72461574068E+02  0.70000004916E+02 0.  0.
        -12    1    1    2    0    0 -0.79572077784E+01  0.15237519718E+02  0.74283151135E+01  0.18726425932E+02  0.00000000000E+00 0.  1.
         11    1    3    3    0    0  0.98428376341E+01  0.10749689147E+02 -0.25142709106E+02  0.29061883816E+02  0.51100000000E-03 0. -1.
        -11    1    3    3    0    0  0.69516664628E+01 -0.14895691041E+02 -0.45014808347E+01  0.17043198297E+02  0.51100000000E-03 0.  1.
        -12    1    3    3    0    0 -0.88372963185E+01 -0.11091517824E+02  0.22215874827E+02  0.26356491956E+02  0.00000000000E+00 0.  1.
</event>
<event>
 7    1  0.1788006E-013  0.7246155E+02  0.7816164E-02  0.1226708E+00
        -11   -1    0    0    0    0  0.00000000000E+00  0.00000000000E+00  0.45593999997E+02  0.45594000000E+02  0.51100000000E-03 0.  1.
         11   -1    0    0    0    0 -0.00000000000E+00 -0.00000000000E+00 -0.45593999997E+02  0.45594000000E+02  0.51100000000E-03 0. -1.
    9900012    2    1    2    0    0 -0.65162528929E+01  0.16850991020E+02 -0.49256817252E+01  0.72461553712E+02  0.69999978398E+02 0.  0.
        -12    1    1    2    0    0  0.65162528929E+01 -0.16850991020E+02  0.49256817252E+01  0.18726446288E+02  0.00000000000E+00 0.  1.
         11    1    3    3    0    0 -0.33514521093E+01 -0.85024288345E+01 -0.15784057261E+02  0.18238969028E+02  0.51100000000E-03 0. -1.
        -11    1    3    3    0    0 -0.10984562147E+02 -0.89820076369E+01  0.12584132980E+02  0.18965691917E+02  0.51100000000E-03 0.  1.
        -12    1    3    3    0    0  0.78197613639E+01  0.34335427492E+02 -0.17257574446E+01  0.35256892767E+02  0.00000000000E+00 0.  1.
</event>
<event>
 7    1  0.1788006E-013  0.7246161E+02  0.7816164E-02  0.1226708E+00
        -11   -1    0    0    0    0  0.00000000000E+00  0.00000000000E+00  0.45593999997E+02  0.45594000000E+02  0.51100000000E-03 0. -1.
         11   -1    0    0    0    0 -0.00000000000E+00 -0.00000000000E+00 -0.45593999997E+02  0.45594000000E+02  0.51100000000E-03 0.  1.
    9900012    2    1    2    0    0 -0.12867030202E+02  0.80306172085E+01  0.10983006713E+02  0.72461609119E+02  0.70000050576E+02 0.  0.
        -12    1    1    2    0    0  0.12867030202E+02 -0.80306172085E+01 -0.10983006713E+02  0.18726390881E+02  0.00000000000E+00 0.  1.
         11    1    3    3    0    0  0.19169292044E+01  0.75077942233E+00 -0.14751273740E+01  0.25326445361E+01  0.51100000000E-03 0. -1.
        -11    1    3    3    0    0 -0.17731411271E+02 -0.18877390695E+02 -0.16567755256E+02  0.30744907539E+02  0.51100000000E-03 0.  1.
         12    1    3    3    0    0  0.29474518646E+01  0.26157228481E+02  0.29025889342E+02  0.39184057044E+02  0.00000000000E+00 0. -1.
</event>
<event>
 7    1  0.1788006E-013  0.7246158E+02  0.7816164E-02  0.1226708E+00
        -11   -1    0    0    0    0  0.00000000000E+00  0.00000000000E+00  0.45593999997E+02  0.45594000000E+02  0.51100000000E-03 0.  1.
         11   -1    0    0    0    0 -0.00000000000E+00 -0.00000000000E+00 -0.45593999997E+02  0.45594000000E+02  0.51100000000E-03 0. -1.
    9900012    2    1    2    0    0 -0.33948629921E+01  0.52932250143E+01 -0.17639028748E+02  0.72461583873E+02  0.70000017689E+02 0.  0.
        -12    1    1    2    0    0  0.33948629921E+01 -0.52932250143E+01  0.17639028748E+02  0.18726416127E+02  0.00000000000E+00 0.  1.
         11    1    3    3    0    0  0.83470169659E+01 -0.59955524591E+01 -0.49001143522E+01  0.11385537424E+02  0.51100000000E-03 0. -1.
        -11    1    3    3    0    0  0.14545531245E+02 -0.40431966024E+01  0.13982567471E+02  0.20577466105E+02  0.51100000000E-03 0.  1.
        -12    1    3    3    0    0 -0.26287411203E+02  0.15331974076E+02 -0.26721481866E+02  0.40498580344E+02  0.00000000000E+00 0.  1.
</event>
<event>
 7    1  0.1788006E-013  0.7246158E+02  0.7816164E-02  0.1226708E+00
        -11   -1    0    0    0    0  0.00000000000E+00  0.00000000000E+00  0.45593999997E+02  0.45594000000E+02  0.51100000000E-03 0. -1.
         11   -1    0    0    0    0 -0.00000000000E+00 -0.00000000000E+00 -0.45593999997E+02  0.45594000000E+02  0.51100000000E-03 0.  1.
    9900012    2    1    2    0    0  0.17046279792E+02  0.64238587497E+01 -0.43401916969E+01  0.72461578026E+02  0.70000010072E+02 0.  0.
        -12    1    1    2    0    0 -0.17046279792E+02 -0.64238587497E+01  0.43401916969E+01  0.18726421974E+02  0.00000000000E+00 0.  1.
         11    1    3    3    0    0 -0.11036486555E+02 -0.37090351952E+01 -0.11895803075E+01  0.11703678017E+02  0.51100000000E-03 0. -1.
        -11    1    3    3    0    0 -0.36548287269E+01  0.19058905267E+01 -0.22374564410E+02  0.22751073041E+02  0.51100000000E-03 0.  1.
         12    1    3    3    0    0  0.31737595074E+02  0.82270034182E+01  0.19223953021E+02  0.38006826967E+02  0.00000000000E+00 0. -1.
</event>
<event>
 7    1  0.1788006E-013  0.7246158E+02  0.7816164E-02  0.1226708E+00
        -11   -1    0    0    0    0  0.00000000000E+00  0.00000000000E+00  0.45593999997E+02  0.45594000000E+02  0.51100000000E-03 0. -1.
         11   -1    0    0    0    0 -0.00000000000E+00 -0.00000000000E+00 -0.45593999997E+02  0.45594000000E+02  0.51100000000E-03 0.  1.
    9900012    2    1    2    0    0  0.73594713082E+01  0.12299330794E+02  0.12051705333E+02  0.72461575960E+02  0.70000007380E+02 0.  0.
        -12    1    1    2    0    0 -0.73594713082E+01 -0.12299330794E+02 -0.12051705333E+02  0.18726424040E+02  0.00000000000E+00 0.  1.
         11    1    3    3    0    0  0.42403789783E+01  0.33319389279E+02  0.95223456537E+01  0.34911854474E+02  0.51100000000E-03 0. -1.
        -11    1    3    3    0    0  0.35774148762E+01  0.64706587795E+01 -0.51408822800E+01  0.90053313717E+01  0.51100000000E-03 0.  1.
        -12    1    3    3    0    0 -0.45832254620E+00 -0.27490717265E+02  0.76702419590E+01  0.28544390114E+02  0.00000000000E+00 0.  1.
</event>
<event>
 7    1  0.1788006E-013  0.7246158E+02  0.7816164E-02  0.1226708E+00
        -11   -1    0    0    0    0  0.00000000000E+00  0.00000000000E+00  0.45593999997E+02  0.45594000000E+02  0.51100000000E-03 0.  1.
         11   -1    0    0    0    0 -0.00000000000E+00 -0.00000000000E+00 -0.45593999997E+02  0.45594000000E+02  0.51100000000E-03 0. -1.
    9900012    2    1    2    0    0 -0.10324169402E+02  0.16196612963E+01 -0.15539207989E+02  0.72461581189E+02  0.70000014192E+02 0.  0.
        -12    1    1    2    0    0  0.10324169402E+02 -0.16196612963E+01  0.15539207989E+02  0.18726418811E+02  0.00000000000E+00 0.  1.
         11    1    3    3    0    0 -0.66634554676E+01  0.13384466246E+02  0.48284232060E+00  0.14959235021E+02  0.51100000000E-03 0. -1.
        -11    1    3    3    0    0 -0.55115889193E+01  0.16310827641E+02 -0.22790911231E+02  0.28563024100E+02  0.51100000000E-03 0.  1.
        -12    1    3    3    0    0  0.18508749849E+01 -0.28075632591E+02  0.67688609212E+01  0.28939322068E+02  0.00000000000E+00 0.  1.
</event>
<event>
 7    1  0.1788006E-013  0.7246157E+02  0.7816164E-02  0.1226708E+00
        -11   -1    0    0    0    0  0.00000000000E+00  0.00000000000E+00  0.45593999997E+02  0.45594000000E+02  0.51100000000E-03 0. -1.
         11   -1    0    0    0    0 -0.00000000000E+00 -0.00000000000E+00 -0.45593999997E+02  0.45594000000E+02  0.51100000000E-03 0.  1.
    9900012    2    1    2    0    0 -0.14893224292E+01 -0.69615649832E+01  0.17320447317E+02  0.72461565114E+02  0.69999993251E+02 0.  0.
        -12    1    1    2    0    0  0.14893224292E+01  0.69615649832E+01 -0.17320447317E+02  0.18726434886E+02  0.00000000000E+00 0.  1.
         11    1    3    3    0    0 -0.10748445220E+02  0.79692258881E+01 -0.84923380284E+01  0.15847947544E+02  0.51100000000E-03 0.  1.
        -11    1    3    3    0    0  0.11039845591E+02 -0.25492515311E+02  0.33433140624E+02  0.43468625694E+02  0.51100000000E-03 0. -1.
         12    1    3    3    0    0 -0.17807228001E+01  0.10561724439E+02 -0.76203552787E+01  0.13144991875E+02  0.00000000000E+00 0. -1.
</event>
<event>
 7    1  0.1788006E-013  0.7246142E+02  0.7816164E-02  0.1226708E+00
        -11   -1    0    0    0    0  0.00000000000E+00  0.00000000000E+00  0.45593999997E+02  0.45594000000E+02  0.51100000000E-03 0.  1.
         11   -1    0    0    0    0 -0.00000000000E+00 -0.00000000000E+00 -0.45593999997E+02  0.45594000000E+02  0.51100000000E-03 0. -1.
    9900012    2    1    2    0    0  0.13148675231E+02 -0.18163469955E+01 -0.13209763502E+02  0.72461424539E+02  0.69999810126E+02 0.  0.
        -12    1    1    2    0    0 -0.13148675231E+02  0.18163469955E+01  0.13209763502E+02  0.18726575461E+02  0.00000000000E+00 0.  1.
         11    1    3    3    0    0  0.15281117804E+02  0.11120892473E+01  0.16921792604E+01  0.15414693469E+02  0.51100000000E-03 0. -1.
        -11    1    3    3    0    0  0.17738429362E+02  0.14920484098E+02  0.50308179465E+01  0.23718807968E+02  0.51100000000E-03 0.  1.
         12    1    3    3    0    0 -0.19870871935E+02 -0.17848920341E+02 -0.19932760709E+02  0.33327923102E+02  0.00000000000E+00 0. -1.
</event>
<event>
 7    1  0.1788006E-013  0.7246157E+02  0.7816164E-02  0.1226708E+00
        -11   -1    0    0    0    0  0.00000000000E+00  0.00000000000E+00  0.45593999997E+02  0.45594000000E+02  0.51100000000E-03 0. -1.
         11   -1    0    0    0    0 -0.00000000000E+00 -0.00000000000E+00 -0.45593999997E+02  0.45594000000E+02  0.51100000000E-03 0.  1.
    9900012    2    1    2    0    0  0.47287315138E+01 -0.18067025062E+02 -0.13787051434E+01  0.72461571505E+02  0.70000001577E+02 0.  0.
        -12    1    1    2    0    0 -0.47287315138E+01  0.18067025062E+02  0.13787051434E+01  0.18726428495E+02  0.00000000000E+00 0.  1.
         11    1    3    3    0    0  0.10925266990E+02 -0.10177509900E+02 -0.10922041098E+01  0.14971174859E+02  0.51100000000E-03 0. -1.
        -11    1    3    3    0    0  0.21314699931E+02  0.14446413893E+01 -0.13817140130E+02  0.25442420945E+02  0.51100000000E-03 0.  1.
         12    1    3    3    0    0 -0.27511235407E+02 -0.93341565506E+01  0.13530639097E+02  0.32047975701E+02  0.00000000000E+00 0. -1.
</event>
<event>
 7    1  0.1788006E-013  0.7246155E+02  0.7816164E-02  0.1226708E+00
        -11   -1    0    0    0    0  0.00000000000E+00  0.00000000000E+00  0.45593999997E+02  0.45594000000E+02  0.51100000000E-03 0. -1.
         11   -1    0    0    0    0 -0.00000000000E+00 -0.00000000000E+00 -0.45593999997E+02  0.45594000000E+02  0.51100000000E-03 0.  1.
    9900012    2    1    2    0    0  0.16049822733E+01 -0.95463733986E+01  0.16030306019E+02  0.72461550144E+02  0.69999973750E+02 0.  0.
        -12    1    1    2    0    0 -0.16049822733E+01  0.95463733986E+01 -0.16030306019E+02  0.18726449856E+02  0.00000000000E+00 0.  1.
         11    1    3    3    0    0  0.34685581815E+01  0.11673302158E+02  0.14420755940E+02  0.18874720694E+02  0.51100000000E-03 0. -1.
        -11    1    3    3    0    0  0.10532449633E+02  0.13186784098E+02  0.21381593282E+01  0.17011628249E+02  0.51100000000E-03 0.  1.
         12    1    3    3    0    0 -0.12396025541E+02 -0.34406459654E+02 -0.52860924935E+00  0.36575201201E+02  0.00000000000E+00 0. -1.
</event>
<event>
 7    1  0.1788006E-013  0.7246156E+02  0.7816164E-02  0.1226708E+00
        -11   -1    0    0    0    0  0.00000000000E+00  0.00000000000E+00  0.45593999997E+02  0.45594000000E+02  0.51100000000E-03 0. -1.
         11   -1    0    0    0    0 -0.00000000000E+00 -0.00000000000E+00 -0.45593999997E+02  0.45594000000E+02  0.51100000000E-03 0.  1.
    9900012    2    1    2    0    0 -0.75515943943E+01 -0.13961014476E+02  0.99369514529E+01  0.72461561277E+02  0.69999988253E+02 0.  0.
        -12    1    1    2    0    0  0.75515943943E+01  0.13961014476E+02 -0.99369514529E+01  0.18726438723E+02  0.00000000000E+00 0.  1.
         11    1    3    3    0    0 -0.27030384953E+02  0.71206123718E+01  0.90866517260E+01  0.29392381174E+02  0.51100000000E-03 0. -1.
        -11    1    3    3    0    0 -0.62682442088E+01  0.65248766800E+00 -0.59824280456E+01  0.86894229497E+01  0.51100000000E-03 0.  1.
         12    1    3    3    0    0  0.25747034767E+02 -0.21734114515E+02  0.68327277725E+01  0.34379757153E+02  0.00000000000E+00 0. -1.
</event>
<event>
 7    1  0.1788006E-013  0.7246152E+02  0.7816164E-02  0.1226708E+00
        -11   -1    0    0    0    0  0.00000000000E+00  0.00000000000E+00  0.45593999997E+02  0.45594000000E+02  0.51100000000E-03 0.  1.
         11   -1    0    0    0    0 -0.00000000000E+00 -0.00000000000E+00 -0.45593999997E+02  0.45594000000E+02  0.51100000000E-03 0. -1.
    9900012    2    1    2    0    0 -0.21067486098E+01  0.46002694002E+01 -0.18029980179E+02  0.72461519992E+02  0.69999934471E+02 0.  0.
        -12    1    1    2    0    0  0.21067486098E+01 -0.46002694002E+01  0.18029980179E+02  0.18726480008E+02  0.00000000000E+00 0.  1.
         11    1    3    3    0    0 -0.49403018724E+01 -0.15085184681E+02 -0.30524122633E+02  0.34404817137E+02  0.51100000000E-03 0. -1.
        -11    1    3    3    0    0 -0.82912572066E+01 -0.14834014021E+01  0.11325303935E+02  0.14114104126E+02  0.51100000000E-03 0.  1.
        -12    1    3    3    0    0  0.11124810469E+02  0.21168855483E+02  0.11688385190E+01  0.23942598729E+02  0.00000000000E+00 0.  1.
</event>
<event>
 7    1  0.1788006E-013  0.7246153E+02  0.7816164E-02  0.1226708E+00
        -11   -1    0    0    0    0  0.00000000000E+00  0.00000000000E+00  0.45593999997E+02  0.45594000000E+02  0.51100000000E-03 0. -1.
         11   -1    0    0    0    0 -0.00000000000E+00 -0.00000000000E+00 -0.45593999997E+02  0.45594000000E+02  0.51100000000E-03 0.  1.
    9900012    2    1    2    0    0 -0.10919962987E+02  0.10218861298E+02  0.11269869785E+02  0.72461529888E+02  0.69999947364E+02 0.  0.
        -12    1    1    2    0    0  0.10919962987E+02 -0.10218861298E+02 -0.11269869785E+02  0.18726470112E+02  0.00000000000E+00 0.  1.
         11    1    3    3    0    0 -0.58674185517E+00  0.47405045899E+01 -0.93670810517E+01  0.10514697212E+02  0.51100000000E-03 0. -1.
        -11    1    3    3    0    0 -0.27051315816E+02 -0.10153100776E+02 -0.29946002166E+01  0.29048696587E+02  0.51100000000E-03 0.  1.
        -12    1    3    3    0    0  0.16718094684E+02  0.15631457484E+02  0.23631551053E+02  0.32898136089E+02  0.00000000000E+00 0.  1.
</event>
<event>
 7    1  0.1788006E-013  0.7246160E+02  0.7816164E-02  0.1226708E+00
        -11   -1    0    0    0    0  0.00000000000E+00  0.00000000000E+00  0.45593999997E+02  0.45594000000E+02  0.51100000000E-03 0. -1.
         11   -1    0    0    0    0 -0.00000000000E+00 -0.00000000000E+00 -0.45593999997E+02  0.45594000000E+02  0.51100000000E-03 0.  1.
    9900012    2    1    2    0    0 -0.12640556895E+02 -0.12325783464E+02  0.62425590489E+01  0.72461597246E+02  0.70000035110E+02 0.  0.
        -12    1    1    2    0    0  0.12640556895E+02  0.12325783464E+02 -0.62425590489E+01  0.18726402754E+02  0.00000000000E+00 0.  1.
         11    1    3    3    0    0  0.11785800647E+01  0.41600481239E+01 -0.12118730535E+02  0.12866960846E+02  0.51100000000E-03 0. -1.
        -11    1    3    3    0    0  0.15927651827E+01  0.10855333696E+02 -0.11767084263E+02  0.16088487899E+02  0.51100000000E-03 0.  1.
         12    1    3    3    0    0 -0.15411902142E+02 -0.27341165284E+02  0.30128373847E+02  0.43506148501E+02  0.00000000000E+00 0. -1.
</event>
<event>
 7    1  0.1788006E-013  0.7246154E+02  0.7816164E-02  0.1226708E+00
        -11   -1    0    0    0    0  0.00000000000E+00  0.00000000000E+00  0.45593999997E+02  0.45594000000E+02  0.51100000000E-03 0. -1.
         11   -1    0    0    0    0 -0.00000000000E+00 -0.00000000000E+00 -0.45593999997E+02  0.45594000000E+02  0.51100000000E-03 0.  1.
    9900012    2    1    2    0    0 -0.88140420954E+01 -0.94492273432E+01  0.13553782157E+02  0.72461541547E+02  0.69999962551E+02 0.  0.
        -12    1    1    2    0    0  0.88140420954E+01  0.94492273432E+01 -0.13553782157E+02  0.18726458453E+02  0.00000000000E+00 0.  1.
         11    1    3    3    0    0 -0.10911802515E+02 -0.19083311707E+00  0.84640512234E+01  0.13811010635E+02  0.51100000000E-03 0. -1.
        -11    1    3    3    0    0 -0.23471167954E+02 -0.19501614604E+02  0.59604704150E+01  0.31092376962E+02  0.51100000000E-03 0.  1.
         12    1    3    3    0    0  0.25568928373E+02  0.10243220378E+02 -0.87073948129E+00  0.27558153950E+02  0.00000000000E+00 0. -1.
</event>
<event>
 7    1  0.1788006E-013  0.7246168E+02  0.7816164E-02  0.1226708E+00
        -11   -1    0    0    0    0  0.00000000000E+00  0.00000000000E+00  0.45593999997E+02  0.45594000000E+02  0.51100000000E-03 0.  1.
         11   -1    0    0    0    0 -0.00000000000E+00 -0.00000000000E+00 -0.45593999997E+02  0.45594000000E+02  0.51100000000E-03 0. -1.
    9900012    2    1    2    0    0 -0.34973796865E+01 -0.18386503883E+02 -0.61622025376E+00  0.72461683835E+02  0.70000147908E+02 0.  0.
        -12    1    1    2    0    0  0.34973796865E+01  0.18386503883E+02  0.61622025376E+00  0.18726316165E+02  0.00000000000E+00 0.  1.
         11    1    3    3    0    0  0.28401749528E+02 -0.15776410956E+02 -0.10836834858E+02  0.34248963618E+02  0.51100000000E-03 0. -1.
        -11    1    3    3    0    0  0.15342626064E+01 -0.22502766446E+01  0.29134672846E+01  0.39882325161E+01  0.51100000000E-03 0.  1.
        -12    1    3    3    0    0 -0.33433391821E+02 -0.35981628181E+00  0.73071473201E+01  0.34224487701E+02  0.00000000000E+00 0.  1.
</event>
<event>
 7    1  0.1788006E-013  0.7246153E+02  0.7816164E-02  0.1226708E+00
        -11   -1    0    0    0    0  0.00000000000E+00  0.00000000000E+00  0.45593999997E+02  0.45594000000E+02  0.51100000000E-03 0. -1.
         11   -1    0    0    0    0 -0.00000000000E+00 -0.00000000000E+00 -0.45593999997E+02  0.45594000000E+02  0.51100000000E-03 0.  1.
    9900012    2    1    2    0    0 -0.16116973011E+02 -0.89046621622E+01 -0.34104138011E+01  0.72461528107E+02  0.69999945044E+02 0.  0.
        -12    1    1    2    0    0  0.16116973011E+02  0.89046621622E+01  0.34104138011E+01  0.18726471893E+02  0.00000000000E+00 0.  1.
         11    1    3    3    0    0 -0.18617412424E+02 -0.68264382728E+01 -0.82546413942E+01  0.21478999270E+02  0.51100000000E-03 0. -1.
        -11    1    3    3    0    0 -0.10908505175E+02 -0.17745445987E+02 -0.12277559309E+02  0.24179222512E+02  0.51100000000E-03 0.  1.
         12    1    3    3    0    0  0.13408944588E+02  0.15667222098E+02  0.17121786902E+02  0.26803306325E+02  0.00000000000E+00 0. -1.
</event>
<event>
 7    1  0.1788006E-013  0.7246157E+02  0.7816164E-02  0.1226708E+00
        -11   -1    0    0    0    0  0.00000000000E+00  0.00000000000E+00  0.45593999997E+02  0.45594000000E+02  0.51100000000E-03 0.  1.
         11   -1    0    0    0    0 -0.00000000000E+00 -0.00000000000E+00 -0.45593999997E+02  0.45594000000E+02  0.51100000000E-03 0. -1.
    9900012    2    1    2    0    0 -0.82901620727E+01 -0.76336694170E+01 -0.14955912927E+02  0.72461574088E+02  0.70000004941E+02 0.  0.
        -12    1    1    2    0    0  0.82901620727E+01  0.76336694170E+01  0.14955912927E+02  0.18726425912E+02  0.00000000000E+00 0.  1.
         11    1    3    3    0    0 -0.20315544289E+02 -0.10150863372E+02  0.83177398428E+01  0.24185660282E+02  0.51100000000E-03 0. -1.
        -11    1    3    3    0    0 -0.28365053049E+01 -0.11915476794E+02  0.49959240963E+01  0.13228136959E+02  0.51100000000E-03 0.  1.
        -12    1    3    3    0    0  0.14861887521E+02  0.14432670749E+02 -0.28269576867E+02  0.35047776846E+02  0.00000000000E+00 0.  1.
</event>
<event>
 7    1  0.1788006E-013  0.7246158E+02  0.7816164E-02  0.1226708E+00
        -11   -1    0    0    0    0  0.00000000000E+00  0.00000000000E+00  0.45593999997E+02  0.45594000000E+02  0.51100000000E-03 0.  1.
         11   -1    0    0    0    0 -0.00000000000E+00 -0.00000000000E+00 -0.45593999997E+02  0.45594000000E+02  0.51100000000E-03 0. -1.
    9900012    2    1    2    0    0 -0.77010968044E+01 -0.12755088713E+01 -0.17021894051E+02  0.72461583045E+02  0.70000016610E+02 0.  0.
        -12    1    1    2    0    0  0.77010968044E+01  0.12755088713E+01  0.17021894051E+02  0.18726416955E+02  0.00000000000E+00 0.  1.
         11    1    3    3    0    0 -0.22776624664E+02 -0.30108724459E+01 -0.11142379571E+02  0.25534145898E+02  0.51100000000E-03 0. -1.
        -11    1    3    3    0    0 -0.88089333795E+00  0.16468549521E+02 -0.15990230733E+02  0.22971211887E+02  0.51100000000E-03 0.  1.
        -12    1    3    3    0    0  0.15956421198E+02 -0.14733185947E+02  0.10110716252E+02  0.23956225260E+02  0.00000000000E+00 0.  1.
</event>
<event>
 7    1  0.1788006E-013  0.7246156E+02  0.7816164E-02  0.1226708E+00
        -11   -1    0    0    0    0  0.00000000000E+00  0.00000000000E+00  0.45593999997E+02  0.45594000000E+02  0.51100000000E-03 0.  1.
         11   -1    0    0    0    0 -0.00000000000E+00 -0.00000000000E+00 -0.45593999997E+02  0.45594000000E+02  0.51100000000E-03 0. -1.
    9900012    2    1    2    0    0  0.16902202711E+00  0.17798321668E+02 -0.58198713311E+01  0.72461555465E+02  0.69999980682E+02 0.  0.
        -12    1    1    2    0    0 -0.16902202711E+00 -0.17798321668E+02  0.58198713311E+01  0.18726444535E+02  0.00000000000E+00 0.  1.
         11    1    3    3    0    0 -0.11642434920E+02 -0.91750072988E+01 -0.12997481282E+02  0.19714501509E+02  0.51100000000E-03 0. -1.
        -11    1    3    3    0    0 -0.12867163850E+02  0.20232910677E+02 -0.48736448053E+01  0.24468081125E+02  0.51100000000E-03 0.  1.
        -12    1    3    3    0    0  0.24678620797E+02  0.67404182896E+01  0.12051254757E+02  0.28278972831E+02  0.00000000000E+00 0.  1.
</event>
<event>
 7    1  0.2018831E-013  0.7246166E+02  0.7816164E-02  0.1226708E+00
        -11   -1    0    0    0    0  0.00000000000E+00  0.00000000000E+00  0.45593999997E+02  0.45594000000E+02  0.51100000000E-03 0.  1.
         11   -1    0    0    0    0 -0.00000000000E+00 -0.00000000000E+00 -0.45593999997E+02  0.45594000000E+02  0.51100000000E-03 0. -1.
    9900012    2    1    2    0    0 -0.60413644378E+01  0.45589866953E+01  0.17128733061E+02  0.72461656517E+02  0.70000112321E+02 0.  0.
        -12    1    1    2    0    0  0.60413644378E+01 -0.45589866953E+01 -0.17128733061E+02  0.18726343483E+02  0.00000000000E+00 0.  1.
         11    1    3    3    0    0  0.47658892889E+01 -0.67837368539E+01 -0.21906841039E+01  0.85750733828E+01  0.51100000000E-03 0. -1.
        -11    1    3    3    0    0  0.15287848143E+02  0.32101443637E+01 -0.13870476492E+02  0.20890510910E+02  0.51100000000E-03 0.  1.
         12    1    3    3    0    0 -0.26095101870E+02  0.81325791854E+01  0.33189893657E+02  0.42996072225E+02  0.00000000000E+00 0. -1.
</event>
<event>
 7    1  0.1788006E-013  0.7246160E+02  0.7816164E-02  0.1226708E+00
        -11   -1    0    0    0    0  0.00000000000E+00  0.00000000000E+00  0.45593999997E+02  0.45594000000E+02  0.51100000000E-03 0.  1.
         11   -1    0    0    0    0 -0.00000000000E+00 -0.00000000000E+00 -0.45593999997E+02  0.45594000000E+02  0.51100000000E-03 0. -1.
    9900012    2    1    2    0    0  0.11109796713E+01  0.15097613102E+02 -0.11022966174E+02  0.72461602042E+02  0.70000041357E+02 0.  0.
        -12    1    1    2    0    0 -0.11109796713E+01 -0.15097613102E+02  0.11022966174E+02  0.18726397958E+02  0.00000000000E+00 0.  1.
         11    1    3    3    0    0 -0.87582179625E+01 -0.18868013600E+02 -0.17202389560E+02  0.26993157021E+02  0.51100000000E-03 0. -1.
        -11    1    3    3    0    0 -0.94517532244E+01  0.15600057080E+02  0.69548566407E+00  0.18253249587E+02  0.51100000000E-03 0.  1.
        -12    1    3    3    0    0  0.19320950858E+02  0.18365569621E+02  0.54839377223E+01  0.27215195434E+02  0.00000000000E+00 0.  1.
</event>
<event>
 7    1  0.1788006E-013  0.7246160E+02  0.7816164E-02  0.1226708E+00
        -11   -1    0    0    0    0  0.00000000000E+00  0.00000000000E+00  0.45593999997E+02  0.45594000000E+02  0.51100000000E-03 0.  1.
         11   -1    0    0    0    0 -0.00000000000E+00 -0.00000000000E+00 -0.45593999997E+02  0.45594000000E+02  0.51100000000E-03 0. -1.
    9900012    2    1    2    0    0  0.78694825752E+00  0.18495807736E+02 -0.28220031698E+01  0.72461604371E+02  0.70000044391E+02 0.  0.
        -12    1    1    2    0    0 -0.78694825752E+00 -0.18495807736E+02  0.28220031698E+01  0.18726395629E+02  0.00000000000E+00 0.  1.
         11    1    3    3    0    0  0.20825759704E+01  0.40848012479E+01 -0.20332048574E+02  0.20842622757E+02  0.51100000000E-03 0. -1.
        -11    1    3    3    0    0  0.11210188978E+02 -0.13733959847E+02  0.54994925608E+01  0.18561638093E+02  0.51100000000E-03 0.  1.
         12    1    3    3    0    0 -0.12505816691E+02  0.28144966335E+02  0.12010552843E+02  0.33057343522E+02  0.00000000000E+00 0. -1.
</event>
<event>
 7    1  0.1788006E-013  0.7246156E+02  0.7816164E-02  0.1226708E+00
        -11   -1    0    0    0    0  0.00000000000E+00  0.00000000000E+00  0.45593999997E+02  0.45594000000E+02  0.51100000000E-03 0.  1.
         11   -1    0    0    0    0 -0.00000000000E+00 -0.00000000000E+00 -0.45593999997E+02  0.45594000000E+02  0.51100000000E-03 0. -1.
    9900012    2    1    2    0    0 -0.17468767865E+02 -0.26424253638E+01  0.62080102466E+01  0.72461557366E+02  0.69999983158E+02 0.  0.
        -12    1    1    2    0    0  0.17468767865E+02  0.26424253638E+01 -0.62080102466E+01  0.18726442634E+02  0.00000000000E+00 0.  1.
         11    1    3    3    0    0 -0.24536524733E+01  0.36585903370E+01  0.22310376878E+01  0.49379371340E+01  0.51100000000E-03 0. -1.
        -11    1    3    3    0    0  0.10350673253E+02  0.33683043665E+01  0.28769408630E+02  0.30759726661E+02  0.51100000000E-03 0.  1.
         12    1    3    3    0    0 -0.25365788645E+02 -0.96693200674E+01 -0.24792436071E+02  0.36763893570E+02  0.00000000000E+00 0. -1.
</event>
<event>
 7    1  0.1788006E-013  0.7246154E+02  0.7816164E-02  0.1226708E+00
        -11   -1    0    0    0    0  0.00000000000E+00  0.00000000000E+00  0.45593999997E+02  0.45594000000E+02  0.51100000000E-03 0.  1.
         11   -1    0    0    0    0 -0.00000000000E+00 -0.00000000000E+00 -0.45593999997E+02  0.45594000000E+02  0.51100000000E-03 0. -1.
    9900012    2    1    2    0    0  0.13866469365E+02  0.12438463354E+02 -0.19199087072E+01  0.72461537636E+02  0.69999957456E+02 0.  0.
        -12    1    1    2    0    0 -0.13866469365E+02 -0.12438463354E+02  0.19199087072E+01  0.18726462364E+02  0.00000000000E+00 0.  1.
         11    1    3    3    0    0 -0.57350535896E+01 -0.45676253786E+00 -0.56238080946E+01  0.80452898915E+01  0.51100000000E-03 0. -1.
        -11    1    3    3    0    0 -0.47630011853E+01 -0.19930797714E+02 -0.78352084759E+01  0.21938855256E+02  0.51100000000E-03 0.  1.
         12    1    3    3    0    0  0.24364524140E+02  0.32826023606E+02  0.11539107863E+02  0.42477392488E+02  0.00000000000E+00 0. -1.
</event>
<event>
 7    1  0.1788006E-013  0.7246156E+02  0.7816164E-02  0.1226708E+00
        -11   -1    0    0    0    0  0.00000000000E+00  0.00000000000E+00  0.45593999997E+02  0.45594000000E+02  0.51100000000E-03 0.  1.
         11   -1    0    0    0    0 -0.00000000000E+00 -0.00000000000E+00 -0.45593999997E+02  0.45594000000E+02  0.51100000000E-03 0. -1.
    9900012    2    1    2    0    0 -0.17822830534E+02 -0.19278062114E+01 -0.54138519673E+01  0.72461560986E+02  0.69999987874E+02 0.  0.
        -12    1    1    2    0    0  0.17822830534E+02  0.19278062114E+01  0.54138519673E+01  0.18726439014E+02  0.00000000000E+00 0.  1.
         11    1    3    3    0    0  0.50787535297E+01  0.93738683794E+01 -0.42404648266E+01  0.11473651904E+02  0.51100000000E-03 0. -1.
        -11    1    3    3    0    0  0.16851874311E+02  0.29174237740E+01  0.60767130253E+01  0.18150026741E+02  0.51100000000E-03 0.  1.
         12    1    3    3    0    0 -0.39753458374E+02 -0.14219098365E+02 -0.72501001660E+01  0.42837882341E+02  0.00000000000E+00 0. -1.
</event>
<event>
 7    1  0.1788006E-013  0.7246160E+02  0.7816164E-02  0.1226708E+00
        -11   -1    0    0    0    0  0.00000000000E+00  0.00000000000E+00  0.45593999997E+02  0.45594000000E+02  0.51100000000E-03 0.  1.
         11   -1    0    0    0    0 -0.00000000000E+00 -0.00000000000E+00 -0.45593999997E+02  0.45594000000E+02  0.51100000000E-03 0. -1.
    9900012    2    1    2    0    0 -0.58274325781E+00 -0.18545878875E+02 -0.25276278900E+01  0.72461598432E+02  0.70000036654E+02 0.  0.
        -12    1    1    2    0    0  0.58274325781E+00  0.18545878875E+02  0.25276278900E+01  0.18726401568E+02  0.00000000000E+00 0.  1.
         11    1    3    3    0    0 -0.70608600802E+01 -0.15459663307E+02 -0.24743332531E+02  0.30018151836E+02  0.51100000000E-03 0. -1.
        -11    1    3    3    0    0 -0.15747356682E+01 -0.18578527669E+02  0.12688669900E+02  0.22553133415E+02  0.51100000000E-03 0.  1.
        -12    1    3    3    0    0  0.80528524907E+01  0.15492312101E+02  0.95270347408E+01  0.19890313180E+02  0.00000000000E+00 0.  1.
</event>
<event>
 7    1  0.1788006E-013  0.7246165E+02  0.7816164E-02  0.1226708E+00
        -11   -1    0    0    0    0  0.00000000000E+00  0.00000000000E+00  0.45593999997E+02  0.45594000000E+02  0.51100000000E-03 0.  1.
         11   -1    0    0    0    0 -0.00000000000E+00 -0.00000000000E+00 -0.45593999997E+02  0.45594000000E+02  0.51100000000E-03 0. -1.
    9900012    2    1    2    0    0  0.32413581501E+01  0.17986518141E+02  0.40810516170E+01  0.72461649053E+02  0.70000102598E+02 0.  0.
        -12    1    1    2    0    0 -0.32413581501E+01 -0.17986518141E+02 -0.40810516170E+01  0.18726350947E+02  0.00000000000E+00 0.  1.
         11    1    3    3    0    0  0.35694630349E+02  0.12516983761E+02  0.60747914160E+01  0.38310372084E+02  0.51100000000E-03 0. -1.
        -11    1    3    3    0    0 -0.47424556847E+01  0.39629493106E+01  0.91447905380E+00  0.62475695563E+01  0.51100000000E-03 0.  1.
        -12    1    3    3    0    0 -0.27710816514E+02  0.15065850693E+01 -0.29082188528E+01  0.27903707412E+02  0.00000000000E+00 0.  1.
</event>
<event>
 7    1  0.1788006E-013  0.7246157E+02  0.7816164E-02  0.1226708E+00
        -11   -1    0    0    0    0  0.00000000000E+00  0.00000000000E+00  0.45593999997E+02  0.45594000000E+02  0.51100000000E-03 0.  1.
         11   -1    0    0    0    0 -0.00000000000E+00 -0.00000000000E+00 -0.45593999997E+02  0.45594000000E+02  0.51100000000E-03 0. -1.
    9900012    2    1    2    0    0 -0.16831710675E+02 -0.77428187403E+01 -0.27242483407E+01  0.72461568004E+02  0.69999997016E+02 0.  0.
        -12    1    1    2    0    0  0.16831710675E+02  0.77428187403E+01  0.27242483407E+01  0.18726431996E+02  0.00000000000E+00 0.  1.
         11    1    3    3    0    0 -0.56867535402E+01 -0.52196103437E+01  0.13884780242E+02  0.15886177029E+02  0.51100000000E-03 0.  1.
        -11    1    3    3    0    0 -0.23236075901E+02 -0.35151444922E+01 -0.30259314403E+02  0.38313151430E+02  0.51100000000E-03 0. -1.
         12    1    3    3    0    0  0.12091118766E+02  0.99193609558E+00  0.13650285821E+02  0.18262239545E+02  0.00000000000E+00 0. -1.
</event>
<event>
 7    1  0.1788006E-013  0.7246159E+02  0.7816164E-02  0.1226708E+00
        -11   -1    0    0    0    0  0.00000000000E+00  0.00000000000E+00  0.45593999997E+02  0.45594000000E+02  0.51100000000E-03 0. -1.
         11   -1    0    0    0    0 -0.00000000000E+00 -0.00000000000E+00 -0.45593999997E+02  0.45594000000E+02  0.51100000000E-03 0.  1.
    9900012    2    1    2    0    0  0.10234510001E+02  0.14089916936E+02  0.68853185366E+01  0.72461586420E+02  0.70000021006E+02 0.  0.
        -12    1    1    2    0    0 -0.10234510001E+02 -0.14089916936E+02 -0.68853185366E+01  0.18726413580E+02  0.00000000000E+00 0.  1.
         11    1    3    3    0    0 -0.15508279504E+01  0.27060899247E+02  0.23000796608E+02  0.35549036277E+02  0.51100000000E-03 0. -1.
        -11    1    3    3    0    0  0.13438320805E+02 -0.11618280490E+02  0.27068524767E+01  0.17969417302E+02  0.51100000000E-03 0.  1.
        -12    1    3    3    0    0 -0.16529828533E+01 -0.13527018209E+01 -0.18822330548E+02  0.18943132840E+02  0.00000000000E+00 0.  1.
</event>
<event>
 7    1  0.1788006E-013  0.7246156E+02  0.7816164E-02  0.1226708E+00
        -11   -1    0    0    0    0  0.00000000000E+00  0.00000000000E+00  0.45593999997E+02  0.45594000000E+02  0.51100000000E-03 0. -1.
         11   -1    0    0    0    0 -0.00000000000E+00 -0.00000000000E+00 -0.45593999997E+02  0.45594000000E+02  0.51100000000E-03 0.  1.
    9900012    2    1    2    0    0 -0.15689218241E+02 -0.10219154688E+02  0.31148012054E+00  0.72461555826E+02  0.69999981152E+02 0.  0.
        -12    1    1    2    0    0  0.15689218241E+02  0.10219154688E+02 -0.31148012054E+00  0.18726444174E+02  0.00000000000E+00 0.  1.
         11    1    3    3    0    0 -0.25149876006E+02  0.49284932240E+01 -0.21374924504E+02  0.33372049778E+02  0.51100000000E-03 0. -1.
        -11    1    3    3    0    0 -0.62150319189E+01 -0.11616965072E+02  0.14574686746E+01  0.13255365496E+02  0.51100000000E-03 0.  1.
        -12    1    3    3    0    0  0.15675689684E+02 -0.35306828399E+01  0.20228935950E+02  0.25834140552E+02  0.00000000000E+00 0.  1.
</event>
<event>
 7    1  0.1788006E-013  0.7246160E+02  0.7816164E-02  0.1226708E+00
        -11   -1    0    0    0    0  0.00000000000E+00  0.00000000000E+00  0.45593999997E+02  0.45594000000E+02  0.51100000000E-03 0.  1.
         11   -1    0    0    0    0 -0.00000000000E+00 -0.00000000000E+00 -0.45593999997E+02  0.45594000000E+02  0.51100000000E-03 0. -1.
    9900012    2    1    2    0    0 -0.95868968101E+01  0.14012565659E+02 -0.79004675488E+01  0.72461602208E+02  0.70000041573E+02 0.  0.
        -12    1    1    2    0    0  0.95868968101E+01 -0.14012565659E+02  0.79004675488E+01  0.18726397792E+02  0.00000000000E+00 0.  1.
         11    1    3    3    0    0 -0.57949750744E+01  0.20222353164E+02 -0.37449713896E+01  0.21367033359E+02  0.51100000000E-03 0. -1.
        -11    1    3    3    0    0  0.72819007949E+01  0.15482513252E+02  0.12843372682E+02  0.21393609277E+02  0.51100000000E-03 0.  1.
        -12    1    3    3    0    0 -0.11073822531E+02 -0.21692300757E+02 -0.16998868841E+02  0.29700959571E+02  0.00000000000E+00 0.  1.
</event>
<event>
 7    1  0.1788006E-013  0.7246152E+02  0.7816164E-02  0.1226708E+00
        -11   -1    0    0    0    0  0.00000000000E+00  0.00000000000E+00  0.45593999997E+02  0.45594000000E+02  0.51100000000E-03 0.  1.
         11   -1    0    0    0    0 -0.00000000000E+00 -0.00000000000E+00 -0.45593999997E+02  0.45594000000E+02  0.51100000000E-03 0. -1.
    9900012    2    1    2    0    0 -0.16021815758E+02 -0.75665294682E+01 -0.60605302528E+01  0.72461522079E+02  0.69999937191E+02 0.  0.
        -12    1    1    2    0    0  0.16021815758E+02  0.75665294682E+01  0.60605302528E+01  0.18726477921E+02  0.00000000000E+00 0.  1.
         11    1    3    3    0    0 -0.26025517392E+02 -0.11493024518E+02 -0.17887862833E+02  0.33606439934E+02  0.51100000000E-03 0. -1.
        -11    1    3    3    0    0 -0.71949470587E+01 -0.98408183914E+01 -0.26741285341E+01  0.12480381944E+02  0.51100000000E-03 0.  1.
        -12    1    3    3    0    0  0.17198648693E+02  0.13767313441E+02  0.14501461114E+02  0.26374700201E+02  0.00000000000E+00 0.  1.
</event>
<event>
 7    1  0.1788006E-013  0.7246158E+02  0.7816164E-02  0.1226708E+00
        -11   -1    0    0    0    0  0.00000000000E+00  0.00000000000E+00  0.45593999997E+02  0.45594000000E+02  0.51100000000E-03 0.  1.
         11   -1    0    0    0    0 -0.00000000000E+00 -0.00000000000E+00 -0.45593999997E+02  0.45594000000E+02  0.51100000000E-03 0. -1.
    9900012    2    1    2    0    0  0.15029191911E+01 -0.93376811076E+01 -0.16162536775E+02  0.72461584177E+02  0.70000018085E+02 0.  0.
        -12    1    1    2    0    0 -0.15029191911E+01  0.93376811076E+01  0.16162536775E+02  0.18726415823E+02  0.00000000000E+00 0.  1.
         11    1    3    3    0    0 -0.11482715353E+02  0.30585350730E+01  0.18986088173E+02  0.22398190397E+02  0.51100000000E-03 0.  1.
        -11    1    3    3    0    0  0.81022763655E+01  0.96518966938E+01 -0.16589845869E+02  0.20833362146E+02  0.51100000000E-03 0. -1.
        -12    1    3    3    0    0  0.48833581783E+01 -0.22048112874E+02 -0.18558779080E+02  0.29230031635E+02  0.00000000000E+00 0.  1.
</event>
<event>
 7    1  0.1788006E-013  0.7246189E+02  0.7816164E-02  0.1226707E+00
        -11   -1    0    0    0    0  0.00000000000E+00  0.00000000000E+00  0.45593999997E+02  0.45594000000E+02  0.51100000000E-03 0.  1.
         11   -1    0    0    0    0 -0.00000000000E+00 -0.00000000000E+00 -0.45593999997E+02  0.45594000000E+02  0.51100000000E-03 0. -1.
    9900012    2    1    2    0    0  0.67303701026E+01 -0.10541124814E+02 -0.13937496932E+02  0.72461894832E+02  0.70000422769E+02 0.  0.
        -12    1    1    2    0    0 -0.67303701026E+01  0.10541124814E+02  0.13937496932E+02  0.18726105168E+02  0.00000000000E+00 0.  1.
         11    1    3    3    0    0 -0.62840493670E+01 -0.51786942696E+01 -0.10721623808E+02  0.13463334212E+02  0.51100000000E-03 0. -1.
        -11    1    3    3    0    0 -0.48267418062E+01 -0.28923767286E+02 -0.61395950825E+00  0.29330167013E+02  0.51100000000E-03 0.  1.
         12    1    3    3    0    0  0.17841161276E+02  0.23561336741E+02 -0.26019136159E+01  0.29668393606E+02  0.00000000000E+00 0. -1.
</event>
<event>
 7    1  0.1788006E-013  0.7246166E+02  0.7816164E-02  0.1226708E+00
        -11   -1    0    0    0    0  0.00000000000E+00  0.00000000000E+00  0.45593999997E+02  0.45594000000E+02  0.51100000000E-03 0.  1.
         11   -1    0    0    0    0 -0.00000000000E+00 -0.00000000000E+00 -0.45593999997E+02  0.45594000000E+02  0.51100000000E-03 0. -1.
    9900012    2    1    2    0    0  0.45535767871E+01 -0.25885626198E+01 -0.17978883576E+02  0.72461655653E+02  0.70000111195E+02 0.  0.
        -12    1    1    2    0    0 -0.45535767871E+01  0.25885626198E+01  0.17978883576E+02  0.18726344347E+02  0.00000000000E+00 0.  1.
         11    1    3    3    0    0 -0.73215435120E+01 -0.66369673119E+01  0.38891466584E+01  0.10619783260E+02  0.51100000000E-03 0. -1.
        -11    1    3    3    0    0 -0.21348042501E+02 -0.84867853985E+00 -0.18188933326E+02  0.28058803783E+02  0.51100000000E-03 0.  1.
        -12    1    3    3    0    0  0.33223162801E+02  0.48970832320E+01 -0.36790969077E+01  0.33783068610E+02  0.00000000000E+00 0.  1.
</event>
<event>
 7    1  0.1788006E-013  0.7246150E+02  0.7816164E-02  0.1226708E+00
        -11   -1    0    0    0    0  0.00000000000E+00  0.00000000000E+00  0.45593999997E+02  0.45594000000E+02  0.51100000000E-03 0.  1.
         11   -1    0    0    0    0 -0.00000000000E+00 -0.00000000000E+00 -0.45593999997E+02  0.45594000000E+02  0.51100000000E-03 0. -1.
    9900012    2    1    2    0    0 -0.16128011557E+02 -0.68747442207E+01 -0.65808056403E+01  0.72461498251E+02  0.69999906150E+02 0.  0.
        -12    1    1    2    0    0  0.16128011557E+02  0.68747442207E+01  0.65808056403E+01  0.18726501749E+02  0.00000000000E+00 0.  1.
         11    1    3    3    0    0 -0.30264850556E+02 -0.29393094338E+02 -0.11267865133E+02  0.43667836664E+02  0.51100000000E-03 0. -1.
        -11    1    3    3    0    0  0.71247624641E+01  0.74440310730E+01 -0.26219995165E+01  0.10632531237E+02  0.51100000000E-03 0.  1.
        -12    1    3    3    0    0  0.70120765354E+01  0.15074319044E+02  0.73090590091E+01  0.18161130350E+02  0.00000000000E+00 0.  1.
</event>
<event>
 7    1  0.1788006E-013  0.7246155E+02  0.7816164E-02  0.1226708E+00
        -11   -1    0    0    0    0  0.00000000000E+00  0.00000000000E+00  0.45593999997E+02  0.45594000000E+02  0.51100000000E-03 0. -1.
         11   -1    0    0    0    0 -0.00000000000E+00 -0.00000000000E+00 -0.45593999997E+02  0.45594000000E+02  0.51100000000E-03 0.  1.
    9900012    2    1    2    0    0 -0.31399713464E+01 -0.17704597975E+02  0.52313994545E+01  0.72461554801E+02  0.69999979818E+02 0.  0.
        -12    1    1    2    0    0  0.31399713464E+01  0.17704597975E+02 -0.52313994545E+01  0.18726445199E+02  0.00000000000E+00 0.  1.
         11    1    3    3    0    0  0.55052748671E+01  0.67056418773E+01 -0.27583260717E+01  0.91039577837E+01  0.51100000000E-03 0. -1.
        -11    1    3    3    0    0 -0.85707806218E+01  0.17092882979E+02  0.10433305982E+02  0.21782534356E+02  0.51100000000E-03 0.  1.
         12    1    3    3    0    0 -0.74465591700E-01 -0.41503122831E+02 -0.24435804561E+01  0.41575062662E+02  0.00000000000E+00 0. -1.
</event>
<event>
 7    1  0.1788006E-013  0.7246158E+02  0.7816164E-02  0.1226708E+00
        -11   -1    0    0    0    0  0.00000000000E+00  0.00000000000E+00  0.45593999997E+02  0.45594000000E+02  0.51100000000E-03 0. -1.
         11   -1    0    0    0    0 -0.00000000000E+00 -0.00000000000E+00 -0.45593999997E+02  0.45594000000E+02  0.51100000000E-03 0.  1.
    9900012    2    1    2    0    0 -0.41359153114E+01 -0.13924320866E+02  0.11818902936E+02  0.72461575524E+02  0.70000006812E+02 0.  0.
        -12    1    1    2    0    0  0.41359153114E+01  0.13924320866E+02 -0.11818902936E+02  0.18726424476E+02  0.00000000000E+00 0.  1.
         11    1    3    3    0    0 -0.10348275581E+02 -0.24650184958E+02  0.11376382835E+02  0.29054096314E+02  0.51100000000E-03 0. -1.
        -11    1    3    3    0    0 -0.17421755929E+01 -0.84967006824E+01 -0.15117351723E+02  0.17428810104E+02  0.51100000000E-03 0.  1.
        -12    1    3    3    0    0  0.79545358624E+01  0.19222564774E+02  0.15559871824E+02  0.25978669105E+02  0.00000000000E+00 0.  1.
</event>
<event>
 7    1  0.1788006E-013  0.7246153E+02  0.7816164E-02  0.1226708E+00
        -11   -1    0    0    0    0  0.00000000000E+00  0.00000000000E+00  0.45593999997E+02  0.45594000000E+02  0.51100000000E-03 0.  1.
         11   -1    0    0    0    0 -0.00000000000E+00 -0.00000000000E+00 -0.45593999997E+02  0.45594000000E+02  0.51100000000E-03 0. -1.
    9900012    2    1    2    0    0  0.15337884091E+02 -0.82620645991E+01 -0.68679246745E+01  0.72461527050E+02  0.69999943666E+02 0.  0.
        -12    1    1    2    0    0 -0.15337884091E+02  0.82620645991E+01  0.68679246745E+01  0.18726472950E+02  0.00000000000E+00 0.  1.
         11    1    3    3    0    0  0.31811970709E+01 -0.32969761124E+02  0.55152475136E+00  0.33127471126E+02  0.51100000000E-03 0. -1.
        -11    1    3    3    0    0  0.31476519640E+01  0.28789833723E+01  0.94128894942E+01  0.10334347925E+02  0.51100000000E-03 0.  1.
         12    1    3    3    0    0  0.90090350556E+01  0.21828713152E+02 -0.16832338920E+02  0.28999707999E+02  0.00000000000E+00 0. -1.
</event>
<event>
 7    1  0.1788006E-013  0.7246158E+02  0.7816164E-02  0.1226708E+00
        -11   -1    0    0    0    0  0.00000000000E+00  0.00000000000E+00  0.45593999997E+02  0.45594000000E+02  0.51100000000E-03 0.  1.
         11   -1    0    0    0    0 -0.00000000000E+00 -0.00000000000E+00 -0.45593999997E+02  0.45594000000E+02  0.51100000000E-03 0. -1.
    9900012    2    1    2    0    0  0.14413924486E+02 -0.82677198856E+01 -0.86349538762E+01  0.72461579102E+02  0.70000011474E+02 0.  0.
        -12    1    1    2    0    0 -0.14413924486E+02  0.82677198856E+01  0.86349538762E+01  0.18726420898E+02  0.00000000000E+00 0.  1.
         11    1    3    3    0    0 -0.21155527980E+01 -0.10264924527E+01  0.69248510460E+01  0.73131944229E+01  0.51100000000E-03 0. -1.
        -11    1    3    3    0    0  0.60294546525E+01  0.26745994074E+02 -0.37804831924E+01  0.27676607014E+02  0.51100000000E-03 0.  1.
         12    1    3    3    0    0  0.10500022631E+02 -0.33987221507E+02 -0.11779321730E+02  0.37471777665E+02  0.00000000000E+00 0. -1.
</event>
<event>
 7    1  0.1788006E-013  0.7246154E+02  0.7816164E-02  0.1226708E+00
        -11   -1    0    0    0    0  0.00000000000E+00  0.00000000000E+00  0.45593999997E+02  0.45594000000E+02  0.51100000000E-03 0.  1.
         11   -1    0    0    0    0 -0.00000000000E+00 -0.00000000000E+00 -0.45593999997E+02  0.45594000000E+02  0.51100000000E-03 0. -1.
    9900012    2    1    2    0    0 -0.11040873938E+00 -0.16726552626E+02 -0.84196449278E+01  0.72461543487E+02  0.69999965078E+02 0.  0.
        -12    1    1    2    0    0  0.11040873938E+00  0.16726552626E+02  0.84196449278E+01  0.18726456513E+02  0.00000000000E+00 0.  1.
         11    1    3    3    0    0  0.14959766098E+02 -0.11056416260E+02 -0.23644132295E+02  0.30084612919E+02  0.51100000000E-03 0. -1.
        -11    1    3    3    0    0  0.29157238574E+01  0.94606903535E+01 -0.52500573348E+01  0.11205766813E+02  0.51100000000E-03 0.  1.
        -12    1    3    3    0    0 -0.17985898695E+02 -0.15130826720E+02  0.20474544702E+02  0.31171163755E+02  0.00000000000E+00 0.  1.
</event>
<event>
 7    1  0.1788006E-013  0.7246156E+02  0.7816164E-02  0.1226708E+00
        -11   -1    0    0    0    0  0.00000000000E+00  0.00000000000E+00  0.45593999997E+02  0.45594000000E+02  0.51100000000E-03 0. -1.
         11   -1    0    0    0    0 -0.00000000000E+00 -0.00000000000E+00 -0.45593999997E+02  0.45594000000E+02  0.51100000000E-03 0.  1.
    9900012    2    1    2    0    0  0.16132255443E+02 -0.86867950190E+01 -0.38690272671E+01  0.72461562929E+02  0.69999990405E+02 0.  0.
        -12    1    1    2    0    0 -0.16132255443E+02  0.86867950190E+01  0.38690272671E+01  0.18726437071E+02  0.00000000000E+00 0.  1.
         11    1    3    3    0    0  0.19942654924E+02  0.13432535915E+02  0.18222616724E+02  0.30169624907E+02  0.51100000000E-03 0. -1.
        -11    1    3    3    0    0  0.11842320312E+02 -0.49826020398E+01 -0.82473202479E+01  0.15267126940E+02  0.51100000000E-03 0.  1.
        -12    1    3    3    0    0 -0.15652719793E+02 -0.17136728895E+02 -0.13844323743E+02  0.27024811082E+02  0.00000000000E+00 0.  1.
</event>
<event>
 7    1  0.1788006E-013  0.7246157E+02  0.7816164E-02  0.1226708E+00
        -11   -1    0    0    0    0  0.00000000000E+00  0.00000000000E+00  0.45593999997E+02  0.45594000000E+02  0.51100000000E-03 0.  1.
         11   -1    0    0    0    0 -0.00000000000E+00 -0.00000000000E+00 -0.45593999997E+02  0.45594000000E+02  0.51100000000E-03 0. -1.
    9900012    2    1    2    0    0 -0.55381850366E+01  0.15937176062E+02  0.81249140137E+01  0.72461566755E+02  0.69999995390E+02 0.  0.
        -12    1    1    2    0    0  0.55381850366E+01 -0.15937176062E+02 -0.81249140137E+01  0.18726433245E+02  0.00000000000E+00 0.  1.
         11    1    3    3    0    0 -0.13107901016E+02  0.11965122930E+02  0.70606065329E+01  0.19100612573E+02  0.51100000000E-03 0. -1.
        -11    1    3    3    0    0 -0.14831429585E+02 -0.16624925746E+02  0.45243001831E+01  0.22733867951E+02  0.51100000000E-03 0.  1.
        -12    1    3    3    0    0  0.22401145565E+02  0.20596978879E+02 -0.34599927023E+01  0.30627086232E+02  0.00000000000E+00 0.  1.
</event>
<event>
 7    1  0.1788006E-013  0.7246155E+02  0.7816164E-02  0.1226708E+00
        -11   -1    0    0    0    0  0.00000000000E+00  0.00000000000E+00  0.45593999997E+02  0.45594000000E+02  0.51100000000E-03 0. -1.
         11   -1    0    0    0    0 -0.00000000000E+00 -0.00000000000E+00 -0.45593999997E+02  0.45594000000E+02  0.51100000000E-03 0.  1.
    9900012    2    1    2    0    0 -0.30218651217E+01  0.15153837233E+02  0.10578721967E+02  0.72461553189E+02  0.69999977717E+02 0.  0.
        -12    1    1    2    0    0  0.30218651217E+01 -0.15153837233E+02 -0.10578721967E+02  0.18726446811E+02  0.00000000000E+00 0.  1.
         11    1    3    3    0    0 -0.72993311515E+01 -0.98399522642E+01  0.47650927936E+01  0.13145759979E+02  0.51100000000E-03 0. -1.
        -11    1    3    3    0    0  0.16084164768E+02  0.23474508910E+01 -0.18100734608E+02  0.24327915561E+02  0.51100000000E-03 0.  1.
         12    1    3    3    0    0 -0.11806698738E+02  0.22646338607E+02  0.23914363781E+02  0.34987877649E+02  0.00000000000E+00 0. -1.
</event>
<event>
 7    1  0.1788006E-013  0.7246155E+02  0.7816164E-02  0.1226708E+00
        -11   -1    0    0    0    0  0.00000000000E+00  0.00000000000E+00  0.45593999997E+02  0.45594000000E+02  0.51100000000E-03 0.  1.
         11   -1    0    0    0    0 -0.00000000000E+00 -0.00000000000E+00 -0.45593999997E+02  0.45594000000E+02  0.51100000000E-03 0. -1.
    9900012    2    1    2    0    0  0.66303446520E+01 -0.15289082695E+02 -0.85418035815E+01  0.72461550035E+02  0.69999973608E+02 0.  0.
        -12    1    1    2    0    0 -0.66303446520E+01  0.15289082695E+02  0.85418035815E+01  0.18726449965E+02  0.00000000000E+00 0.  1.
         11    1    3    3    0    0 -0.12466976387E+02  0.13725276659E+02 -0.14352857004E+02  0.23448096384E+02  0.51100000000E-03 0.  1.
        -11    1    3    3    0    0 -0.88734247019E+01 -0.10524958583E+02  0.70390282873E+01  0.15461576200E+02  0.51100000000E-03 0. -1.
         12    1    3    3    0    0  0.27970745741E+02 -0.18489400771E+02 -0.12279748648E+01  0.33551877451E+02  0.00000000000E+00 0. -1.
</event>
<event>
 7    1  0.1788006E-013  0.7246160E+02  0.7816164E-02  0.1226708E+00
        -11   -1    0    0    0    0  0.00000000000E+00  0.00000000000E+00  0.45593999997E+02  0.45594000000E+02  0.51100000000E-03 0. -1.
         11   -1    0    0    0    0 -0.00000000000E+00 -0.00000000000E+00 -0.45593999997E+02  0.45594000000E+02  0.51100000000E-03 0.  1.
    9900012    2    1    2    0    0  0.18471575567E+02  0.25235378843E+01  0.17637541280E+01  0.72461596822E+02  0.70000034557E+02 0.  0.
        -12    1    1    2    0    0 -0.18471575567E+02 -0.25235378843E+01 -0.17637541280E+01  0.18726403178E+02  0.00000000000E+00 0.  1.
         11    1    3    3    0    0 -0.85062685344E+01 -0.74933868501E+01 -0.18510145692E+02  0.21705597081E+02  0.51100000000E-03 0. -1.
        -11    1    3    3    0    0  0.92956422573E+01 -0.52128618824E+01 -0.85542805733E+01  0.13665965402E+02  0.51100000000E-03 0.  1.
         12    1    3    3    0    0  0.17682201844E+02  0.15229786617E+02  0.28828180393E+02  0.37090034338E+02  0.00000000000E+00 0. -1.
</event>
<event>
 7    1  0.1788006E-013  0.7246157E+02  0.7816164E-02  0.1226708E+00
        -11   -1    0    0    0    0  0.00000000000E+00  0.00000000000E+00  0.45593999997E+02  0.45594000000E+02  0.51100000000E-03 0.  1.
         11   -1    0    0    0    0 -0.00000000000E+00 -0.00000000000E+00 -0.45593999997E+02  0.45594000000E+02  0.51100000000E-03 0. -1.
    9900012    2    1    2    0    0 -0.10950383769E+02  0.13334143190E+02 -0.72779642347E+01  0.72461573680E+02  0.70000004411E+02 0.  0.
        -12    1    1    2    0    0  0.10950383769E+02 -0.13334143190E+02  0.72779642347E+01  0.18726426320E+02  0.00000000000E+00 0.  1.
         11    1    3    3    0    0 -0.30248985833E+01  0.46135493057E+00 -0.58545251370E+01  0.66059310208E+01  0.51100000000E-03 0. -1.
        -11    1    3    3    0    0 -0.23603086819E+02 -0.17960670995E+02  0.65136058344E+01  0.30366403659E+02  0.51100000000E-03 0.  1.
         12    1    3    3    0    0  0.15677601633E+02  0.30833459255E+02 -0.79370449320E+01  0.35489239000E+02  0.00000000000E+00 0. -1.
</event>
<event>
 7    1  0.1788006E-013  0.7246156E+02  0.7816164E-02  0.1226708E+00
        -11   -1    0    0    0    0  0.00000000000E+00  0.00000000000E+00  0.45593999997E+02  0.45594000000E+02  0.51100000000E-03 0. -1.
         11   -1    0    0    0    0 -0.00000000000E+00 -0.00000000000E+00 -0.45593999997E+02  0.45594000000E+02  0.51100000000E-03 0.  1.
    9900012    2    1    2    0    0  0.85003032570E+01  0.40990266088E+00  0.16681019176E+02  0.72461559430E+02  0.69999985848E+02 0.  0.
        -12    1    1    2    0    0 -0.85003032570E+01 -0.40990266088E+00 -0.16681019176E+02  0.18726440570E+02  0.00000000000E+00 0.  1.
         11    1    3    3    0    0  0.25145160437E+02 -0.60854887653E+01 -0.13194931189E+02  0.29041667932E+02  0.51100000000E-03 0. -1.
        -11    1    3    3    0    0 -0.57005305352E+01  0.98363899349E+01 -0.62620565062E-01  0.11369016533E+02  0.51100000000E-03 0.  1.
        -12    1    3    3    0    0 -0.10944326645E+02 -0.33409985087E+01  0.29938570930E+02  0.32050874966E+02  0.00000000000E+00 0.  1.
</event>
<event>
 7    1  0.1788006E-013  0.7246192E+02  0.7816164E-02  0.1226707E+00
        -11   -1    0    0    0    0  0.00000000000E+00  0.00000000000E+00  0.45593999997E+02  0.45594000000E+02  0.51100000000E-03 0.  1.
         11   -1    0    0    0    0 -0.00000000000E+00 -0.00000000000E+00 -0.45593999997E+02  0.45594000000E+02  0.51100000000E-03 0. -1.
    9900012    2    1    2    0    0 -0.57823357660E+00 -0.23701836174E+01 -0.18566478452E+02  0.72461915343E+02  0.70000449489E+02 0.  0.
        -12    1    1    2    0    0  0.57823357660E+00  0.23701836174E+01  0.18566478452E+02  0.18726084657E+02  0.00000000000E+00 0.  1.
         11    1    3    3    0    0  0.13481890294E+01  0.61232978301E+00  0.91267235032E+01  0.92460609768E+01  0.51100000000E-03 0. -1.
        -11    1    3    3    0    0 -0.10510652166E+02  0.10420201807E+02  0.12887819543E+02  0.19625246686E+02  0.51100000000E-03 0.  1.
         12    1    3    3    0    0  0.85842295600E+01 -0.13402715208E+02 -0.40581021498E+02  0.43590607680E+02  0.00000000000E+00 0. -1.
</event>
<event>
 7    1  0.1788006E-013  0.7246157E+02  0.7816164E-02  0.1226708E+00
        -11   -1    0    0    0    0  0.00000000000E+00  0.00000000000E+00  0.45593999997E+02  0.45594000000E+02  0.51100000000E-03 0.  1.
         11   -1    0    0    0    0 -0.00000000000E+00 -0.00000000000E+00 -0.45593999997E+02  0.45594000000E+02  0.51100000000E-03 0. -1.
    9900012    2    1    2    0    0 -0.99399295218E+00  0.17388384409E+02 -0.68800713898E+01  0.72461566366E+02  0.69999994882E+02 0.  0.
        -12    1    1    2    0    0  0.99399295218E+00 -0.17388384409E+02  0.68800713898E+01  0.18726433634E+02  0.00000000000E+00 0.  1.
         11    1    3    3    0    0  0.60822874045E+01  0.25189078602E+01  0.65127610444E+01  0.92604089306E+01  0.51100000000E-03 0. -1.
        -11    1    3    3    0    0  0.10610342441E+01  0.15394462095E+02  0.22004981000E+02  0.26876280359E+02  0.51100000000E-03 0.  1.
         12    1    3    3    0    0 -0.81373146008E+01 -0.52498554662E+00 -0.35397813434E+02  0.36324877077E+02  0.00000000000E+00 0. -1.
</event>
<event>
 7    1  0.1788006E-013  0.7246152E+02  0.7816164E-02  0.1226708E+00
        -11   -1    0    0    0    0  0.00000000000E+00  0.00000000000E+00  0.45593999997E+02  0.45594000000E+02  0.51100000000E-03 0.  1.
         11   -1    0    0    0    0 -0.00000000000E+00 -0.00000000000E+00 -0.45593999997E+02  0.45594000000E+02  0.51100000000E-03 0. -1.
    9900012    2    1    2    0    0 -0.17237298304E+01 -0.43069313770E+00 -0.18642008839E+02  0.72461515154E+02  0.69999928170E+02 0.  0.
        -12    1    1    2    0    0  0.17237298304E+01  0.43069313770E+00  0.18642008839E+02  0.18726484846E+02  0.00000000000E+00 0.  1.
         11    1    3    3    0    0 -0.40069144098E+01 -0.77781618041E+01 -0.50988424107E+01  0.10126863203E+02  0.51100000000E-03 0. -1.
        -11    1    3    3    0    0  0.26416368504E+02  0.96427946101E+01  0.86978335210E+01  0.29435698073E+02  0.51100000000E-03 0.  1.
         12    1    3    3    0    0 -0.24133183925E+02 -0.22953259436E+01 -0.22240999950E+02  0.32898953878E+02  0.00000000000E+00 0. -1.
</event>
<event>
 7    1  0.1788006E-013  0.7246162E+02  0.7816164E-02  0.1226708E+00
        -11   -1    0    0    0    0  0.00000000000E+00  0.00000000000E+00  0.45593999997E+02  0.45594000000E+02  0.51100000000E-03 0.  1.
         11   -1    0    0    0    0 -0.00000000000E+00 -0.00000000000E+00 -0.45593999997E+02  0.45594000000E+02  0.51100000000E-03 0. -1.
    9900012    2    1    2    0    0  0.10540499215E+02  0.11271402480E+02 -0.10608041741E+02  0.72461623225E+02  0.70000068951E+02 0.  0.
        -12    1    1    2    0    0 -0.10540499215E+02 -0.11271402480E+02  0.10608041741E+02  0.18726376775E+02  0.00000000000E+00 0.  1.
         11    1    3    3    0    0  0.98927476622E+01 -0.57796046509E+01 -0.13407082309E+02  0.17635763168E+02  0.51100000000E-03 0. -1.
        -11    1    3    3    0    0  0.19068535336E+02  0.26708493990E+02 -0.37252659830E+01  0.33027720145E+02  0.51100000000E-03 0.  1.
         12    1    3    3    0    0 -0.18420783783E+02 -0.96574868594E+01  0.65243065506E+01  0.21798139911E+02  0.00000000000E+00 0. -1.
</event>
<event>
 7    1  0.1788006E-013  0.7246147E+02  0.7816164E-02  0.1226708E+00
        -11   -1    0    0    0    0  0.00000000000E+00  0.00000000000E+00  0.45593999997E+02  0.45594000000E+02  0.51100000000E-03 0. -1.
         11   -1    0    0    0    0 -0.00000000000E+00 -0.00000000000E+00 -0.45593999997E+02  0.45594000000E+02  0.51100000000E-03 0.  1.
    9900012    2    1    2    0    0 -0.11356366940E-01  0.11085678372E+02  0.15092735505E+02  0.72461466446E+02  0.69999864718E+02 0.  0.
        -12    1    1    2    0    0  0.11356366940E-01 -0.11085678372E+02 -0.15092735505E+02  0.18726533554E+02  0.00000000000E+00 0.  1.
         11    1    3    3    0    0 -0.11820184178E+01  0.19029362066E+02  0.16314588286E+02  0.25093417053E+02  0.51100000000E-03 0. -1.
        -11    1    3    3    0    0 -0.40669627976E+01  0.21247827668E+01  0.21492120005E+02  0.21976489956E+02  0.51100000000E-03 0.  1.
        -12    1    3    3    0    0  0.52376248485E+01 -0.10068466461E+02 -0.22713972786E+02  0.25391559437E+02  0.00000000000E+00 0.  1.
</event>
<event>
 7    1  0.1788006E-013  0.7246167E+02  0.7816164E-02  0.1226708E+00
        -11   -1    0    0    0    0  0.00000000000E+00  0.00000000000E+00  0.45593999997E+02  0.45594000000E+02  0.51100000000E-03 0.  1.
         11   -1    0    0    0    0 -0.00000000000E+00 -0.00000000000E+00 -0.45593999997E+02  0.45594000000E+02  0.51100000000E-03 0. -1.
    9900012    2    1    2    0    0  0.84877655348E+01 -0.40625108216E+01 -0.16190401447E+02  0.72461674760E+02  0.70000136086E+02 0.  0.
        -12    1    1    2    0    0 -0.84877655348E+01  0.40625108216E+01  0.16190401447E+02  0.18726325240E+02  0.00000000000E+00 0.  1.
         11    1    3    3    0    0 -0.62440373133E+01 -0.97393252434E+01 -0.14027602671E+02  0.18182851677E+02  0.51100000000E-03 0. -1.
        -11    1    3    3    0    0 -0.17383864464E+02 -0.42055904283E+01 -0.89480511835E+01  0.19998833836E+02  0.51100000000E-03 0.  1.
        -12    1    3    3    0    0  0.32115667312E+02  0.98824048501E+01  0.67852524068E+01  0.34279989247E+02  0.00000000000E+00 0.  1.
</event>
<event>
 7    1  0.1788006E-013  0.7246162E+02  0.7816164E-02  0.1226708E+00
        -11   -1    0    0    0    0  0.00000000000E+00  0.00000000000E+00  0.45593999997E+02  0.45594000000E+02  0.51100000000E-03 0. -1.
         11   -1    0    0    0    0 -0.00000000000E+00 -0.00000000000E+00 -0.45593999997E+02  0.45594000000E+02  0.51100000000E-03 0.  1.
    9900012    2    1    2    0    0 -0.12234158387E+02  0.14083035894E+02  0.16342071186E+01  0.72461623833E+02  0.70000069744E+02 0.  0.
        -12    1    1    2    0    0  0.12234158387E+02 -0.14083035894E+02 -0.16342071186E+01  0.18726376167E+02  0.00000000000E+00 0.  1.
         11    1    3    3    0    0 -0.54778184867E+01  0.13707085366E+02  0.29518622842E+02  0.33003632820E+02  0.51100000000E-03 0. -1.
        -11    1    3    3    0    0  0.45857810872E+01 -0.57096658602E+01  0.14124797519E+01  0.74582016415E+01  0.51100000000E-03 0.  1.
        -12    1    3    3    0    0 -0.11342120988E+02  0.60856163889E+01 -0.29296895475E+02  0.31999789371E+02  0.00000000000E+00 0.  1.
</event>
<event>
 7    1  0.1788006E-013  0.7246155E+02  0.7816164E-02  0.1226708E+00
        -11   -1    0    0    0    0  0.00000000000E+00  0.00000000000E+00  0.45593999997E+02  0.45594000000E+02  0.51100000000E-03 0. -1.
         11   -1    0    0    0    0 -0.00000000000E+00 -0.00000000000E+00 -0.45593999997E+02  0.45594000000E+02  0.51100000000E-03 0.  1.
    9900012    2    1    2    0    0  0.31683632851E+01  0.17119910028E+02  0.68956597974E+01  0.72461548940E+02  0.69999972182E+02 0.  0.
        -12    1    1    2    0    0 -0.31683632851E+01 -0.17119910028E+02 -0.68956597974E+01  0.18726451060E+02  0.00000000000E+00 0.  1.
         11    1    3    3    0    0 -0.12781074736E+02  0.46326211873E+01  0.37894899737E+00  0.13600024010E+02  0.51100000000E-03 0. -1.
        -11    1    3    3    0    0 -0.14668743135E+02  0.78322196303E+01 -0.13978840351E+02  0.21723804164E+02  0.51100000000E-03 0.  1.
        -12    1    3    3    0    0  0.30618181157E+02  0.46550692103E+01  0.20495551151E+02  0.37137720766E+02  0.00000000000E+00 0.  1.
</event>
<event>
 7    1  0.1788006E-013  0.7246163E+02  0.7816164E-02  0.1226708E+00
        -11   -1    0    0    0    0  0.00000000000E+00  0.00000000000E+00  0.45593999997E+02  0.45594000000E+02  0.51100000000E-03 0.  1.
         11   -1    0    0    0    0 -0.00000000000E+00 -0.00000000000E+00 -0.45593999997E+02  0.45594000000E+02  0.51100000000E-03 0. -1.
    9900012    2    1    2    0    0  0.83076012360E+01 -0.12198368947E+02 -0.11526518168E+02  0.72461626503E+02  0.70000073223E+02 0.  0.
        -12    1    1    2    0    0 -0.83076012360E+01  0.12198368947E+02  0.11526518168E+02  0.18726373497E+02  0.00000000000E+00 0.  1.
         11    1    3    3    0    0 -0.92912994622E+01 -0.53043912873E+01  0.38412628788E+01  0.11367502513E+02  0.51100000000E-03 0. -1.
        -11    1    3    3    0    0 -0.44915600633E+01 -0.23142443038E+02 -0.22680523816E+02  0.32713192176E+02  0.51100000000E-03 0.  1.
         12    1    3    3    0    0  0.22090460762E+02  0.16248465378E+02  0.73127427691E+01  0.28380931814E+02  0.00000000000E+00 0. -1.
</event>
<event>
 7    1  0.1788006E-013  0.7246145E+02  0.7816164E-02  0.1226708E+00
        -11   -1    0    0    0    0  0.00000000000E+00  0.00000000000E+00  0.45593999997E+02  0.45594000000E+02  0.51100000000E-03 0.  1.
         11   -1    0    0    0    0 -0.00000000000E+00 -0.00000000000E+00 -0.45593999997E+02  0.45594000000E+02  0.51100000000E-03 0. -1.
    9900012    2    1    2    0    0  0.85384922445E+01  0.17889362054E+01 -0.16570381842E+02  0.72461449411E+02  0.69999842527E+02 0.  0.
        -12    1    1    2    0    0 -0.85384922445E+01 -0.17889362054E+01  0.16570381842E+02  0.18726550589E+02  0.00000000000E+00 0.  1.
         11    1    3    3    0    0  0.14302849259E+02  0.11804190226E+02  0.13849730797E+02  0.23145743609E+02  0.51100000000E-03 0.  1.
        -11    1    3    3    0    0 -0.43259679266E+01  0.12114108465E+02 -0.22214867206E+02  0.25670332052E+02  0.51100000000E-03 0. -1.
         12    1    3    3    0    0 -0.14383890876E+01 -0.22129362485E+02 -0.82052454329E+01  0.23645373750E+02  0.00000000000E+00 0. -1.
</event>
<event>
 7    1  0.1788006E-013  0.7246159E+02  0.7816164E-02  0.1226708E+00
        -11   -1    0    0    0    0  0.00000000000E+00  0.00000000000E+00  0.45593999997E+02  0.45594000000E+02  0.51100000000E-03 0.  1.
         11   -1    0    0    0    0 -0.00000000000E+00 -0.00000000000E+00 -0.45593999997E+02  0.45594000000E+02  0.51100000000E-03 0. -1.
    9900012    2    1    2    0    0  0.36262277111E+01  0.17772282568E+02  0.46556293923E+01  0.72461589770E+02  0.70000025370E+02 0.  0.
        -12    1    1    2    0    0 -0.36262277111E+01 -0.17772282568E+02 -0.46556293923E+01  0.18726410230E+02  0.00000000000E+00 0.  1.
         11    1    3    3    0    0 -0.11133096691E+02 -0.16553649769E+02 -0.30958047891E+01  0.20187946160E+02  0.51100000000E-03 0. -1.
        -11    1    3    3    0    0 -0.88984049000E+01 -0.11243896257E+01  0.81176463733E-01  0.89695290664E+01  0.51100000000E-03 0.  1.
        -12    1    3    3    0    0  0.23657729302E+02  0.35450321962E+02  0.76702577177E+01  0.43304114543E+02  0.00000000000E+00 0.  1.
</event>
<event>
 7    1  0.1788006E-013  0.7246153E+02  0.7816164E-02  0.1226708E+00
        -11   -1    0    0    0    0  0.00000000000E+00  0.00000000000E+00  0.45593999997E+02  0.45594000000E+02  0.51100000000E-03 0. -1.
         11   -1    0    0    0    0 -0.00000000000E+00 -0.00000000000E+00 -0.45593999997E+02  0.45594000000E+02  0.51100000000E-03 0.  1.
    9900012    2    1    2    0    0  0.11604417535E+01 -0.17897224056E+02  0.53873264685E+01  0.72461533690E+02  0.69999952316E+02 0.  0.
        -12    1    1    2    0    0 -0.11604417535E+01  0.17897224056E+02 -0.53873264685E+01  0.18726466310E+02  0.00000000000E+00 0.  1.
         11    1    3    3    0    0 -0.10177637557E+02 -0.12283022961E+02  0.75340654533E+01  0.17641403057E+02  0.51100000000E-03 0. -1.
        -11    1    3    3    0    0 -0.12640170390E+02 -0.65664727690E+01 -0.20251694916E+02  0.24759313790E+02  0.51100000000E-03 0.  1.
         12    1    3    3    0    0  0.23978249701E+02  0.95227167343E+00  0.18104955931E+02  0.30060816844E+02  0.00000000000E+00 0. -1.
</event>
<event>
 7    1  0.1788006E-013  0.7246177E+02  0.7816164E-02  0.1226707E+00
        -11   -1    0    0    0    0  0.00000000000E+00  0.00000000000E+00  0.45593999997E+02  0.45594000000E+02  0.51100000000E-03 0.  1.
         11   -1    0    0    0    0 -0.00000000000E+00 -0.00000000000E+00 -0.45593999997E+02  0.45594000000E+02  0.51100000000E-03 0. -1.
    9900012    2    1    2    0    0  0.14973260242E+02 -0.21229192392E+00 -0.11244027286E+02  0.72461768673E+02  0.70000258424E+02 0.  0.
        -12    1    1    2    0    0 -0.14973260242E+02  0.21229192392E+00  0.11244027286E+02  0.18726231327E+02  0.00000000000E+00 0.  1.
         11    1    3    3    0    0 -0.84178073882E+01  0.73422786422E+01 -0.13080926702E+02  0.17201138931E+02  0.51100000000E-03 0. -1.
        -11    1    3    3    0    0 -0.15495896165E+02 -0.36900058218E+01 -0.17138915557E+01  0.16021122477E+02  0.51100000000E-03 0.  1.
        -12    1    3    3    0    0  0.38886963795E+02 -0.38645647443E+01  0.35507909715E+01  0.39239507264E+02  0.00000000000E+00 0.  1.
</event>
<event>
 7    1  0.1788006E-013  0.7246158E+02  0.7816164E-02  0.1226708E+00
        -11   -1    0    0    0    0  0.00000000000E+00  0.00000000000E+00  0.45593999997E+02  0.45594000000E+02  0.51100000000E-03 0.  1.
         11   -1    0    0    0    0 -0.00000000000E+00 -0.00000000000E+00 -0.45593999997E+02  0.45594000000E+02  0.51100000000E-03 0. -1.
    9900012    2    1    2    0    0 -0.74178138449E+01 -0.98487109298E+01 -0.14094604770E+02  0.72461576080E+02  0.70000007536E+02 0.  0.
        -12    1    1    2    0    0  0.74178138449E+01  0.98487109298E+01  0.14094604770E+02  0.18726423920E+02  0.00000000000E+00 0.  1.
         11    1    3    3    0    0  0.14547520054E+02 -0.99313141622E+01 -0.83847832199E+01  0.19508099103E+02  0.51100000000E-03 0. -1.
        -11    1    3    3    0    0  0.41485640119E+01  0.13385868821E+02  0.12222627064E+02  0.18595286501E+02  0.51100000000E-03 0.  1.
         12    1    3    3    0    0 -0.26113897911E+02 -0.13303265588E+02 -0.17932448615E+02  0.34358190475E+02  0.00000000000E+00 0. -1.
</event>
<event>
 7    1  0.1788006E-013  0.7246155E+02  0.7816164E-02  0.1226708E+00
        -11   -1    0    0    0    0  0.00000000000E+00  0.00000000000E+00  0.45593999997E+02  0.45594000000E+02  0.51100000000E-03 0. -1.
         11   -1    0    0    0    0 -0.00000000000E+00 -0.00000000000E+00 -0.45593999997E+02  0.45594000000E+02  0.51100000000E-03 0.  1.
    9900012    2    1    2    0    0 -0.16981633125E+02 -0.73943787771E+01 -0.27617570995E+01  0.72461548030E+02  0.69999970997E+02 0.  0.
        -12    1    1    2    0    0  0.16981633125E+02  0.73943787771E+01  0.27617570995E+01  0.18726451970E+02  0.00000000000E+00 0.  1.
         11    1    3    3    0    0 -0.15325699681E+02  0.57704868469E+01  0.14578298931E+02  0.21924926206E+02  0.51100000000E-03 0. -1.
        -11    1    3    3    0    0 -0.50009305802E+01  0.16128702165E+02 -0.12115708934E+01  0.16929626236E+02  0.51100000000E-03 0.  1.
        -12    1    3    3    0    0  0.33449971358E+01 -0.29293567789E+02 -0.16128485137E+02  0.33606995588E+02  0.00000000000E+00 0.  1.
</event>
<event>
 7    1  0.1788006E-013  0.7246200E+02  0.7816164E-02  0.1226707E+00
        -11   -1    0    0    0    0  0.00000000000E+00  0.00000000000E+00  0.45593999997E+02  0.45594000000E+02  0.51100000000E-03 0.  1.
         11   -1    0    0    0    0 -0.00000000000E+00 -0.00000000000E+00 -0.45593999997E+02  0.45594000000E+02  0.51100000000E-03 0. -1.
    9900012    2    1    2    0    0 -0.10868727650E+01 -0.15078308483E+02 -0.11051074973E+02  0.72462003707E+02  0.70000564599E+02 0.  0.
        -12    1    1    2    0    0  0.10868727650E+01  0.15078308483E+02  0.11051074973E+02  0.18725996293E+02  0.00000000000E+00 0.  1.
         11    1    3    3    0    0  0.76700197658E+01  0.11916129601E+02  0.13509032286E+02  0.19578490786E+02  0.51100000000E-03 0. -1.
        -11    1    3    3    0    0  0.54360575888E+01 -0.24733717456E+02 -0.10712703114E+01  0.25346698437E+02  0.51100000000E-03 0.  1.
        -12    1    3    3    0    0 -0.14192950120E+02 -0.22607206277E+01 -0.23488836947E+02  0.27536814485E+02  0.00000000000E+00 0.  1.
</event>
<event>
 7    1  0.1788006E-013  0.7246152E+02  0.7816164E-02  0.1226708E+00
        -11   -1    0    0    0    0  0.00000000000E+00  0.00000000000E+00  0.45593999997E+02  0.45594000000E+02  0.51100000000E-03 0. -1.
         11   -1    0    0    0    0 -0.00000000000E+00 -0.00000000000E+00 -0.45593999997E+02  0.45594000000E+02  0.51100000000E-03 0.  1.
    9900012    2    1    2    0    0  0.15047903772E+02 -0.12772737119E+01  0.11072947977E+02  0.72461521074E+02  0.69999935881E+02 0.  0.
        -12    1    1    2    0    0 -0.15047903772E+02  0.12772737119E+01 -0.11072947977E+02  0.18726478926E+02  0.00000000000E+00 0.  1.
         11    1    3    3    0    0  0.77305286488E+01 -0.55811058456E+01  0.13717166540E+02  0.16705402533E+02  0.51100000000E-03 0. -1.
        -11    1    3    3    0    0 -0.33784095963E+01 -0.14986526836E+02 -0.21713563157E+02  0.26598655290E+02  0.51100000000E-03 0.  1.
         12    1    3    3    0    0  0.10695784720E+02  0.19290358970E+02  0.19069344594E+02  0.29157463250E+02  0.00000000000E+00 0. -1.
</event>
<event>
 7    1  0.1788006E-013  0.7246156E+02  0.7816164E-02  0.1226708E+00
        -11   -1    0    0    0    0  0.00000000000E+00  0.00000000000E+00  0.45593999997E+02  0.45594000000E+02  0.51100000000E-03 0.  1.
         11   -1    0    0    0    0 -0.00000000000E+00 -0.00000000000E+00 -0.45593999997E+02  0.45594000000E+02  0.51100000000E-03 0. -1.
    9900012    2    1    2    0    0 -0.26624138987E+01 -0.17802593886E+02 -0.51632156855E+01  0.72461558986E+02  0.69999985269E+02 0.  0.
        -12    1    1    2    0    0  0.26624138987E+01  0.17802593886E+02  0.51632156855E+01  0.18726441014E+02  0.00000000000E+00 0.  1.
         11    1    3    3    0    0 -0.14769695870E+02 -0.30227613619E+01 -0.21897667057E+02  0.26585500280E+02  0.51100000000E-03 0. -1.
        -11    1    3    3    0    0  0.15801749531E+02  0.91026986568E+01  0.44720512653E+01  0.18776412167E+02  0.51100000000E-03 0.  1.
        -12    1    3    3    0    0 -0.36944675605E+01 -0.23882531181E+02  0.12262400107E+02  0.27099646539E+02  0.00000000000E+00 0.  1.
</event>
<event>
 7    1  0.1788006E-013  0.7246154E+02  0.7816164E-02  0.1226708E+00
        -11   -1    0    0    0    0  0.00000000000E+00  0.00000000000E+00  0.45593999997E+02  0.45594000000E+02  0.51100000000E-03 0.  1.
         11   -1    0    0    0    0 -0.00000000000E+00 -0.00000000000E+00 -0.45593999997E+02  0.45594000000E+02  0.51100000000E-03 0. -1.
    9900012    2    1    2    0    0  0.11612284323E+02  0.40007559864E+01 -0.14136094486E+02  0.72461538429E+02  0.69999958489E+02 0.  0.
        -12    1    1    2    0    0 -0.11612284323E+02 -0.40007559864E+01  0.14136094486E+02  0.18726461571E+02  0.00000000000E+00 0.  1.
         11    1    3    3    0    0 -0.16269061344E+02  0.22044606226E+02  0.43581675331E+01  0.27742397971E+02  0.51100000000E-03 0. -1.
        -11    1    3    3    0    0  0.55621537940E+01  0.52306590208E+01 -0.73580345215E+01  0.10603679593E+02  0.51100000000E-03 0.  1.
        -12    1    3    3    0    0  0.22319191873E+02 -0.23274509260E+02 -0.11136227498E+02  0.34115460865E+02  0.00000000000E+00 0.  1.
</event>
<event>
 7    1  0.1788006E-013  0.7246148E+02  0.7816164E-02  0.1226708E+00
        -11   -1    0    0    0    0  0.00000000000E+00  0.00000000000E+00  0.45593999997E+02  0.45594000000E+02  0.51100000000E-03 0.  1.
         11   -1    0    0    0    0 -0.00000000000E+00 -0.00000000000E+00 -0.45593999997E+02  0.45594000000E+02  0.51100000000E-03 0. -1.
    9900012    2    1    2    0    0  0.18692568803E+02 -0.10142126214E+01 -0.49154557210E+00  0.72461484768E+02  0.69999888586E+02 0.  0.
        -12    1    1    2    0    0 -0.18692568803E+02  0.10142126214E+01  0.49154557210E+00  0.18726515232E+02  0.00000000000E+00 0.  1.
         11    1    3    3    0    0  0.21811641504E+02 -0.52399919789E+01 -0.35464808733E+01  0.22710850884E+02  0.51100000000E-03 0. -1.
        -11    1    3    3    0    0  0.18809416218E+02  0.23462258926E+01  0.15483229818E+02  0.24475075490E+02  0.51100000000E-03 0.  1.
         12    1    3    3    0    0 -0.21928488919E+02  0.18795534648E+01 -0.12428294517E+02  0.25275558394E+02  0.00000000000E+00 0. -1.
</event>
<event>
 7    1  0.1788006E-013  0.7246155E+02  0.7816164E-02  0.1226708E+00
        -11   -1    0    0    0    0  0.00000000000E+00  0.00000000000E+00  0.45593999997E+02  0.45594000000E+02  0.51100000000E-03 0.  1.
         11   -1    0    0    0    0 -0.00000000000E+00 -0.00000000000E+00 -0.45593999997E+02  0.45594000000E+02  0.51100000000E-03 0. -1.
    9900012    2    1    2    0    0  0.34445548018E+01  0.17185778113E+02 -0.65927295408E+01  0.72461547855E+02  0.69999970769E+02 0.  0.
        -12    1    1    2    0    0 -0.34445548018E+01 -0.17185778113E+02  0.65927295408E+01  0.18726452145E+02  0.00000000000E+00 0.  1.
         11    1    3    3    0    0 -0.20880037051E+01  0.89600464820E+01 -0.94624865137E+01  0.13197759041E+02  0.51100000000E-03 0. -1.
        -11    1    3    3    0    0  0.97128143103E+01  0.30130033297E+02  0.13674986522E+02  0.34484241690E+02  0.51100000000E-03 0.  1.
         12    1    3    3    0    0 -0.41802558034E+01 -0.21904301666E+02 -0.10805229549E+02  0.24779547124E+02  0.00000000000E+00 0. -1.
</event>
<event>
 7    1  0.1788006E-013  0.7246156E+02  0.7816164E-02  0.1226708E+00
        -11   -1    0    0    0    0  0.00000000000E+00  0.00000000000E+00  0.45593999997E+02  0.45594000000E+02  0.51100000000E-03 0. -1.
         11   -1    0    0    0    0 -0.00000000000E+00 -0.00000000000E+00 -0.45593999997E+02  0.45594000000E+02  0.51100000000E-03 0.  1.
    9900012    2    1    2    0    0  0.12602725497E+01  0.18646031358E+02  0.11902489206E+01  0.72461562410E+02  0.69999989729E+02 0.  0.
        -12    1    1    2    0    0 -0.12602725497E+01 -0.18646031358E+02 -0.11902489206E+01  0.18726437590E+02  0.00000000000E+00 0.  1.
         11    1    3    3    0    0  0.45978323053E+01  0.12313250422E+02  0.19330437196E+02  0.23375671120E+02  0.51100000000E-03 0. -1.
        -11    1    3    3    0    0 -0.12844298165E+02 -0.10691463867E+02  0.62652862808E+01  0.17847610692E+02  0.51100000000E-03 0.  1.
         12    1    3    3    0    0  0.95067384098E+01  0.17024244804E+02 -0.24405474557E+02  0.31238280597E+02  0.00000000000E+00 0. -1.
</event>
<event>
 7    1  0.1788006E-013  0.7246157E+02  0.7816164E-02  0.1226708E+00
        -11   -1    0    0    0    0  0.00000000000E+00  0.00000000000E+00  0.45593999997E+02  0.45594000000E+02  0.51100000000E-03 0.  1.
         11   -1    0    0    0    0 -0.00000000000E+00 -0.00000000000E+00 -0.45593999997E+02  0.45594000000E+02  0.51100000000E-03 0. -1.
    9900012    2    1    2    0    0 -0.97324799131E+01  0.15687372241E+02  0.31407554052E+01  0.72461570613E+02  0.70000000415E+02 0.  0.
        -12    1    1    2    0    0  0.97324799131E+01 -0.15687372241E+02 -0.31407554052E+01  0.18726429387E+02  0.00000000000E+00 0.  1.
         11    1    3    3    0    0  0.51257138451E+01 -0.20527543244E+02 -0.60638752923E+01  0.22009624210E+02  0.51100000000E-03 0. -1.
        -11    1    3    3    0    0 -0.43979227627E+01  0.14655393234E+01  0.13155058793E+02  0.13947942581E+02  0.51100000000E-03 0.  1.
         12    1    3    3    0    0 -0.10460270996E+02  0.34749376161E+02 -0.39504280951E+01  0.36504003822E+02  0.00000000000E+00 0. -1.
</event>
<event>
 7    1  0.1788006E-013  0.7246156E+02  0.7816164E-02  0.1226708E+00
        -11   -1    0    0    0    0  0.00000000000E+00  0.00000000000E+00  0.45593999997E+02  0.45594000000E+02  0.51100000000E-03 0. -1.
         11   -1    0    0    0    0 -0.00000000000E+00 -0.00000000000E+00 -0.45593999997E+02  0.45594000000E+02  0.51100000000E-03 0.  1.
    9900012    2    1    2    0    0 -0.42733921941E+01  0.14984979242E+02  0.10385962667E+02  0.72461556017E+02  0.69999981401E+02 0.  0.
        -12    1    1    2    0    0  0.42733921941E+01 -0.14984979242E+02 -0.10385962667E+02  0.18726443983E+02  0.00000000000E+00 0.  1.
         11    1    3    3    0    0  0.31890813555E+01 -0.52226622998E+01 -0.36238079900E+00  0.61300702683E+01  0.51100000000E-03 0. -1.
        -11    1    3    3    0    0 -0.79583899341E+01  0.41410201071E+02 -0.81449538165E+00  0.42175871373E+02  0.51100000000E-03 0.  1.
         12    1    3    3    0    0  0.49591638453E+00 -0.21202559529E+02  0.11562838847E+02  0.24155614376E+02  0.00000000000E+00 0. -1.
</event>
<event>
 7    1  0.1788006E-013  0.7246153E+02  0.7816164E-02  0.1226708E+00
        -11   -1    0    0    0    0  0.00000000000E+00  0.00000000000E+00  0.45593999997E+02  0.45594000000E+02  0.51100000000E-03 0.  1.
         11   -1    0    0    0    0 -0.00000000000E+00 -0.00000000000E+00 -0.45593999997E+02  0.45594000000E+02  0.51100000000E-03 0. -1.
    9900012    2    1    2    0    0  0.38917325824E+01 -0.11551505238E+02 -0.14216113523E+02  0.72461528377E+02  0.69999945395E+02 0.  0.
        -12    1    1    2    0    0 -0.38917325824E+01  0.11551505238E+02  0.14216113523E+02  0.18726471623E+02  0.00000000000E+00 0.  1.
         11    1    3    3    0    0 -0.12970022528E+02 -0.79377140635E+01 -0.20506496889E+01  0.15343857186E+02  0.51100000000E-03 0. -1.
        -11    1    3    3    0    0 -0.18627234070E+02 -0.15846425557E+01  0.21061416651E+01  0.18812782200E+02  0.51100000000E-03 0.  1.
         12    1    3    3    0    0  0.35488989180E+02 -0.20291486193E+01 -0.14271605499E+02  0.38304888992E+02  0.00000000000E+00 0. -1.
</event>
<event>
 7    1  0.1788006E-013  0.7246157E+02  0.7816164E-02  0.1226708E+00
        -11   -1    0    0    0    0  0.00000000000E+00  0.00000000000E+00  0.45593999997E+02  0.45594000000E+02  0.51100000000E-03 0. -1.
         11   -1    0    0    0    0 -0.00000000000E+00 -0.00000000000E+00 -0.45593999997E+02  0.45594000000E+02  0.51100000000E-03 0.  1.
    9900012    2    1    2    0    0  0.11130074736E+02  0.10197214002E+02 -0.11082296445E+02  0.72461573979E+02  0.70000004800E+02 0.  0.
        -12    1    1    2    0    0 -0.11130074736E+02 -0.10197214002E+02  0.11082296445E+02  0.18726426021E+02  0.00000000000E+00 0.  1.
         11    1    3    3    0    0 -0.80217642838E+01 -0.45278819920E+01  0.19114922528E+02  0.21218639944E+02  0.51100000000E-03 0. -1.
        -11    1    3    3    0    0  0.95493141434E+01  0.58683084629E+01  0.60335047218E+01  0.12729085761E+02  0.51100000000E-03 0.  1.
        -12    1    3    3    0    0  0.96025248765E+01  0.88567875306E+01 -0.36230723695E+02  0.38513848274E+02  0.00000000000E+00 0.  1.
</event>
<event>
 7    1  0.1788006E-013  0.7246167E+02  0.7816164E-02  0.1226708E+00
        -11   -1    0    0    0    0  0.00000000000E+00  0.00000000000E+00  0.45593999997E+02  0.45594000000E+02  0.51100000000E-03 0. -1.
         11   -1    0    0    0    0 -0.00000000000E+00 -0.00000000000E+00 -0.45593999997E+02  0.45594000000E+02  0.51100000000E-03 0.  1.
    9900012    2    1    2    0    0 -0.12713129913E+02  0.27017206062E+01 -0.13481559238E+02  0.72461670784E+02  0.70000130906E+02 0.  0.
        -12    1    1    2    0    0  0.12713129913E+02 -0.27017206062E+01  0.13481559238E+02  0.18726329216E+02  0.00000000000E+00 0.  1.
         11    1    3    3    0    0  0.11281440628E+02 -0.70730203675E+01 -0.19937893424E+02  0.23975364736E+02  0.51100000000E-03 0. -1.
        -11    1    3    3    0    0  0.79897101741E+01  0.10702777518E+02 -0.53390963299E+01  0.14383701371E+02  0.51100000000E-03 0.  1.
         12    1    3    3    0    0 -0.31984280715E+02 -0.92803654388E+00  0.11795430516E+02  0.34102604677E+02  0.00000000000E+00 0. -1.
</event>
<event>
 7    1  0.1788006E-013  0.7246139E+02  0.7816164E-02  0.1226709E+00
        -11   -1    0    0    0    0  0.00000000000E+00  0.00000000000E+00  0.45593999997E+02  0.45594000000E+02  0.51100000000E-03 0.  1.
         11   -1    0    0    0    0 -0.00000000000E+00 -0.00000000000E+00 -0.45593999997E+02  0.45594000000E+02  0.51100000000E-03 0. -1.
    9900012    2    1    2    0    0  0.80457816364E+00  0.16433455364E+02 -0.89431694874E+01  0.72461385739E+02  0.69999759582E+02 0.  0.
        -12    1    1    2    0    0 -0.80457816364E+00 -0.16433455364E+02  0.89431694874E+01  0.18726614261E+02  0.00000000000E+00 0.  1.
         11    1    3    3    0    0 -0.17043347894E+02  0.98776581456E+01 -0.41018346288E+00  0.19703098452E+02  0.51100000000E-03 0. -1.
        -11    1    3    3    0    0  0.28040496970E+02  0.97074072058E+01  0.10051299961E+02  0.31329408806E+02  0.51100000000E-03 0.  1.
         12    1    3    3    0    0 -0.10192570913E+02 -0.31516099877E+01 -0.18584285986E+02  0.21428878481E+02  0.00000000000E+00 0. -1.
</event>
<event>
 7    1  0.1788006E-013  0.7246166E+02  0.7816164E-02  0.1226708E+00
        -11   -1    0    0    0    0  0.00000000000E+00  0.00000000000E+00  0.45593999997E+02  0.45594000000E+02  0.51100000000E-03 0. -1.
         11   -1    0    0    0    0 -0.00000000000E+00 -0.00000000000E+00 -0.45593999997E+02  0.45594000000E+02  0.51100000000E-03 0.  1.
    9900012    2    1    2    0    0 -0.15455004453E+02 -0.44990543240E+01 -0.95695942678E+01  0.72461660611E+02  0.70000117654E+02 0.  0.
        -12    1    1    2    0    0  0.15455004453E+02  0.44990543240E+01  0.95695942678E+01  0.18726339389E+02  0.00000000000E+00 0.  1.
         11    1    3    3    0    0  0.10678115983E+02  0.53392266973E+01  0.14455255869E+02  0.18747904554E+02  0.51100000000E-03 0. -1.
        -11    1    3    3    0    0 -0.66025012556E+01  0.14756209690E+02 -0.11790917444E+02  0.20009109968E+02  0.51100000000E-03 0.  1.
        -12    1    3    3    0    0 -0.19530619180E+02 -0.24594490712E+02 -0.12233932692E+02  0.33704646090E+02  0.00000000000E+00 0.  1.
</event>
<event>
 7    1  0.1788006E-013  0.7246157E+02  0.7816164E-02  0.1226708E+00
        -11   -1    0    0    0    0  0.00000000000E+00  0.00000000000E+00  0.45593999997E+02  0.45594000000E+02  0.51100000000E-03 0.  1.
         11   -1    0    0    0    0 -0.00000000000E+00 -0.00000000000E+00 -0.45593999997E+02  0.45594000000E+02  0.51100000000E-03 0. -1.
    9900012    2    1    2    0    0 -0.26458301102E+01 -0.41966372646E+00 -0.18533824510E+02  0.72461569865E+02  0.69999999441E+02 0.  0.
        -12    1    1    2    0    0  0.26458301102E+01  0.41966372646E+00  0.18533824510E+02  0.18726430135E+02  0.00000000000E+00 0.  1.
         11    1    3    3    0    0  0.40505608652E+00 -0.58307485647E+01 -0.23043160461E+02  0.23772861493E+02  0.51100000000E-03 0. -1.
        -11    1    3    3    0    0 -0.22075909720E+02 -0.43694049874E+01 -0.80285181286E+01  0.23893400626E+02  0.51100000000E-03 0.  1.
        -12    1    3    3    0    0  0.19025023523E+02  0.97804898257E+01  0.12537854079E+02  0.24795307746E+02  0.00000000000E+00 0.  1.
</event>
<event>
 7    1  0.1788006E-013  0.7246156E+02  0.7816164E-02  0.1226708E+00
        -11   -1    0    0    0    0  0.00000000000E+00  0.00000000000E+00  0.45593999997E+02  0.45594000000E+02  0.51100000000E-03 0. -1.
         11   -1    0    0    0    0 -0.00000000000E+00 -0.00000000000E+00 -0.45593999997E+02  0.45594000000E+02  0.51100000000E-03 0.  1.
    9900012    2    1    2    0    0  0.55446318606E+01 -0.16761219648E+02 -0.62448385056E+01  0.72461563218E+02  0.69999990782E+02 0.  0.
        -12    1    1    2    0    0 -0.55446318606E+01  0.16761219648E+02  0.62448385056E+01  0.18726436782E+02  0.00000000000E+00 0.  1.
         11    1    3    3    0    0 -0.49062350458E+01 -0.22513137185E+02  0.13510040140E+01  0.23081111332E+02  0.51100000000E-03 0. -1.
        -11    1    3    3    0    0  0.20515147223E+02 -0.14307329798E+02 -0.97287024956E+01  0.26836888867E+02  0.51100000000E-03 0.  1.
        -12    1    3    3    0    0 -0.10064280316E+02  0.20059247335E+02  0.21328599760E+01  0.22543563019E+02  0.00000000000E+00 0.  1.
</event>
<event>
 7    1  0.1788006E-013  0.7246162E+02  0.7816164E-02  0.1226708E+00
        -11   -1    0    0    0    0  0.00000000000E+00  0.00000000000E+00  0.45593999997E+02  0.45594000000E+02  0.51100000000E-03 0. -1.
         11   -1    0    0    0    0 -0.00000000000E+00 -0.00000000000E+00 -0.45593999997E+02  0.45594000000E+02  0.51100000000E-03 0.  1.
    9900012    2    1    2    0    0 -0.17317860927E+02 -0.66894609541E+01  0.24535982721E+01  0.72461619158E+02  0.70000063655E+02 0.  0.
        -12    1    1    2    0    0  0.17317860927E+02  0.66894609541E+01 -0.24535982721E+01  0.18726380842E+02  0.00000000000E+00 0.  1.
         11    1    3    3    0    0 -0.11748786384E+02 -0.11978398062E+02  0.11605077150E+01  0.16818524907E+02  0.51100000000E-03 0. -1.
        -11    1    3    3    0    0 -0.25865043361E+01 -0.16199938602E+02 -0.19575358337E+02  0.25540608248E+02  0.51100000000E-03 0.  1.
         12    1    3    3    0    0 -0.29825702071E+01  0.21488875710E+02  0.20868448895E+02  0.30102486003E+02  0.00000000000E+00 0. -1.
</event>
<event>
 7    1  0.1788006E-013  0.7246156E+02  0.7816164E-02  0.1226708E+00
        -11   -1    0    0    0    0  0.00000000000E+00  0.00000000000E+00  0.45593999997E+02  0.45594000000E+02  0.51100000000E-03 0.  1.
         11   -1    0    0    0    0 -0.00000000000E+00 -0.00000000000E+00 -0.45593999997E+02  0.45594000000E+02  0.51100000000E-03 0. -1.
    9900012    2    1    2    0    0 -0.13677636374E+02  0.12025544804E+02 -0.43575181380E+01  0.72461563368E+02  0.69999990977E+02 0.  0.
        -12    1    1    2    0    0  0.13677636374E+02 -0.12025544804E+02  0.43575181380E+01  0.18726436632E+02  0.00000000000E+00 0.  1.
         11    1    3    3    0    0  0.98384210335E+01  0.20832891244E+02  0.47767133190E+01  0.23529149504E+02  0.51100000000E-03 0. -1.
        -11    1    3    3    0    0 -0.10960222732E+02  0.10294247558E+02  0.10872014734E+02  0.18555288188E+02  0.51100000000E-03 0.  1.
         12    1    3    3    0    0 -0.12555834676E+02 -0.19101593997E+02 -0.20006246191E+02  0.30377125675E+02  0.00000000000E+00 0. -1.
</event>
<event>
 7    1  0.1788006E-013  0.7246158E+02  0.7816164E-02  0.1226708E+00
        -11   -1    0    0    0    0  0.00000000000E+00  0.00000000000E+00  0.45593999997E+02  0.45594000000E+02  0.51100000000E-03 0. -1.
         11   -1    0    0    0    0 -0.00000000000E+00 -0.00000000000E+00 -0.45593999997E+02  0.45594000000E+02  0.51100000000E-03 0.  1.
    9900012    2    1    2    0    0 -0.11801032882E+02 -0.13692926344E+02  0.48906232875E+01  0.72461580024E+02  0.70000012675E+02 0.  0.
        -12    1    1    2    0    0  0.11801032882E+02  0.13692926344E+02 -0.48906232875E+01  0.18726419976E+02  0.00000000000E+00 0.  1.
         11    1    3    3    0    0  0.77920526357E+01 -0.81936235765E+01 -0.91959290339E+01  0.14574521009E+02  0.51100000000E-03 0. -1.
        -11    1    3    3    0    0 -0.22311110689E+00 -0.11370889273E+02 -0.17202480007E+02  0.20622129378E+02  0.51100000000E-03 0.  1.
         12    1    3    3    0    0 -0.19369974411E+02  0.58715865053E+01  0.31289032329E+02  0.37264929637E+02  0.00000000000E+00 0. -1.
</event>
<event>
 7    1  0.1788006E-013  0.7246159E+02  0.7816164E-02  0.1226708E+00
        -11   -1    0    0    0    0  0.00000000000E+00  0.00000000000E+00  0.45593999997E+02  0.45594000000E+02  0.51100000000E-03 0. -1.
         11   -1    0    0    0    0 -0.00000000000E+00 -0.00000000000E+00 -0.45593999997E+02  0.45594000000E+02  0.51100000000E-03 0.  1.
    9900012    2    1    2    0    0  0.15495850334E+02  0.85229437238E+01  0.61576470322E+01  0.72461586455E+02  0.70000021052E+02 0.  0.
        -12    1    1    2    0    0 -0.15495850334E+02 -0.85229437238E+01 -0.61576470322E+01  0.18726413545E+02  0.00000000000E+00 0.  1.
         11    1    3    3    0    0 -0.53607457392E+01 -0.37452307344E+01  0.59599825402E+01  0.88479229356E+01  0.51100000000E-03 0. -1.
        -11    1    3    3    0    0  0.28094735600E+02  0.66311003117E+01  0.24357862954E+02  0.37770241562E+02  0.51100000000E-03 0.  1.
        -12    1    3    3    0    0 -0.72381395269E+01  0.56370741465E+01 -0.24160198462E+02  0.25843421957E+02  0.00000000000E+00 0.  1.
</event>
<event>
 7    1  0.1788006E-013  0.7246154E+02  0.7816164E-02  0.1226708E+00
        -11   -1    0    0    0    0  0.00000000000E+00  0.00000000000E+00  0.45593999997E+02  0.45594000000E+02  0.51100000000E-03 0.  1.
         11   -1    0    0    0    0 -0.00000000000E+00 -0.00000000000E+00 -0.45593999997E+02  0.45594000000E+02  0.51100000000E-03 0. -1.
    9900012    2    1    2    0    0  0.19545428581E+01 -0.59609605569E+01 -0.17644459260E+02  0.72461541949E+02  0.69999963075E+02 0.  0.
        -12    1    1    2    0    0 -0.19545428581E+01  0.59609605569E+01  0.17644459260E+02  0.18726458051E+02  0.00000000000E+00 0.  1.
         11    1    3    3    0    0  0.11887099286E+02 -0.40176486199E+01 -0.29191525480E+01  0.12882782375E+02  0.51100000000E-03 0. -1.
        -11    1    3    3    0    0  0.22693347259E+02 -0.87735127467E+01 -0.76318601884E+01  0.25499173044E+02  0.51100000000E-03 0.  1.
         12    1    3    3    0    0 -0.32625903687E+02  0.68302008097E+01 -0.70934465237E+01  0.34079586530E+02  0.00000000000E+00 0. -1.
</event>
<event>
 7    1  0.1788006E-013  0.7246147E+02  0.7816164E-02  0.1226708E+00
        -11   -1    0    0    0    0  0.00000000000E+00  0.00000000000E+00  0.45593999997E+02  0.45594000000E+02  0.51100000000E-03 0. -1.
         11   -1    0    0    0    0 -0.00000000000E+00 -0.00000000000E+00 -0.45593999997E+02  0.45594000000E+02  0.51100000000E-03 0.  1.
    9900012    2    1    2    0    0  0.13938958714E+02  0.17922302826E+00  0.12504242835E+02  0.72461473899E+02  0.69999874428E+02 0.  0.
        -12    1    1    2    0    0 -0.13938958714E+02 -0.17922302826E+00 -0.12504242835E+02  0.18726526101E+02  0.00000000000E+00 0.  1.
         11    1    3    3    0    0  0.10934291049E+02  0.26321303809E+02  0.17848976862E+02  0.33629685254E+02  0.51100000000E-03 0. -1.
        -11    1    3    3    0    0 -0.16182399864E+01  0.56177872947E+01 -0.32022987114E+01  0.66658046807E+01  0.51100000000E-03 0.  1.
        -12    1    3    3    0    0  0.46229076515E+01 -0.31759868076E+02 -0.21424353163E+01  0.32165983965E+02  0.00000000000E+00 0.  1.
</event>
<event>
 7    1  0.1788006E-013  0.7246154E+02  0.7816164E-02  0.1226708E+00
        -11   -1    0    0    0    0  0.00000000000E+00  0.00000000000E+00  0.45593999997E+02  0.45594000000E+02  0.51100000000E-03 0. -1.
         11   -1    0    0    0    0 -0.00000000000E+00 -0.00000000000E+00 -0.45593999997E+02  0.45594000000E+02  0.51100000000E-03 0.  1.
    9900012    2    1    2    0    0  0.76202804485E+01 -0.14766993163E+02  0.86340915653E+01  0.72461540154E+02  0.69999960737E+02 0.  0.
        -12    1    1    2    0    0 -0.76202804485E+01  0.14766993163E+02 -0.86340915653E+01  0.18726459846E+02  0.00000000000E+00 0.  1.
         11    1    3    3    0    0 -0.29018989926E+00 -0.23638279168E+01  0.29164557673E+01  0.37653163349E+01  0.51100000000E-03 0. -1.
        -11    1    3    3    0    0  0.38778687885E+01 -0.37253707378E+02 -0.10314503689E+02  0.38849267256E+02  0.51100000000E-03 0.  1.
         12    1    3    3    0    0  0.40326015593E+01  0.24850542131E+02  0.16032139487E+02  0.29846956563E+02  0.00000000000E+00 0. -1.
</event>
<event>
 7    1  0.1788006E-013  0.7246161E+02  0.7816164E-02  0.1226708E+00
        -11   -1    0    0    0    0  0.00000000000E+00  0.00000000000E+00  0.45593999997E+02  0.45594000000E+02  0.51100000000E-03 0.  1.
         11   -1    0    0    0    0 -0.00000000000E+00 -0.00000000000E+00 -0.45593999997E+02  0.45594000000E+02  0.51100000000E-03 0. -1.
    9900012    2    1    2    0    0  0.50158502955E+01 -0.46073895495E+01 -0.17443930831E+02  0.72461614458E+02  0.70000057531E+02 0.  0.
        -12    1    1    2    0    0 -0.50158502955E+01  0.46073895495E+01  0.17443930831E+02  0.18726385542E+02  0.00000000000E+00 0.  1.
         11    1    3    3    0    0 -0.13108388621E+02 -0.10267702376E+01 -0.36879393222E+00  0.13153711210E+02  0.51100000000E-03 0. -1.
        -11    1    3    3    0    0 -0.12496298209E+02  0.49815379682E+01 -0.23304235590E+02  0.26908373904E+02  0.51100000000E-03 0.  1.
        -12    1    3    3    0    0  0.30620537126E+02 -0.85621572801E+01  0.62290986916E+01  0.32399529344E+02  0.00000000000E+00 0.  1.
</event>
<event>
 7    1  0.1788006E-013  0.7246158E+02  0.7816164E-02  0.1226708E+00
        -11   -1    0    0    0    0  0.00000000000E+00  0.00000000000E+00  0.45593999997E+02  0.45594000000E+02  0.51100000000E-03 0.  1.
         11   -1    0    0    0    0 -0.00000000000E+00 -0.00000000000E+00 -0.45593999997E+02  0.45594000000E+02  0.51100000000E-03 0. -1.
    9900012    2    1    2    0    0 -0.14631799299E+02 -0.99412843332E+01 -0.61449157892E+01  0.72461583499E+02  0.70000017202E+02 0.  0.
        -12    1    1    2    0    0  0.14631799299E+02  0.99412843332E+01  0.61449157892E+01  0.18726416501E+02  0.00000000000E+00 0.  1.
         11    1    3    3    0    0  0.17599909372E+02 -0.26449023933E+02 -0.10179343572E+02  0.33360556242E+02  0.51100000000E-03 0. -1.
        -11    1    3    3    0    0 -0.34649516399E+01  0.37355787855E+01  0.56207845448E+01  0.75864127155E+01  0.51100000000E-03 0.  1.
        -12    1    3    3    0    0 -0.28766757031E+02  0.12772160815E+02 -0.15863567617E+01  0.31514614542E+02  0.00000000000E+00 0.  1.
</event>
<event>
 7    1  0.1788006E-013  0.7246160E+02  0.7816164E-02  0.1226708E+00
        -11   -1    0    0    0    0  0.00000000000E+00  0.00000000000E+00  0.45593999997E+02  0.45594000000E+02  0.51100000000E-03 0. -1.
         11   -1    0    0    0    0 -0.00000000000E+00 -0.00000000000E+00 -0.45593999997E+02  0.45594000000E+02  0.51100000000E-03 0.  1.
    9900012    2    1    2    0    0  0.18505349708E+02 -0.27534700068E+01  0.80523514063E+00  0.72461602361E+02  0.70000041772E+02 0.  0.
        -12    1    1    2    0    0 -0.18505349708E+02  0.27534700068E+01 -0.80523514063E+00  0.18726397639E+02  0.00000000000E+00 0.  1.
         11    1    3    3    0    0 -0.15782316421E+02  0.64862486125E+01 -0.21019964468E+01  0.17192187819E+02  0.51100000000E-03 0. -1.
        -11    1    3    3    0    0  0.29799348732E+02 -0.71334253104E+01 -0.16802383912E+02  0.34945772947E+02  0.51100000000E-03 0.  1.
         12    1    3    3    0    0  0.44883173977E+01 -0.21062933089E+01  0.19709615499E+02  0.20323641595E+02  0.00000000000E+00 0. -1.
</event>
<event>
 7    1  0.1788006E-013  0.7246157E+02  0.7816164E-02  0.1226708E+00
        -11   -1    0    0    0    0  0.00000000000E+00  0.00000000000E+00  0.45593999997E+02  0.45594000000E+02  0.51100000000E-03 0. -1.
         11   -1    0    0    0    0 -0.00000000000E+00 -0.00000000000E+00 -0.45593999997E+02  0.45594000000E+02  0.51100000000E-03 0.  1.
    9900012    2    1    2    0    0 -0.16549430437E+02 -0.64086597509E+01  0.59770114985E+01  0.72461568571E+02  0.69999997755E+02 0.  0.
        -12    1    1    2    0    0  0.16549430437E+02  0.64086597509E+01 -0.59770114985E+01  0.18726431429E+02  0.00000000000E+00 0.  1.
         11    1    3    3    0    0 -0.12485647019E+01 -0.25631665615E+02 -0.22771375410E+01  0.25762890980E+02  0.51100000000E-03 0. -1.
        -11    1    3    3    0    0 -0.16500305406E+02 -0.82585076520E+01  0.36197031678E+01  0.18803331577E+02  0.51100000000E-03 0.  1.
         12    1    3    3    0    0  0.11994396705E+01  0.27481513516E+02  0.46344458717E+01  0.27895346013E+02  0.00000000000E+00 0. -1.
</event>
<event>
 7    1  0.1788006E-013  0.7246160E+02  0.7816164E-02  0.1226708E+00
        -11   -1    0    0    0    0  0.00000000000E+00  0.00000000000E+00  0.45593999997E+02  0.45594000000E+02  0.51100000000E-03 0.  1.
         11   -1    0    0    0    0 -0.00000000000E+00 -0.00000000000E+00 -0.45593999997E+02  0.45594000000E+02  0.51100000000E-03 0. -1.
    9900012    2    1    2    0    0 -0.13083100510E+02 -0.55861440893E+01 -0.12178072037E+02  0.72461602501E+02  0.70000041956E+02 0.  0.
        -12    1    1    2    0    0  0.13083100510E+02  0.55861440893E+01  0.12178072037E+02  0.18726397499E+02  0.00000000000E+00 0.  1.
         11    1    3    3    0    0  0.53066974170E+01  0.78876106701E+01 -0.10853235656E+02  0.14428033963E+02  0.51100000000E-03 0. -1.
        -11    1    3    3    0    0 -0.24929848840E+02  0.12460907221E+02  0.91127141094E+01  0.29322570328E+02  0.51100000000E-03 0.  1.
         12    1    3    3    0    0  0.65400509128E+01 -0.25934661981E+02 -0.10437550490E+02  0.28710998210E+02  0.00000000000E+00 0. -1.
</event>
<event>
 7    1  0.1788006E-013  0.7246167E+02  0.7816164E-02  0.1226708E+00
        -11   -1    0    0    0    0  0.00000000000E+00  0.00000000000E+00  0.45593999997E+02  0.45594000000E+02  0.51100000000E-03 0.  1.
         11   -1    0    0    0    0 -0.00000000000E+00 -0.00000000000E+00 -0.45593999997E+02  0.45594000000E+02  0.51100000000E-03 0. -1.
    9900012    2    1    2    0    0 -0.10320659201E+02  0.11089509298E+02  0.11008282156E+02  0.72461668303E+02  0.70000127674E+02 0.  0.
        -12    1    1    2    0    0  0.10320659201E+02 -0.11089509298E+02 -0.11008282156E+02  0.18726331697E+02  0.00000000000E+00 0.  1.
         11    1    3    3    0    0 -0.35103622674E+01 -0.40681244232E+01  0.22360446553E+02  0.22996996540E+02  0.51100000000E-03 0. -1.
        -11    1    3    3    0    0  0.11925314966E+02 -0.35364479779E+01  0.95967600467E+01  0.15710423450E+02  0.51100000000E-03 0.  1.
         12    1    3    3    0    0 -0.18735611899E+02  0.18694081699E+02 -0.20948924443E+02  0.33754248312E+02  0.00000000000E+00 0. -1.
</event>
<event>
 7    1  0.1788006E-013  0.7246160E+02  0.7816164E-02  0.1226708E+00
        -11   -1    0    0    0    0  0.00000000000E+00  0.00000000000E+00  0.45593999997E+02  0.45594000000E+02  0.51100000000E-03 0.  1.
         11   -1    0    0    0    0 -0.00000000000E+00 -0.00000000000E+00 -0.45593999997E+02  0.45594000000E+02  0.51100000000E-03 0. -1.
    9900012    2    1    2    0    0 -0.42628206090E+01  0.12433288558E+02 -0.13338656504E+02  0.72461599885E+02  0.70000038548E+02 0.  0.
        -12    1    1    2    0    0  0.42628206090E+01 -0.12433288558E+02  0.13338656504E+02  0.18726400115E+02  0.00000000000E+00 0.  1.
         11    1    3    3    0    0  0.12092357411E+01  0.14995683407E+02 -0.19480826135E+02  0.24613722983E+02  0.51100000000E-03 0. -1.
        -11    1    3    3    0    0 -0.23916086696E+02  0.78326452932E+01 -0.18123476026E+01  0.25231213590E+02  0.51100000000E-03 0.  1.
         12    1    3    3    0    0  0.18444030346E+02 -0.10395040142E+02  0.79545172341E+01  0.22616663312E+02  0.00000000000E+00 0. -1.
</event>
<event>
 7    1  0.1788006E-013  0.7246155E+02  0.7816164E-02  0.1226708E+00
        -11   -1    0    0    0    0  0.00000000000E+00  0.00000000000E+00  0.45593999997E+02  0.45594000000E+02  0.51100000000E-03 0.  1.
         11   -1    0    0    0    0 -0.00000000000E+00 -0.00000000000E+00 -0.45593999997E+02  0.45594000000E+02  0.51100000000E-03 0. -1.
    9900012    2    1    2    0    0 -0.12044123377E+02 -0.14337989348E+02  0.20258225341E+00  0.72461551163E+02  0.69999975078E+02 0.  0.
        -12    1    1    2    0    0  0.12044123377E+02  0.14337989348E+02 -0.20258225341E+00  0.18726448837E+02  0.00000000000E+00 0.  1.
         11    1    3    3    0    0  0.53434871354E+01 -0.30550595125E+02  0.14132148056E+02  0.34082390265E+02  0.51100000000E-03 0. -1.
        -11    1    3    3    0    0 -0.96666605301E+00  0.17538201705E+02 -0.12852174717E+01  0.17611778631E+02  0.51100000000E-03 0.  1.
        -12    1    3    3    0    0 -0.16420944460E+02 -0.13255959289E+01 -0.12644348331E+02  0.20767382267E+02  0.00000000000E+00 0.  1.
</event>
<event>
 7    1  0.1788006E-013  0.7246155E+02  0.7816164E-02  0.1226708E+00
        -11   -1    0    0    0    0  0.00000000000E+00  0.00000000000E+00  0.45593999997E+02  0.45594000000E+02  0.51100000000E-03 0.  1.
         11   -1    0    0    0    0 -0.00000000000E+00 -0.00000000000E+00 -0.45593999997E+02  0.45594000000E+02  0.51100000000E-03 0. -1.
    9900012    2    1    2    0    0  0.16757639127E+01 -0.17917301477E+02 -0.51809226322E+01  0.72461552493E+02  0.69999976810E+02 0.  0.
        -12    1    1    2    0    0 -0.16757639127E+01  0.17917301477E+02  0.51809226322E+01  0.18726447507E+02  0.00000000000E+00 0.  1.
         11    1    3    3    0    0  0.63238248276E+01 -0.27370993705E+02  0.17581035923E+02  0.33139928806E+02  0.51100000000E-03 0. -1.
        -11    1    3    3    0    0 -0.10752893439E+02  0.84568551257E+01  0.19760270442E+01  0.13822004163E+02  0.51100000000E-03 0.  1.
        -12    1    3    3    0    0  0.61048325244E+01  0.99683710248E+00 -0.24737985600E+02  0.25499619524E+02  0.00000000000E+00 0.  1.
</event>
<event>
 7    1  0.1788006E-013  0.7246152E+02  0.7816164E-02  0.1226708E+00
        -11   -1    0    0    0    0  0.00000000000E+00  0.00000000000E+00  0.45593999997E+02  0.45594000000E+02  0.51100000000E-03 0. -1.
         11   -1    0    0    0    0 -0.00000000000E+00 -0.00000000000E+00 -0.45593999997E+02  0.45594000000E+02  0.51100000000E-03 0.  1.
    9900012    2    1    2    0    0 -0.15445495735E+02 -0.82013335233E+01  0.66974555888E+01  0.72461518178E+02  0.69999932109E+02 0.  0.
        -12    1    1    2    0    0  0.15445495735E+02  0.82013335233E+01 -0.66974555888E+01  0.18726481822E+02  0.00000000000E+00 0.  1.
         11    1    3    3    0    0  0.12897180445E+02  0.44318502323E+01 -0.50839793603E+01  0.14554222972E+02  0.51100000000E-03 0. -1.
        -11    1    3    3    0    0 -0.13305758376E+02  0.18095106210E+02  0.38224778370E+01  0.22783489894E+02  0.51100000000E-03 0.  1.
         12    1    3    3    0    0 -0.15036917805E+02 -0.30728289965E+02  0.79589571120E+01  0.35123805312E+02  0.00000000000E+00 0. -1.
</event>
<event>
 7    1  0.1788006E-013  0.7246154E+02  0.7816164E-02  0.1226708E+00
        -11   -1    0    0    0    0  0.00000000000E+00  0.00000000000E+00  0.45593999997E+02  0.45594000000E+02  0.51100000000E-03 0.  1.
         11   -1    0    0    0    0 -0.00000000000E+00 -0.00000000000E+00 -0.45593999997E+02  0.45594000000E+02  0.51100000000E-03 0. -1.
    9900012    2    1    2    0    0 -0.59584131225E+01  0.27973004410E+01 -0.17531474782E+02  0.72461543188E+02  0.69999964689E+02 0.  0.
        -12    1    1    2    0    0  0.59584131225E+01 -0.27973004410E+01  0.17531474782E+02  0.18726456812E+02  0.00000000000E+00 0.  1.
         11    1    3    3    0    0  0.76078809518E+01 -0.15171548519E+02 -0.17515592262E+02  0.24389581989E+02  0.51100000000E-03 0. -1.
        -11    1    3    3    0    0  0.11276464827E+02  0.16731672385E+02  0.83397059054E+01  0.21832503627E+02  0.51100000000E-03 0.  1.
         12    1    3    3    0    0 -0.24842758901E+02  0.12371765754E+01 -0.83555884261E+01  0.26239457572E+02  0.00000000000E+00 0. -1.
</event>
<event>
 7    1  0.1788006E-013  0.7246157E+02  0.7816164E-02  0.1226708E+00
        -11   -1    0    0    0    0  0.00000000000E+00  0.00000000000E+00  0.45593999997E+02  0.45594000000E+02  0.51100000000E-03 0. -1.
         11   -1    0    0    0    0 -0.00000000000E+00 -0.00000000000E+00 -0.45593999997E+02  0.45594000000E+02  0.51100000000E-03 0.  1.
    9900012    2    1    2    0    0  0.78069275120E+01 -0.12980938156E+02  0.11010290215E+02  0.72461565123E+02  0.69999993263E+02 0.  0.
        -12    1    1    2    0    0 -0.78069275120E+01  0.12980938156E+02 -0.11010290215E+02  0.18726434877E+02  0.00000000000E+00 0.  1.
         11    1    3    3    0    0 -0.13396750444E+01  0.48026309510E+01 -0.25795328256E+01  0.56137316587E+01  0.51100000000E-03 0. -1.
        -11    1    3    3    0    0  0.31985408653E+02 -0.41941851068E+01 -0.72637110437E+01  0.33066887574E+02  0.51100000000E-03 0.  1.
         12    1    3    3    0    0 -0.22838806097E+02 -0.13589384000E+02  0.20853534084E+02  0.33780945890E+02  0.00000000000E+00 0. -1.
</event>
<event>
 7    1  0.1788006E-013  0.7246148E+02  0.7816164E-02  0.1226708E+00
        -11   -1    0    0    0    0  0.00000000000E+00  0.00000000000E+00  0.45593999997E+02  0.45594000000E+02  0.51100000000E-03 0. -1.
         11   -1    0    0    0    0 -0.00000000000E+00 -0.00000000000E+00 -0.45593999997E+02  0.45594000000E+02  0.51100000000E-03 0.  1.
    9900012    2    1    2    0    0 -0.16472984271E+02  0.87138552807E+01 -0.18417692868E+01  0.72461478733E+02  0.69999880724E+02 0.  0.
        -12    1    1    2    0    0  0.16472984271E+02 -0.87138552807E+01  0.18417692868E+01  0.18726521267E+02  0.00000000000E+00 0.  1.
         11    1    3    3    0    0  0.16964328118E+02  0.12996134972E+02  0.10989275863E+02  0.24030233810E+02  0.51100000000E-03 0. -1.
        -11    1    3    3    0    0 -0.14228266384E+02  0.12796426543E+02  0.11513328638E+01  0.19170750225E+02  0.51100000000E-03 0.  1.
        -12    1    3    3    0    0 -0.19209046006E+02 -0.17078706235E+02 -0.13982378013E+02  0.29260494699E+02  0.00000000000E+00 0.  1.
</event>
<event>
 7    1  0.1788006E-013  0.7246161E+02  0.7816164E-02  0.1226708E+00
        -11   -1    0    0    0    0  0.00000000000E+00  0.00000000000E+00  0.45593999997E+02  0.45594000000E+02  0.51100000000E-03 0.  1.
         11   -1    0    0    0    0 -0.00000000000E+00 -0.00000000000E+00 -0.45593999997E+02  0.45594000000E+02  0.51100000000E-03 0. -1.
    9900012    2    1    2    0    0  0.16086461085E+02  0.82548513741E+01 -0.48745153377E+01  0.72461609498E+02  0.70000051070E+02 0.  0.
        -12    1    1    2    0    0 -0.16086461085E+02 -0.82548513741E+01  0.48745153377E+01  0.18726390502E+02  0.00000000000E+00 0.  1.
         11    1    3    3    0    0  0.47645568595E+01  0.48976713365E+01  0.48045995591E+01  0.83529853209E+01  0.51100000000E-03 0. -1.
        -11    1    3    3    0    0 -0.23363577882E+02  0.13737729217E+02 -0.27081383036E+01  0.27238134826E+02  0.51100000000E-03 0.  1.
         12    1    3    3    0    0  0.34685482108E+02 -0.10380549179E+02 -0.69709765932E+01  0.36870489351E+02  0.00000000000E+00 0. -1.
</event>
<event>
 7    1  0.1788006E-013  0.7246160E+02  0.7816164E-02  0.1226708E+00
        -11   -1    0    0    0    0  0.00000000000E+00  0.00000000000E+00  0.45593999997E+02  0.45594000000E+02  0.51100000000E-03 0.  1.
         11   -1    0    0    0    0 -0.00000000000E+00 -0.00000000000E+00 -0.45593999997E+02  0.45594000000E+02  0.51100000000E-03 0. -1.
    9900012    2    1    2    0    0  0.85476239137E+01 -0.41451838765E+00 -0.16656660200E+02  0.72461600745E+02  0.70000039667E+02 0.  0.
        -12    1    1    2    0    0 -0.85476239137E+01  0.41451838765E+00  0.16656660200E+02  0.18726399255E+02  0.00000000000E+00 0.  1.
         11    1    3    3    0    0 -0.46166370625E+01  0.80743929339E+01  0.11294398188E+02  0.14631219693E+02  0.51100000000E-03 0. -1.
        -11    1    3    3    0    0 -0.13513885139E+02 -0.25051624763E+01 -0.27204443576E+02  0.30479217200E+02  0.51100000000E-03 0.  1.
         12    1    3    3    0    0  0.26678146115E+02 -0.59837488452E+01 -0.74661481191E+00  0.27351163852E+02  0.00000000000E+00 0. -1.
</event>
<event>
 7    1  0.1788006E-013  0.7246157E+02  0.7816164E-02  0.1226708E+00
        -11   -1    0    0    0    0  0.00000000000E+00  0.00000000000E+00  0.45593999997E+02  0.45594000000E+02  0.51100000000E-03 0.  1.
         11   -1    0    0    0    0 -0.00000000000E+00 -0.00000000000E+00 -0.45593999997E+02  0.45594000000E+02  0.51100000000E-03 0. -1.
    9900012    2    1    2    0    0  0.10740951727E+02 -0.15326103281E+02 -0.64948712249E+00  0.72461566296E+02  0.69999994791E+02 0.  0.
        -12    1    1    2    0    0 -0.10740951727E+02  0.15326103281E+02  0.64948712249E+00  0.18726433704E+02  0.00000000000E+00 0.  1.
         11    1    3    3    0    0 -0.63463695134E+00 -0.18777627502E+01  0.14436120542E+02  0.14571559065E+02  0.51100000000E-03 0.  1.
        -11    1    3    3    0    0  0.14971465533E+02  0.18420776092E+02 -0.48792624178E+01  0.24233798176E+02  0.51100000000E-03 0. -1.
        -12    1    3    3    0    0 -0.35958768550E+01 -0.31869116623E+02 -0.10206345247E+02  0.33656209055E+02  0.00000000000E+00 0.  1.
</event>
<event>
 7    1  0.1788006E-013  0.7246157E+02  0.7816164E-02  0.1226708E+00
        -11   -1    0    0    0    0  0.00000000000E+00  0.00000000000E+00  0.45593999997E+02  0.45594000000E+02  0.51100000000E-03 0. -1.
         11   -1    0    0    0    0 -0.00000000000E+00 -0.00000000000E+00 -0.45593999997E+02  0.45594000000E+02  0.51100000000E-03 0.  1.
    9900012    2    1    2    0    0  0.24014738535E+01 -0.42452770709E+01  0.18080088842E+02  0.72461573042E+02  0.70000003580E+02 0.  0.
        -12    1    1    2    0    0 -0.24014738535E+01  0.42452770709E+01 -0.18080088842E+02  0.18726426958E+02  0.00000000000E+00 0.  1.
         11    1    3    3    0    0 -0.45878142733E+01  0.49676015281E+01  0.32696664124E+01  0.75110467618E+01  0.51100000000E-03 0. -1.
        -11    1    3    3    0    0  0.40769156887E+01  0.24154495649E+02 -0.63833472943E+01  0.25314186231E+02  0.51100000000E-03 0.  1.
         12    1    3    3    0    0  0.29123724381E+01 -0.33367374248E+02  0.21193769724E+02  0.39636340050E+02  0.00000000000E+00 0. -1.
</event>
<event>
 7    1  0.1788006E-013  0.7246112E+02  0.7816164E-02  0.1226709E+00
        -11   -1    0    0    0    0  0.00000000000E+00  0.00000000000E+00  0.45593999997E+02  0.45594000000E+02  0.51100000000E-03 0. -1.
         11   -1    0    0    0    0 -0.00000000000E+00 -0.00000000000E+00 -0.45593999997E+02  0.45594000000E+02  0.51100000000E-03 0.  1.
    9900012    2    1    2    0    0 -0.81033894099E+01  0.13041903981E+02  0.10721005383E+02  0.72461117296E+02  0.69999409884E+02 0.  0.
        -12    1    1    2    0    0  0.81033894099E+01 -0.13041903981E+02 -0.10721005383E+02  0.18726882704E+02  0.00000000000E+00 0.  1.
         11    1    3    3    0    0  0.19055978688E+02  0.42424129934E+01 -0.47434278549E+01  0.20090507705E+02  0.51100000000E-03 0. -1.
        -11    1    3    3    0    0 -0.13771735761E+02 -0.13285839117E+02  0.18189138833E+02  0.26401117375E+02  0.51100000000E-03 0.  1.
        -12    1    3    3    0    0 -0.13387632337E+02  0.22085330104E+02 -0.27247055953E+01  0.25969492217E+02  0.00000000000E+00 0.  1.
</event>
<event>
 7    1  0.1788006E-013  0.7246159E+02  0.7816164E-02  0.1226708E+00
        -11   -1    0    0    0    0  0.00000000000E+00  0.00000000000E+00  0.45593999997E+02  0.45594000000E+02  0.51100000000E-03 0.  1.
         11   -1    0    0    0    0 -0.00000000000E+00 -0.00000000000E+00 -0.45593999997E+02  0.45594000000E+02  0.51100000000E-03 0. -1.
    9900012    2    1    2    0    0 -0.73884644274E+01 -0.50063442174E+01 -0.16462855078E+02  0.72461588536E+02  0.70000023763E+02 0.  0.
        -12    1    1    2    0    0  0.73884644274E+01  0.50063442174E+01  0.16462855078E+02  0.18726411464E+02  0.00000000000E+00 0.  1.
         11    1    3    3    0    0 -0.83209736174E+01 -0.23755666574E+02 -0.22303421118E+01  0.25269442466E+02  0.51100000000E-03 0. -1.
        -11    1    3    3    0    0  0.20264914520E+02  0.69622572174E+01 -0.21701068218E+01  0.21537157425E+02  0.51100000000E-03 0.  1.
         12    1    3    3    0    0 -0.19332405330E+02  0.11787065139E+02 -0.12062406144E+02  0.25654988646E+02  0.00000000000E+00 0. -1.
</event>
<event>
 7    1  0.1788006E-013  0.7246171E+02  0.7816164E-02  0.1226708E+00
        -11   -1    0    0    0    0  0.00000000000E+00  0.00000000000E+00  0.45593999997E+02  0.45594000000E+02  0.51100000000E-03 0.  1.
         11   -1    0    0    0    0 -0.00000000000E+00 -0.00000000000E+00 -0.45593999997E+02  0.45594000000E+02  0.51100000000E-03 0. -1.
    9900012    2    1    2    0    0  0.18399977995E+02  0.31698345629E+00 -0.34661862713E+01  0.72461705225E+02  0.70000175772E+02 0.  0.
        -12    1    1    2    0    0 -0.18399977995E+02 -0.31698345629E+00  0.34661862713E+01  0.18726294775E+02  0.00000000000E+00 0.  1.
         11    1    3    3    0    0 -0.70419832996E+01 -0.60093410258E+01  0.16334522177E+01  0.94005252388E+01  0.51100000000E-03 0. -1.
        -11    1    3    3    0    0 -0.16217139726E+02  0.37168532765E+01 -0.12317457365E+02  0.20700975228E+02  0.51100000000E-03 0.  1.
         12    1    3    3    0    0  0.41659101021E+02  0.26094712056E+01  0.72178188761E+01  0.42360204758E+02  0.00000000000E+00 0. -1.
</event>
<event>
 7    1  0.1788006E-013  0.7246162E+02  0.7816164E-02  0.1226708E+00
        -11   -1    0    0    0    0  0.00000000000E+00  0.00000000000E+00  0.45593999997E+02  0.45594000000E+02  0.51100000000E-03 0. -1.
         11   -1    0    0    0    0 -0.00000000000E+00 -0.00000000000E+00 -0.45593999997E+02  0.45594000000E+02  0.51100000000E-03 0.  1.
    9900012    2    1    2    0    0 -0.17116640880E+02  0.31327084504E+01  0.69198259837E+01  0.72461621576E+02  0.70000066804E+02 0.  0.
        -12    1    1    2    0    0  0.17116640880E+02 -0.31327084504E+01 -0.69198259837E+01  0.18726378424E+02  0.00000000000E+00 0.  1.
         11    1    3    3    0    0  0.12879899819E+02  0.11998220984E+02  0.23519304302E+02  0.29376977401E+02  0.51100000000E-03 0. -1.
        -11    1    3    3    0    0  0.34048402444E+01 -0.42002665468E+01  0.19147206713E+00  0.54103454573E+01  0.51100000000E-03 0.  1.
        -12    1    3    3    0    0 -0.33401380943E+02 -0.46652459865E+01 -0.16790950386E+02  0.37674298717E+02  0.00000000000E+00 0.  1.
</event>
<event>
 7    1  0.1788006E-013  0.7246154E+02  0.7816164E-02  0.1226708E+00
        -11   -1    0    0    0    0  0.00000000000E+00  0.00000000000E+00  0.45593999997E+02  0.45594000000E+02  0.51100000000E-03 0.  1.
         11   -1    0    0    0    0 -0.00000000000E+00 -0.00000000000E+00 -0.45593999997E+02  0.45594000000E+02  0.51100000000E-03 0. -1.
    9900012    2    1    2    0    0  0.54395129742E+01 -0.28233502180E+01 -0.17695218320E+02  0.72461538529E+02  0.69999958619E+02 0.  0.
        -12    1    1    2    0    0 -0.54395129742E+01  0.28233502180E+01  0.17695218320E+02  0.18726461471E+02  0.00000000000E+00 0.  1.
         11    1    3    3    0    0 -0.11439784123E+02 -0.81907201543E+00  0.20381338224E+02  0.23386716055E+02  0.51100000000E-03 0. -1.
        -11    1    3    3    0    0 -0.49313658624E+01 -0.29938365907E+01 -0.19731974909E+02  0.20558021814E+02  0.51100000000E-03 0.  1.
        -12    1    3    3    0    0  0.21810662960E+02  0.98955838819E+00 -0.18344581635E+02  0.28516800660E+02  0.00000000000E+00 0.  1.
</event>
<event>
 7    1  0.1788006E-013  0.7246148E+02  0.7816164E-02  0.1226708E+00
        -11   -1    0    0    0    0  0.00000000000E+00  0.00000000000E+00  0.45593999997E+02  0.45594000000E+02  0.51100000000E-03 0. -1.
         11   -1    0    0    0    0 -0.00000000000E+00 -0.00000000000E+00 -0.45593999997E+02  0.45594000000E+02  0.51100000000E-03 0.  1.
    9900012    2    1    2    0    0 -0.74769657073E+01 -0.16889102672E+02  0.30879741855E+01  0.72461484312E+02  0.69999887992E+02 0.  0.
        -12    1    1    2    0    0  0.74769657073E+01  0.16889102672E+02 -0.30879741855E+01  0.18726515688E+02  0.00000000000E+00 0.  1.
         11    1    3    3    0    0  0.52496586780E+01  0.18367050478E+01  0.81118716348E+01  0.98353883172E+01  0.51100000000E-03 0. -1.
        -11    1    3    3    0    0 -0.22500950826E+02  0.11238363712E+02  0.10784138197E+02  0.27365877364E+02  0.51100000000E-03 0.  1.
        -12    1    3    3    0    0  0.97743264405E+01 -0.29964171431E+02 -0.15808035646E+02  0.35260218631E+02  0.00000000000E+00 0.  1.
</event>
<event>
 7    1  0.1788006E-013  0.7246151E+02  0.7816164E-02  0.1226708E+00
        -11   -1    0    0    0    0  0.00000000000E+00  0.00000000000E+00  0.45593999997E+02  0.45594000000E+02  0.51100000000E-03 0.  1.
         11   -1    0    0    0    0 -0.00000000000E+00 -0.00000000000E+00 -0.45593999997E+02  0.45594000000E+02  0.51100000000E-03 0. -1.
    9900012    2    1    2    0    0 -0.92291007177E+01  0.15402587898E+02 -0.53165158666E+01  0.72461511942E+02  0.69999923985E+02 0.  0.
        -12    1    1    2    0    0  0.92291007177E+01 -0.15402587898E+02  0.53165158666E+01  0.18726488058E+02  0.00000000000E+00 0.  1.
         11    1    3    3    0    0  0.21911096552E+01 -0.24644930933E+02 -0.11884336409E+02  0.27448333909E+02  0.51100000000E-03 0. -1.
        -11    1    3    3    0    0 -0.39765346655E+01  0.20886332973E+01 -0.26944534568E+01  0.52378713891E+01  0.51100000000E-03 0.  1.
        -12    1    3    3    0    0 -0.74436757073E+01  0.37958885534E+02  0.92622739993E+01  0.39775306644E+02  0.00000000000E+00 0.  1.
</event>
<event>
 7    1  0.1788006E-013  0.7246156E+02  0.7816164E-02  0.1226708E+00
        -11   -1    0    0    0    0  0.00000000000E+00  0.00000000000E+00  0.45593999997E+02  0.45594000000E+02  0.51100000000E-03 0. -1.
         11   -1    0    0    0    0 -0.00000000000E+00 -0.00000000000E+00 -0.45593999997E+02  0.45594000000E+02  0.51100000000E-03 0.  1.
    9900012    2    1    2    0    0  0.92492881088E+01 -0.34092185702E+01  0.15921920291E+02  0.72461557531E+02  0.69999983373E+02 0.  0.
        -12    1    1    2    0    0 -0.92492881088E+01  0.34092185702E+01 -0.15921920291E+02  0.18726442469E+02  0.00000000000E+00 0.  1.
         11    1    3    3    0    0  0.76514616812E+01 -0.15449936236E+02  0.34619100067E+02  0.38674636201E+02  0.51100000000E-03 0. -1.
        -11    1    3    3    0    0 -0.51271552415E+01  0.15067572665E+02 -0.26619129471E+01  0.16137076801E+02  0.51100000000E-03 0.  1.
        -12    1    3    3    0    0  0.67249816691E+01 -0.30268549998E+01 -0.16035266828E+02  0.17649844529E+02  0.00000000000E+00 0.  1.
</event>
<event>
 7    1  0.1788006E-013  0.7246157E+02  0.7816164E-02  0.1226708E+00
        -11   -1    0    0    0    0  0.00000000000E+00  0.00000000000E+00  0.45593999997E+02  0.45594000000E+02  0.51100000000E-03 0. -1.
         11   -1    0    0    0    0 -0.00000000000E+00 -0.00000000000E+00 -0.45593999997E+02  0.45594000000E+02  0.51100000000E-03 0.  1.
    9900012    2    1    2    0    0  0.15788789760E+02 -0.32699041492E+01  0.95237037736E+01  0.72461572450E+02  0.70000002808E+02 0.  0.
        -12    1    1    2    0    0 -0.15788789760E+02  0.32699041492E+01 -0.95237037736E+01  0.18726427550E+02  0.00000000000E+00 0.  1.
         11    1    3    3    0    0 -0.23012204235E+02  0.84512880871E+01  0.18198756192E+01  0.24582468583E+02  0.51100000000E-03 0. -1.
        -11    1    3    3    0    0 -0.24086117358E+01 -0.35408117077E+01 -0.20504427153E+01  0.47479546789E+01  0.51100000000E-03 0.  1.
        -12    1    3    3    0    0  0.41209605731E+02 -0.81803805287E+01  0.97542708697E+01  0.43131149188E+02  0.00000000000E+00 0.  1.
</event>
<event>
 7    1  0.1788006E-013  0.7246158E+02  0.7816164E-02  0.1226708E+00
        -11   -1    0    0    0    0  0.00000000000E+00  0.00000000000E+00  0.45593999997E+02  0.45594000000E+02  0.51100000000E-03 0.  1.
         11   -1    0    0    0    0 -0.00000000000E+00 -0.00000000000E+00 -0.45593999997E+02  0.45594000000E+02  0.51100000000E-03 0. -1.
    9900012    2    1    2    0    0 -0.15981841589E+02  0.71521796280E+01 -0.66412219870E+01  0.72461581135E+02  0.70000014122E+02 0.  0.
        -12    1    1    2    0    0  0.15981841589E+02 -0.71521796280E+01  0.66412219870E+01  0.18726418865E+02  0.00000000000E+00 0.  1.
         11    1    3    3    0    0 -0.12022965448E+02  0.41476264044E+01 -0.26912890391E+02  0.29766729287E+02  0.51100000000E-03 0. -1.
        -11    1    3    3    0    0 -0.15728038691E+02  0.52732502629E-01 -0.34028666217E+01  0.16092031671E+02  0.51100000000E-03 0.  1.
        -12    1    3    3    0    0  0.11769162550E+02  0.29518207210E+01  0.23674535026E+02  0.26602820177E+02  0.00000000000E+00 0.  1.
</event>
<event>
 7    1  0.1788006E-013  0.7246154E+02  0.7816164E-02  0.1226708E+00
        -11   -1    0    0    0    0  0.00000000000E+00  0.00000000000E+00  0.45593999997E+02  0.45594000000E+02  0.51100000000E-03 0.  1.
         11   -1    0    0    0    0 -0.00000000000E+00 -0.00000000000E+00 -0.45593999997E+02  0.45594000000E+02  0.51100000000E-03 0. -1.
    9900012    2    1    2    0    0 -0.93940784785E+01  0.16083036342E+02  0.19409841804E+01  0.72461543100E+02  0.69999964574E+02 0.  0.
        -12    1    1    2    0    0  0.93940784785E+01 -0.16083036342E+02 -0.19409841804E+01  0.18726456900E+02  0.00000000000E+00 0.  1.
         11    1    3    3    0    0 -0.28285018290E+02  0.11064176381E+02  0.53795553763E+01  0.30844738205E+02  0.51100000000E-03 0. -1.
        -11    1    3    3    0    0  0.47385132628E+01 -0.13336283708E+02  0.74665839202E+01  0.16001870102E+02  0.51100000000E-03 0.  1.
         12    1    3    3    0    0  0.14152426549E+02  0.18355143669E+02 -0.10905155116E+02  0.25614934792E+02  0.00000000000E+00 0. -1.
</event>
<event>
 7    1  0.1788006E-013  0.7246154E+02  0.7816164E-02  0.1226708E+00
        -11   -1    0    0    0    0  0.00000000000E+00  0.00000000000E+00  0.45593999997E+02  0.45594000000E+02  0.51100000000E-03 0. -1.
         11   -1    0    0    0    0 -0.00000000000E+00 -0.00000000000E+00 -0.45593999997E+02  0.45594000000E+02  0.51100000000E-03 0.  1.
    9900012    2    1    2    0    0 -0.35995726722E+01 -0.12109822675E+02  0.13823002484E+02  0.72461544748E+02  0.69999966721E+02 0.  0.
        -12    1    1    2    0    0  0.35995726722E+01  0.12109822675E+02 -0.13823002484E+02  0.18726455252E+02  0.00000000000E+00 0.  1.
         11    1    3    3    0    0 -0.12014140433E+02 -0.12172324204E+02  0.12950949948E+02  0.21453021971E+02  0.51100000000E-03 0. -1.
        -11    1    3    3    0    0 -0.19661529887E+02 -0.64747602637E+00 -0.84592226168E+01  0.21413860704E+02  0.51100000000E-03 0.  1.
        -12    1    3    3    0    0  0.28076097647E+02  0.70997755581E+00  0.93312751533E+01  0.29594662073E+02  0.00000000000E+00 0.  1.
</event>
<event>
 7    1  0.1788006E-013  0.7246159E+02  0.7816164E-02  0.1226708E+00
        -11   -1    0    0    0    0  0.00000000000E+00  0.00000000000E+00  0.45593999997E+02  0.45594000000E+02  0.51100000000E-03 0.  1.
         11   -1    0    0    0    0 -0.00000000000E+00 -0.00000000000E+00 -0.45593999997E+02  0.45594000000E+02  0.51100000000E-03 0. -1.
    9900012    2    1    2    0    0  0.14455070382E+00  0.17536744343E+02 -0.65665991175E+01  0.72461587609E+02  0.70000022556E+02 0.  0.
        -12    1    1    2    0    0 -0.14455070382E+00 -0.17536744343E+02  0.65665991175E+01  0.18726412391E+02  0.00000000000E+00 0.  1.
         11    1    3    3    0    0  0.94692163862E+01  0.24176804720E+02 -0.67938062903E+01  0.26839145843E+02  0.51100000000E-03 0. -1.
        -11    1    3    3    0    0 -0.15356366666E+02  0.83132893122E+01 -0.15315437091E+02  0.23226953953E+02  0.51100000000E-03 0.  1.
        -12    1    3    3    0    0  0.60317009834E+01 -0.14953349689E+02  0.15542644264E+02  0.22395487813E+02  0.00000000000E+00 0.  1.
</event>
<event>
 7    1  0.1788006E-013  0.7246146E+02  0.7816164E-02  0.1226708E+00
        -11   -1    0    0    0    0  0.00000000000E+00  0.00000000000E+00  0.45593999997E+02  0.45594000000E+02  0.51100000000E-03 0.  1.
         11   -1    0    0    0    0 -0.00000000000E+00 -0.00000000000E+00 -0.45593999997E+02  0.45594000000E+02  0.51100000000E-03 0. -1.
    9900012    2    1    2    0    0  0.14937591534E+02  0.81795368954E+01 -0.77876039400E+01  0.72461461617E+02  0.69999858428E+02 0.  0.
        -12    1    1    2    0    0 -0.14937591534E+02 -0.81795368954E+01  0.77876039400E+01  0.18726538383E+02  0.00000000000E+00 0.  1.
         11    1    3    3    0    0 -0.10397567260E+02  0.10941219106E+02 -0.20560377566E+02  0.25505858276E+02  0.51100000000E-03 0. -1.
        -11    1    3    3    0    0  0.15366042416E+02  0.52266932775E+01 -0.11249307628E+02  0.19747924056E+02  0.51100000000E-03 0.  1.
        -12    1    3    3    0    0  0.99691163786E+01 -0.79883754882E+01  0.24022081255E+02  0.27207679286E+02  0.00000000000E+00 0.  1.
</event>
<event>
 7    1  0.1788006E-013  0.7246157E+02  0.7816164E-02  0.1226708E+00
        -11   -1    0    0    0    0  0.00000000000E+00  0.00000000000E+00  0.45593999997E+02  0.45594000000E+02  0.51100000000E-03 0.  1.
         11   -1    0    0    0    0 -0.00000000000E+00 -0.00000000000E+00 -0.45593999997E+02  0.45594000000E+02  0.51100000000E-03 0. -1.
    9900012    2    1    2    0    0 -0.47494647081E-01  0.18139704093E+02 -0.46505853014E+01  0.72461573113E+02  0.70000003671E+02 0.  0.
        -12    1    1    2    0    0  0.47494647081E-01 -0.18139704093E+02  0.46505853014E+01  0.18726426887E+02  0.00000000000E+00 0.  1.
         11    1    3    3    0    0 -0.10439448353E+02  0.32971460749E+02 -0.20227831926E+02  0.40065752090E+02  0.51100000000E-03 0. -1.
        -11    1    3    3    0    0  0.36161044514E+01 -0.16089885449E+02  0.13001334266E+01  0.16542399232E+02  0.51100000000E-03 0.  1.
        -12    1    3    3    0    0  0.67758492548E+01  0.12581287932E+01  0.14277113198E+02  0.15853421790E+02  0.00000000000E+00 0.  1.
</event>
<event>
 7    1  0.1788006E-013  0.7246155E+02  0.7816164E-02  0.1226708E+00
        -11   -1    0    0    0    0  0.00000000000E+00  0.00000000000E+00  0.45593999997E+02  0.45594000000E+02  0.51100000000E-03 0.  1.
         11   -1    0    0    0    0 -0.00000000000E+00 -0.00000000000E+00 -0.45593999997E+02  0.45594000000E+02  0.51100000000E-03 0. -1.
    9900012    2    1    2    0    0  0.12766273676E+02  0.13666373224E+02 -0.96553557889E+00  0.72461554538E+02  0.69999979475E+02 0.  0.
        -12    1    1    2    0    0 -0.12766273676E+02 -0.13666373224E+02  0.96553557889E+00  0.18726445462E+02  0.00000000000E+00 0.  1.
         11    1    3    3    0    0  0.77988248891E+01  0.29108884475E+02 -0.16838091911E+02  0.34520575959E+02  0.51100000000E-03 0. -1.
        -11    1    3    3    0    0  0.13093301004E+02 -0.14349232440E+02 -0.71437958742E+00  0.19438244295E+02  0.51100000000E-03 0.  1.
         12    1    3    3    0    0 -0.81258522170E+01 -0.10932788106E+01  0.16586935920E+02  0.18502734285E+02  0.00000000000E+00 0. -1.
</event>
<event>
 7    1  0.1788006E-013  0.7246153E+02  0.7816164E-02  0.1226708E+00
        -11   -1    0    0    0    0  0.00000000000E+00  0.00000000000E+00  0.45593999997E+02  0.45594000000E+02  0.51100000000E-03 0.  1.
         11   -1    0    0    0    0 -0.00000000000E+00 -0.00000000000E+00 -0.45593999997E+02  0.45594000000E+02  0.51100000000E-03 0. -1.
    9900012    2    1    2    0    0 -0.59462124709E+01 -0.98986499720E+01  0.14742452697E+02  0.72461531418E+02  0.69999949356E+02 0.  0.
        -12    1    1    2    0    0  0.59462124709E+01  0.98986499720E+01 -0.14742452697E+02  0.18726468582E+02  0.00000000000E+00 0.  1.
         11    1    3    3    0    0  0.12619072557E+02 -0.27862701966E+01  0.23706461021E+02  0.27000010893E+02  0.51100000000E-03 0. -1.
        -11    1    3    3    0    0 -0.41437302599E+01 -0.44763561450E+01  0.15658669339E+02  0.16804826406E+02  0.51100000000E-03 0.  1.
        -12    1    3    3    0    0 -0.14421554768E+02 -0.26360236303E+01 -0.24622677663E+02  0.28656694119E+02  0.00000000000E+00 0.  1.
</event>
<event>
 7    1  0.1788006E-013  0.7246159E+02  0.7816164E-02  0.1226708E+00
        -11   -1    0    0    0    0  0.00000000000E+00  0.00000000000E+00  0.45593999997E+02  0.45594000000E+02  0.51100000000E-03 0. -1.
         11   -1    0    0    0    0 -0.00000000000E+00 -0.00000000000E+00 -0.45593999997E+02  0.45594000000E+02  0.51100000000E-03 0.  1.
    9900012    2    1    2    0    0  0.40669844507E+01  0.10853955725E+02 -0.14708145830E+02  0.72461594281E+02  0.70000031247E+02 0.  0.
        -12    1    1    2    0    0 -0.40669844507E+01 -0.10853955725E+02  0.14708145830E+02  0.18726405719E+02  0.00000000000E+00 0.  1.
         11    1    3    3    0    0 -0.38985887253E+01  0.73793367734E+01  0.23912449061E+02  0.25327037442E+02  0.51100000000E-03 0. -1.
        -11    1    3    3    0    0  0.13027078003E+01  0.10496125971E+02 -0.42020843476E+01  0.11380826909E+02  0.51100000000E-03 0.  1.
        -12    1    3    3    0    0  0.66628653757E+01 -0.70215070199E+01 -0.34418510543E+02  0.35753729929E+02  0.00000000000E+00 0.  1.
</event>
<event>
 7    1  0.1788006E-013  0.7246158E+02  0.7816164E-02  0.1226708E+00
        -11   -1    0    0    0    0  0.00000000000E+00  0.00000000000E+00  0.45593999997E+02  0.45594000000E+02  0.51100000000E-03 0.  1.
         11   -1    0    0    0    0 -0.00000000000E+00 -0.00000000000E+00 -0.45593999997E+02  0.45594000000E+02  0.51100000000E-03 0. -1.
    9900012    2    1    2    0    0  0.13675521393E+02  0.10985977723E+01 -0.12745670130E+02  0.72461577237E+02  0.70000009044E+02 0.  0.
        -12    1    1    2    0    0 -0.13675521393E+02 -0.10985977723E+01  0.12745670130E+02  0.18726422763E+02  0.00000000000E+00 0.  1.
         11    1    3    3    0    0 -0.11045313070E+02  0.27897265835E+02 -0.42417920966E+01  0.30302626658E+02  0.51100000000E-03 0. -1.
        -11    1    3    3    0    0  0.40662096896E+01  0.12685356583E+01  0.32762355464E+01  0.53737290192E+01  0.51100000000E-03 0.  1.
        -12    1    3    3    0    0  0.20654624774E+02 -0.28067203721E+02 -0.11780113580E+02  0.36785221560E+02  0.00000000000E+00 0.  1.
</event>
<event>
 7    1  0.1788006E-013  0.7246155E+02  0.7816164E-02  0.1226708E+00
        -11   -1    0    0    0    0  0.00000000000E+00  0.00000000000E+00  0.45593999997E+02  0.45594000000E+02  0.51100000000E-03 0. -1.
         11   -1    0    0    0    0 -0.00000000000E+00 -0.00000000000E+00 -0.45593999997E+02  0.45594000000E+02  0.51100000000E-03 0.  1.
    9900012    2    1    2    0    0 -0.18061866430E+01  0.17440955765E+02 -0.65749936272E+01  0.72461553744E+02  0.69999978440E+02 0.  0.
        -12    1    1    2    0    0  0.18061866430E+01 -0.17440955765E+02  0.65749936272E+01  0.18726446256E+02  0.00000000000E+00 0.  1.
         11    1    3    3    0    0 -0.18378886015E+01  0.19877120950E+02 -0.76781519026E+00  0.19976669197E+02  0.51100000000E-03 0. -1.
        -11    1    3    3    0    0 -0.96457055407E+01  0.15617550815E+02  0.14687302226E+02  0.23508814853E+02  0.51100000000E-03 0.  1.
        -12    1    3    3    0    0  0.96774074993E+01 -0.18053716000E+02 -0.20494480663E+02  0.28976069695E+02  0.00000000000E+00 0.  1.
</event>
<event>
 7    1  0.1788006E-013  0.7246152E+02  0.7816164E-02  0.1226708E+00
        -11   -1    0    0    0    0  0.00000000000E+00  0.00000000000E+00  0.45593999997E+02  0.45594000000E+02  0.51100000000E-03 0.  1.
         11   -1    0    0    0    0 -0.00000000000E+00 -0.00000000000E+00 -0.45593999997E+02  0.45594000000E+02  0.51100000000E-03 0. -1.
    9900012    2    1    2    0    0 -0.14435961581E+02 -0.29824742275E+01 -0.11549404274E+02  0.72461524667E+02  0.69999940562E+02 0.  0.
        -12    1    1    2    0    0  0.14435961581E+02  0.29824742275E+01  0.11549404274E+02  0.18726475333E+02  0.00000000000E+00 0.  1.
         11    1    3    3    0    0 -0.24555703953E+02 -0.73590123644E+01 -0.10141801668E+02  0.27567985072E+02  0.51100000000E-03 0. -1.
        -11    1    3    3    0    0 -0.16287389640E+02  0.76111560702E+01 -0.30652533307E+01  0.18237448732E+02  0.51100000000E-03 0.  1.
        -12    1    3    3    0    0  0.26407132011E+02 -0.32346179333E+01  0.16576507244E+01  0.26656090864E+02  0.00000000000E+00 0.  1.
</event>
<event>
 7    1  0.1788006E-013  0.7246154E+02  0.7816164E-02  0.1226708E+00
        -11   -1    0    0    0    0  0.00000000000E+00  0.00000000000E+00  0.45593999997E+02  0.45594000000E+02  0.51100000000E-03 0. -1.
         11   -1    0    0    0    0 -0.00000000000E+00 -0.00000000000E+00 -0.45593999997E+02  0.45594000000E+02  0.51100000000E-03 0.  1.
    9900012    2    1    2    0    0  0.75888655205E+00 -0.13122967873E+02  0.13337615528E+02  0.72461543246E+02  0.69999964764E+02 0.  0.
        -12    1    1    2    0    0 -0.75888655205E+00  0.13122967873E+02 -0.13337615528E+02  0.18726456754E+02  0.00000000000E+00 0.  1.
         11    1    3    3    0    0  0.37577836547E+01  0.11342665843E+02  0.90128298556E+01  0.14966900437E+02  0.51100000000E-03 0. -1.
        -11    1    3    3    0    0  0.13219289510E+02  0.82143467532E+01 -0.97784977450E+01  0.18380536612E+02  0.51100000000E-03 0.  1.
         12    1    3    3    0    0 -0.16218186612E+02 -0.32679980469E+02  0.14103283417E+02  0.39114106197E+02  0.00000000000E+00 0. -1.
</event>
<event>
 7    1  0.1788006E-013  0.7246153E+02  0.7816164E-02  0.1226708E+00
        -11   -1    0    0    0    0  0.00000000000E+00  0.00000000000E+00  0.45593999997E+02  0.45594000000E+02  0.51100000000E-03 0.  1.
         11   -1    0    0    0    0 -0.00000000000E+00 -0.00000000000E+00 -0.45593999997E+02  0.45594000000E+02  0.51100000000E-03 0. -1.
    9900012    2    1    2    0    0  0.12548847503E+02  0.10507421991E+01 -0.13860124038E+02  0.72461530200E+02  0.69999947769E+02 0.  0.
        -12    1    1    2    0    0 -0.12548847503E+02 -0.10507421991E+01  0.13860124038E+02  0.18726469800E+02  0.00000000000E+00 0.  1.
         11    1    3    3    0    0 -0.49282746855E+01 -0.97715788701E+00  0.22093272816E+01  0.54885204027E+01  0.51100000000E-03 0. -1.
        -11    1    3    3    0    0  0.27939761250E+02 -0.20715705225E+02  0.38312573890E+01  0.34992131045E+02  0.51100000000E-03 0.  1.
         12    1    3    3    0    0 -0.10462639061E+02  0.22743605311E+02 -0.19900708708E+02  0.31980878752E+02  0.00000000000E+00 0. -1.
</event>
<event>
 7    1  0.1788006E-013  0.7246158E+02  0.7816164E-02  0.1226708E+00
        -11   -1    0    0    0    0  0.00000000000E+00  0.00000000000E+00  0.45593999997E+02  0.45594000000E+02  0.51100000000E-03 0. -1.
         11   -1    0    0    0    0 -0.00000000000E+00 -0.00000000000E+00 -0.45593999997E+02  0.45594000000E+02  0.51100000000E-03 0.  1.
    9900012    2    1    2    0    0 -0.52017793991E+01 -0.17625730698E+02  0.35991752327E+01  0.72461576051E+02  0.70000007499E+02 0.  0.
        -12    1    1    2    0    0  0.52017793991E+01  0.17625730698E+02 -0.35991752327E+01  0.18726423949E+02  0.00000000000E+00 0.  1.
         11    1    3    3    0    0  0.53897787350E+01 -0.10984066918E+01  0.13919081945E+02  0.14966531145E+02  0.51100000000E-03 0. -1.
        -11    1    3    3    0    0 -0.28277551186E+01  0.19496460037E+02 -0.30826011123E+01  0.19940175096E+02  0.51100000000E-03 0.  1.
        -12    1    3    3    0    0 -0.77638030154E+01 -0.36023784043E+02 -0.72373056002E+01  0.37554869810E+02  0.00000000000E+00 0.  1.
</event>
<event>
 7    1  0.1788006E-013  0.7246149E+02  0.7816164E-02  0.1226708E+00
        -11   -1    0    0    0    0  0.00000000000E+00  0.00000000000E+00  0.45593999997E+02  0.45594000000E+02  0.51100000000E-03 0.  1.
         11   -1    0    0    0    0 -0.00000000000E+00 -0.00000000000E+00 -0.45593999997E+02  0.45594000000E+02  0.51100000000E-03 0. -1.
    9900012    2    1    2    0    0 -0.38752927028E+01  0.17864402383E+02  0.40654129412E+01  0.72461485418E+02  0.69999889432E+02 0.  0.
        -12    1    1    2    0    0  0.38752927028E+01 -0.17864402383E+02 -0.40654129412E+01  0.18726514582E+02  0.00000000000E+00 0.  1.
         11    1    3    3    0    0  0.13255067408E+02  0.91735431966E+01 -0.23736136907E+02  0.28692418899E+02  0.51100000000E-03 0. -1.
        -11    1    3    3    0    0  0.75117802323E+01  0.40888084827E+01  0.91400634873E+01  0.12517426168E+02  0.51100000000E-03 0.  1.
        -12    1    3    3    0    0 -0.24642140343E+02  0.46020507035E+01  0.18661486361E+02  0.31251640350E+02  0.00000000000E+00 0.  1.
</event>
<event>
 7    1  0.1788006E-013  0.7246158E+02  0.7816164E-02  0.1226708E+00
        -11   -1    0    0    0    0  0.00000000000E+00  0.00000000000E+00  0.45593999997E+02  0.45594000000E+02  0.51100000000E-03 0. -1.
         11   -1    0    0    0    0 -0.00000000000E+00 -0.00000000000E+00 -0.45593999997E+02  0.45594000000E+02  0.51100000000E-03 0.  1.
    9900012    2    1    2    0    0 -0.17002459044E+01 -0.52186436517E+01  0.17904009677E+02  0.72461584427E+02  0.70000018410E+02 0.  0.
        -12    1    1    2    0    0  0.17002459044E+01  0.52186436517E+01 -0.17904009677E+02  0.18726415573E+02  0.00000000000E+00 0.  1.
         11    1    3    3    0    0  0.67579274390E+01  0.39464262478E+01  0.35469095521E+02  0.36322177808E+02  0.51100000000E-03 0. -1.
        -11    1    3    3    0    0 -0.95587506797E+01 -0.21643306944E+01  0.60272249962E+01  0.11505715246E+02  0.51100000000E-03 0.  1.
        -12    1    3    3    0    0  0.11005773363E+01 -0.70007392051E+01 -0.23592310840E+02  0.24633691373E+02  0.00000000000E+00 0.  1.
</event>
<event>
 7    1  0.1788006E-013  0.7246125E+02  0.7816164E-02  0.1226709E+00
        -11   -1    0    0    0    0  0.00000000000E+00  0.00000000000E+00  0.45593999997E+02  0.45594000000E+02  0.51100000000E-03 0. -1.
         11   -1    0    0    0    0 -0.00000000000E+00 -0.00000000000E+00 -0.45593999997E+02  0.45594000000E+02  0.51100000000E-03 0.  1.
    9900012    2    1    2    0    0 -0.73754277648E+01  0.14069200907E+02  0.99172493183E+01  0.72461249536E+02  0.69999582152E+02 0.  0.
        -12    1    1    2    0    0  0.73754277648E+01 -0.14069200907E+02 -0.99172493183E+01  0.18726750464E+02  0.00000000000E+00 0.  1.
         11    1    3    3    0    0  0.50954980736E+00 -0.44611395606E+01 -0.83945430300E+01  0.95199663933E+01  0.51100000000E-03 0. -1.
        -11    1    3    3    0    0 -0.46902657804E+01 -0.20410870224E+02  0.88754850787E+01  0.22745910667E+02  0.51100000000E-03 0.  1.
         12    1    3    3    0    0 -0.31947117917E+01  0.38941210693E+02  0.94363072696E+01  0.40195372476E+02  0.00000000000E+00 0. -1.
</event>
<event>
 7    1  0.1788006E-013  0.7246134E+02  0.7816164E-02  0.1226709E+00
        -11   -1    0    0    0    0  0.00000000000E+00  0.00000000000E+00  0.45593999997E+02  0.45594000000E+02  0.51100000000E-03 0.  1.
         11   -1    0    0    0    0 -0.00000000000E+00 -0.00000000000E+00 -0.45593999997E+02  0.45594000000E+02  0.51100000000E-03 0. -1.
    9900012    2    1    2    0    0  0.72737767642E+01  0.11318478996E+02 -0.13025819523E+02  0.72461340676E+02  0.69999700878E+02 0.  0.
        -12    1    1    2    0    0 -0.72737767642E+01 -0.11318478996E+02  0.13025819523E+02  0.18726659324E+02  0.00000000000E+00 0.  1.
         11    1    3    3    0    0  0.67888577269E+01  0.11203836481E+02  0.12458535452E+01  0.13159281608E+02  0.51100000000E-03 0. -1.
        -11    1    3    3    0    0  0.28359115355E+02 -0.35554054380E+01 -0.20769524180E+01  0.28656483790E+02  0.51100000000E-03 0.  1.
         12    1    3    3    0    0 -0.27874196318E+02  0.36700479532E+01 -0.12194720650E+02  0.30645575278E+02  0.00000000000E+00 0. -1.
</event>
<event>
 7    1  0.1788006E-013  0.7246158E+02  0.7816164E-02  0.1226708E+00
        -11   -1    0    0    0    0  0.00000000000E+00  0.00000000000E+00  0.45593999997E+02  0.45594000000E+02  0.51100000000E-03 0.  1.
         11   -1    0    0    0    0 -0.00000000000E+00 -0.00000000000E+00 -0.45593999997E+02  0.45594000000E+02  0.51100000000E-03 0. -1.
    9900012    2    1    2    0    0  0.12899649161E+02 -0.79619623994E+01 -0.10994776489E+02  0.72461577390E+02  0.70000009244E+02 0.  0.
        -12    1    1    2    0    0 -0.12899649161E+02  0.79619623994E+01  0.10994776489E+02  0.18726422610E+02  0.00000000000E+00 0.  1.
         11    1    3    3    0    0  0.81655412571E+01 -0.26226666506E+02 -0.20962629979E+02  0.34553523061E+02  0.51100000000E-03 0. -1.
        -11    1    3    3    0    0  0.10477613617E+02 -0.67973535059E+00 -0.63353343836E+01  0.12262907048E+02  0.51100000000E-03 0.  1.
        -12    1    3    3    0    0 -0.57435057136E+01  0.18944439457E+02  0.16303187874E+02  0.25645147281E+02  0.00000000000E+00 0.  1.
</event>
<event>
 7    1  0.1788006E-013  0.7246157E+02  0.7816164E-02  0.1226708E+00
        -11   -1    0    0    0    0  0.00000000000E+00  0.00000000000E+00  0.45593999997E+02  0.45594000000E+02  0.51100000000E-03 0. -1.
         11   -1    0    0    0    0 -0.00000000000E+00 -0.00000000000E+00 -0.45593999997E+02  0.45594000000E+02  0.51100000000E-03 0.  1.
    9900012    2    1    2    0    0 -0.16356034657E+02 -0.44023973200E+01  0.79861205489E+01  0.72461572329E+02  0.70000002651E+02 0.  0.
        -12    1    1    2    0    0  0.16356034657E+02  0.44023973200E+01 -0.79861205489E+01  0.18726427671E+02  0.00000000000E+00 0.  1.
         11    1    3    3    0    0  0.12733470598E+01  0.53608158410E+01  0.38357496868E+01  0.67136231006E+01  0.51100000000E-03 0. -1.
        -11    1    3    3    0    0 -0.36038499881E+02  0.93095750688E+01 -0.53186682461E+01  0.37599599649E+02  0.51100000000E-03 0.  1.
         12    1    3    3    0    0  0.18409118163E+02 -0.19072788230E+02  0.94690391082E+01  0.28148349580E+02  0.00000000000E+00 0. -1.
</event>
<event>
 7    1  0.1788006E-013  0.7246164E+02  0.7816164E-02  0.1226708E+00
        -11   -1    0    0    0    0  0.00000000000E+00  0.00000000000E+00  0.45593999997E+02  0.45594000000E+02  0.51100000000E-03 0.  1.
         11   -1    0    0    0    0 -0.00000000000E+00 -0.00000000000E+00 -0.45593999997E+02  0.45594000000E+02  0.51100000000E-03 0. -1.
    9900012    2    1    2    0    0  0.27160177129E+00 -0.12810153312E+02 -0.13656607369E+02  0.72461635691E+02  0.70000085191E+02 0.  0.
        -12    1    1    2    0    0 -0.27160177129E+00  0.12810153312E+02  0.13656607369E+02  0.18726364309E+02  0.00000000000E+00 0.  1.
         11    1    3    3    0    0  0.20474690438E+01  0.14096164152E+02 -0.48172645803E+01  0.15036622346E+02  0.51100000000E-03 0. -1.
        -11    1    3    3    0    0  0.12499715598E+02  0.63575754399E+01  0.94090154468E+01  0.16887605734E+02  0.51100000000E-03 0.  1.
         12    1    3    3    0    0 -0.14275582870E+02 -0.33263892905E+02 -0.18248358236E+02  0.40537407610E+02  0.00000000000E+00 0. -1.
</event>
<event>
 7    1  0.1788006E-013  0.7246158E+02  0.7816164E-02  0.1226708E+00
        -11   -1    0    0    0    0  0.00000000000E+00  0.00000000000E+00  0.45593999997E+02  0.45594000000E+02  0.51100000000E-03 0.  1.
         11   -1    0    0    0    0 -0.00000000000E+00 -0.00000000000E+00 -0.45593999997E+02  0.45594000000E+02  0.51100000000E-03 0. -1.
    9900012    2    1    2    0    0 -0.44276183405E+01 -0.72623770798E+01 -0.16683313050E+02  0.72461578576E+02  0.70000010788E+02 0.  0.
        -12    1    1    2    0    0  0.44276183405E+01  0.72623770798E+01  0.16683313050E+02  0.18726421424E+02  0.00000000000E+00 0.  1.
         11    1    3    3    0    0 -0.28871792714E+01 -0.41043412992E+01 -0.46056092533E+01  0.68112450037E+01  0.51100000000E-03 0. -1.
        -11    1    3    3    0    0 -0.26630297722E+02 -0.13442048651E+02  0.91625908481E+01  0.31206001026E+02  0.51100000000E-03 0.  1.
         12    1    3    3    0    0  0.25089858653E+02  0.10284012871E+02 -0.21240294645E+02  0.34444332546E+02  0.00000000000E+00 0. -1.
</event>
<event>
 7    1  0.1788006E-013  0.7246158E+02  0.7816164E-02  0.1226708E+00
        -11   -1    0    0    0    0  0.00000000000E+00  0.00000000000E+00  0.45593999997E+02  0.45594000000E+02  0.51100000000E-03 0. -1.
         11   -1    0    0    0    0 -0.00000000000E+00 -0.00000000000E+00 -0.45593999997E+02  0.45594000000E+02  0.51100000000E-03 0.  1.
    9900012    2    1    2    0    0  0.14356537882E+02 -0.44223199251E+01  0.11180864549E+02  0.72461579479E+02  0.70000011965E+02 0.  0.
        -12    1    1    2    0    0 -0.14356537882E+02  0.44223199251E+01 -0.11180864549E+02  0.18726420521E+02  0.00000000000E+00 0.  1.
         11    1    3    3    0    0  0.25442474858E+02  0.50284978793E+01  0.18062895810E+02  0.31604960420E+02  0.51100000000E-03 0. -1.
        -11    1    3    3    0    0 -0.71926716389E+01  0.10158330161E+02  0.89702573961E+01  0.15342480731E+02  0.51100000000E-03 0.  1.
        -12    1    3    3    0    0 -0.38932653369E+01 -0.19609147966E+02 -0.15852288658E+02  0.25514138328E+02  0.00000000000E+00 0.  1.
</event>
<event>
 7    1  0.1788006E-013  0.7246154E+02  0.7816164E-02  0.1226708E+00
        -11   -1    0    0    0    0  0.00000000000E+00  0.00000000000E+00  0.45593999997E+02  0.45594000000E+02  0.51100000000E-03 0. -1.
         11   -1    0    0    0    0 -0.00000000000E+00 -0.00000000000E+00 -0.45593999997E+02  0.45594000000E+02  0.51100000000E-03 0.  1.
    9900012    2    1    2    0    0 -0.17320749564E+02 -0.65566807636E+01 -0.27716162908E+01  0.72461540512E+02  0.69999961203E+02 0.  0.
        -12    1    1    2    0    0  0.17320749564E+02  0.65566807636E+01  0.27716162908E+01  0.18726459488E+02  0.00000000000E+00 0.  1.
         11    1    3    3    0    0  0.23346253022E+01 -0.10338737026E+02 -0.31089072612E+01  0.11045599269E+02  0.51100000000E-03 0. -1.
        -11    1    3    3    0    0 -0.17989740004E+02  0.97431936011E+01 -0.26723858322E+02  0.33655982690E+02  0.51100000000E-03 0.  1.
         12    1    3    3    0    0 -0.16656348622E+01 -0.59611373384E+01  0.27061149292E+02  0.27759958553E+02  0.00000000000E+00 0. -1.
</event>
<event>
 7    1  0.1788006E-013  0.7246157E+02  0.7816164E-02  0.1226708E+00
        -11   -1    0    0    0    0  0.00000000000E+00  0.00000000000E+00  0.45593999997E+02  0.45594000000E+02  0.51100000000E-03 0.  1.
         11   -1    0    0    0    0 -0.00000000000E+00 -0.00000000000E+00 -0.45593999997E+02  0.45594000000E+02  0.51100000000E-03 0. -1.
    9900012    2    1    2    0    0  0.12750198302E+02 -0.11290886491E+02 -0.77863693275E+01  0.72461568899E+02  0.69999998182E+02 0.  0.
        -12    1    1    2    0    0 -0.12750198302E+02  0.11290886491E+02  0.77863693275E+01  0.18726431101E+02  0.00000000000E+00 0.  1.
         11    1    3    3    0    0  0.13695010693E+02 -0.42940758797E+01  0.81320525199E+01  0.16496141488E+02  0.51100000000E-03 0. -1.
        -11    1    3    3    0    0  0.83696709494E+01 -0.24835410410E+02 -0.22759043203E+02  0.34710561070E+02  0.51100000000E-03 0.  1.
         12    1    3    3    0    0 -0.93144833400E+01  0.17838599799E+02  0.68406213551E+01  0.21254866341E+02  0.00000000000E+00 0. -1.
</event>
<event>
 7    1  0.1788006E-013  0.7246157E+02  0.7816164E-02  0.1226708E+00
        -11   -1    0    0    0    0  0.00000000000E+00  0.00000000000E+00  0.45593999997E+02  0.45594000000E+02  0.51100000000E-03 0.  1.
         11   -1    0    0    0    0 -0.00000000000E+00 -0.00000000000E+00 -0.45593999997E+02  0.45594000000E+02  0.51100000000E-03 0. -1.
    9900012    2    1    2    0    0  0.67249500208E+01 -0.16651504020E+02  0.53086388408E+01  0.72461569874E+02  0.69999999453E+02 0.  0.
        -12    1    1    2    0    0 -0.67249500208E+01  0.16651504020E+02 -0.53086388408E+01  0.18726430126E+02  0.00000000000E+00 0.  1.
         11    1    3    3    0    0 -0.18196492797E+02  0.74728500747E+01  0.10700227304E+02  0.22393094985E+02  0.51100000000E-03 0. -1.
        -11    1    3    3    0    0 -0.45934794092E+00 -0.69529118629E+01  0.12697610875E+02  0.14483898166E+02  0.51100000000E-03 0.  1.
        -12    1    3    3    0    0  0.25380790759E+02 -0.17171442232E+02 -0.18089199338E+02  0.35584576723E+02  0.00000000000E+00 0.  1.
</event>
<event>
 7    1  0.1788006E-013  0.7246157E+02  0.7816164E-02  0.1226708E+00
        -11   -1    0    0    0    0  0.00000000000E+00  0.00000000000E+00  0.45593999997E+02  0.45594000000E+02  0.51100000000E-03 0. -1.
         11   -1    0    0    0    0 -0.00000000000E+00 -0.00000000000E+00 -0.45593999997E+02  0.45594000000E+02  0.51100000000E-03 0.  1.
    9900012    2    1    2    0    0 -0.10569928667E+02  0.13970477867E+02  0.66167644050E+01  0.72461569078E+02  0.69999998416E+02 0.  0.
        -12    1    1    2    0    0  0.10569928667E+02 -0.13970477867E+02 -0.66167644050E+01  0.18726430922E+02  0.00000000000E+00 0.  1.
         11    1    3    3    0    0 -0.15912435178E+02  0.22498374410E+02  0.14388028516E+02  0.31086939528E+02  0.51100000000E-03 0. -1.
        -11    1    3    3    0    0 -0.27998413165E+01  0.66439293222E+01  0.12712828390E+02  0.14614955154E+02  0.51100000000E-03 0.  1.
        -12    1    3    3    0    0  0.81423478273E+01 -0.15171825865E+02 -0.20484092500E+02  0.26759674396E+02  0.00000000000E+00 0.  1.
</event>
<event>
 7    1  0.1788006E-013  0.7246154E+02  0.7816164E-02  0.1226708E+00
        -11   -1    0    0    0    0  0.00000000000E+00  0.00000000000E+00  0.45593999997E+02  0.45594000000E+02  0.51100000000E-03 0.  1.
         11   -1    0    0    0    0 -0.00000000000E+00 -0.00000000000E+00 -0.45593999997E+02  0.45594000000E+02  0.51100000000E-03 0. -1.
    9900012    2    1    2    0    0 -0.18374101014E+02  0.52344618921E+00  0.35775239877E+01  0.72461541129E+02  0.69999962006E+02 0.  0.
        -12    1    1    2    0    0  0.18374101014E+02 -0.52344618921E+00 -0.35775239877E+01  0.18726458871E+02  0.00000000000E+00 0.  1.
         11    1    3    3    0    0  0.43267004367E+01  0.98185575996E+01  0.84242017996E+01  0.13641538998E+02  0.51100000000E-03 0.  1.
        -11    1    3    3    0    0  0.14046806123E+02  0.97848917376E+01 -0.29471551608E+01  0.17370739546E+02  0.51100000000E-03 0. -1.
         12    1    3    3    0    0 -0.36747607574E+02 -0.19080003148E+02 -0.18995226511E+01  0.41449262585E+02  0.00000000000E+00 0. -1.
</event>
<event>
 7    1  0.1788006E-013  0.7246169E+02  0.7816164E-02  0.1226708E+00
        -11   -1    0    0    0    0  0.00000000000E+00  0.00000000000E+00  0.45593999997E+02  0.45594000000E+02  0.51100000000E-03 0.  1.
         11   -1    0    0    0    0 -0.00000000000E+00 -0.00000000000E+00 -0.45593999997E+02  0.45594000000E+02  0.51100000000E-03 0. -1.
    9900012    2    1    2    0    0 -0.12291546989E+02  0.13889328328E+02 -0.25844296936E+01  0.72461685744E+02  0.70000150394E+02 0.  0.
        -12    1    1    2    0    0  0.12291546989E+02 -0.13889328328E+02  0.25844296936E+01  0.18726314256E+02  0.00000000000E+00 0.  1.
         11    1    3    3    0    0 -0.61662637179E+01 -0.10030074576E+02 -0.27735179389E+02  0.30130804507E+02  0.51100000000E-03 0. -1.
        -11    1    3    3    0    0 -0.32110057378E+01  0.10848544002E+02 -0.25189519533E+01  0.11590797385E+02  0.51100000000E-03 0.  1.
        -12    1    3    3    0    0 -0.29142775336E+01  0.13070858902E+02  0.27669701648E+02  0.30740083853E+02  0.00000000000E+00 0.  1.
</event>
<event>
 7    1  0.1788006E-013  0.7246159E+02  0.7816164E-02  0.1226708E+00
        -11   -1    0    0    0    0  0.00000000000E+00  0.00000000000E+00  0.45593999997E+02  0.45594000000E+02  0.51100000000E-03 0.  1.
         11   -1    0    0    0    0 -0.00000000000E+00 -0.00000000000E+00 -0.45593999997E+02  0.45594000000E+02  0.51100000000E-03 0. -1.
    9900012    2    1    2    0    0  0.93489487685E+00 -0.16660104045E+02  0.84997261918E+01  0.72461589758E+02  0.70000025355E+02 0.  0.
        -12    1    1    2    0    0 -0.93489487685E+00  0.16660104045E+02 -0.84997261918E+01  0.18726410242E+02  0.00000000000E+00 0.  1.
         11    1    3    3    0    0  0.97845808527E+01 -0.31994786181E+01 -0.14307826648E+02  0.17626360643E+02  0.51100000000E-03 0. -1.
        -11    1    3    3    0    0  0.65372571787E+01 -0.19343640516E+02  0.30460669424E+02  0.36671031372E+02  0.51100000000E-03 0.  1.
         12    1    3    3    0    0 -0.15386943155E+02  0.58830150895E+01 -0.76531165849E+01  0.18164197743E+02  0.00000000000E+00 0. -1.
</event>
<event>
 7    1  0.1788006E-013  0.7246157E+02  0.7816164E-02  0.1226708E+00
        -11   -1    0    0    0    0  0.00000000000E+00  0.00000000000E+00  0.45593999997E+02  0.45594000000E+02  0.51100000000E-03 0.  1.
         11   -1    0    0    0    0 -0.00000000000E+00 -0.00000000000E+00 -0.45593999997E+02  0.45594000000E+02  0.51100000000E-03 0. -1.
    9900012    2    1    2    0    0  0.10929179467E+02  0.98600683035E+01 -0.11576319399E+02  0.72461572642E+02  0.70000003058E+02 0.  0.
        -12    1    1    2    0    0 -0.10929179467E+02 -0.98600683035E+01  0.11576319399E+02  0.18726427358E+02  0.00000000000E+00 0.  1.
         11    1    3    3    0    0 -0.94704344881E+00  0.25472393411E+02 -0.22874304321E+02  0.34248700936E+02  0.51100000000E-03 0. -1.
        -11    1    3    3    0    0  0.66782787636E+01  0.75225012218E+01  0.10422667942E+02  0.14485145466E+02  0.51100000000E-03 0.  1.
         12    1    3    3    0    0  0.51979441520E+01 -0.23134826329E+02  0.87531697900E+00  0.23727726240E+02  0.00000000000E+00 0. -1.
</event>
<event>
 7    1  0.1788006E-013  0.7246156E+02  0.7816164E-02  0.1226708E+00
        -11   -1    0    0    0    0  0.00000000000E+00  0.00000000000E+00  0.45593999997E+02  0.45594000000E+02  0.51100000000E-03 0.  1.
         11   -1    0    0    0    0 -0.00000000000E+00 -0.00000000000E+00 -0.45593999997E+02  0.45594000000E+02  0.51100000000E-03 0. -1.
    9900012    2    1    2    0    0 -0.49857605785E+01 -0.10502943775E+02 -0.14680259765E+02  0.72461557112E+02  0.69999982827E+02 0.  0.
        -12    1    1    2    0    0  0.49857605785E+01  0.10502943775E+02  0.14680259765E+02  0.18726442888E+02  0.00000000000E+00 0.  1.
         11    1    3    3    0    0 -0.10359327180E+02  0.15111548422E+02 -0.10338037589E+02  0.21036862332E+02  0.51100000000E-03 0. -1.
        -11    1    3    3    0    0  0.91073828899E+01 -0.78299518868E+01 -0.22644886737E+02  0.25632859092E+02  0.51100000000E-03 0.  1.
        -12    1    3    3    0    0 -0.37338162888E+01 -0.17784540310E+02  0.18302664561E+02  0.25791835687E+02  0.00000000000E+00 0.  1.
</event>
<event>
 7    1  0.1788006E-013  0.7246159E+02  0.7816164E-02  0.1226708E+00
        -11   -1    0    0    0    0  0.00000000000E+00  0.00000000000E+00  0.45593999997E+02  0.45594000000E+02  0.51100000000E-03 0.  1.
         11   -1    0    0    0    0 -0.00000000000E+00 -0.00000000000E+00 -0.45593999997E+02  0.45594000000E+02  0.51100000000E-03 0. -1.
    9900012    2    1    2    0    0  0.67306092560E+01  0.12183345549E+02  0.12527700168E+02  0.72461594012E+02  0.70000030897E+02 0.  0.
        -12    1    1    2    0    0 -0.67306092560E+01 -0.12183345549E+02 -0.12527700168E+02  0.18726405988E+02  0.00000000000E+00 0.  1.
         11    1    3    3    0    0  0.14435721783E+02 -0.70991767768E+01  0.98344452688E+00  0.16116933260E+02  0.51100000000E-03 0. -1.
        -11    1    3    3    0    0  0.39205865486E+01  0.32319048105E+02  0.18613096678E+02  0.37501189814E+02  0.51100000000E-03 0.  1.
         12    1    3    3    0    0 -0.11625699075E+02 -0.13036525779E+02 -0.70688410366E+01  0.18843470938E+02  0.00000000000E+00 0. -1.
</event>
<event>
 7    1  0.1788006E-013  0.7246155E+02  0.7816164E-02  0.1226708E+00
        -11   -1    0    0    0    0  0.00000000000E+00  0.00000000000E+00  0.45593999997E+02  0.45594000000E+02  0.51100000000E-03 0.  1.
         11   -1    0    0    0    0 -0.00000000000E+00 -0.00000000000E+00 -0.45593999997E+02  0.45594000000E+02  0.51100000000E-03 0. -1.
    9900012    2    1    2    0    0  0.41117991729E+01 -0.15081986945E+02 -0.10310516274E+02  0.72461548962E+02  0.69999972211E+02 0.  0.
        -12    1    1    2    0    0 -0.41117991729E+01  0.15081986945E+02  0.10310516274E+02  0.18726451038E+02  0.00000000000E+00 0.  1.
         11    1    3    3    0    0  0.13835539061E+01  0.14568426452E+01 -0.74920522862E+01  0.77567686329E+01  0.51100000000E-03 0. -1.
        -11    1    3    3    0    0  0.60329532723E+01  0.23262599237E+02  0.34463509060E+01  0.24278022639E+02  0.51100000000E-03 0.  1.
        -12    1    3    3    0    0 -0.33047080056E+01 -0.39801428827E+02 -0.62648148933E+01  0.40426757690E+02  0.00000000000E+00 0.  1.
</event>
<event>
 7    1  0.1788006E-013  0.7246155E+02  0.7816164E-02  0.1226708E+00
        -11   -1    0    0    0    0  0.00000000000E+00  0.00000000000E+00  0.45593999997E+02  0.45594000000E+02  0.51100000000E-03 0. -1.
         11   -1    0    0    0    0 -0.00000000000E+00 -0.00000000000E+00 -0.45593999997E+02  0.45594000000E+02  0.51100000000E-03 0.  1.
    9900012    2    1    2    0    0  0.97270950408E+01  0.71588847892E+01  0.14311327557E+02  0.72461545296E+02  0.69999967435E+02 0.  0.
        -12    1    1    2    0    0 -0.97270950408E+01 -0.71588847892E+01 -0.14311327557E+02  0.18726454704E+02  0.00000000000E+00 0.  1.
         11    1    3    3    0    0 -0.21874614185E+02 -0.16650269502E+01 -0.11509153689E+02  0.24773608526E+02  0.51100000000E-03 0. -1.
        -11    1    3    3    0    0  0.81846752012E+01 -0.71842095135E+01  0.11761740327E+02  0.16029357762E+02  0.51100000000E-03 0.  1.
        -12    1    3    3    0    0  0.23417034025E+02  0.16008121253E+02  0.14058740919E+02  0.31658579008E+02  0.00000000000E+00 0.  1.
</event>
<event>
 7    1  0.1788006E-013  0.7246218E+02  0.7816164E-02  0.1226706E+00
        -11   -1    0    0    0    0  0.00000000000E+00  0.00000000000E+00  0.45593999997E+02  0.45594000000E+02  0.51100000000E-03 0.  1.
         11   -1    0    0    0    0 -0.00000000000E+00 -0.00000000000E+00 -0.45593999997E+02  0.45594000000E+02  0.51100000000E-03 0. -1.
    9900012    2    1    2    0    0  0.42141606156E+01 -0.18194430422E+02  0.13637346293E+01  0.72462183056E+02  0.70000798232E+02 0.  0.
        -12    1    1    2    0    0 -0.42141606156E+01  0.18194430422E+02 -0.13637346293E+01  0.18725816944E+02  0.00000000000E+00 0.  1.
         11    1    3    3    0    0 -0.18831390456E+01 -0.12440454329E+02 -0.19941073981E+02  0.23578752052E+02  0.51100000000E-03 0. -1.
        -11    1    3    3    0    0 -0.16516563281E+02 -0.42799945391E+01 -0.99318370580E+00  0.17090980955E+02  0.51100000000E-03 0.  1.
        -12    1    3    3    0    0  0.22613862942E+02 -0.14739815540E+01  0.22297992316E+02  0.31792450049E+02  0.00000000000E+00 0.  1.
</event>
<event>
 7    1  0.1788006E-013  0.7246161E+02  0.7816164E-02  0.1226708E+00
        -11   -1    0    0    0    0  0.00000000000E+00  0.00000000000E+00  0.45593999997E+02  0.45594000000E+02  0.51100000000E-03 0.  1.
         11   -1    0    0    0    0 -0.00000000000E+00 -0.00000000000E+00 -0.45593999997E+02  0.45594000000E+02  0.51100000000E-03 0. -1.
    9900012    2    1    2    0    0  0.13615526977E+02 -0.63756956886E+01 -0.11164479499E+02  0.72461610256E+02  0.70000052057E+02 0.  0.
        -12    1    1    2    0    0 -0.13615526977E+02  0.63756956886E+01  0.11164479499E+02  0.18726389744E+02  0.00000000000E+00 0.  1.
         11    1    3    3    0    0 -0.16233259002E+01 -0.82245054095E+01 -0.11823115760E+00  0.83840118724E+01  0.51100000000E-03 0. -1.
        -11    1    3    3    0    0 -0.19786583746E+02 -0.12450184430E+02  0.33153320282E+01  0.23611594935E+02  0.51100000000E-03 0.  1.
         12    1    3    3    0    0  0.35025436623E+02  0.14298994150E+02 -0.14361580370E+02  0.40466003448E+02  0.00000000000E+00 0. -1.
</event>
<event>
 7    1  0.1788006E-013  0.7246153E+02  0.7816164E-02  0.1226708E+00
        -11   -1    0    0    0    0  0.00000000000E+00  0.00000000000E+00  0.45593999997E+02  0.45594000000E+02  0.51100000000E-03 0.  1.
         11   -1    0    0    0    0 -0.00000000000E+00 -0.00000000000E+00 -0.45593999997E+02  0.45594000000E+02  0.51100000000E-03 0. -1.
    9900012    2    1    2    0    0  0.34459072432E+01  0.73518492756E+01 -0.16874734347E+02  0.72461531466E+02  0.69999949418E+02 0.  0.
        -12    1    1    2    0    0 -0.34459072432E+01 -0.73518492756E+01  0.16874734347E+02  0.18726468534E+02  0.00000000000E+00 0.  1.
         11    1    3    3    0    0  0.14744179260E+02  0.24535336125E+02 -0.31916194677E+02  0.42872100762E+02  0.51100000000E-03 0. -1.
        -11    1    3    3    0    0 -0.16193044474E+00 -0.97966381976E+00 -0.28424774608E+01  0.30109202987E+01  0.51100000000E-03 0.  1.
        -12    1    3    3    0    0 -0.11136341572E+02 -0.16203823030E+02  0.17883937791E+02  0.26578510405E+02  0.00000000000E+00 0.  1.
</event>
<event>
 7    1  0.1788006E-013  0.7246159E+02  0.7816164E-02  0.1226708E+00
        -11   -1    0    0    0    0  0.00000000000E+00  0.00000000000E+00  0.45593999997E+02  0.45594000000E+02  0.51100000000E-03 0. -1.
         11   -1    0    0    0    0 -0.00000000000E+00 -0.00000000000E+00 -0.45593999997E+02  0.45594000000E+02  0.51100000000E-03 0.  1.
    9900012    2    1    2    0    0  0.42951346653E+01 -0.10153690538E+02  0.15137129815E+02  0.72461593181E+02  0.70000029814E+02 0.  0.
        -12    1    1    2    0    0 -0.42951346653E+01  0.10153690538E+02 -0.15137129815E+02  0.18726406819E+02  0.00000000000E+00 0.  1.
         11    1    3    3    0    0  0.21075340081E+02 -0.67029835028E+01  0.21441204276E+02  0.30803006159E+02  0.51100000000E-03 0. -1.
        -11    1    3    3    0    0 -0.15081529529E+00  0.13060744083E+02 -0.11784465473E+02  0.17592026830E+02  0.51100000000E-03 0.  1.
        -12    1    3    3    0    0 -0.16629390120E+02 -0.16511451119E+02  0.54803910117E+01  0.24066560192E+02  0.00000000000E+00 0.  1.
</event>
<event>
 7    1  0.1788006E-013  0.7246156E+02  0.7816164E-02  0.1226708E+00
        -11   -1    0    0    0    0  0.00000000000E+00  0.00000000000E+00  0.45593999997E+02  0.45594000000E+02  0.51100000000E-03 0. -1.
         11   -1    0    0    0    0 -0.00000000000E+00 -0.00000000000E+00 -0.45593999997E+02  0.45594000000E+02  0.51100000000E-03 0.  1.
    9900012    2    1    2    0    0  0.57686205140E+01 -0.14247426925E+02  0.10696421612E+02  0.72461559017E+02  0.69999985309E+02 0.  0.
        -12    1    1    2    0    0 -0.57686205140E+01  0.14247426925E+02 -0.10696421612E+02  0.18726440983E+02  0.00000000000E+00 0.  1.
         11    1    3    3    0    0 -0.65079642988E+01 -0.62934389707E+00  0.79318878529E+01  0.10279324794E+02  0.51100000000E-03 0. -1.
        -11    1    3    3    0    0 -0.23606181964E+02 -0.98908386368E+01 -0.25327894116E+01  0.25719555562E+02  0.51100000000E-03 0.  1.
        -12    1    3    3    0    0  0.35882766777E+02 -0.37272443907E+01  0.52973231703E+01  0.36462678660E+02  0.00000000000E+00 0.  1.
</event>
<event>
 7    1  0.1788006E-013  0.7246157E+02  0.7816164E-02  0.1226708E+00
        -11   -1    0    0    0    0  0.00000000000E+00  0.00000000000E+00  0.45593999997E+02  0.45594000000E+02  0.51100000000E-03 0.  1.
         11   -1    0    0    0    0 -0.00000000000E+00 -0.00000000000E+00 -0.45593999997E+02  0.45594000000E+02  0.51100000000E-03 0. -1.
    9900012    2    1    2    0    0  0.32229977617E+01  0.35860086469E+01 -0.18095080816E+02  0.72461571554E+02  0.70000001641E+02 0.  0.
        -12    1    1    2    0    0 -0.32229977617E+01 -0.35860086469E+01  0.18095080816E+02  0.18726428446E+02  0.00000000000E+00 0.  1.
         11    1    3    3    0    0  0.13975449735E+02 -0.22381610580E+02 -0.15484257018E+02  0.30594311613E+02  0.51100000000E-03 0. -1.
        -11    1    3    3    0    0  0.10452000584E+02  0.12469748736E+02  0.17177541326E+01  0.16361223343E+02  0.51100000000E-03 0.  1.
        -12    1    3    3    0    0 -0.21204452557E+02  0.13497870490E+02 -0.43285779312E+01  0.25506036598E+02  0.00000000000E+00 0.  1.
</event>
<event>
 7    1  0.1788006E-013  0.7246158E+02  0.7816164E-02  0.1226708E+00
        -11   -1    0    0    0    0  0.00000000000E+00  0.00000000000E+00  0.45593999997E+02  0.45594000000E+02  0.51100000000E-03 0.  1.
         11   -1    0    0    0    0 -0.00000000000E+00 -0.00000000000E+00 -0.45593999997E+02  0.45594000000E+02  0.51100000000E-03 0. -1.
    9900012    2    1    2    0    0 -0.16964352589E+02 -0.54000215485E+01 -0.58076817679E+01  0.72461583926E+02  0.70000017757E+02 0.  0.
        -12    1    1    2    0    0  0.16964352589E+02  0.54000215485E+01  0.58076817679E+01  0.18726416074E+02  0.00000000000E+00 0.  1.
         11    1    3    3    0    0  0.64640898527E+01 -0.11544446488E+02 -0.20131912385E+02  0.24090508481E+02  0.51100000000E-03 0. -1.
        -11    1    3    3    0    0  0.63139261702E+01  0.21012903672E+01 -0.84050628036E+01  0.10720362209E+02  0.51100000000E-03 0.  1.
        -12    1    3    3    0    0 -0.29742368611E+02  0.40431345718E+01  0.22729293421E+02  0.37650713236E+02  0.00000000000E+00 0.  1.
</event>
<event>
 7    1  0.1788006E-013  0.7246157E+02  0.7816164E-02  0.1226708E+00
        -11   -1    0    0    0    0  0.00000000000E+00  0.00000000000E+00  0.45593999997E+02  0.45594000000E+02  0.51100000000E-03 0.  1.
         11   -1    0    0    0    0 -0.00000000000E+00 -0.00000000000E+00 -0.45593999997E+02  0.45594000000E+02  0.51100000000E-03 0. -1.
    9900012    2    1    2    0    0 -0.17205526417E+02  0.71770124987E+01  0.17718286613E+01  0.72461574167E+02  0.70000005045E+02 0.  0.
        -12    1    1    2    0    0  0.17205526417E+02 -0.71770124987E+01 -0.17718286613E+01  0.18726425833E+02  0.00000000000E+00 0.  1.
         11    1    3    3    0    0 -0.16438815785E+01 -0.14137511028E+02  0.16303315902E+02  0.21641850069E+02  0.51100000000E-03 0.  1.
        -11    1    3    3    0    0 -0.27018235976E+01 -0.12001095269E+02 -0.98180683754E-01  0.12301860758E+02  0.51100000000E-03 0. -1.
         12    1    3    3    0    0 -0.12859821240E+02  0.33315618796E+02 -0.14433306557E+02  0.38517863340E+02  0.00000000000E+00 0. -1.
</event>
<event>
 7    1  0.1788006E-013  0.7246161E+02  0.7816164E-02  0.1226708E+00
        -11   -1    0    0    0    0  0.00000000000E+00  0.00000000000E+00  0.45593999997E+02  0.45594000000E+02  0.51100000000E-03 0.  1.
         11   -1    0    0    0    0 -0.00000000000E+00 -0.00000000000E+00 -0.45593999997E+02  0.45594000000E+02  0.51100000000E-03 0. -1.
    9900012    2    1    2    0    0 -0.59457540560E+01 -0.28103916565E+01 -0.17533607029E+02  0.72461610385E+02  0.70000052225E+02 0.  0.
        -12    1    1    2    0    0  0.59457540560E+01  0.28103916565E+01  0.17533607029E+02  0.18726389615E+02  0.00000000000E+00 0.  1.
         11    1    3    3    0    0 -0.97401889431E+01  0.19598908687E+02 -0.22809103227E+02  0.31610816070E+02  0.51100000000E-03 0. -1.
        -11    1    3    3    0    0 -0.28838416264E+01 -0.24735133086E+02 -0.77063256930E+01  0.26067811709E+02  0.51100000000E-03 0.  1.
         12    1    3    3    0    0  0.66782765135E+01  0.23258327428E+01  0.12981821890E+02  0.14782982606E+02  0.00000000000E+00 0. -1.
</event>
<event>
 7    1  0.1788006E-013  0.7246158E+02  0.7816164E-02  0.1226708E+00
        -11   -1    0    0    0    0  0.00000000000E+00  0.00000000000E+00  0.45593999997E+02  0.45594000000E+02  0.51100000000E-03 0. -1.
         11   -1    0    0    0    0 -0.00000000000E+00 -0.00000000000E+00 -0.45593999997E+02  0.45594000000E+02  0.51100000000E-03 0.  1.
    9900012    2    1    2    0    0 -0.80226783788E+01  0.13497373763E+02  0.10204718730E+02  0.72461581463E+02  0.70000014549E+02 0.  0.
        -12    1    1    2    0    0  0.80226783788E+01 -0.13497373763E+02 -0.10204718730E+02  0.18726418537E+02  0.00000000000E+00 0.  1.
         11    1    3    3    0    0 -0.14586661918E+01 -0.60729341600E+01  0.91759747021E+01  0.11099853529E+02  0.51100000000E-03 0. -1.
        -11    1    3    3    0    0  0.41191906487E+01 -0.11271126190E+02 -0.19432494630E+02  0.22839173912E+02  0.51100000000E-03 0.  1.
         12    1    3    3    0    0 -0.10683202836E+02  0.30841434113E+02  0.20461238658E+02  0.38522554022E+02  0.00000000000E+00 0. -1.
</event>
<event>
 7    1  0.1788006E-013  0.7246157E+02  0.7816164E-02  0.1226708E+00
        -11   -1    0    0    0    0  0.00000000000E+00  0.00000000000E+00  0.45593999997E+02  0.45594000000E+02  0.51100000000E-03 0. -1.
         11   -1    0    0    0    0 -0.00000000000E+00 -0.00000000000E+00 -0.45593999997E+02  0.45594000000E+02  0.51100000000E-03 0.  1.
    9900012    2    1    2    0    0  0.36230949919E+01 -0.17747877223E+02 -0.47502951783E+01  0.72461567678E+02  0.69999996591E+02 0.  0.
        -12    1    1    2    0    0 -0.36230949919E+01  0.17747877223E+02  0.47502951783E+01  0.18726432322E+02  0.00000000000E+00 0.  1.
         11    1    3    3    0    0 -0.41844599794E+01  0.20878231080E+01  0.12056855352E+02  0.12931994119E+02  0.51100000000E-03 0. -1.
        -11    1    3    3    0    0 -0.19764892031E+02 -0.20983332738E+02 -0.13178163773E+02  0.31695665484E+02  0.51100000000E-03 0.  1.
        -12    1    3    3    0    0  0.27572447002E+02  0.11476324067E+01 -0.36289867576E+01  0.27833908075E+02  0.00000000000E+00 0.  1.
</event>
<event>
 7    1  0.1788006E-013  0.7246156E+02  0.7816164E-02  0.1226708E+00
        -11   -1    0    0    0    0  0.00000000000E+00  0.00000000000E+00  0.45593999997E+02  0.45594000000E+02  0.51100000000E-03 0.  1.
         11   -1    0    0    0    0 -0.00000000000E+00 -0.00000000000E+00 -0.45593999997E+02  0.45594000000E+02  0.51100000000E-03 0. -1.
    9900012    2    1    2    0    0  0.13146230605E+02 -0.13317658677E+02 -0.70434262205E+00  0.72461561196E+02  0.69999988148E+02 0.  0.
        -12    1    1    2    0    0 -0.13146230605E+02  0.13317658677E+02  0.70434262205E+00  0.18726438804E+02  0.00000000000E+00 0.  1.
         11    1    3    3    0    0 -0.10725449061E+02  0.20965253866E+01  0.15324627059E+01  0.11035357650E+02  0.51100000000E-03 0. -1.
        -11    1    3    3    0    0 -0.97655842515E+01  0.73525936324E+01  0.13184686481E+02  0.17979522429E+02  0.51100000000E-03 0.  1.
         12    1    3    3    0    0  0.33637263917E+02 -0.22766777696E+02 -0.15421491809E+02  0.43446681117E+02  0.00000000000E+00 0. -1.
</event>
<event>
 7    1  0.1788006E-013  0.7246157E+02  0.7816164E-02  0.1226708E+00
        -11   -1    0    0    0    0  0.00000000000E+00  0.00000000000E+00  0.45593999997E+02  0.45594000000E+02  0.51100000000E-03 0.  1.
         11   -1    0    0    0    0 -0.00000000000E+00 -0.00000000000E+00 -0.45593999997E+02  0.45594000000E+02  0.51100000000E-03 0. -1.
    9900012    2    1    2    0    0  0.14919545840E+02  0.21557821085E+01  0.11110314706E+02  0.72461565811E+02  0.69999994159E+02 0.  0.
        -12    1    1    2    0    0 -0.14919545840E+02 -0.21557821085E+01 -0.11110314706E+02  0.18726434189E+02  0.00000000000E+00 0.  1.
         11    1    3    3    0    0  0.82165237421E+00 -0.11461080419E+01 -0.20911020699E+02  0.20958517677E+02  0.51100000000E-03 0. -1.
        -11    1    3    3    0    0  0.20214337654E+02 -0.72419321504E+01  0.52762544613E+01  0.22111171146E+02  0.51100000000E-03 0.  1.
        -12    1    3    3    0    0 -0.61164441876E+01  0.10543822301E+02  0.26745080943E+02  0.29391876988E+02  0.00000000000E+00 0.  1.
</event>
<event>
 7    1  0.1788006E-013  0.7246156E+02  0.7816164E-02  0.1226708E+00
        -11   -1    0    0    0    0  0.00000000000E+00  0.00000000000E+00  0.45593999997E+02  0.45594000000E+02  0.51100000000E-03 0. -1.
         11   -1    0    0    0    0 -0.00000000000E+00 -0.00000000000E+00 -0.45593999997E+02  0.45594000000E+02  0.51100000000E-03 0.  1.
    9900012    2    1    2    0    0  0.91847100431E+01  0.11903244079E+02 -0.11163936409E+02  0.72461558952E+02  0.69999985225E+02 0.  0.
        -12    1    1    2    0    0 -0.91847100431E+01 -0.11903244079E+02  0.11163936409E+02  0.18726441048E+02  0.00000000000E+00 0.  1.
         11    1    3    3    0    0  0.17951683746E+01  0.20464877607E+01  0.49941424850E+00  0.27676987735E+01  0.51100000000E-03 0. -1.
        -11    1    3    3    0    0  0.72380540023E+01  0.19022090803E+02 -0.37286968718E+02  0.42479964698E+02  0.51100000000E-03 0.  1.
         12    1    3    3    0    0  0.15148766620E+00 -0.91653344846E+01  0.25623618061E+02  0.27213895481E+02  0.00000000000E+00 0. -1.
</event>
<event>
 7    1  0.1788006E-013  0.7246162E+02  0.7816164E-02  0.1226708E+00
        -11   -1    0    0    0    0  0.00000000000E+00  0.00000000000E+00  0.45593999997E+02  0.45594000000E+02  0.51100000000E-03 0.  1.
         11   -1    0    0    0    0 -0.00000000000E+00 -0.00000000000E+00 -0.45593999997E+02  0.45594000000E+02  0.51100000000E-03 0. -1.
    9900012    2    1    2    0    0  0.18079355526E+02 -0.30373485631E+01 -0.38195026870E+01  0.72461623327E+02  0.70000069085E+02 0.  0.
        -12    1    1    2    0    0 -0.18079355526E+02  0.30373485631E+01  0.38195026870E+01  0.18726376673E+02  0.00000000000E+00 0.  1.
         11    1    3    3    0    0  0.57623071825E+01 -0.15700907113E+01  0.90721007066E+01  0.10861509122E+02  0.51100000000E-03 0. -1.
        -11    1    3    3    0    0 -0.11750003337E+02  0.33414440910E+01  0.18243013695E+02  0.21955304051E+02  0.51100000000E-03 0.  1.
         12    1    3    3    0    0  0.24067051681E+02 -0.48087019428E+01 -0.31134617088E+02  0.39644810155E+02  0.00000000000E+00 0. -1.
</event>
<event>
 7    1  0.1788006E-013  0.7246152E+02  0.7816164E-02  0.1226708E+00
        -11   -1    0    0    0    0  0.00000000000E+00  0.00000000000E+00  0.45593999997E+02  0.45594000000E+02  0.51100000000E-03 0. -1.
         11   -1    0    0    0    0 -0.00000000000E+00 -0.00000000000E+00 -0.45593999997E+02  0.45594000000E+02  0.51100000000E-03 0.  1.
    9900012    2    1    2    0    0  0.88420145103E+01  0.13287894106E+02  0.97944724526E+01  0.72461520326E+02  0.69999934906E+02 0.  0.
        -12    1    1    2    0    0 -0.88420145103E+01 -0.13287894106E+02 -0.97944724526E+01  0.18726479674E+02  0.00000000000E+00 0.  1.
         11    1    3    3    0    0  0.72955304184E+01 -0.60918560091E+01  0.61773982324E+01  0.11335595393E+02  0.51100000000E-03 0. -1.
        -11    1    3    3    0    0 -0.10297178803E+02 -0.18212812741E+02 -0.30774130268E+01  0.21147314497E+02  0.51100000000E-03 0.  1.
        -12    1    3    3    0    0  0.11843662895E+02  0.37592562856E+02  0.66944872469E+01  0.39978610436E+02  0.00000000000E+00 0.  1.
</event>
<event>
 7    1  0.1788006E-013  0.7246159E+02  0.7816164E-02  0.1226708E+00
        -11   -1    0    0    0    0  0.00000000000E+00  0.00000000000E+00  0.45593999997E+02  0.45594000000E+02  0.51100000000E-03 0. -1.
         11   -1    0    0    0    0 -0.00000000000E+00 -0.00000000000E+00 -0.45593999997E+02  0.45594000000E+02  0.51100000000E-03 0.  1.
    9900012    2    1    2    0    0  0.10123783886E+02  0.15485594040E+01  0.15677668448E+02  0.72461592861E+02  0.70000029397E+02 0.  0.
        -12    1    1    2    0    0 -0.10123783886E+02 -0.15485594040E+01 -0.15677668448E+02  0.18726407139E+02  0.00000000000E+00 0.  1.
         11    1    3    3    0    0  0.67044155098E+01  0.13328596756E+02  0.67517708761E+01  0.16376418688E+02  0.51100000000E-03 0. -1.
        -11    1    3    3    0    0 -0.78970030601E+01  0.20068935428E+02  0.31512729681E+01  0.21795764454E+02  0.51100000000E-03 0.  1.
        -12    1    3    3    0    0  0.11316371436E+02 -0.31848972780E+02  0.57746246033E+01  0.34289409720E+02  0.00000000000E+00 0.  1.
</event>
<event>
 7    1  0.1788006E-013  0.7246148E+02  0.7816164E-02  0.1226708E+00
        -11   -1    0    0    0    0  0.00000000000E+00  0.00000000000E+00  0.45593999997E+02  0.45594000000E+02  0.51100000000E-03 0.  1.
         11   -1    0    0    0    0 -0.00000000000E+00 -0.00000000000E+00 -0.45593999997E+02  0.45594000000E+02  0.51100000000E-03 0. -1.
    9900012    2    1    2    0    0  0.14180702603E+02 -0.56492101930E+01 -0.10847894829E+02  0.72461475380E+02  0.69999876357E+02 0.  0.
        -12    1    1    2    0    0 -0.14180702603E+02  0.56492101930E+01  0.10847894829E+02  0.18726524620E+02  0.00000000000E+00 0.  1.
         11    1    3    3    0    0  0.16756840345E+02 -0.30788215299E+02 -0.72643005096E+01  0.35797708890E+02  0.51100000000E-03 0. -1.
        -11    1    3    3    0    0 -0.13687636846E+02  0.90663359677E+01  0.14628520712E+01  0.16483015099E+02  0.51100000000E-03 0.  1.
        -12    1    3    3    0    0  0.11111499104E+02  0.16072669138E+02 -0.50464463903E+01  0.20180751392E+02  0.00000000000E+00 0.  1.
</event>
<event>
 7    1  0.1788006E-013  0.7246137E+02  0.7816164E-02  0.1226709E+00
        -11   -1    0    0    0    0  0.00000000000E+00  0.00000000000E+00  0.45593999997E+02  0.45594000000E+02  0.51100000000E-03 0. -1.
         11   -1    0    0    0    0 -0.00000000000E+00 -0.00000000000E+00 -0.45593999997E+02  0.45594000000E+02  0.51100000000E-03 0.  1.
    9900012    2    1    2    0    0  0.16857224305E+02 -0.79640792125E+01 -0.17590461780E+01  0.72461366228E+02  0.69999734166E+02 0.  0.
        -12    1    1    2    0    0 -0.16857224305E+02  0.79640792125E+01  0.17590461780E+01  0.18726633772E+02  0.00000000000E+00 0.  1.
         11    1    3    3    0    0  0.78686236785E+01 -0.34853011505E+01 -0.11277815271E+01  0.86795422769E+01  0.51100000000E-03 0. -1.
        -11    1    3    3    0    0  0.15543228099E+02  0.20046649238E+02 -0.19628952617E+02  0.32074224332E+02  0.51100000000E-03 0.  1.
         12    1    3    3    0    0 -0.65546274730E+01 -0.24525427301E+02  0.18997687966E+02  0.31707599619E+02  0.00000000000E+00 0. -1.
</event>
<event>
 7    1  0.1788006E-013  0.7246155E+02  0.7816164E-02  0.1226708E+00
        -11   -1    0    0    0    0  0.00000000000E+00  0.00000000000E+00  0.45593999997E+02  0.45594000000E+02  0.51100000000E-03 0. -1.
         11   -1    0    0    0    0 -0.00000000000E+00 -0.00000000000E+00 -0.45593999997E+02  0.45594000000E+02  0.51100000000E-03 0.  1.
    9900012    2    1    2    0    0 -0.16185987521E+02  0.26136459610E+01 -0.90477984891E+01  0.72461548260E+02  0.69999971297E+02 0.  0.
        -12    1    1    2    0    0  0.16185987521E+02 -0.26136459610E+01  0.90477984891E+01  0.18726451740E+02  0.00000000000E+00 0.  1.
         11    1    3    3    0    0  0.21029614253E+01  0.75687009478E+01 -0.92252714303E+01  0.12116654407E+02  0.51100000000E-03 0. -1.
        -11    1    3    3    0    0  0.12114695986E+02 -0.21860806875E+02 -0.39854061041E+01  0.25308974656E+02  0.51100000000E-03 0.  1.
        -12    1    3    3    0    0 -0.30403644933E+02  0.16905751888E+02  0.41628790452E+01  0.35035919198E+02  0.00000000000E+00 0.  1.
</event>
<event>
 7    1  0.1788006E-013  0.7246159E+02  0.7816164E-02  0.1226708E+00
        -11   -1    0    0    0    0  0.00000000000E+00  0.00000000000E+00  0.45593999997E+02  0.45594000000E+02  0.51100000000E-03 0. -1.
         11   -1    0    0    0    0 -0.00000000000E+00 -0.00000000000E+00 -0.45593999997E+02  0.45594000000E+02  0.51100000000E-03 0.  1.
    9900012    2    1    2    0    0 -0.13760694076E+02 -0.74947830195E+01 -0.10254265723E+02  0.72461589787E+02  0.70000025392E+02 0.  0.
        -12    1    1    2    0    0  0.13760694076E+02  0.74947830195E+01  0.10254265723E+02  0.18726410213E+02  0.00000000000E+00 0.  1.
         11    1    3    3    0    0 -0.10147704345E+02  0.25603017185E+02 -0.68048840572E+01  0.28368941464E+02  0.51100000000E-03 0. -1.
        -11    1    3    3    0    0 -0.12807953328E+02 -0.17445662203E+02  0.74856042237E+01  0.22900416350E+02  0.51100000000E-03 0.  1.
        -12    1    3    3    0    0  0.91949635978E+01 -0.15652138002E+02 -0.10934985890E+02  0.21192231973E+02  0.00000000000E+00 0.  1.
</event>
<event>
 7    1  0.1788006E-013  0.7246158E+02  0.7816164E-02  0.1226708E+00
        -11   -1    0    0    0    0  0.00000000000E+00  0.00000000000E+00  0.45593999997E+02  0.45594000000E+02  0.51100000000E-03 0. -1.
         11   -1    0    0    0    0 -0.00000000000E+00 -0.00000000000E+00 -0.45593999997E+02  0.45594000000E+02  0.51100000000E-03 0.  1.
    9900012    2    1    2    0    0 -0.16465772851E+01 -0.22345574463E+01  0.18519571092E+02  0.72461575431E+02  0.70000006691E+02 0.  0.
        -12    1    1    2    0    0  0.16465772851E+01  0.22345574463E+01 -0.18519571092E+02  0.18726424569E+02  0.00000000000E+00 0.  1.
         11    1    3    3    0    0  0.20907934103E+02 -0.70995983294E+01  0.22011719829E+02  0.31177905879E+02  0.51100000000E-03 0. -1.
        -11    1    3    3    0    0 -0.32521519087E+01  0.17670637396E+02 -0.12249058218E+01  0.18009117484E+02  0.51100000000E-03 0.  1.
        -12    1    3    3    0    0 -0.19302359479E+02 -0.12805596513E+02 -0.22672429155E+01  0.23274552068E+02  0.00000000000E+00 0.  1.
</event>
<event>
 7    1  0.1788006E-013  0.7246157E+02  0.7816164E-02  0.1226708E+00
        -11   -1    0    0    0    0  0.00000000000E+00  0.00000000000E+00  0.45593999997E+02  0.45594000000E+02  0.51100000000E-03 0.  1.
         11   -1    0    0    0    0 -0.00000000000E+00 -0.00000000000E+00 -0.45593999997E+02  0.45594000000E+02  0.51100000000E-03 0. -1.
    9900012    2    1    2    0    0  0.57724829338E+01  0.84777202790E+01 -0.15667989718E+02  0.72461569423E+02  0.69999998865E+02 0.  0.
        -12    1    1    2    0    0 -0.57724829338E+01 -0.84777202790E+01  0.15667989718E+02  0.18726430577E+02  0.00000000000E+00 0.  1.
         11    1    3    3    0    0  0.10241827350E+02  0.97623178374E+01  0.97279613579E+01  0.17170646740E+02  0.51100000000E-03 0. -1.
        -11    1    3    3    0    0  0.27438460776E+00 -0.11940252035E+01 -0.39957307013E+02  0.39976084939E+02  0.51100000000E-03 0.  1.
         12    1    3    3    0    0 -0.47437290242E+01 -0.90572354940E-01  0.14561355936E+02  0.15314837744E+02  0.00000000000E+00 0. -1.
</event>
<event>
 7    1  0.1788006E-013  0.7246157E+02  0.7816164E-02  0.1226708E+00
        -11   -1    0    0    0    0  0.00000000000E+00  0.00000000000E+00  0.45593999997E+02  0.45594000000E+02  0.51100000000E-03 0.  1.
         11   -1    0    0    0    0 -0.00000000000E+00 -0.00000000000E+00 -0.45593999997E+02  0.45594000000E+02  0.51100000000E-03 0. -1.
    9900012    2    1    2    0    0 -0.15137399277E+02 -0.56313573199E+01 -0.94776694078E+01  0.72461567891E+02  0.69999996869E+02 0.  0.
        -12    1    1    2    0    0  0.15137399277E+02  0.56313573199E+01  0.94776694078E+01  0.18726432109E+02  0.00000000000E+00 0.  1.
         11    1    3    3    0    0 -0.31507291240E+02 -0.63163583397E+01 -0.25501990594E+02  0.41023862672E+02  0.51100000000E-03 0. -1.
        -11    1    3    3    0    0  0.12635121658E+02  0.46073019819E+01 -0.10840380424E+01  0.13492541259E+02  0.51100000000E-03 0.  1.
        -12    1    3    3    0    0  0.37347703043E+01 -0.39223009621E+01  0.17108359229E+02  0.17945163960E+02  0.00000000000E+00 0.  1.
</event>
<event>
 7    1  0.1788006E-013  0.7246157E+02  0.7816164E-02  0.1226708E+00
        -11   -1    0    0    0    0  0.00000000000E+00  0.00000000000E+00  0.45593999997E+02  0.45594000000E+02  0.51100000000E-03 0.  1.
         11   -1    0    0    0    0 -0.00000000000E+00 -0.00000000000E+00 -0.45593999997E+02  0.45594000000E+02  0.51100000000E-03 0. -1.
    9900012    2    1    2    0    0  0.15506042008E+02 -0.86046426005E+01 -0.60168036938E+01  0.72461571090E+02  0.70000001037E+02 0.  0.
        -12    1    1    2    0    0 -0.15506042008E+02  0.86046426005E+01  0.60168036938E+01  0.18726428910E+02  0.00000000000E+00 0.  1.
         11    1    3    3    0    0  0.20992313208E+01  0.61348978158E-01  0.18858053287E+00  0.21085774147E+01  0.51100000000E-03 0. -1.
        -11    1    3    3    0    0  0.16947462424E+02  0.21159306812E+02  0.17347268065E+02  0.32184786110E+02  0.51100000000E-03 0.  1.
         12    1    3    3    0    0 -0.35406517374E+01 -0.29825298390E+02 -0.23552652291E+02  0.38168207565E+02  0.00000000000E+00 0. -1.
</event>
<event>
 7    1  0.1788006E-013  0.7246156E+02  0.7816164E-02  0.1226708E+00
        -11   -1    0    0    0    0  0.00000000000E+00  0.00000000000E+00  0.45593999997E+02  0.45594000000E+02  0.51100000000E-03 0.  1.
         11   -1    0    0    0    0 -0.00000000000E+00 -0.00000000000E+00 -0.45593999997E+02  0.45594000000E+02  0.51100000000E-03 0. -1.
    9900012    2    1    2    0    0  0.30603160567E+01  0.10496656301E+02 -0.15203099851E+02  0.72461559523E+02  0.69999985968E+02 0.  0.
        -12    1    1    2    0    0 -0.30603160567E+01 -0.10496656301E+02  0.15203099851E+02  0.18726440477E+02  0.00000000000E+00 0.  1.
         11    1    3    3    0    0 -0.73566914179E+01  0.16134082339E+02  0.74030943385E+01  0.19215497069E+02  0.51100000000E-03 0. -1.
        -11    1    3    3    0    0 -0.15020108921E+02  0.27292634780E-01  0.44649310279E+01  0.15669716853E+02  0.51100000000E-03 0.  1.
         12    1    3    3    0    0  0.25437116396E+02 -0.56647186731E+01 -0.27071125218E+02  0.37576345601E+02  0.00000000000E+00 0. -1.
</event>
<event>
 7    1  0.1788006E-013  0.7246112E+02  0.7816164E-02  0.1226709E+00
        -11   -1    0    0    0    0  0.00000000000E+00  0.00000000000E+00  0.45593999997E+02  0.45594000000E+02  0.51100000000E-03 0.  1.
         11   -1    0    0    0    0 -0.00000000000E+00 -0.00000000000E+00 -0.45593999997E+02  0.45594000000E+02  0.51100000000E-03 0. -1.
    9900012    2    1    2    0    0  0.12601994939E+01 -0.18571553895E+02 -0.20507303248E+01  0.72461115269E+02  0.69999407243E+02 0.  0.
        -12    1    1    2    0    0 -0.12601994939E+01  0.18571553895E+02  0.20507303248E+01  0.18726884731E+02  0.00000000000E+00 0.  1.
         11    1    3    3    0    0  0.39216486220E+01 -0.30525354836E+02 -0.12012759861E+01  0.30799670128E+02  0.51100000000E-03 0. -1.
        -11    1    3    3    0    0 -0.75673714069E+01 -0.10334865558E+02 -0.10809378565E+02  0.16760585351E+02  0.51100000000E-03 0.  1.
        -12    1    3    3    0    0  0.49059222787E+01  0.22288666498E+02  0.99599242260E+01  0.24900859790E+02  0.00000000000E+00 0.  1.
</event>
<event>
 7    1  0.1788006E-013  0.7246155E+02  0.7816164E-02  0.1226708E+00
        -11   -1    0    0    0    0  0.00000000000E+00  0.00000000000E+00  0.45593999997E+02  0.45594000000E+02  0.51100000000E-03 0. -1.
         11   -1    0    0    0    0 -0.00000000000E+00 -0.00000000000E+00 -0.45593999997E+02  0.45594000000E+02  0.51100000000E-03 0.  1.
    9900012    2    1    2    0    0  0.17236300430E+02 -0.71177719476E+01 -0.17108793624E+01  0.72461552441E+02  0.69999976742E+02 0.  0.
        -12    1    1    2    0    0 -0.17236300430E+02  0.71177719476E+01  0.17108793624E+01  0.18726447559E+02  0.00000000000E+00 0.  1.
         11    1    3    3    0    0  0.65424931098E+01 -0.75484610820E+01 -0.54035327269E+01  0.11357008717E+02  0.51100000000E-03 0. -1.
        -11    1    3    3    0    0  0.10209126512E+02  0.20119906716E+02 -0.20100794156E+02  0.30217194382E+02  0.51100000000E-03 0.  1.
         12    1    3    3    0    0  0.48468080798E+00 -0.19689217581E+02  0.23793447520E+02  0.30887349342E+02  0.00000000000E+00 0. -1.
</event>
<event>
 7    1  0.1788006E-013  0.7246174E+02  0.7816164E-02  0.1226708E+00
        -11   -1    0    0    0    0  0.00000000000E+00  0.00000000000E+00  0.45593999997E+02  0.45594000000E+02  0.51100000000E-03 0.  1.
         11   -1    0    0    0    0 -0.00000000000E+00 -0.00000000000E+00 -0.45593999997E+02  0.45594000000E+02  0.51100000000E-03 0. -1.
    9900012    2    1    2    0    0 -0.34544785148E+01  0.14428472484E+01 -0.18348235773E+02  0.72461735398E+02  0.70000215077E+02 0.  0.
        -12    1    1    2    0    0  0.34544785148E+01 -0.14428472484E+01  0.18348235773E+02  0.18726264602E+02  0.00000000000E+00 0.  1.
         11    1    3    3    0    0  0.57305382037E+01  0.55830049651E+01 -0.57336398158E+01  0.98429486610E+01  0.51100000000E-03 0. -1.
        -11    1    3    3    0    0  0.28901599830E+01  0.22290390352E+02  0.11140438087E+02  0.25086328703E+02  0.51100000000E-03 0.  1.
        -12    1    3    3    0    0 -0.12075176701E+02 -0.26430548069E+02 -0.23755034044E+02  0.37532458033E+02  0.00000000000E+00 0.  1.
</event>
<event>
 7    1  0.1788006E-013  0.7246155E+02  0.7816164E-02  0.1226708E+00
        -11   -1    0    0    0    0  0.00000000000E+00  0.00000000000E+00  0.45593999997E+02  0.45594000000E+02  0.51100000000E-03 0. -1.
         11   -1    0    0    0    0 -0.00000000000E+00 -0.00000000000E+00 -0.45593999997E+02  0.45594000000E+02  0.51100000000E-03 0.  1.
    9900012    2    1    2    0    0 -0.50941457762E+01  0.10615597181E+02 -0.14561551066E+02  0.72461548276E+02  0.69999971318E+02 0.  0.
        -12    1    1    2    0    0  0.50941457762E+01 -0.10615597181E+02  0.14561551066E+02  0.18726451724E+02  0.00000000000E+00 0.  1.
         11    1    3    3    0    0  0.31365200928E+00  0.21449099346E+02 -0.40774069151E+01  0.21835463992E+02  0.51100000000E-03 0. -1.
        -11    1    3    3    0    0 -0.31038327472E+00  0.66393724435E+01 -0.25921361571E+02  0.26759943762E+02  0.51100000000E-03 0.  1.
         12    1    3    3    0    0 -0.50974145108E+01 -0.17472874608E+02  0.15437217420E+02  0.23866140522E+02  0.00000000000E+00 0. -1.
</event>
<event>
 7    1  0.1788006E-013  0.7246158E+02  0.7816164E-02  0.1226708E+00
        -11   -1    0    0    0    0  0.00000000000E+00  0.00000000000E+00  0.45593999997E+02  0.45594000000E+02  0.51100000000E-03 0.  1.
         11   -1    0    0    0    0 -0.00000000000E+00 -0.00000000000E+00 -0.45593999997E+02  0.45594000000E+02  0.51100000000E-03 0. -1.
    9900012    2    1    2    0    0 -0.50357844206E+01  0.83812614819E+01 -0.15971046175E+02  0.72461575229E+02  0.70000006429E+02 0.  0.
        -12    1    1    2    0    0  0.50357844206E+01 -0.83812614819E+01  0.15971046175E+02  0.18726424771E+02  0.00000000000E+00 0.  1.
         11    1    3    3    0    0  0.12957309340E+02  0.91479522882E+01  0.26356444623E+01  0.16078666561E+02  0.51100000000E-03 0. -1.
        -11    1    3    3    0    0  0.38019060815E+01  0.21575442956E+02 -0.59428916864E+01  0.22699607716E+02  0.51100000000E-03 0.  1.
         12    1    3    3    0    0 -0.21794999842E+02 -0.22342133762E+02 -0.12663798951E+02  0.33683300952E+02  0.00000000000E+00 0. -1.
</event>
<event>
 7    1  0.1788006E-013  0.7246153E+02  0.7816164E-02  0.1226708E+00
        -11   -1    0    0    0    0  0.00000000000E+00  0.00000000000E+00  0.45593999997E+02  0.45594000000E+02  0.51100000000E-03 0.  1.
         11   -1    0    0    0    0 -0.00000000000E+00 -0.00000000000E+00 -0.45593999997E+02  0.45594000000E+02  0.51100000000E-03 0. -1.
    9900012    2    1    2    0    0 -0.27496341807E+01  0.15063699029E+02  0.10779846559E+02  0.72461531876E+02  0.69999949953E+02 0.  0.
        -12    1    1    2    0    0  0.27496341807E+01 -0.15063699029E+02 -0.10779846559E+02  0.18726468124E+02  0.00000000000E+00 0.  1.
         11    1    3    3    0    0  0.12399374565E+02  0.14726270244E+02 -0.96455553519E+01  0.21532400312E+02  0.51100000000E-03 0. -1.
        -11    1    3    3    0    0  0.13762141015E+02  0.14526826135E+01 -0.24398867899E+01  0.14052041129E+02  0.51100000000E-03 0.  1.
        -12    1    3    3    0    0 -0.28911149760E+02 -0.11152538281E+01  0.22865288701E+02  0.36877090435E+02  0.00000000000E+00 0.  1.
</event>
<event>
 7    1  0.1788006E-013  0.7246182E+02  0.7816164E-02  0.1226707E+00
        -11   -1    0    0    0    0  0.00000000000E+00  0.00000000000E+00  0.45593999997E+02  0.45594000000E+02  0.51100000000E-03 0.  1.
         11   -1    0    0    0    0 -0.00000000000E+00 -0.00000000000E+00 -0.45593999997E+02  0.45594000000E+02  0.51100000000E-03 0. -1.
    9900012    2    1    2    0    0 -0.18124636371E+02  0.76616534919E+00 -0.46454616070E+01  0.72461821360E+02  0.70000327059E+02 0.  0.
        -12    1    1    2    0    0  0.18124636371E+02 -0.76616534919E+00  0.46454616070E+01  0.18726178640E+02  0.00000000000E+00 0.  1.
         11    1    3    3    0    0  0.13142066813E+02  0.99624789425E+01 -0.10021328909E+02  0.19297459422E+02  0.51100000000E-03 0. -1.
        -11    1    3    3    0    0  0.83109677854E+01  0.15074099748E+01  0.85798067096E+01  0.12039831967E+02  0.51100000000E-03 0.  1.
        -12    1    3    3    0    0 -0.39577670969E+02 -0.10703723568E+02 -0.32039394077E+01  0.41124529970E+02  0.00000000000E+00 0.  1.
</event>
<event>
 7    1  0.1788006E-013  0.7246161E+02  0.7816164E-02  0.1226708E+00
        -11   -1    0    0    0    0  0.00000000000E+00  0.00000000000E+00  0.45593999997E+02  0.45594000000E+02  0.51100000000E-03 0.  1.
         11   -1    0    0    0    0 -0.00000000000E+00 -0.00000000000E+00 -0.45593999997E+02  0.45594000000E+02  0.51100000000E-03 0. -1.
    9900012    2    1    2    0    0  0.84291150784E+01 -0.14578877361E+02 -0.81904913168E+01  0.72461607018E+02  0.70000047839E+02 0.  0.
        -12    1    1    2    0    0 -0.84291150784E+01  0.14578877361E+02  0.81904913168E+01  0.18726392982E+02  0.00000000000E+00 0.  1.
         11    1    3    3    0    0  0.24185353493E+02  0.65961321820E+01 -0.90975908748E+01  0.26668454085E+02  0.51100000000E-03 0. -1.
        -11    1    3    3    0    0  0.32858773955E+01  0.89966425211E+01  0.30469248105E+01  0.10050886427E+02  0.51100000000E-03 0.  1.
         12    1    3    3    0    0 -0.19042115810E+02 -0.30171652064E+02 -0.21398252525E+01  0.35742266505E+02  0.00000000000E+00 0. -1.
</event>
<event>
 7    1  0.1788006E-013  0.7246159E+02  0.7816164E-02  0.1226708E+00
        -11   -1    0    0    0    0  0.00000000000E+00  0.00000000000E+00  0.45593999997E+02  0.45594000000E+02  0.51100000000E-03 0. -1.
         11   -1    0    0    0    0 -0.00000000000E+00 -0.00000000000E+00 -0.45593999997E+02  0.45594000000E+02  0.51100000000E-03 0.  1.
    9900012    2    1    2    0    0  0.74974845385E+01  0.13543869000E+02  0.10537072167E+02  0.72461586789E+02  0.70000021488E+02 0.  0.
        -12    1    1    2    0    0 -0.74974845385E+01 -0.13543869000E+02 -0.10537072167E+02  0.18726413211E+02  0.00000000000E+00 0.  1.
         11    1    3    3    0    0 -0.17346340478E+01  0.95560243943E+01 -0.12171470275E+02  0.15571488253E+02  0.51100000000E-03 0.  1.
        -11    1    3    3    0    0 -0.15796809391E+02  0.12239717690E+02 -0.28404832745E+01  0.20184603577E+02  0.51100000000E-03 0. -1.
         12    1    3    3    0    0  0.25028927977E+02 -0.82518730849E+01  0.25549025716E+02  0.36705494959E+02  0.00000000000E+00 0. -1.
</event>
<event>
 7    1  0.1788006E-013  0.7246158E+02  0.7816164E-02  0.1226708E+00
        -11   -1    0    0    0    0  0.00000000000E+00  0.00000000000E+00  0.45593999997E+02  0.45594000000E+02  0.51100000000E-03 0.  1.
         11   -1    0    0    0    0 -0.00000000000E+00 -0.00000000000E+00 -0.45593999997E+02  0.45594000000E+02  0.51100000000E-03 0. -1.
    9900012    2    1    2    0    0 -0.92365303422E+01  0.14336584663E+02 -0.77348366961E+01  0.72461578792E+02  0.70000011070E+02 0.  0.
        -12    1    1    2    0    0  0.92365303422E+01 -0.14336584663E+02  0.77348366961E+01  0.18726421208E+02  0.00000000000E+00 0.  1.
         11    1    3    3    0    0  0.23309914020E+01 -0.63435017016E+00 -0.10775134321E-01  0.24157891918E+01  0.51100000000E-03 0. -1.
        -11    1    3    3    0    0 -0.24928968180E+02 -0.15563554917E+02  0.11512586642E+02  0.31562910950E+02  0.51100000000E-03 0.  1.
         12    1    3    3    0    0  0.13361446436E+02  0.30534489749E+02 -0.19236648203E+02  0.38482878650E+02  0.00000000000E+00 0. -1.
</event>
<event>
 7    1  0.1788006E-013  0.7246160E+02  0.7816164E-02  0.1226708E+00
        -11   -1    0    0    0    0  0.00000000000E+00  0.00000000000E+00  0.45593999997E+02  0.45594000000E+02  0.51100000000E-03 0. -1.
         11   -1    0    0    0    0 -0.00000000000E+00 -0.00000000000E+00 -0.45593999997E+02  0.45594000000E+02  0.51100000000E-03 0.  1.
    9900012    2    1    2    0    0 -0.78758695351E+00 -0.17701078772E+02 -0.60605053927E+01  0.72461595953E+02  0.70000033426E+02 0.  0.
        -12    1    1    2    0    0  0.78758695351E+00  0.17701078772E+02  0.60605053927E+01  0.18726404047E+02  0.00000000000E+00 0.  1.
         11    1    3    3    0    0 -0.61365835591E+00 -0.90647668594E+01 -0.18206406243E+02  0.20347476584E+02  0.51100000000E-03 0. -1.
        -11    1    3    3    0    0  0.17452412089E+02 -0.55116474477E+01 -0.12126238561E+02  0.21954739972E+02  0.51100000000E-03 0.  1.
         12    1    3    3    0    0 -0.17626340687E+02 -0.31246644649E+01  0.24272139412E+02  0.30159379398E+02  0.00000000000E+00 0. -1.
</event>
<event>
 7    1  0.1788006E-013  0.7246158E+02  0.7816164E-02  0.1226708E+00
        -11   -1    0    0    0    0  0.00000000000E+00  0.00000000000E+00  0.45593999997E+02  0.45594000000E+02  0.51100000000E-03 0. -1.
         11   -1    0    0    0    0 -0.00000000000E+00 -0.00000000000E+00 -0.45593999997E+02  0.45594000000E+02  0.51100000000E-03 0.  1.
    9900012    2    1    2    0    0 -0.71216484862E+01 -0.40605640118E+01  0.16836647283E+02  0.72461581523E+02  0.70000014627E+02 0.  0.
        -12    1    1    2    0    0  0.71216484862E+01  0.40605640118E+01 -0.16836647283E+02  0.18726418477E+02  0.00000000000E+00 0.  1.
         11    1    3    3    0    0 -0.12891243710E+02  0.59527348720E+01 -0.34735142764E+01  0.14617951927E+02  0.51100000000E-03 0. -1.
        -11    1    3    3    0    0  0.26857033016E+01  0.18277187670E+02  0.22721356339E+02  0.29283589696E+02  0.51100000000E-03 0.  1.
         12    1    3    3    0    0  0.30838919220E+01 -0.28290486554E+02 -0.24111947797E+01  0.28560039900E+02  0.00000000000E+00 0. -1.
</event>
<event>
 7    1  0.1788006E-013  0.7246162E+02  0.7816164E-02  0.1226708E+00
        -11   -1    0    0    0    0  0.00000000000E+00  0.00000000000E+00  0.45593999997E+02  0.45594000000E+02  0.51100000000E-03 0. -1.
         11   -1    0    0    0    0 -0.00000000000E+00 -0.00000000000E+00 -0.45593999997E+02  0.45594000000E+02  0.51100000000E-03 0.  1.
    9900012    2    1    2    0    0 -0.17912266893E+01  0.24929947860E+01  0.18473056513E+02  0.72461619331E+02  0.70000063879E+02 0.  0.
        -12    1    1    2    0    0  0.17912266893E+01 -0.24929947860E+01 -0.18473056513E+02  0.18726380669E+02  0.00000000000E+00 0.  1.
         11    1    3    3    0    0  0.18153966477E+02 -0.94392446473E+01  0.12908619658E+01  0.20502003883E+02  0.51100000000E-03 0. -1.
        -11    1    3    3    0    0 -0.21910681485E+02 -0.12022074843E+02  0.82481765174E+01  0.26318067231E+02  0.51100000000E-03 0.  1.
         12    1    3    3    0    0  0.19654883192E+01  0.23954314276E+02  0.89340180294E+01  0.25641548216E+02  0.00000000000E+00 0. -1.
</event>
<event>
 7    1  0.1788006E-013  0.7246151E+02  0.7816164E-02  0.1226708E+00
        -11   -1    0    0    0    0  0.00000000000E+00  0.00000000000E+00  0.45593999997E+02  0.45594000000E+02  0.51100000000E-03 0. -1.
         11   -1    0    0    0    0 -0.00000000000E+00 -0.00000000000E+00 -0.45593999997E+02  0.45594000000E+02  0.51100000000E-03 0.  1.
    9900012    2    1    2    0    0  0.16351571777E+02 -0.84603033322E+01  0.34250276346E+01  0.72461509503E+02  0.69999920808E+02 0.  0.
        -12    1    1    2    0    0 -0.16351571777E+02  0.84603033322E+01 -0.34250276346E+01  0.18726490497E+02  0.00000000000E+00 0.  1.
         11    1    3    3    0    0  0.38778785139E+02 -0.13391809088E+02 -0.93580097384E+01  0.42079770366E+02  0.51100000000E-03 0. -1.
        -11    1    3    3    0    0  0.67090552358E+00  0.15625631498E+01 -0.20969896789E+01  0.26998303267E+01  0.51100000000E-03 0.  1.
         12    1    3    3    0    0 -0.23098118886E+02  0.33689426065E+01  0.14880027052E+02  0.27681908811E+02  0.00000000000E+00 0. -1.
</event>
<event>
 7    1  0.1788006E-013  0.7246154E+02  0.7816164E-02  0.1226708E+00
        -11   -1    0    0    0    0  0.00000000000E+00  0.00000000000E+00  0.45593999997E+02  0.45594000000E+02  0.51100000000E-03 0. -1.
         11   -1    0    0    0    0 -0.00000000000E+00 -0.00000000000E+00 -0.45593999997E+02  0.45594000000E+02  0.51100000000E-03 0.  1.
    9900012    2    1    2    0    0  0.21449646910E+01 -0.16883165211E+02  0.78126829854E+01  0.72461543942E+02  0.69999965671E+02 0.  0.
        -12    1    1    2    0    0 -0.21449646910E+01  0.16883165211E+02 -0.78126829854E+01  0.18726456058E+02  0.00000000000E+00 0.  1.
         11    1    3    3    0    0 -0.12459434106E+02  0.12751054923E+01  0.13522760635E+02  0.18431723948E+02  0.51100000000E-03 0. -1.
        -11    1    3    3    0    0  0.11446747288E+02  0.12417186662E+02  0.98780898939E+01  0.19565050685E+02  0.51100000000E-03 0.  1.
        -12    1    3    3    0    0  0.31576515090E+01 -0.30575457365E+02 -0.15588167543E+02  0.34464769309E+02  0.00000000000E+00 0.  1.
</event>
<event>
 7    1  0.1788006E-013  0.7246154E+02  0.7816164E-02  0.1226708E+00
        -11   -1    0    0    0    0  0.00000000000E+00  0.00000000000E+00  0.45593999997E+02  0.45594000000E+02  0.51100000000E-03 0.  1.
         11   -1    0    0    0    0 -0.00000000000E+00 -0.00000000000E+00 -0.45593999997E+02  0.45594000000E+02  0.51100000000E-03 0. -1.
    9900012    2    1    2    0    0  0.14226823610E+02 -0.12176841921E+02  0.47437865467E-01  0.72461541724E+02  0.69999962782E+02 0.  0.
        -12    1    1    2    0    0 -0.14226823610E+02  0.12176841921E+02 -0.47437865467E-01  0.18726458276E+02  0.00000000000E+00 0.  1.
         11    1    3    3    0    0 -0.14404219372E+01 -0.38257902769E+01 -0.13943463373E+01  0.43192231442E+01  0.51100000000E-03 0. -1.
        -11    1    3    3    0    0  0.40135889499E+02 -0.11471212612E+02 -0.64619666343E+01  0.42240210199E+02  0.51100000000E-03 0.  1.
         12    1    3    3    0    0 -0.24468643951E+02  0.31201609674E+01  0.79037508370E+01  0.25902108381E+02  0.00000000000E+00 0. -1.
</event>
<event>
 7    1  0.1788006E-013  0.7246159E+02  0.7816164E-02  0.1226708E+00
        -11   -1    0    0    0    0  0.00000000000E+00  0.00000000000E+00  0.45593999997E+02  0.45594000000E+02  0.51100000000E-03 0. -1.
         11   -1    0    0    0    0 -0.00000000000E+00 -0.00000000000E+00 -0.45593999997E+02  0.45594000000E+02  0.51100000000E-03 0.  1.
    9900012    2    1    2    0    0  0.48555654065E+01 -0.10958463720E+02  0.14387975154E+02  0.72461594271E+02  0.70000031234E+02 0.  0.
        -12    1    1    2    0    0 -0.48555654065E+01  0.10958463720E+02 -0.14387975154E+02  0.18726405729E+02  0.00000000000E+00 0.  1.
         11    1    3    3    0    0 -0.15603509725E+02  0.15122946840E+02  0.19515767395E+02  0.29206817939E+02  0.51100000000E-03 0. -1.
        -11    1    3    3    0    0  0.76857351270E+01 -0.74259711954E+01  0.11112171467E+02  0.15417390428E+02  0.51100000000E-03 0.  1.
        -12    1    3    3    0    0  0.12773340005E+02 -0.18655439364E+02 -0.16239963708E+02  0.27837385904E+02  0.00000000000E+00 0.  1.
</event>
<event>
 7    1  0.1788006E-013  0.7246156E+02  0.7816164E-02  0.1226708E+00
        -11   -1    0    0    0    0  0.00000000000E+00  0.00000000000E+00  0.45593999997E+02  0.45594000000E+02  0.51100000000E-03 0. -1.
         11   -1    0    0    0    0 -0.00000000000E+00 -0.00000000000E+00 -0.45593999997E+02  0.45594000000E+02  0.51100000000E-03 0.  1.
    9900012    2    1    2    0    0 -0.52988533725E+01 -0.11569937135E+02  0.13738206503E+02  0.72461558525E+02  0.69999984669E+02 0.  0.
        -12    1    1    2    0    0  0.52988533725E+01  0.11569937135E+02 -0.13738206503E+02  0.18726441475E+02  0.00000000000E+00 0.  1.
         11    1    3    3    0    0 -0.28227348468E+02  0.14242519084E+01  0.99017388049E+01  0.29947556272E+02  0.51100000000E-03 0. -1.
        -11    1    3    3    0    0 -0.20880886153E+01 -0.12666552690E+02 -0.76934263908E+01  0.14966311536E+02  0.51100000000E-03 0.  1.
        -12    1    3    3    0    0  0.25016583711E+02 -0.32763635408E+00  0.11529894089E+02  0.27547690717E+02  0.00000000000E+00 0.  1.
</event>
<event>
 7    1  0.1788006E-013  0.7246153E+02  0.7816164E-02  0.1226708E+00
        -11   -1    0    0    0    0  0.00000000000E+00  0.00000000000E+00  0.45593999997E+02  0.45594000000E+02  0.51100000000E-03 0.  1.
         11   -1    0    0    0    0 -0.00000000000E+00 -0.00000000000E+00 -0.45593999997E+02  0.45594000000E+02  0.51100000000E-03 0. -1.
    9900012    2    1    2    0    0  0.62859268654E+00  0.14556086815E+02 -0.11764603524E+02  0.72461529745E+02  0.69999947177E+02 0.  0.
        -12    1    1    2    0    0 -0.62859268654E+00 -0.14556086815E+02  0.11764603524E+02  0.18726470255E+02  0.00000000000E+00 0.  1.
         11    1    3    3    0    0 -0.14539409143E+02  0.65697872259E+01 -0.49810881335E+00  0.15962601137E+02  0.51100000000E-03 0. -1.
        -11    1    3    3    0    0 -0.10534196072E+01 -0.65708239477E+01  0.18468808497E+02  0.19631156558E+02  0.51100000000E-03 0.  1.
         12    1    3    3    0    0  0.16221421436E+02  0.14557123537E+02 -0.29735303208E+02  0.36867772050E+02  0.00000000000E+00 0. -1.
</event>
<event>
 7    1  0.1788006E-013  0.7246161E+02  0.7816164E-02  0.1226708E+00
        -11   -1    0    0    0    0  0.00000000000E+00  0.00000000000E+00  0.45593999997E+02  0.45594000000E+02  0.51100000000E-03 0. -1.
         11   -1    0    0    0    0 -0.00000000000E+00 -0.00000000000E+00 -0.45593999997E+02  0.45594000000E+02  0.51100000000E-03 0.  1.
    9900012    2    1    2    0    0 -0.34134027194E+01 -0.46523347339E+01  0.17815223246E+02  0.72461609106E+02  0.70000050559E+02 0.  0.
        -12    1    1    2    0    0  0.34134027194E+01  0.46523347339E+01 -0.17815223246E+02  0.18726390894E+02  0.00000000000E+00 0.  1.
         11    1    3    3    0    0 -0.30829798294E-01 -0.21723716480E+01  0.38179823787E+02  0.38241588535E+02  0.51100000000E-03 0. -1.
        -11    1    3    3    0    0 -0.12239216088E+02 -0.68818855576E+01 -0.31867206570E+01  0.14398400886E+02  0.51100000000E-03 0.  1.
        -12    1    3    3    0    0  0.88566431666E+01  0.44019224717E+01 -0.17177879883E+02  0.19821619684E+02  0.00000000000E+00 0.  1.
</event>
<event>
 7    1  0.1788006E-013  0.7246168E+02  0.7816164E-02  0.1226708E+00
        -11   -1    0    0    0    0  0.00000000000E+00  0.00000000000E+00  0.45593999997E+02  0.45594000000E+02  0.51100000000E-03 0.  1.
         11   -1    0    0    0    0 -0.00000000000E+00 -0.00000000000E+00 -0.45593999997E+02  0.45594000000E+02  0.51100000000E-03 0. -1.
    9900012    2    1    2    0    0 -0.35446810211E+01 -0.62201450069E+01 -0.17303761892E+02  0.72461677802E+02  0.70000140049E+02 0.  0.
        -12    1    1    2    0    0  0.35446810211E+01  0.62201450069E+01  0.17303761892E+02  0.18726322198E+02  0.00000000000E+00 0.  1.
         11    1    3    3    0    0 -0.13642879191E+02 -0.15301442551E+01 -0.26812314974E+00  0.13731037264E+02  0.51100000000E-03 0. -1.
        -11    1    3    3    0    0  0.53336790563E+00 -0.29331658421E+02 -0.12601208639E+02  0.31928374943E+02  0.51100000000E-03 0.  1.
         12    1    3    3    0    0  0.95648302647E+01  0.24641657669E+02 -0.44344301032E+01  0.26802265595E+02  0.00000000000E+00 0. -1.
</event>
<event>
 7    1  0.1788006E-013  0.7246157E+02  0.7816164E-02  0.1226708E+00
        -11   -1    0    0    0    0  0.00000000000E+00  0.00000000000E+00  0.45593999997E+02  0.45594000000E+02  0.51100000000E-03 0. -1.
         11   -1    0    0    0    0 -0.00000000000E+00 -0.00000000000E+00 -0.45593999997E+02  0.45594000000E+02  0.51100000000E-03 0.  1.
    9900012    2    1    2    0    0 -0.17410200543E+01 -0.14894899853E+02  0.11215616599E+02  0.72461568195E+02  0.69999997265E+02 0.  0.
        -12    1    1    2    0    0  0.17410200543E+01  0.14894899853E+02 -0.11215616599E+02  0.18726431805E+02  0.00000000000E+00 0.  1.
         11    1    3    3    0    0  0.21905691361E+02 -0.16394060206E+02 -0.15801460135E+02  0.31596054606E+02  0.51100000000E-03 0. -1.
        -11    1    3    3    0    0 -0.30269010322E+01  0.34818025251E+01 -0.21507364238E+01  0.50902599254E+01  0.51100000000E-03 0.  1.
        -12    1    3    3    0    0 -0.20619810383E+02 -0.19826421722E+01  0.29167813158E+02  0.35775253663E+02  0.00000000000E+00 0.  1.
</event>
<event>
 7    1  0.1788006E-013  0.7246158E+02  0.7816164E-02  0.1226708E+00
        -11   -1    0    0    0    0  0.00000000000E+00  0.00000000000E+00  0.45593999997E+02  0.45594000000E+02  0.51100000000E-03 0. -1.
         11   -1    0    0    0    0 -0.00000000000E+00 -0.00000000000E+00 -0.45593999997E+02  0.45594000000E+02  0.51100000000E-03 0.  1.
    9900012    2    1    2    0    0  0.64277411595E+01  0.88106643604E+01  0.15222851852E+02  0.72461577987E+02  0.70000010021E+02 0.  0.
        -12    1    1    2    0    0 -0.64277411595E+01 -0.88106643604E+01 -0.15222851852E+02  0.18726422013E+02  0.00000000000E+00 0.  1.
         11    1    3    3    0    0 -0.29362536225E+01 -0.13414540725E+02 -0.55009682054E+01  0.14792976024E+02  0.51100000000E-03 0. -1.
        -11    1    3    3    0    0 -0.19391279855E+02  0.13941957567E+02  0.86841236230E+01  0.25412869153E+02  0.51100000000E-03 0.  1.
         12    1    3    3    0    0  0.28755274637E+02  0.82832475179E+01  0.12039696435E+02  0.32255732810E+02  0.00000000000E+00 0. -1.
</event>
<event>
 7    1  0.1898282E-013  0.7246160E+02  0.7816164E-02  0.1226708E+00
        -11   -1    0    0    0    0  0.00000000000E+00  0.00000000000E+00  0.45593999997E+02  0.45594000000E+02  0.51100000000E-03 0. -1.
         11   -1    0    0    0    0 -0.00000000000E+00 -0.00000000000E+00 -0.45593999997E+02  0.45594000000E+02  0.51100000000E-03 0.  1.
    9900012    2    1    2    0    0 -0.15467966106E+01  0.14865299264E+02  0.11283107017E+02  0.72461596023E+02  0.70000033516E+02 0.  0.
        -12    1    1    2    0    0  0.15467966106E+01 -0.14865299264E+02 -0.11283107017E+02  0.18726403977E+02  0.00000000000E+00 0.  1.
         11    1    3    3    0    0 -0.14190136906E+01  0.23667234100E+01 -0.68725970606E+01  0.74059145399E+01  0.51100000000E-03 0. -1.
        -11    1    3    3    0    0  0.11849504353E+02 -0.63131547822E+01 -0.18072301002E+02  0.22513878841E+02  0.51100000000E-03 0.  1.
         12    1    3    3    0    0 -0.11977287273E+02  0.18811730636E+02  0.36228005079E+02  0.42541802641E+02  0.00000000000E+00 0. -1.
</event>
<event>
 7    1  0.1788006E-013  0.7246158E+02  0.7816164E-02  0.1226708E+00
        -11   -1    0    0    0    0  0.00000000000E+00  0.00000000000E+00  0.45593999997E+02  0.45594000000E+02  0.51100000000E-03 0.  1.
         11   -1    0    0    0    0 -0.00000000000E+00 -0.00000000000E+00 -0.45593999997E+02  0.45594000000E+02  0.51100000000E-03 0. -1.
    9900012    2    1    2    0    0 -0.17952101280E+02  0.36407622674E+01 -0.38917479970E+01  0.72461580354E+02  0.70000013105E+02 0.  0.
        -12    1    1    2    0    0  0.17952101280E+02 -0.36407622674E+01  0.38917479970E+01  0.18726419646E+02  0.00000000000E+00 0.  1.
         11    1    3    3    0    0  0.26278801834E+01 -0.95773431816E+01 -0.10294528422E+02  0.14304145286E+02  0.51100000000E-03 0. -1.
        -11    1    3    3    0    0 -0.47001450524E+01  0.22508354206E+02  0.23617182825E+02  0.32961928000E+02  0.51100000000E-03 0.  1.
         12    1    3    3    0    0 -0.15879836411E+02 -0.92902487573E+01 -0.17214402401E+02  0.25195507068E+02  0.00000000000E+00 0. -1.
</event>
<event>
 7    1  0.1788006E-013  0.7246158E+02  0.7816164E-02  0.1226708E+00
        -11   -1    0    0    0    0  0.00000000000E+00  0.00000000000E+00  0.45593999997E+02  0.45594000000E+02  0.51100000000E-03 0.  1.
         11   -1    0    0    0    0 -0.00000000000E+00 -0.00000000000E+00 -0.45593999997E+02  0.45594000000E+02  0.51100000000E-03 0. -1.
    9900012    2    1    2    0    0  0.54089475101E+01 -0.50390220047E+01 -0.17205531145E+02  0.72461581284E+02  0.70000014316E+02 0.  0.
        -12    1    1    2    0    0 -0.54089475101E+01  0.50390220047E+01  0.17205531145E+02  0.18726418716E+02  0.00000000000E+00 0.  1.
         11    1    3    3    0    0 -0.10330627594E+02  0.41064507775E+00  0.79489127711E+01  0.13041307847E+02  0.51100000000E-03 0. -1.
        -11    1    3    3    0    0  0.19320670609E+02  0.41230079869E+01  0.10470037154E+02  0.22358649018E+02  0.51100000000E-03 0.  1.
        -12    1    3    3    0    0 -0.35810955057E+01 -0.95726750693E+01 -0.35624481071E+02  0.37061624419E+02  0.00000000000E+00 0.  1.
</event>
<event>
 7    1  0.1788006E-013  0.7246155E+02  0.7816164E-02  0.1226708E+00
        -11   -1    0    0    0    0  0.00000000000E+00  0.00000000000E+00  0.45593999997E+02  0.45594000000E+02  0.51100000000E-03 0.  1.
         11   -1    0    0    0    0 -0.00000000000E+00 -0.00000000000E+00 -0.45593999997E+02  0.45594000000E+02  0.51100000000E-03 0. -1.
    9900012    2    1    2    0    0  0.25750951873E+01 -0.18319787492E+02  0.29041377779E+01  0.72461554923E+02  0.69999979977E+02 0.  0.
        -12    1    1    2    0    0 -0.25750951873E+01  0.18319787492E+02 -0.29041377779E+01  0.18726445077E+02  0.00000000000E+00 0.  1.
         11    1    3    3    0    0 -0.14239334921E+01 -0.64217610486E+01 -0.20381128422E+02  0.21416278799E+02  0.51100000000E-03 0. -1.
        -11    1    3    3    0    0  0.45495950012E+00  0.14762574701E+02 -0.10065709448E+01  0.14803843598E+02  0.51100000000E-03 0.  1.
        -12    1    3    3    0    0  0.35440691793E+01 -0.26660601144E+02  0.24291837145E+02  0.36241432527E+02  0.00000000000E+00 0.  1.
</event>
<event>
 7    1  0.1788006E-013  0.7246141E+02  0.7816164E-02  0.1226708E+00
        -11   -1    0    0    0    0  0.00000000000E+00  0.00000000000E+00  0.45593999997E+02  0.45594000000E+02  0.51100000000E-03 0. -1.
         11   -1    0    0    0    0 -0.00000000000E+00 -0.00000000000E+00 -0.45593999997E+02  0.45594000000E+02  0.51100000000E-03 0.  1.
    9900012    2    1    2    0    0  0.77348919019E+01 -0.66011036019E+01  0.15725208643E+02  0.72461406387E+02  0.69999786480E+02 0.  0.
        -12    1    1    2    0    0 -0.77348919019E+01  0.66011036019E+01 -0.15725208643E+02  0.18726593613E+02  0.00000000000E+00 0.  1.
         11    1    3    3    0    0  0.20719649593E+02  0.81734104452E+01  0.23763748659E+02  0.32570297329E+02  0.51100000000E-03 0. -1.
        -11    1    3    3    0    0  0.10327418327E+02 -0.49010070118E+01  0.36587463018E+01  0.12002577381E+02  0.51100000000E-03 0.  1.
        -12    1    3    3    0    0 -0.23312176018E+02 -0.98735070354E+01 -0.11697286318E+02  0.27888531676E+02  0.00000000000E+00 0.  1.
</event>
<event>
 7    1  0.1788006E-013  0.7246155E+02  0.7816164E-02  0.1226708E+00
        -11   -1    0    0    0    0  0.00000000000E+00  0.00000000000E+00  0.45593999997E+02  0.45594000000E+02  0.51100000000E-03 0.  1.
         11   -1    0    0    0    0 -0.00000000000E+00 -0.00000000000E+00 -0.45593999997E+02  0.45594000000E+02  0.51100000000E-03 0. -1.
    9900012    2    1    2    0    0 -0.20366920077E+00 -0.18569807961E+02  0.24084246672E+01  0.72461554576E+02  0.69999979524E+02 0.  0.
        -12    1    1    2    0    0  0.20366920077E+00  0.18569807961E+02 -0.24084246672E+01  0.18726445424E+02  0.00000000000E+00 0.  1.
         11    1    3    3    0    0 -0.14977791255E+02  0.49773239818E+01 -0.10149440328E+02  0.18764837439E+02  0.51100000000E-03 0. -1.
        -11    1    3    3    0    0 -0.28775990547E+01 -0.80987879333E+01 -0.15134566651E+02  0.17404770906E+02  0.51100000000E-03 0.  1.
        -12    1    3    3    0    0  0.17651721109E+02 -0.15448344009E+02  0.27692431646E+02  0.36291946231E+02  0.00000000000E+00 0.  1.
</event>
<event>
 7    1  0.1788006E-013  0.7246161E+02  0.7816164E-02  0.1226708E+00
        -11   -1    0    0    0    0  0.00000000000E+00  0.00000000000E+00  0.45593999997E+02  0.45594000000E+02  0.51100000000E-03 0.  1.
         11   -1    0    0    0    0 -0.00000000000E+00 -0.00000000000E+00 -0.45593999997E+02  0.45594000000E+02  0.51100000000E-03 0. -1.
    9900012    2    1    2    0    0  0.69008834782E+01 -0.15502645455E+02 -0.79198245994E+01  0.72461606044E+02  0.70000046571E+02 0.  0.
        -12    1    1    2    0    0 -0.69008834782E+01  0.15502645455E+02  0.79198245994E+01  0.18726393956E+02  0.00000000000E+00 0.  1.
         11    1    3    3    0    0  0.89405525915E+01  0.85493237338E+01 -0.27142932816E+02  0.29828899059E+02  0.51100000000E-03 0. -1.
        -11    1    3    3    0    0  0.11515972044E+02 -0.23101194312E+01  0.24181927264E+01  0.11991743836E+02  0.51100000000E-03 0.  1.
        -12    1    3    3    0    0 -0.13555641158E+02 -0.21741849758E+02  0.16804915490E+02  0.30640963149E+02  0.00000000000E+00 0.  1.
</event>
<event>
 7    1  0.1788006E-013  0.7246157E+02  0.7816164E-02  0.1226708E+00
        -11   -1    0    0    0    0  0.00000000000E+00  0.00000000000E+00  0.45593999997E+02  0.45594000000E+02  0.51100000000E-03 0. -1.
         11   -1    0    0    0    0 -0.00000000000E+00 -0.00000000000E+00 -0.45593999997E+02  0.45594000000E+02  0.51100000000E-03 0.  1.
    9900012    2    1    2    0    0 -0.84546374269E+01  0.15349575532E+01  0.16638572940E+02  0.72461572199E+02  0.70000002482E+02 0.  0.
        -12    1    1    2    0    0  0.84546374269E+01 -0.15349575532E+01 -0.16638572940E+02  0.18726427801E+02  0.00000000000E+00 0.  1.
         11    1    3    3    0    0  0.55838295182E+01  0.13132730965E+02  0.51610908101E+01  0.15175132068E+02  0.51100000000E-03 0. -1.
        -11    1    3    3    0    0  0.12896976152E+02 -0.22878287845E+02  0.10691654401E+01  0.26284808609E+02  0.51100000000E-03 0.  1.
         12    1    3    3    0    0 -0.26935443097E+02  0.11280514434E+02  0.10408316689E+02  0.31001631522E+02  0.00000000000E+00 0. -1.
</event>
<event>
 7    1  0.1788006E-013  0.7246158E+02  0.7816164E-02  0.1226708E+00
        -11   -1    0    0    0    0  0.00000000000E+00  0.00000000000E+00  0.45593999997E+02  0.45594000000E+02  0.51100000000E-03 0. -1.
         11   -1    0    0    0    0 -0.00000000000E+00 -0.00000000000E+00 -0.45593999997E+02  0.45594000000E+02  0.51100000000E-03 0.  1.
    9900012    2    1    2    0    0  0.11455958244E+02  0.14554253068E+02  0.27592780634E+01  0.72461578103E+02  0.70000010172E+02 0.  0.
        -12    1    1    2    0    0 -0.11455958244E+02 -0.14554253068E+02 -0.27592780634E+01  0.18726421897E+02  0.00000000000E+00 0.  1.
         11    1    3    3    0    0 -0.81252375223E+01  0.17852499195E+02  0.13542250170E+02  0.23835346698E+02  0.51100000000E-03 0. -1.
        -11    1    3    3    0    0 -0.44903178177E+01 -0.97117694009E+01  0.11137115491E+02  0.15443987850E+02  0.51100000000E-03 0.  1.
        -12    1    3    3    0    0  0.24071513584E+02  0.64135232735E+01 -0.21920087598E+02  0.33182243554E+02  0.00000000000E+00 0.  1.
</event>
<event>
 7    1  0.1788006E-013  0.7246159E+02  0.7816164E-02  0.1226708E+00
        -11   -1    0    0    0    0  0.00000000000E+00  0.00000000000E+00  0.45593999997E+02  0.45594000000E+02  0.51100000000E-03 0.  1.
         11   -1    0    0    0    0 -0.00000000000E+00 -0.00000000000E+00 -0.45593999997E+02  0.45594000000E+02  0.51100000000E-03 0. -1.
    9900012    2    1    2    0    0  0.48321097911E+01 -0.87950094352E+01 -0.15810665229E+02  0.72461585207E+02  0.70000019427E+02 0.  0.
        -12    1    1    2    0    0 -0.48321097911E+01  0.87950094352E+01  0.15810665229E+02  0.18726414793E+02  0.00000000000E+00 0.  1.
         11    1    3    3    0    0  0.26946664154E+01 -0.95467828752E+01  0.92356582743E+01  0.13553585296E+02  0.51100000000E-03 0. -1.
        -11    1    3    3    0    0 -0.20095742307E+02  0.15801571668E+02 -0.68213154633E+01  0.26458625644E+02  0.51100000000E-03 0.  1.
        -12    1    3    3    0    0  0.22233185683E+02 -0.15049798228E+02 -0.18225008040E+02  0.32449374268E+02  0.00000000000E+00 0.  1.
</event>
<event>
 7    1  0.1788006E-013  0.7246156E+02  0.7816164E-02  0.1226708E+00
        -11   -1    0    0    0    0  0.00000000000E+00  0.00000000000E+00  0.45593999997E+02  0.45594000000E+02  0.51100000000E-03 0.  1.
         11   -1    0    0    0    0 -0.00000000000E+00 -0.00000000000E+00 -0.45593999997E+02  0.45594000000E+02  0.51100000000E-03 0. -1.
    9900012    2    1    2    0    0 -0.11520685334E+02  0.31035667552E+01 -0.14433338033E+02  0.72461559763E+02  0.69999986281E+02 0.  0.
        -12    1    1    2    0    0  0.11520685334E+02 -0.31035667552E+01  0.14433338033E+02  0.18726440237E+02  0.00000000000E+00 0.  1.
         11    1    3    3    0    0 -0.12989885083E+02  0.12501438664E+01 -0.15987193210E+02  0.20637110290E+02  0.51100000000E-03 0. -1.
        -11    1    3    3    0    0  0.52125659186E+01  0.25711047695E+02 -0.52081523285E+01  0.26746096313E+02  0.51100000000E-03 0.  1.
         12    1    3    3    0    0 -0.37433661697E+01 -0.23857624807E+02  0.67620075052E+01  0.25078353160E+02  0.00000000000E+00 0. -1.
</event>
<event>
 7    1  0.1788006E-013  0.7246168E+02  0.7816164E-02  0.1226708E+00
        -11   -1    0    0    0    0  0.00000000000E+00  0.00000000000E+00  0.45593999997E+02  0.45594000000E+02  0.51100000000E-03 0.  1.
         11   -1    0    0    0    0 -0.00000000000E+00 -0.00000000000E+00 -0.45593999997E+02  0.45594000000E+02  0.51100000000E-03 0. -1.
    9900012    2    1    2    0    0 -0.51917462522E+01  0.85858726635E+01 -0.15811498621E+02  0.72461683566E+02  0.70000147558E+02 0.  0.
        -12    1    1    2    0    0  0.51917462522E+01 -0.85858726635E+01  0.15811498621E+02  0.18726316434E+02  0.00000000000E+00 0.  1.
         11    1    3    3    0    0 -0.26378705951E+02  0.21810131803E+02 -0.12817071276E+00  0.34227684773E+02  0.51100000000E-03 0. -1.
        -11    1    3    3    0    0 -0.55360027440E+01 -0.21929146587E+01 -0.29113444327E+01  0.66281315428E+01  0.51100000000E-03 0.  1.
         12    1    3    3    0    0  0.26722962443E+02 -0.11031344481E+02 -0.12771983475E+02  0.31605867251E+02  0.00000000000E+00 0. -1.
</event>
<event>
 7    1  0.1788006E-013  0.7246190E+02  0.7816164E-02  0.1226707E+00
        -11   -1    0    0    0    0  0.00000000000E+00  0.00000000000E+00  0.45593999997E+02  0.45594000000E+02  0.51100000000E-03 0.  1.
         11   -1    0    0    0    0 -0.00000000000E+00 -0.00000000000E+00 -0.45593999997E+02  0.45594000000E+02  0.51100000000E-03 0. -1.
    9900012    2    1    2    0    0 -0.12198442713E+02  0.85333743596E+01 -0.11359864686E+02  0.72461895005E+02  0.70000422995E+02 0.  0.
        -12    1    1    2    0    0  0.12198442713E+02 -0.85333743596E+01  0.11359864686E+02  0.18726104995E+02  0.00000000000E+00 0.  1.
         11    1    3    3    0    0 -0.14667760779E+02  0.91869964740E+01 -0.15041042357E+02  0.22929829174E+02  0.51100000000E-03 0. -1.
        -11    1    3    3    0    0 -0.97815233688E+01 -0.87304834882E+00  0.23928864006E+02  0.25865632521E+02  0.51100000000E-03 0.  1.
         12    1    3    3    0    0  0.12250841435E+02  0.21942623433E+00 -0.20247686335E+02  0.23666433311E+02  0.00000000000E+00 0. -1.
</event>
<event>
 7    1  0.1788006E-013  0.7246157E+02  0.7816164E-02  0.1226708E+00
        -11   -1    0    0    0    0  0.00000000000E+00  0.00000000000E+00  0.45593999997E+02  0.45594000000E+02  0.51100000000E-03 0.  1.
         11   -1    0    0    0    0 -0.00000000000E+00 -0.00000000000E+00 -0.45593999997E+02  0.45594000000E+02  0.51100000000E-03 0. -1.
    9900012    2    1    2    0    0  0.80755809071E+01  0.15862132171E+02  0.58186622819E+01  0.72461572825E+02  0.70000003297E+02 0.  0.
        -12    1    1    2    0    0 -0.80755809071E+01 -0.15862132171E+02 -0.58186622819E+01  0.18726427175E+02  0.00000000000E+00 0.  1.
         11    1    3    3    0    0  0.80369165693E+01 -0.12151258470E+02 -0.20729817700E+02  0.25337135838E+02  0.51100000000E-03 0. -1.
        -11    1    3    3    0    0  0.62909191084E+00 -0.50736417182E+01  0.75643543166E+00  0.51681516755E+01  0.51100000000E-03 0.  1.
        -12    1    3    3    0    0 -0.59042757304E+00  0.33087032359E+02  0.25792044550E+02  0.41956285311E+02  0.00000000000E+00 0.  1.
</event>
<event>
 7    1  0.1788006E-013  0.7246144E+02  0.7816164E-02  0.1226708E+00
        -11   -1    0    0    0    0  0.00000000000E+00  0.00000000000E+00  0.45593999997E+02  0.45594000000E+02  0.51100000000E-03 0.  1.
         11   -1    0    0    0    0 -0.00000000000E+00 -0.00000000000E+00 -0.45593999997E+02  0.45594000000E+02  0.51100000000E-03 0. -1.
    9900012    2    1    2    0    0  0.18159372276E+02 -0.13911985656E+01  0.43572921925E+01  0.72461435175E+02  0.69999823981E+02 0.  0.
        -12    1    1    2    0    0 -0.18159372276E+02  0.13911985656E+01 -0.43572921925E+01  0.18726564825E+02  0.00000000000E+00 0.  1.
         11    1    3    3    0    0  0.20108123657E+02 -0.12419436331E+02 -0.26636048622E+02  0.35609803738E+02  0.51100000000E-03 0. -1.
        -11    1    3    3    0    0  0.77586476553E+00  0.47453883550E+00 -0.19501554083E+01  0.21518038057E+01  0.51100000000E-03 0.  1.
        -12    1    3    3    0    0 -0.27246161471E+01  0.10553698930E+02  0.32943496223E+02  0.34699827631E+02  0.00000000000E+00 0.  1.
</event>
<event>
 7    1  0.1788006E-013  0.7246157E+02  0.7816164E-02  0.1226708E+00
        -11   -1    0    0    0    0  0.00000000000E+00  0.00000000000E+00  0.45593999997E+02  0.45594000000E+02  0.51100000000E-03 0. -1.
         11   -1    0    0    0    0 -0.00000000000E+00 -0.00000000000E+00 -0.45593999997E+02  0.45594000000E+02  0.51100000000E-03 0.  1.
    9900012    2    1    2    0    0  0.98202472424E+01  0.97607713623E+01  0.12608299099E+02  0.72461571625E+02  0.70000001734E+02 0.  0.
        -12    1    1    2    0    0 -0.98202472424E+01 -0.97607713623E+01 -0.12608299099E+02  0.18726428375E+02  0.00000000000E+00 0.  1.
         11    1    3    3    0    0  0.28402709764E+01  0.47891858868E+01  0.10856795489E+02  0.12201370793E+02  0.51100000000E-03 0. -1.
        -11    1    3    3    0    0  0.25069630495E+02  0.23059670371E+02  0.51662406458E+01  0.34451775186E+02  0.51100000000E-03 0.  1.
        -12    1    3    3    0    0 -0.18089654229E+02 -0.18088084895E+02 -0.34147370356E+01  0.25808425646E+02  0.00000000000E+00 0.  1.
</event>
<event>
 7    1  0.1788006E-013  0.7246157E+02  0.7816164E-02  0.1226708E+00
        -11   -1    0    0    0    0  0.00000000000E+00  0.00000000000E+00  0.45593999997E+02  0.45594000000E+02  0.51100000000E-03 0.  1.
         11   -1    0    0    0    0 -0.00000000000E+00 -0.00000000000E+00 -0.45593999997E+02  0.45594000000E+02  0.51100000000E-03 0. -1.
    9900012    2    1    2    0    0 -0.49712416722E+01 -0.64732482706E+01 -0.16854166284E+02  0.72461571935E+02  0.70000002137E+02 0.  0.
        -12    1    1    2    0    0  0.49712416722E+01  0.64732482706E+01  0.16854166284E+02  0.18726428065E+02  0.00000000000E+00 0.  1.
         11    1    3    3    0    0 -0.12436332984E+02 -0.24720993185E+02 -0.23987392021E+02  0.36622190791E+02  0.51100000000E-03 0. -1.
        -11    1    3    3    0    0  0.62887688643E+01 -0.29272961786E+01 -0.73899357770E+01  0.10135523065E+02  0.51100000000E-03 0.  1.
        -12    1    3    3    0    0  0.11763224472E+01  0.21175041093E+02  0.14523161514E+02  0.25703858079E+02  0.00000000000E+00 0.  1.
</event>
<event>
 7    1  0.1788006E-013  0.7246159E+02  0.7816164E-02  0.1226708E+00
        -11   -1    0    0    0    0  0.00000000000E+00  0.00000000000E+00  0.45593999997E+02  0.45594000000E+02  0.51100000000E-03 0. -1.
         11   -1    0    0    0    0 -0.00000000000E+00 -0.00000000000E+00 -0.45593999997E+02  0.45594000000E+02  0.51100000000E-03 0.  1.
    9900012    2    1    2    0    0 -0.17101666529E+02  0.22920889936E+01  0.72771975572E+01  0.72461594197E+02  0.70000031137E+02 0.  0.
        -12    1    1    2    0    0  0.17101666529E+02 -0.22920889936E+01 -0.72771975572E+01  0.18726405803E+02  0.00000000000E+00 0.  1.
         11    1    3    3    0    0 -0.11101672146E+02 -0.21163915173E+02  0.98408289087E+01  0.25845702616E+02  0.51100000000E-03 0. -1.
        -11    1    3    3    0    0 -0.71255006309E+01  0.10720422943E+01 -0.18008958444E+02  0.19397026020E+02  0.51100000000E-03 0.  1.
         12    1    3    3    0    0  0.11255062476E+01  0.22383961872E+02  0.15445327093E+02  0.27218865560E+02  0.00000000000E+00 0. -1.
</event>
<event>
 7    1  0.1788006E-013  0.7246164E+02  0.7816164E-02  0.1226708E+00
        -11   -1    0    0    0    0  0.00000000000E+00  0.00000000000E+00  0.45593999997E+02  0.45594000000E+02  0.51100000000E-03 0.  1.
         11   -1    0    0    0    0 -0.00000000000E+00 -0.00000000000E+00 -0.45593999997E+02  0.45594000000E+02  0.51100000000E-03 0. -1.
    9900012    2    1    2    0    0  0.21475429000E+01  0.39086359904E+01 -0.18187551163E+02  0.72461644425E+02  0.70000096569E+02 0.  0.
        -12    1    1    2    0    0 -0.21475429000E+01 -0.39086359904E+01  0.18187551163E+02  0.18726355575E+02  0.00000000000E+00 0.  1.
         11    1    3    3    0    0  0.24248650579E+02 -0.21422068764E+01 -0.20784372756E+02  0.32009002739E+02  0.51100000000E-03 0. -1.
        -11    1    3    3    0    0  0.12862399761E+01 -0.94611192501E+01 -0.57846706557E+01  0.11163763057E+02  0.51100000000E-03 0.  1.
        -12    1    3    3    0    0 -0.23387347655E+02  0.15511962117E+02  0.83814922486E+01  0.29288878630E+02  0.00000000000E+00 0.  1.
</event>
<event>
 7    1  0.1788006E-013  0.7246155E+02  0.7816164E-02  0.1226708E+00
        -11   -1    0    0    0    0  0.00000000000E+00  0.00000000000E+00  0.45593999997E+02  0.45594000000E+02  0.51100000000E-03 0. -1.
         11   -1    0    0    0    0 -0.00000000000E+00 -0.00000000000E+00 -0.45593999997E+02  0.45594000000E+02  0.51100000000E-03 0.  1.
    9900012    2    1    2    0    0 -0.13790990580E+02  0.10229833744E+02  0.74725516517E+01  0.72461549515E+02  0.69999972931E+02 0.  0.
        -12    1    1    2    0    0  0.13790990580E+02 -0.10229833744E+02 -0.74725516517E+01  0.18726450485E+02  0.00000000000E+00 0.  1.
         11    1    3    3    0    0 -0.21403751563E+01  0.10055830206E+02  0.32961264489E+01  0.10796544668E+02  0.51100000000E-03 0. -1.
        -11    1    3    3    0    0  0.16638213731E+01 -0.14530336567E+01 -0.27331552872E+02  0.27420674519E+02  0.51100000000E-03 0.  1.
         12    1    3    3    0    0 -0.13314436796E+02  0.16270371949E+01  0.31507978075E+02  0.34244330328E+02  0.00000000000E+00 0. -1.
</event>
<event>
 7    1  0.1788006E-013  0.7246153E+02  0.7816164E-02  0.1226708E+00
        -11   -1    0    0    0    0  0.00000000000E+00  0.00000000000E+00  0.45593999997E+02  0.45594000000E+02  0.51100000000E-03 0.  1.
         11   -1    0    0    0    0 -0.00000000000E+00 -0.00000000000E+00 -0.45593999997E+02  0.45594000000E+02  0.51100000000E-03 0. -1.
    9900012    2    1    2    0    0  0.11569527542E+02  0.70853407416E+00 -0.14707977372E+02  0.72461532462E+02  0.69999950716E+02 0.  0.
        -12    1    1    2    0    0 -0.11569527542E+02 -0.70853407416E+00  0.14707977372E+02  0.18726467538E+02  0.00000000000E+00 0.  1.
         11    1    3    3    0    0 -0.14781625396E+02  0.46616998062E+01 -0.16204168733E+02  0.22423268696E+02  0.51100000000E-03 0. -1.
        -11    1    3    3    0    0 -0.59626129418E+01 -0.13736064974E+02 -0.47364710140E+01  0.15705616575E+02  0.51100000000E-03 0.  1.
        -12    1    3    3    0    0  0.32313765879E+02  0.97828992422E+01  0.62326623745E+01  0.34332647191E+02  0.00000000000E+00 0.  1.
</event>
<event>
 7    1  0.1788006E-013  0.7246160E+02  0.7816164E-02  0.1226708E+00
        -11   -1    0    0    0    0  0.00000000000E+00  0.00000000000E+00  0.45593999997E+02  0.45594000000E+02  0.51100000000E-03 0. -1.
         11   -1    0    0    0    0 -0.00000000000E+00 -0.00000000000E+00 -0.45593999997E+02  0.45594000000E+02  0.51100000000E-03 0.  1.
    9900012    2    1    2    0    0 -0.12591471891E+02 -0.13608162419E+02  0.26364357267E+01  0.72461600395E+02  0.70000039212E+02 0.  0.
        -12    1    1    2    0    0  0.12591471891E+02  0.13608162419E+02 -0.26364357267E+01  0.18726399605E+02  0.00000000000E+00 0.  1.
         11    1    3    3    0    0 -0.98492242478E+01 -0.37154028006E+00 -0.46082381191E+01  0.10880308786E+02  0.51100000000E-03 0. -1.
        -11    1    3    3    0    0 -0.11342020166E+02  0.94447221653E+01 -0.20158632362E+02  0.24984288207E+02  0.51100000000E-03 0.  1.
         12    1    3    3    0    0  0.85997725227E+01 -0.22681344304E+02  0.27403306208E+02  0.36597003402E+02  0.00000000000E+00 0. -1.
</event>
<event>
 7    1  0.1788006E-013  0.7246151E+02  0.7816164E-02  0.1226708E+00
        -11   -1    0    0    0    0  0.00000000000E+00  0.00000000000E+00  0.45593999997E+02  0.45594000000E+02  0.51100000000E-03 0. -1.
         11   -1    0    0    0    0 -0.00000000000E+00 -0.00000000000E+00 -0.45593999997E+02  0.45594000000E+02  0.51100000000E-03 0.  1.
    9900012    2    1    2    0    0  0.12283779709E+02 -0.11894286774E+02  0.76365118075E+01  0.72461505016E+02  0.69999914962E+02 0.  0.
        -12    1    1    2    0    0 -0.12283779709E+02  0.11894286774E+02 -0.76365118075E+01  0.18726494984E+02  0.00000000000E+00 0.  1.
         11    1    3    3    0    0 -0.15588124262E+02  0.15566971457E+02  0.51110589585E+01  0.22615108717E+02  0.51100000000E-03 0. -1.
        -11    1    3    3    0    0  0.33999394458E+01 -0.61078755640E+01  0.13797745805E+02  0.15467498883E+02  0.51100000000E-03 0.  1.
        -12    1    3    3    0    0  0.24471964525E+02 -0.21353382667E+02 -0.11272292956E+02  0.34378897416E+02  0.00000000000E+00 0.  1.
</event>
<event>
 7    1  0.1788006E-013  0.7246157E+02  0.7816164E-02  0.1226708E+00
        -11   -1    0    0    0    0  0.00000000000E+00  0.00000000000E+00  0.45593999997E+02  0.45594000000E+02  0.51100000000E-03 0. -1.
         11   -1    0    0    0    0 -0.00000000000E+00 -0.00000000000E+00 -0.45593999997E+02  0.45594000000E+02  0.51100000000E-03 0.  1.
    9900012    2    1    2    0    0 -0.14472000711E+02  0.11626654820E+02 -0.24619438489E+01  0.72461572834E+02  0.70000003309E+02 0.  0.
        -12    1    1    2    0    0  0.14472000711E+02 -0.11626654820E+02  0.24619438489E+01  0.18726427166E+02  0.00000000000E+00 0.  1.
         11    1    3    3    0    0 -0.46383782813E+01 -0.52753402239E+01 -0.61806267055E+01  0.93564904901E+01  0.51100000000E-03 0. -1.
        -11    1    3    3    0    0 -0.18723310858E+02  0.30908574639E+02 -0.14071405651E+02  0.38780237402E+02  0.51100000000E-03 0.  1.
         12    1    3    3    0    0  0.88896884284E+01 -0.14006579596E+02  0.17790088508E+02  0.24324844942E+02  0.00000000000E+00 0. -1.
</event>
<event>
 7    1  0.1788006E-013  0.7246156E+02  0.7816164E-02  0.1226708E+00
        -11   -1    0    0    0    0  0.00000000000E+00  0.00000000000E+00  0.45593999997E+02  0.45594000000E+02  0.51100000000E-03 0.  1.
         11   -1    0    0    0    0 -0.00000000000E+00 -0.00000000000E+00 -0.45593999997E+02  0.45594000000E+02  0.51100000000E-03 0. -1.
    9900012    2    1    2    0    0  0.10285421541E+02  0.28103852250E+01 -0.15394521269E+02  0.72461562899E+02  0.69999990366E+02 0.  0.
        -12    1    1    2    0    0 -0.10285421541E+02 -0.28103852250E+01  0.15394521269E+02  0.18726437101E+02  0.00000000000E+00 0.  1.
         11    1    3    3    0    0 -0.55727620384E+01 -0.17563693075E+02 -0.80136916988E+00  0.18444001300E+02  0.51100000000E-03 0. -1.
        -11    1    3    3    0    0 -0.13939880333E+02  0.15468180004E+02 -0.11157340015E+02  0.23623528373E+02  0.51100000000E-03 0.  1.
        -12    1    3    3    0    0  0.29798063913E+02  0.49058982961E+01 -0.34358120842E+01  0.30394033225E+02  0.00000000000E+00 0.  1.
</event>
<event>
 7    1  0.1788006E-013  0.7246160E+02  0.7816164E-02  0.1226708E+00
        -11   -1    0    0    0    0  0.00000000000E+00  0.00000000000E+00  0.45593999997E+02  0.45594000000E+02  0.51100000000E-03 0.  1.
         11   -1    0    0    0    0 -0.00000000000E+00 -0.00000000000E+00 -0.45593999997E+02  0.45594000000E+02  0.51100000000E-03 0. -1.
    9900012    2    1    2    0    0  0.62004998151E+01  0.94042262257E+01 -0.14959697121E+02  0.72461595999E+02  0.70000033485E+02 0.  0.
        -12    1    1    2    0    0 -0.62004998151E+01 -0.94042262257E+01  0.14959697121E+02  0.18726404001E+02  0.00000000000E+00 0.  1.
         11    1    3    3    0    0 -0.14465292110E+02  0.21753978905E+02 -0.10305341590E+02  0.28083453127E+02  0.51100000000E-03 0. -1.
        -11    1    3    3    0    0 -0.77262455329E+01  0.58725243494E+01  0.22031171742E+01  0.99516399560E+01  0.51100000000E-03 0.  1.
        -12    1    3    3    0    0  0.28392037458E+02 -0.18222277028E+02 -0.68574727059E+01  0.34426502916E+02  0.00000000000E+00 0.  1.
</event>
<event>
 7    1  0.1788006E-013  0.7246160E+02  0.7816164E-02  0.1226708E+00
        -11   -1    0    0    0    0  0.00000000000E+00  0.00000000000E+00  0.45593999997E+02  0.45594000000E+02  0.51100000000E-03 0.  1.
         11   -1    0    0    0    0 -0.00000000000E+00 -0.00000000000E+00 -0.45593999997E+02  0.45594000000E+02  0.51100000000E-03 0. -1.
    9900012    2    1    2    0    0 -0.59951754616E+01 -0.16512334363E+02 -0.64868146362E+01  0.72461599410E+02  0.70000037929E+02 0.  0.
        -12    1    1    2    0    0  0.59951754616E+01  0.16512334363E+02  0.64868146362E+01  0.18726400590E+02  0.00000000000E+00 0.  1.
         11    1    3    3    0    0 -0.56240143735E+01 -0.16205964614E+02 -0.95983946455E+01  0.19656856483E+02  0.51100000000E-03 0. -1.
        -11    1    3    3    0    0 -0.24246568335E+02 -0.98650113201E+01 -0.30657162102E+01  0.26355514423E+02  0.51100000000E-03 0.  1.
        -12    1    3    3    0    0  0.23875407247E+02  0.95586415719E+01  0.61772962194E+01  0.26449228504E+02  0.00000000000E+00 0.  1.
</event>
<event>
 7    1  0.1788006E-013  0.7246153E+02  0.7816164E-02  0.1226708E+00
        -11   -1    0    0    0    0  0.00000000000E+00  0.00000000000E+00  0.45593999997E+02  0.45594000000E+02  0.51100000000E-03 0.  1.
         11   -1    0    0    0    0 -0.00000000000E+00 -0.00000000000E+00 -0.45593999997E+02  0.45594000000E+02  0.51100000000E-03 0. -1.
    9900012    2    1    2    0    0  0.81687273777E+01  0.10987623078E+02 -0.12775941959E+02  0.72461530477E+02  0.69999948130E+02 0.  0.
        -12    1    1    2    0    0 -0.81687273777E+01 -0.10987623078E+02  0.12775941959E+02  0.18726469523E+02  0.00000000000E+00 0.  1.
         11    1    3    3    0    0 -0.13069390290E+02  0.29830821768E+01 -0.13333978374E+01  0.13471662550E+02  0.51100000000E-03 0. -1.
        -11    1    3    3    0    0 -0.10550711158E+02  0.12020104900E+01  0.14096946346E+02  0.17648972539E+02  0.51100000000E-03 0.  1.
         12    1    3    3    0    0  0.31788828826E+02  0.68025304109E+01 -0.25539490467E+02  0.41340895387E+02  0.00000000000E+00 0. -1.
</event>
<event>
 7    1  0.1788006E-013  0.7246117E+02  0.7816164E-02  0.1226709E+00
        -11   -1    0    0    0    0  0.00000000000E+00  0.00000000000E+00  0.45593999997E+02  0.45594000000E+02  0.51100000000E-03 0.  1.
         11   -1    0    0    0    0 -0.00000000000E+00 -0.00000000000E+00 -0.45593999997E+02  0.45594000000E+02  0.51100000000E-03 0. -1.
    9900012    2    1    2    0    0  0.29248882979E+01 -0.14633083011E+02  0.11314236444E+02  0.72461173353E+02  0.69999482908E+02 0.  0.
        -12    1    1    2    0    0 -0.29248882979E+01  0.14633083011E+02 -0.11314236444E+02  0.18726826647E+02  0.00000000000E+00 0.  1.
         11    1    3    3    0    0 -0.13884412566E+02 -0.74486625259E+01  0.19631893612E+01  0.15878085479E+02  0.51100000000E-03 0. -1.
        -11    1    3    3    0    0 -0.12115273664E+02 -0.20311266858E+02  0.69260763286E+00  0.23660243510E+02  0.51100000000E-03 0.  1.
         12    1    3    3    0    0  0.28924574528E+02  0.13126846373E+02  0.86584394495E+01  0.32922844365E+02  0.00000000000E+00 0. -1.
</event>
<event>
 7    1  0.1788006E-013  0.7246158E+02  0.7816164E-02  0.1226708E+00
        -11   -1    0    0    0    0  0.00000000000E+00  0.00000000000E+00  0.45593999997E+02  0.45594000000E+02  0.51100000000E-03 0.  1.
         11   -1    0    0    0    0 -0.00000000000E+00 -0.00000000000E+00 -0.45593999997E+02  0.45594000000E+02  0.51100000000E-03 0. -1.
    9900012    2    1    2    0    0 -0.16828417294E+02  0.42977542987E+01 -0.70008802247E+01  0.72461584311E+02  0.70000018260E+02 0.  0.
        -12    1    1    2    0    0  0.16828417294E+02 -0.42977542987E+01  0.70008802247E+01  0.18726415689E+02  0.00000000000E+00 0.  1.
         11    1    3    3    0    0  0.29361917939E+01 -0.48736497053E+00  0.13818847398E+02  0.14135745136E+02  0.51100000000E-03 0.  1.
        -11    1    3    3    0    0  0.13621605678E+02  0.13594745074E+02 -0.30246855910E+01  0.19481117988E+02  0.51100000000E-03 0. -1.
         12    1    3    3    0    0 -0.33386214766E+02 -0.88096258051E+01 -0.17795042032E+02  0.38844721187E+02  0.00000000000E+00 0. -1.
</event>
<event>
 7    1  0.1788006E-013  0.7246146E+02  0.7816164E-02  0.1226708E+00
        -11   -1    0    0    0    0  0.00000000000E+00  0.00000000000E+00  0.45593999997E+02  0.45594000000E+02  0.51100000000E-03 0.  1.
         11   -1    0    0    0    0 -0.00000000000E+00 -0.00000000000E+00 -0.45593999997E+02  0.45594000000E+02  0.51100000000E-03 0. -1.
    9900012    2    1    2    0    0  0.89498066694E+01 -0.16292341959E+02 -0.22679883396E+01  0.72461462225E+02  0.69999859219E+02 0.  0.
        -12    1    1    2    0    0 -0.89498066694E+01  0.16292341959E+02  0.22679883396E+01  0.18726537775E+02  0.00000000000E+00 0.  1.
         11    1    3    3    0    0 -0.95912936763E+01 -0.29579196511E+02 -0.31014924811E+01  0.31249656582E+02  0.51100000000E-03 0. -1.
        -11    1    3    3    0    0 -0.43384895532E+01  0.80232829004E+00  0.12053245140E+02  0.12835378489E+02  0.51100000000E-03 0.  1.
        -12    1    3    3    0    0  0.22879589899E+02  0.12484526262E+02 -0.11219740998E+02  0.28376427153E+02  0.00000000000E+00 0.  1.
</event>
<event>
 7    1  0.1788006E-013  0.7246158E+02  0.7816164E-02  0.1226708E+00
        -11   -1    0    0    0    0  0.00000000000E+00  0.00000000000E+00  0.45593999997E+02  0.45594000000E+02  0.51100000000E-03 0.  1.
         11   -1    0    0    0    0 -0.00000000000E+00 -0.00000000000E+00 -0.45593999997E+02  0.45594000000E+02  0.51100000000E-03 0. -1.
    9900012    2    1    2    0    0 -0.94702996097E+01 -0.14625308663E+02 -0.68623974789E+01  0.72461582100E+02  0.70000015379E+02 0.  0.
        -12    1    1    2    0    0  0.94702996097E+01  0.14625308663E+02  0.68623974789E+01  0.18726417900E+02  0.00000000000E+00 0.  1.
         11    1    3    3    0    0  0.12309950331E+02 -0.33127236334E+02  0.11182300951E+02  0.37067405076E+02  0.51100000000E-03 0. -1.
        -11    1    3    3    0    0  0.11663991929E+01  0.67843482610E+00 -0.43008294803E+00  0.14162388547E+01  0.51100000000E-03 0.  1.
         12    1    3    3    0    0 -0.22946649134E+02  0.17823492844E+02 -0.17614615482E+02  0.33977938169E+02  0.00000000000E+00 0. -1.
</event>
<event>
 7    1  0.1788006E-013  0.7246153E+02  0.7816164E-02  0.1226708E+00
        -11   -1    0    0    0    0  0.00000000000E+00  0.00000000000E+00  0.45593999997E+02  0.45594000000E+02  0.51100000000E-03 0.  1.
         11   -1    0    0    0    0 -0.00000000000E+00 -0.00000000000E+00 -0.45593999997E+02  0.45594000000E+02  0.51100000000E-03 0. -1.
    9900012    2    1    2    0    0 -0.28697605253E+01  0.17752677501E+02 -0.52237563203E+01  0.72461529056E+02  0.69999946279E+02 0.  0.
        -12    1    1    2    0    0  0.28697605253E+01 -0.17752677501E+02  0.52237563203E+01  0.18726470944E+02  0.00000000000E+00 0.  1.
         11    1    3    3    0    0  0.71199162147E+01  0.20758132378E+02 -0.68771970811E+01  0.22997589149E+02  0.51100000000E-03 0. -1.
        -11    1    3    3    0    0  0.14636869101E+02 -0.38484869914E+01  0.15111717934E+02  0.21387211328E+02  0.51100000000E-03 0.  1.
        -12    1    3    3    0    0 -0.24626545841E+02  0.84303211408E+00 -0.13458277173E+02  0.28076728579E+02  0.00000000000E+00 0.  1.
</event>
<event>
 7    1  0.1788006E-013  0.7246158E+02  0.7816164E-02  0.1226708E+00
        -11   -1    0    0    0    0  0.00000000000E+00  0.00000000000E+00  0.45593999997E+02  0.45594000000E+02  0.51100000000E-03 0. -1.
         11   -1    0    0    0    0 -0.00000000000E+00 -0.00000000000E+00 -0.45593999997E+02  0.45594000000E+02  0.51100000000E-03 0.  1.
    9900012    2    1    2    0    0  0.52563574199E+01  0.12489531166E+02  0.12925211023E+02  0.72461581173E+02  0.70000014172E+02 0.  0.
        -12    1    1    2    0    0 -0.52563574199E+01 -0.12489531166E+02 -0.12925211023E+02  0.18726418827E+02  0.00000000000E+00 0.  1.
         11    1    3    3    0    0  0.18066216449E+02 -0.10255637053E+02  0.25487227591E+02  0.32881074172E+02  0.51100000000E-03 0. -1.
        -11    1    3    3    0    0  0.82288193375E+00 -0.23743657682E+01 -0.10643062284E+02  0.10935699453E+02  0.51100000000E-03 0.  1.
        -12    1    3    3    0    0 -0.13632740963E+02  0.25119533988E+02 -0.19189542836E+01  0.28644807548E+02  0.00000000000E+00 0.  1.
</event>
<event>
 7    1  0.1788006E-013  0.7246155E+02  0.7816164E-02  0.1226708E+00
        -11   -1    0    0    0    0  0.00000000000E+00  0.00000000000E+00  0.45593999997E+02  0.45594000000E+02  0.51100000000E-03 0.  1.
         11   -1    0    0    0    0 -0.00000000000E+00 -0.00000000000E+00 -0.45593999997E+02  0.45594000000E+02  0.51100000000E-03 0. -1.
    9900012    2    1    2    0    0 -0.40089945892E+01 -0.17364608558E+02  0.57513722764E+01  0.72461549427E+02  0.69999972817E+02 0.  0.
        -12    1    1    2    0    0  0.40089945892E+01  0.17364608558E+02 -0.57513722764E+01  0.18726450573E+02  0.00000000000E+00 0.  1.
         11    1    3    3    0    0  0.74462926127E+01 -0.87999457727E+01  0.21581525182E+02  0.24467295493E+02  0.51100000000E-03 0. -1.
        -11    1    3    3    0    0  0.15700479167E+02 -0.91004534825E+01 -0.62861357300E+01  0.19205176446E+02  0.51100000000E-03 0.  1.
        -12    1    3    3    0    0 -0.27155766369E+02  0.53579069686E+00 -0.95440171761E+01  0.28789077488E+02  0.00000000000E+00 0.  1.
</event>
<event>
 7    1  0.1788006E-013  0.7246156E+02  0.7816164E-02  0.1226708E+00
        -11   -1    0    0    0    0  0.00000000000E+00  0.00000000000E+00  0.45593999997E+02  0.45594000000E+02  0.51100000000E-03 0.  1.
         11   -1    0    0    0    0 -0.00000000000E+00 -0.00000000000E+00 -0.45593999997E+02  0.45594000000E+02  0.51100000000E-03 0. -1.
    9900012    2    1    2    0    0  0.82870775710E+01  0.48723578134E+01 -0.16070598976E+02  0.72461556751E+02  0.69999982357E+02 0.  0.
        -12    1    1    2    0    0 -0.82870775710E+01 -0.48723578134E+01  0.16070598976E+02  0.18726443249E+02  0.00000000000E+00 0.  1.
         11    1    3    3    0    0 -0.69071367144E+01 -0.32114870553E+01 -0.48172121384E+01  0.90126422178E+01  0.51100000000E-03 0. -1.
        -11    1    3    3    0    0 -0.11916449796E+02  0.25771443049E+02  0.20155737922E+01  0.28464567282E+02  0.51100000000E-03 0.  1.
         12    1    3    3    0    0  0.27110664082E+02 -0.17687598181E+02 -0.13268960630E+02  0.34984347251E+02  0.00000000000E+00 0. -1.
</event>
<event>
 7    1  0.1788006E-013  0.7246153E+02  0.7816164E-02  0.1226708E+00
        -11   -1    0    0    0    0  0.00000000000E+00  0.00000000000E+00  0.45593999997E+02  0.45594000000E+02  0.51100000000E-03 0.  1.
         11   -1    0    0    0    0 -0.00000000000E+00 -0.00000000000E+00 -0.45593999997E+02  0.45594000000E+02  0.51100000000E-03 0. -1.
    9900012    2    1    2    0    0  0.97781772028E+01 -0.50403853353E+01  0.15154615478E+02  0.72461531993E+02  0.69999950105E+02 0.  0.
        -12    1    1    2    0    0 -0.97781772028E+01  0.50403853353E+01 -0.15154615478E+02  0.18726468007E+02  0.00000000000E+00 0.  1.
         11    1    3    3    0    0  0.12976132892E+02  0.89483907733E+01  0.62580447708E+01  0.16959270234E+02  0.51100000000E-03 0. -1.
        -11    1    3    3    0    0  0.16920317353E+02  0.36447215829E+01  0.20076814748E+02  0.26507727655E+02  0.51100000000E-03 0.  1.
        -12    1    3    3    0    0 -0.20118273042E+02 -0.17633497692E+02 -0.11180244041E+02  0.28994534103E+02  0.00000000000E+00 0.  1.
</event>
<event>
 7    1  0.1788006E-013  0.7246157E+02  0.7816164E-02  0.1226708E+00
        -11   -1    0    0    0    0  0.00000000000E+00  0.00000000000E+00  0.45593999997E+02  0.45594000000E+02  0.51100000000E-03 0.  1.
         11   -1    0    0    0    0 -0.00000000000E+00 -0.00000000000E+00 -0.45593999997E+02  0.45594000000E+02  0.51100000000E-03 0. -1.
    9900012    2    1    2    0    0 -0.50201584992E+01  0.13030784582E+01 -0.17993860596E+02  0.72461574180E+02  0.70000005062E+02 0.  0.
        -12    1    1    2    0    0  0.50201584992E+01 -0.13030784582E+01  0.17993860596E+02  0.18726425820E+02  0.00000000000E+00 0.  1.
         11    1    3    3    0    0  0.66737277417E+00  0.24430827443E+01  0.28436795582E+01  0.38079592180E+01  0.51100000000E-03 0. -1.
        -11    1    3    3    0    0  0.86672981349E+01 -0.30709564877E+02 -0.15041723484E+02  0.35276803674E+02  0.51100000000E-03 0.  1.
         12    1    3    3    0    0 -0.14354829408E+02  0.29569560590E+02 -0.57958166710E+01  0.33376811288E+02  0.00000000000E+00 0. -1.
</event>
<event>
 7    1  0.1788006E-013  0.7246161E+02  0.7816164E-02  0.1226708E+00
        -11   -1    0    0    0    0  0.00000000000E+00  0.00000000000E+00  0.45593999997E+02  0.45594000000E+02  0.51100000000E-03 0.  1.
         11   -1    0    0    0    0 -0.00000000000E+00 -0.00000000000E+00 -0.45593999997E+02  0.45594000000E+02  0.51100000000E-03 0. -1.
    9900012    2    1    2    0    0  0.24729174260E+00 -0.18696105223E+02  0.10354086132E+01  0.72461612876E+02  0.70000055470E+02 0.  0.
        -12    1    1    2    0    0 -0.24729174260E+00  0.18696105223E+02 -0.10354086132E+01  0.18726387124E+02  0.00000000000E+00 0.  1.
         11    1    3    3    0    0 -0.15617337927E+02  0.13237450889E+01  0.14367003153E+02  0.21261804365E+02  0.51100000000E-03 0. -1.
        -11    1    3    3    0    0  0.15464987688E+02  0.12275052702E+01  0.10907288801E+02  0.18964217954E+02  0.51100000000E-03 0.  1.
         12    1    3    3    0    0  0.39964198146E+00 -0.21247355582E+02 -0.24238883341E+02  0.32235590557E+02  0.00000000000E+00 0. -1.
</event>
<event>
 7    1  0.1788006E-013  0.7246156E+02  0.7816164E-02  0.1226708E+00
        -11   -1    0    0    0    0  0.00000000000E+00  0.00000000000E+00  0.45593999997E+02  0.45594000000E+02  0.51100000000E-03 0.  1.
         11   -1    0    0    0    0 -0.00000000000E+00 -0.00000000000E+00 -0.45593999997E+02  0.45594000000E+02  0.51100000000E-03 0. -1.
    9900012    2    1    2    0    0  0.28239775849E+01 -0.56596889147E+01 -0.17625910366E+02  0.72461557619E+02  0.69999983488E+02 0.  0.
        -12    1    1    2    0    0 -0.28239775849E+01  0.56596889147E+01  0.17625910366E+02  0.18726442381E+02  0.00000000000E+00 0.  1.
         11    1    3    3    0    0 -0.73057325445E+01  0.95222285073E+01  0.15180772008E+02  0.19352064561E+02  0.51100000000E-03 0. -1.
        -11    1    3    3    0    0 -0.11624647096E+02  0.39259344125E+01 -0.60293077104E+01  0.13671061877E+02  0.51100000000E-03 0.  1.
         12    1    3    3    0    0  0.21754357226E+02 -0.19107851835E+02 -0.26777374664E+02  0.39438431180E+02  0.00000000000E+00 0. -1.
</event>
<event>
 7    1  0.1788006E-013  0.7246213E+02  0.7816164E-02  0.1226707E+00
        -11   -1    0    0    0    0  0.00000000000E+00  0.00000000000E+00  0.45593999997E+02  0.45594000000E+02  0.51100000000E-03 0.  1.
         11   -1    0    0    0    0 -0.00000000000E+00 -0.00000000000E+00 -0.45593999997E+02  0.45594000000E+02  0.51100000000E-03 0. -1.
    9900012    2    1    2    0    0  0.18912079308E+01 -0.17271754225E+02 -0.69834156450E+01  0.72462128711E+02  0.70000727438E+02 0.  0.
        -12    1    1    2    0    0 -0.18912079308E+01  0.17271754225E+02  0.69834156450E+01  0.18725871289E+02  0.00000000000E+00 0.  1.
         11    1    3    3    0    0  0.20010925787E+02 -0.16754285377E+02  0.62537873718E+01  0.26837531296E+02  0.51100000000E-03 0. -1.
        -11    1    3    3    0    0  0.10233605098E+02  0.90822733286E+01 -0.51199708361E+01  0.14609191071E+02  0.51100000000E-03 0.  1.
         12    1    3    3    0    0 -0.28353322954E+02 -0.95997421766E+01 -0.81172321806E+01  0.31015406344E+02  0.00000000000E+00 0. -1.
</event>
<event>
 7    1  0.1788006E-013  0.7246181E+02  0.7816164E-02  0.1226707E+00
        -11   -1    0    0    0    0  0.00000000000E+00  0.00000000000E+00  0.45593999997E+02  0.45594000000E+02  0.51100000000E-03 0. -1.
         11   -1    0    0    0    0 -0.00000000000E+00 -0.00000000000E+00 -0.45593999997E+02  0.45594000000E+02  0.51100000000E-03 0.  1.
    9900012    2    1    2    0    0 -0.24586969516E+01  0.93671972372E+01  0.16027498102E+02  0.72461807910E+02  0.70000309538E+02 0.  0.
        -12    1    1    2    0    0  0.24586969516E+01 -0.93671972372E+01 -0.16027498102E+02  0.18726192090E+02  0.00000000000E+00 0.  1.
         11    1    3    3    0    0 -0.10124475029E+02  0.26651905079E+02 -0.76627524689E+01  0.29521971726E+02  0.51100000000E-03 0.  1.
        -11    1    3    3    0    0  0.38324068139E+01 -0.21430403459E+02  0.35935226164E+01  0.22064970870E+02  0.51100000000E-03 0. -1.
         12    1    3    3    0    0  0.38333712638E+01  0.41456956176E+01  0.20096727954E+02  0.20874865314E+02  0.00000000000E+00 0. -1.
</event>
<event>
 7    1  0.1788006E-013  0.7246160E+02  0.7816164E-02  0.1226708E+00
        -11   -1    0    0    0    0  0.00000000000E+00  0.00000000000E+00  0.45593999997E+02  0.45594000000E+02  0.51100000000E-03 0. -1.
         11   -1    0    0    0    0 -0.00000000000E+00 -0.00000000000E+00 -0.45593999997E+02  0.45594000000E+02  0.51100000000E-03 0.  1.
    9900012    2    1    2    0    0 -0.11432438786E+02 -0.98820057924E+01 -0.11059991808E+02  0.72461598481E+02  0.70000036718E+02 0.  0.
        -12    1    1    2    0    0  0.11432438786E+02  0.98820057924E+01  0.11059991808E+02  0.18726401519E+02  0.00000000000E+00 0.  1.
         11    1    3    3    0    0 -0.33052909954E+00  0.92717245801E+01  0.10303865191E+02  0.13865199758E+02  0.51100000000E-03 0. -1.
        -11    1    3    3    0    0  0.16396519308E+02 -0.85025872554E+01  0.48981090075E+01  0.19108409341E+02  0.51100000000E-03 0.  1.
         12    1    3    3    0    0 -0.27498428994E+02 -0.10651143117E+02 -0.26261966007E+02  0.39487989382E+02  0.00000000000E+00 0. -1.
</event>
<event>
 7    1  0.1788006E-013  0.7246137E+02  0.7816164E-02  0.1226709E+00
        -11   -1    0    0    0    0  0.00000000000E+00  0.00000000000E+00  0.45593999997E+02  0.45594000000E+02  0.51100000000E-03 0.  1.
         11   -1    0    0    0    0 -0.00000000000E+00 -0.00000000000E+00 -0.45593999997E+02  0.45594000000E+02  0.51100000000E-03 0. -1.
    9900012    2    1    2    0    0  0.37965892761E+01 -0.10891761307E+02 -0.14752698728E+02  0.72461369917E+02  0.69999738971E+02 0.  0.
        -12    1    1    2    0    0 -0.37965892761E+01  0.10891761307E+02  0.14752698728E+02  0.18726630083E+02  0.00000000000E+00 0.  1.
         11    1    3    3    0    0 -0.54001532638E+01  0.22298816511E+01 -0.21601362212E+02  0.22377508287E+02  0.51100000000E-03 0. -1.
        -11    1    3    3    0    0  0.23882994511E+01  0.17199587010E+02 -0.27010245183E+01  0.17573425998E+02  0.51100000000E-03 0.  1.
         12    1    3    3    0    0  0.68084430888E+01 -0.30321229968E+02  0.95496880027E+01  0.32510435633E+02  0.00000000000E+00 0. -1.
</event>
<event>
 7    1  0.1788006E-013  0.7246156E+02  0.7816164E-02  0.1226708E+00
        -11   -1    0    0    0    0  0.00000000000E+00  0.00000000000E+00  0.45593999997E+02  0.45594000000E+02  0.51100000000E-03 0. -1.
         11   -1    0    0    0    0 -0.00000000000E+00 -0.00000000000E+00 -0.45593999997E+02  0.45594000000E+02  0.51100000000E-03 0.  1.
    9900012    2    1    2    0    0 -0.42538521038E+01  0.12166561844E+02  0.13585249040E+02  0.72461562103E+02  0.69999989329E+02 0.  0.
        -12    1    1    2    0    0  0.42538521038E+01 -0.12166561844E+02 -0.13585249040E+02  0.18726437897E+02  0.00000000000E+00 0.  1.
         11    1    3    3    0    0 -0.13706774027E+02 -0.99942787144E+01  0.21268731465E+02  0.27205150241E+02  0.51100000000E-03 0. -1.
        -11    1    3    3    0    0  0.46263877215E+00 -0.97410621776E+01  0.33691760623E+01  0.10317639002E+02  0.51100000000E-03 0.  1.
        -12    1    3    3    0    0  0.89902831509E+01  0.31901902736E+02 -0.11052658487E+02  0.34938772860E+02  0.00000000000E+00 0.  1.
</event>
<event>
 7    1  0.1788006E-013  0.7246158E+02  0.7816164E-02  0.1226708E+00
        -11   -1    0    0    0    0  0.00000000000E+00  0.00000000000E+00  0.45593999997E+02  0.45594000000E+02  0.51100000000E-03 0.  1.
         11   -1    0    0    0    0 -0.00000000000E+00 -0.00000000000E+00 -0.45593999997E+02  0.45594000000E+02  0.51100000000E-03 0. -1.
    9900012    2    1    2    0    0 -0.82798270398E+01  0.14779700532E+02  0.79802044899E+01  0.72461581567E+02  0.70000014685E+02 0.  0.
        -12    1    1    2    0    0  0.82798270398E+01 -0.14779700532E+02 -0.79802044899E+01  0.18726418433E+02  0.00000000000E+00 0.  1.
         11    1    3    3    0    0 -0.37689442713E+00 -0.10141891274E+02  0.16781624307E+01  0.10286701971E+02  0.51100000000E-03 0. -1.
        -11    1    3    3    0    0 -0.24782153402E+02  0.20394782577E+02  0.21814962512E+02  0.38807149770E+02  0.51100000000E-03 0.  1.
         12    1    3    3    0    0  0.16879220790E+02  0.45268092295E+01 -0.15512920453E+02  0.23367729826E+02  0.00000000000E+00 0. -1.
</event>
<event>
 7    1  0.1788006E-013  0.7246158E+02  0.7816164E-02  0.1226708E+00
        -11   -1    0    0    0    0  0.00000000000E+00  0.00000000000E+00  0.45593999997E+02  0.45594000000E+02  0.51100000000E-03 0.  1.
         11   -1    0    0    0    0 -0.00000000000E+00 -0.00000000000E+00 -0.45593999997E+02  0.45594000000E+02  0.51100000000E-03 0. -1.
    9900012    2    1    2    0    0  0.11656363622E+02  0.93138833324E+01 -0.11316342943E+02  0.72461578740E+02  0.70000011002E+02 0.  0.
        -12    1    1    2    0    0 -0.11656363622E+02 -0.93138833324E+01  0.11316342943E+02  0.18726421260E+02  0.00000000000E+00 0.  1.
         11    1    3    3    0    0  0.37843087197E+01  0.56029741182E+01 -0.77685630099E+01  0.10298780654E+02  0.51100000000E-03 0. -1.
        -11    1    3    3    0    0  0.33942847207E+02  0.65405941083E+01 -0.82070730008E+01  0.35528190150E+02  0.51100000000E-03 0.  1.
        -12    1    3    3    0    0 -0.26070792305E+02 -0.28296848940E+01  0.46592930680E+01  0.26634607936E+02  0.00000000000E+00 0.  1.
</event>
<event>
 7    1  0.1788006E-013  0.7246158E+02  0.7816164E-02  0.1226708E+00
        -11   -1    0    0    0    0  0.00000000000E+00  0.00000000000E+00  0.45593999997E+02  0.45594000000E+02  0.51100000000E-03 0.  1.
         11   -1    0    0    0    0 -0.00000000000E+00 -0.00000000000E+00 -0.45593999997E+02  0.45594000000E+02  0.51100000000E-03 0. -1.
    9900012    2    1    2    0    0 -0.95633125948E+01  0.89237811174E+01 -0.13401049601E+02  0.72461576219E+02  0.70000007718E+02 0.  0.
        -12    1    1    2    0    0  0.95633125948E+01 -0.89237811174E+01  0.13401049601E+02  0.18726423781E+02  0.00000000000E+00 0.  1.
         11    1    3    3    0    0  0.59452135411E+01  0.24198532197E+01 -0.34503862435E+02  0.35095837031E+02  0.51100000000E-03 0. -1.
        -11    1    3    3    0    0  0.51911833522E+01  0.79125710137E+01  0.32852985691E+01  0.10017502263E+02  0.51100000000E-03 0.  1.
        -12    1    3    3    0    0 -0.20699709488E+02 -0.14086431160E+01  0.17817514266E+02  0.27348236925E+02  0.00000000000E+00 0.  1.
</event>
<event>
 7    1  0.1788006E-013  0.7246157E+02  0.7816164E-02  0.1226708E+00
        -11   -1    0    0    0    0  0.00000000000E+00  0.00000000000E+00  0.45593999997E+02  0.45594000000E+02  0.51100000000E-03 0. -1.
         11   -1    0    0    0    0 -0.00000000000E+00 -0.00000000000E+00 -0.45593999997E+02  0.45594000000E+02  0.51100000000E-03 0.  1.
    9900012    2    1    2    0    0  0.80557928651E+01  0.35391811167E+01  0.16530508882E+02  0.72461566128E+02  0.69999994572E+02 0.  0.
        -12    1    1    2    0    0 -0.80557928651E+01 -0.35391811167E+01 -0.16530508882E+02  0.18726433872E+02  0.00000000000E+00 0.  1.
         11    1    3    3    0    0  0.72373223072E+01 -0.75591735645E+01  0.13568634416E+02  0.17135570587E+02  0.51100000000E-03 0. -1.
        -11    1    3    3    0    0  0.23203747521E+02 -0.12902684404E+01  0.14358782335E+02  0.27317637564E+02  0.51100000000E-03 0.  1.
        -12    1    3    3    0    0 -0.22385276963E+02  0.12388623122E+02 -0.11396907869E+02  0.28008357977E+02  0.00000000000E+00 0.  1.
</event>
<event>
 7    1  0.1788006E-013  0.7246161E+02  0.7816164E-02  0.1226708E+00
        -11   -1    0    0    0    0  0.00000000000E+00  0.00000000000E+00  0.45593999997E+02  0.45594000000E+02  0.51100000000E-03 0.  1.
         11   -1    0    0    0    0 -0.00000000000E+00 -0.00000000000E+00 -0.45593999997E+02  0.45594000000E+02  0.51100000000E-03 0. -1.
    9900012    2    1    2    0    0 -0.59099576161E+01 -0.74967078996E+01 -0.16110542933E+02  0.72461606275E+02  0.70000046871E+02 0.  0.
        -12    1    1    2    0    0  0.59099576161E+01  0.74967078996E+01  0.16110542933E+02  0.18726393725E+02  0.00000000000E+00 0.  1.
         11    1    3    3    0    0  0.96675863860E+01 -0.21422079622E+02 -0.22083781392E+02  0.32249978646E+02  0.51100000000E-03 0. -1.
        -11    1    3    3    0    0 -0.69367712168E+01  0.16077213712E+02 -0.11257121841E+02  0.20816301018E+02  0.51100000000E-03 0.  1.
        -12    1    3    3    0    0 -0.86407727852E+01 -0.21518419890E+01  0.17230360300E+02  0.19395326611E+02  0.00000000000E+00 0.  1.
</event>
<event>
 7    1  0.1788006E-013  0.7246163E+02  0.7816164E-02  0.1226708E+00
        -11   -1    0    0    0    0  0.00000000000E+00  0.00000000000E+00  0.45593999997E+02  0.45594000000E+02  0.51100000000E-03 0. -1.
         11   -1    0    0    0    0 -0.00000000000E+00 -0.00000000000E+00 -0.45593999997E+02  0.45594000000E+02  0.51100000000E-03 0.  1.
    9900012    2    1    2    0    0 -0.16663877960E+02  0.36099069862E+01  0.77434286901E+01  0.72461629689E+02  0.70000077373E+02 0.  0.
        -12    1    1    2    0    0  0.16663877960E+02 -0.36099069862E+01 -0.77434286901E+01  0.18726370311E+02  0.00000000000E+00 0.  1.
         11    1    3    3    0    0 -0.11614560572E+02 -0.20218012279E+02  0.16329800380E+02  0.28466268082E+02  0.51100000000E-03 0. -1.
        -11    1    3    3    0    0  0.34780591747E+01 -0.66649767347E+01  0.55255804393E+01  0.93301044983E+01  0.51100000000E-03 0.  1.
        -12    1    3    3    0    0 -0.85273765632E+01  0.30492896000E+02 -0.14111952129E+02  0.34665257109E+02  0.00000000000E+00 0.  1.
</event>
<event>
 7    1  0.1788006E-013  0.7246157E+02  0.7816164E-02  0.1226708E+00
        -11   -1    0    0    0    0  0.00000000000E+00  0.00000000000E+00  0.45593999997E+02  0.45594000000E+02  0.51100000000E-03 0.  1.
         11   -1    0    0    0    0 -0.00000000000E+00 -0.00000000000E+00 -0.45593999997E+02  0.45594000000E+02  0.51100000000E-03 0. -1.
    9900012    2    1    2    0    0 -0.14167798210E+02  0.55970356794E+01 -0.10891558570E+02  0.72461565139E+02  0.69999993285E+02 0.  0.
        -12    1    1    2    0    0  0.14167798210E+02 -0.55970356794E+01  0.10891558570E+02  0.18726434861E+02  0.00000000000E+00 0.  1.
         11    1    3    3    0    0  0.31791665248E+01 -0.23437224034E+02 -0.89297505631E+01  0.25281436185E+02  0.51100000000E-03 0. -1.
        -11    1    3    3    0    0 -0.10426293438E+02 -0.51400229310E+01 -0.38921947629E+01  0.12258736106E+02  0.51100000000E-03 0.  1.
        -12    1    3    3    0    0 -0.69206712968E+01  0.34174282644E+02  0.19303867564E+01  0.34921392848E+02  0.00000000000E+00 0.  1.
</event>
<event>
 7    1  0.1788006E-013  0.7246148E+02  0.7816164E-02  0.1226708E+00
        -11   -1    0    0    0    0  0.00000000000E+00  0.00000000000E+00  0.45593999997E+02  0.45594000000E+02  0.51100000000E-03 0.  1.
         11   -1    0    0    0    0 -0.00000000000E+00 -0.00000000000E+00 -0.45593999997E+02  0.45594000000E+02  0.51100000000E-03 0. -1.
    9900012    2    1    2    0    0  0.14810436148E+02  0.11200242526E+02  0.24265206082E+01  0.72461482604E+02  0.69999885767E+02 0.  0.
        -12    1    1    2    0    0 -0.14810436148E+02 -0.11200242526E+02 -0.24265206082E+01  0.18726517396E+02  0.00000000000E+00 0.  1.
         11    1    3    3    0    0 -0.17307352214E+02 -0.45535714889E+01 -0.21242366523E+02  0.27776205459E+02  0.51100000000E-03 0. -1.
        -11    1    3    3    0    0  0.87219997346E+01  0.10497495797E+02  0.60479583892E+01  0.14928111010E+02  0.51100000000E-03 0.  1.
        -12    1    3    3    0    0  0.23395788627E+02  0.52563182177E+01  0.17620928742E+02  0.29757166135E+02  0.00000000000E+00 0.  1.
</event>
<event>
 7    1  0.1788006E-013  0.7246144E+02  0.7816164E-02  0.1226708E+00
        -11   -1    0    0    0    0  0.00000000000E+00  0.00000000000E+00  0.45593999997E+02  0.45594000000E+02  0.51100000000E-03 0. -1.
         11   -1    0    0    0    0 -0.00000000000E+00 -0.00000000000E+00 -0.45593999997E+02  0.45594000000E+02  0.51100000000E-03 0.  1.
    9900012    2    1    2    0    0  0.10026848310E+02 -0.57873144680E+01  0.14719148250E+02  0.72461440760E+02  0.69999831257E+02 0.  0.
        -12    1    1    2    0    0 -0.10026848310E+02  0.57873144680E+01 -0.14719148250E+02  0.18726559240E+02  0.00000000000E+00 0.  1.
         11    1    3    3    0    0  0.29698160718E+01 -0.22260484521E+02  0.98647471685E+01  0.24528803794E+02  0.51100000000E-03 0. -1.
        -11    1    3    3    0    0 -0.93977765697E+01 -0.11240167829E+02  0.56229308981E+01  0.15693212846E+02  0.51100000000E-03 0.  1.
         12    1    3    3    0    0  0.16454808808E+02  0.27713337882E+02 -0.76852981694E+00  0.32239424120E+02  0.00000000000E+00 0. -1.
</event>
<event>
 7    1  0.1788006E-013  0.7246148E+02  0.7816164E-02  0.1226708E+00
        -11   -1    0    0    0    0  0.00000000000E+00  0.00000000000E+00  0.45593999997E+02  0.45594000000E+02  0.51100000000E-03 0. -1.
         11   -1    0    0    0    0 -0.00000000000E+00 -0.00000000000E+00 -0.45593999997E+02  0.45594000000E+02  0.51100000000E-03 0.  1.
    9900012    2    1    2    0    0 -0.49715683095E+01 -0.13782532993E+02  0.11662247931E+02  0.72461475123E+02  0.69999876022E+02 0.  0.
        -12    1    1    2    0    0  0.49715683095E+01  0.13782532993E+02 -0.11662247931E+02  0.18726524877E+02  0.00000000000E+00 0.  1.
         11    1    3    3    0    0 -0.25452143862E+02 -0.79242501407E+01  0.12554402109E+02  0.29465545642E+02  0.51100000000E-03 0. -1.
        -11    1    3    3    0    0 -0.10981894876E+02 -0.18394373024E+01 -0.17204634194E+01  0.11267011107E+02  0.51100000000E-03 0.  1.
        -12    1    3    3    0    0  0.31462470428E+02 -0.40188455496E+01  0.82830924166E+00  0.31728918374E+02  0.00000000000E+00 0.  1.
</event>
<event>
 7    1  0.1788006E-013  0.7246162E+02  0.7816164E-02  0.1226708E+00
        -11   -1    0    0    0    0  0.00000000000E+00  0.00000000000E+00  0.45593999997E+02  0.45594000000E+02  0.51100000000E-03 0. -1.
         11   -1    0    0    0    0 -0.00000000000E+00 -0.00000000000E+00 -0.45593999997E+02  0.45594000000E+02  0.51100000000E-03 0.  1.
    9900012    2    1    2    0    0  0.12125190828E+02  0.14160384595E+02 -0.17721933620E+01  0.72461617172E+02  0.70000061067E+02 0.  0.
        -12    1    1    2    0    0 -0.12125190828E+02 -0.14160384595E+02  0.17721933620E+01  0.18726382828E+02  0.00000000000E+00 0.  1.
         11    1    3    3    0    0  0.10473619663E+02  0.22558343813E+02 -0.23547749448E+01  0.24982404803E+02  0.51100000000E-03 0. -1.
        -11    1    3    3    0    0  0.23185174584E+02  0.13531555309E+01 -0.35120218814E+01  0.23488670638E+02  0.51100000000E-03 0.  1.
         12    1    3    3    0    0 -0.21533603419E+02 -0.97511147486E+01  0.40946034642E+01  0.23990541732E+02  0.00000000000E+00 0. -1.
</event>
<event>
 7    1  0.1788006E-013  0.7246156E+02  0.7816164E-02  0.1226708E+00
        -11   -1    0    0    0    0  0.00000000000E+00  0.00000000000E+00  0.45593999997E+02  0.45594000000E+02  0.51100000000E-03 0. -1.
         11   -1    0    0    0    0 -0.00000000000E+00 -0.00000000000E+00 -0.45593999997E+02  0.45594000000E+02  0.51100000000E-03 0.  1.
    9900012    2    1    2    0    0  0.17305940772E+02 -0.44591998245E+01  0.55945819767E+01  0.72461564232E+02  0.69999992103E+02 0.  0.
        -12    1    1    2    0    0 -0.17305940772E+02  0.44591998245E+01 -0.55945819767E+01  0.18726435768E+02  0.00000000000E+00 0.  1.
         11    1    3    3    0    0 -0.17095140771E+02 -0.12496436315E+02  0.78532288936E+01  0.22584905642E+02  0.51100000000E-03 0. -1.
        -11    1    3    3    0    0 -0.34507018271E+01 -0.78036615270E+01 -0.23255545565E+01  0.88437933368E+01  0.51100000000E-03 0.  1.
        -12    1    3    3    0    0  0.37851783370E+02  0.15840898017E+02  0.66907639611E-01  0.41032865253E+02  0.00000000000E+00 0.  1.
</event>
<event>
 7    1  0.1788006E-013  0.7246154E+02  0.7816164E-02  0.1226708E+00
        -11   -1    0    0    0    0  0.00000000000E+00  0.00000000000E+00  0.45593999997E+02  0.45594000000E+02  0.51100000000E-03 0.  1.
         11   -1    0    0    0    0 -0.00000000000E+00 -0.00000000000E+00 -0.45593999997E+02  0.45594000000E+02  0.51100000000E-03 0. -1.
    9900012    2    1    2    0    0 -0.13661042570E+02 -0.15913009865E+01 -0.12709203119E+02  0.72461543666E+02  0.69999965312E+02 0.  0.
        -12    1    1    2    0    0  0.13661042570E+02  0.15913009865E+01  0.12709203119E+02  0.18726456334E+02  0.00000000000E+00 0.  1.
         11    1    3    3    0    0 -0.13693025384E+02 -0.11830033650E+02  0.13250895208E+01  0.18143993574E+02  0.51100000000E-03 0. -1.
        -11    1    3    3    0    0 -0.17951736547E+02  0.23648054861E+02 -0.48773001594E+01  0.30087927826E+02  0.51100000000E-03 0.  1.
         12    1    3    3    0    0  0.17983719361E+02 -0.13409322197E+02 -0.91569924802E+01  0.24229622265E+02  0.00000000000E+00 0. -1.
</event>
<event>
 7    1  0.1788006E-013  0.7246139E+02  0.7816164E-02  0.1226708E+00
        -11   -1    0    0    0    0  0.00000000000E+00  0.00000000000E+00  0.45593999997E+02  0.45594000000E+02  0.51100000000E-03 0.  1.
         11   -1    0    0    0    0 -0.00000000000E+00 -0.00000000000E+00 -0.45593999997E+02  0.45594000000E+02  0.51100000000E-03 0. -1.
    9900012    2    1    2    0    0  0.16801866445E+01 -0.17519264301E+02  0.63982929724E+01  0.72461393212E+02  0.69999769317E+02 0.  0.
        -12    1    1    2    0    0 -0.16801866445E+01  0.17519264301E+02 -0.63982929724E+01  0.18726606788E+02  0.00000000000E+00 0.  1.
         11    1    3    3    0    0  0.33006274191E+02 -0.61333625183E-01  0.55581818531E+01  0.33471051425E+02  0.51100000000E-03 0.  1.
        -11    1    3    3    0    0 -0.14117377666E+02 -0.65690437578E+01 -0.71250889179E+01  0.17123655580E+02  0.51100000000E-03 0. -1.
        -12    1    3    3    0    0 -0.17208709880E+02 -0.10888886918E+02  0.79652000372E+01  0.21866686207E+02  0.00000000000E+00 0.  1.
</event>
<event>
 7    1  0.1788006E-013  0.7246156E+02  0.7816164E-02  0.1226708E+00
        -11   -1    0    0    0    0  0.00000000000E+00  0.00000000000E+00  0.45593999997E+02  0.45594000000E+02  0.51100000000E-03 0. -1.
         11   -1    0    0    0    0 -0.00000000000E+00 -0.00000000000E+00 -0.45593999997E+02  0.45594000000E+02  0.51100000000E-03 0.  1.
    9900012    2    1    2    0    0  0.17667049165E+02  0.49354965885E+00  0.61896056041E+01  0.72461563206E+02  0.69999990767E+02 0.  0.
        -12    1    1    2    0    0 -0.17667049165E+02 -0.49354965885E+00 -0.61896056041E+01  0.18726436794E+02  0.00000000000E+00 0.  1.
         11    1    3    3    0    0 -0.80337735939E+00 -0.66703266884E+01 -0.18774853600E+02  0.19940757289E+02  0.51100000000E-03 0. -1.
        -11    1    3    3    0    0  0.46325514760E+01 -0.14315673938E+02 -0.22243566695E+01  0.15210089294E+02  0.51100000000E-03 0.  1.
         12    1    3    3    0    0  0.13837875048E+02  0.21479550285E+02  0.27188815874E+02  0.37310716623E+02  0.00000000000E+00 0. -1.
</event>
<event>
 7    1  0.1788006E-013  0.7246156E+02  0.7816164E-02  0.1226708E+00
        -11   -1    0    0    0    0  0.00000000000E+00  0.00000000000E+00  0.45593999997E+02  0.45594000000E+02  0.51100000000E-03 0. -1.
         11   -1    0    0    0    0 -0.00000000000E+00 -0.00000000000E+00 -0.45593999997E+02  0.45594000000E+02  0.51100000000E-03 0.  1.
    9900012    2    1    2    0    0 -0.11935367556E+02  0.12831549787E+02 -0.66013684466E+01  0.72461555222E+02  0.69999980366E+02 0.  0.
        -12    1    1    2    0    0  0.11935367556E+02 -0.12831549787E+02  0.66013684466E+01  0.18726444778E+02  0.00000000000E+00 0.  1.
         11    1    3    3    0    0 -0.36405849004E+02 -0.17887857466E+01 -0.90432340138E+00  0.36460984589E+02  0.51100000000E-03 0. -1.
        -11    1    3    3    0    0 -0.25327547138E+01  0.70219130849E+01 -0.18057721957E+01  0.76800340687E+01  0.51100000000E-03 0.  1.
         12    1    3    3    0    0  0.27003236162E+02  0.75984224487E+01 -0.38912728495E+01  0.28320536564E+02  0.00000000000E+00 0. -1.
</event>
<event>
 7    1  0.1788006E-013  0.7246159E+02  0.7816164E-02  0.1226708E+00
        -11   -1    0    0    0    0  0.00000000000E+00  0.00000000000E+00  0.45593999997E+02  0.45594000000E+02  0.51100000000E-03 0. -1.
         11   -1    0    0    0    0 -0.00000000000E+00 -0.00000000000E+00 -0.45593999997E+02  0.45594000000E+02  0.51100000000E-03 0.  1.
    9900012    2    1    2    0    0  0.27403213851E+01  0.16888136250E+02  0.76131480672E+01  0.72461587349E+02  0.70000022217E+02 0.  0.
        -12    1    1    2    0    0 -0.27403213851E+01 -0.16888136250E+02 -0.76131480672E+01  0.18726412651E+02  0.00000000000E+00 0.  1.
         11    1    3    3    0    0  0.69256563744E+01 -0.25125499335E+01  0.69779253666E+01  0.10147367445E+02  0.51100000000E-03 0. -1.
        -11    1    3    3    0    0  0.19519342840E+02  0.38722534714E+01 -0.19256696051E+02  0.27691504743E+02  0.51100000000E-03 0.  1.
         12    1    3    3    0    0 -0.23704677829E+02  0.15528432712E+02  0.19891918752E+02  0.34622715161E+02  0.00000000000E+00 0. -1.
</event>
<event>
 7    1  0.1788006E-013  0.7246153E+02  0.7816164E-02  0.1226708E+00
        -11   -1    0    0    0    0  0.00000000000E+00  0.00000000000E+00  0.45593999997E+02  0.45594000000E+02  0.51100000000E-03 0. -1.
         11   -1    0    0    0    0 -0.00000000000E+00 -0.00000000000E+00 -0.45593999997E+02  0.45594000000E+02  0.51100000000E-03 0.  1.
    9900012    2    1    2    0    0  0.15147627896E+02 -0.89312160109E+01  0.64392029201E+01  0.72461532513E+02  0.69999950782E+02 0.  0.
        -12    1    1    2    0    0 -0.15147627896E+02  0.89312160109E+01 -0.64392029201E+01  0.18726467487E+02  0.00000000000E+00 0.  1.
         11    1    3    3    0    0  0.24457086725E+01 -0.36357278683E+01 -0.29013620576E+01  0.52552745022E+01  0.51100000000E-03 0. -1.
        -11    1    3    3    0    0 -0.49950543099E+01 -0.31947521216E+02  0.13311372109E+02  0.34968375814E+02  0.51100000000E-03 0.  1.
         12    1    3    3    0    0  0.17696973534E+02  0.26652033074E+02 -0.39708071309E+01  0.32237882196E+02  0.00000000000E+00 0. -1.
</event>
<event>
 7    1  0.1788006E-013  0.7246155E+02  0.7816164E-02  0.1226708E+00
        -11   -1    0    0    0    0  0.00000000000E+00  0.00000000000E+00  0.45593999997E+02  0.45594000000E+02  0.51100000000E-03 0.  1.
         11   -1    0    0    0    0 -0.00000000000E+00 -0.00000000000E+00 -0.45593999997E+02  0.45594000000E+02  0.51100000000E-03 0. -1.
    9900012    2    1    2    0    0  0.16143204225E+02  0.59987778409E+01 -0.73546910768E+01  0.72461551883E+02  0.69999976016E+02 0.  0.
        -12    1    1    2    0    0 -0.16143204225E+02 -0.59987778409E+01  0.73546910768E+01  0.18726448117E+02  0.00000000000E+00 0.  1.
         11    1    3    3    0    0  0.17097567317E+02  0.28120054383E+02  0.65739708998E+01  0.33560115619E+02  0.51100000000E-03 0. -1.
        -11    1    3    3    0    0 -0.25763128533E-01 -0.16208225885E+02  0.66130705186E+01  0.17505426360E+02  0.51100000000E-03 0.  1.
        -12    1    3    3    0    0 -0.92859996396E+00 -0.59130506570E+01 -0.20541732495E+02  0.21396009905E+02  0.00000000000E+00 0.  1.
</event>
<event>
 7    1  0.1788006E-013  0.7246158E+02  0.7816164E-02  0.1226708E+00
        -11   -1    0    0    0    0  0.00000000000E+00  0.00000000000E+00  0.45593999997E+02  0.45594000000E+02  0.51100000000E-03 0. -1.
         11   -1    0    0    0    0 -0.00000000000E+00 -0.00000000000E+00 -0.45593999997E+02  0.45594000000E+02  0.51100000000E-03 0.  1.
    9900012    2    1    2    0    0  0.14453202340E+02  0.49587657709E+01  0.10825639941E+02  0.72461577598E+02  0.70000009514E+02 0.  0.
        -12    1    1    2    0    0 -0.14453202340E+02 -0.49587657709E+01 -0.10825639941E+02  0.18726422402E+02  0.00000000000E+00 0.  1.
         11    1    3    3    0    0  0.23175284009E+02  0.20643576391E+02  0.25381013606E+01  0.31139893929E+02  0.51100000000E-03 0. -1.
        -11    1    3    3    0    0 -0.15798126334E+02  0.57162338556E+01  0.83944270087E+01  0.18780908663E+02  0.51100000000E-03 0.  1.
        -12    1    3    3    0    0  0.70760446650E+01 -0.21401044476E+02 -0.10688842867E+00  0.22540775006E+02  0.00000000000E+00 0.  1.
</event>
<event>
 7    1  0.1788006E-013  0.7246159E+02  0.7816164E-02  0.1226708E+00
        -11   -1    0    0    0    0  0.00000000000E+00  0.00000000000E+00  0.45593999997E+02  0.45594000000E+02  0.51100000000E-03 0.  1.
         11   -1    0    0    0    0 -0.00000000000E+00 -0.00000000000E+00 -0.45593999997E+02  0.45594000000E+02  0.51100000000E-03 0. -1.
    9900012    2    1    2    0    0  0.16098435090E+02 -0.92830326183E+01  0.23117523666E+01  0.72461588012E+02  0.70000023080E+02 0.  0.
        -12    1    1    2    0    0 -0.16098435090E+02  0.92830326183E+01 -0.23117523666E+01  0.18726411988E+02  0.00000000000E+00 0.  1.
         11    1    3    3    0    0  0.40700827580E+01  0.14106050510E+01 -0.64669279337E+01  0.77702340652E+01  0.51100000000E-03 0. -1.
        -11    1    3    3    0    0 -0.15878945356E+02  0.15981684270E+02  0.12742310783E+02  0.25882844165E+02  0.51100000000E-03 0.  1.
         12    1    3    3    0    0  0.27907297688E+02 -0.26675321940E+02 -0.39636304831E+01  0.38808509781E+02  0.00000000000E+00 0. -1.
</event>
<event>
 7    1  0.1788006E-013  0.7246158E+02  0.7816164E-02  0.1226708E+00
        -11   -1    0    0    0    0  0.00000000000E+00  0.00000000000E+00  0.45593999997E+02  0.45594000000E+02  0.51100000000E-03 0. -1.
         11   -1    0    0    0    0 -0.00000000000E+00 -0.00000000000E+00 -0.45593999997E+02  0.45594000000E+02  0.51100000000E-03 0.  1.
    9900012    2    1    2    0    0 -0.44990193190E+01  0.27577278574E+01  0.17967544912E+02  0.72461577279E+02  0.70000009099E+02 0.  0.
        -12    1    1    2    0    0  0.44990193190E+01 -0.27577278574E+01 -0.17967544912E+02  0.18726422721E+02  0.00000000000E+00 0.  1.
         11    1    3    3    0    0 -0.42908989240E+01 -0.20539747073E+02  0.19060275895E+02  0.28347612613E+02  0.51100000000E-03 0. -1.
        -11    1    3    3    0    0  0.94966756899E+00  0.18567432605E+02  0.17112714844E+02  0.25268486928E+02  0.51100000000E-03 0.  1.
         12    1    3    3    0    0 -0.11577879640E+01  0.47300423251E+01 -0.18205445828E+02  0.18845477738E+02  0.00000000000E+00 0. -1.
</event>
<event>
 7    1  0.1788006E-013  0.7246159E+02  0.7816164E-02  0.1226708E+00
        -11   -1    0    0    0    0  0.00000000000E+00  0.00000000000E+00  0.45593999997E+02  0.45594000000E+02  0.51100000000E-03 0.  1.
         11   -1    0    0    0    0 -0.00000000000E+00 -0.00000000000E+00 -0.45593999997E+02  0.45594000000E+02  0.51100000000E-03 0. -1.
    9900012    2    1    2    0    0  0.47081146219E+01 -0.17525781121E+02 -0.46215778396E+01  0.72461592738E+02  0.70000029237E+02 0.  0.
        -12    1    1    2    0    0 -0.47081146219E+01  0.17525781121E+02  0.46215778396E+01  0.18726407262E+02  0.00000000000E+00 0.  1.
         11    1    3    3    0    0 -0.12518380285E+02  0.51507162445E+01 -0.40734324319E+01  0.14136215011E+02  0.51100000000E-03 0. -1.
        -11    1    3    3    0    0 -0.11001040622E+02 -0.12107793104E+02  0.16881438991E+02  0.23507542008E+02  0.51100000000E-03 0.  1.
         12    1    3    3    0    0  0.28227535529E+02 -0.10568704262E+02 -0.17429584399E+02  0.34817835719E+02  0.00000000000E+00 0. -1.
</event>
<event>
 7    1  0.1788006E-013  0.7246156E+02  0.7816164E-02  0.1226708E+00
        -11   -1    0    0    0    0  0.00000000000E+00  0.00000000000E+00  0.45593999997E+02  0.45594000000E+02  0.51100000000E-03 0. -1.
         11   -1    0    0    0    0 -0.00000000000E+00 -0.00000000000E+00 -0.45593999997E+02  0.45594000000E+02  0.51100000000E-03 0.  1.
    9900012    2    1    2    0    0  0.13049115410E+02 -0.10585037828E+02 -0.82678463672E+01  0.72461555533E+02  0.69999980771E+02 0.  0.
        -12    1    1    2    0    0 -0.13049115410E+02  0.10585037828E+02  0.82678463672E+01  0.18726444467E+02  0.00000000000E+00 0.  1.
         11    1    3    3    0    0  0.18236856358E+02  0.76076748801E+01  0.15590243129E+02  0.25169730391E+02  0.51100000000E-03 0. -1.
        -11    1    3    3    0    0 -0.37343324147E+01 -0.12103580989E+01  0.92530092458E+01  0.10051287762E+02  0.51100000000E-03 0.  1.
        -12    1    3    3    0    0 -0.14534085334E+01 -0.16982354610E+02 -0.33111098742E+02  0.37240537380E+02  0.00000000000E+00 0.  1.
</event>
<event>
 7    1  0.1788006E-013  0.7246158E+02  0.7816164E-02  0.1226708E+00
        -11   -1    0    0    0    0  0.00000000000E+00  0.00000000000E+00  0.45593999997E+02  0.45594000000E+02  0.51100000000E-03 0.  1.
         11   -1    0    0    0    0 -0.00000000000E+00 -0.00000000000E+00 -0.45593999997E+02  0.45594000000E+02  0.51100000000E-03 0. -1.
    9900012    2    1    2    0    0  0.12546113512E+01  0.15867642190E+02 -0.98652288020E+01  0.72461578622E+02  0.70000010848E+02 0.  0.
        -12    1    1    2    0    0 -0.12546113512E+01 -0.15867642190E+02  0.98652288020E+01  0.18726421378E+02  0.00000000000E+00 0.  1.
         11    1    3    3    0    0  0.82297019627E+01 -0.20266066180E+02  0.14829756454E+01  0.21923518190E+02  0.51100000000E-03 0. -1.
        -11    1    3    3    0    0  0.79839282437E+01 -0.20254226727E+01 -0.24937388465E+01  0.86060548975E+01  0.51100000000E-03 0.  1.
         12    1    3    3    0    0 -0.14959018855E+02  0.38159131043E+02 -0.88544656009E+01  0.41932005534E+02  0.00000000000E+00 0. -1.
</event>
<event>
 7    1  0.1788006E-013  0.7246155E+02  0.7816164E-02  0.1226708E+00
        -11   -1    0    0    0    0  0.00000000000E+00  0.00000000000E+00  0.45593999997E+02  0.45594000000E+02  0.51100000000E-03 0.  1.
         11   -1    0    0    0    0 -0.00000000000E+00 -0.00000000000E+00 -0.45593999997E+02  0.45594000000E+02  0.51100000000E-03 0. -1.
    9900012    2    1    2    0    0 -0.69603950745E+01  0.14704071250E+02  0.92748652851E+01  0.72461549803E+02  0.69999973306E+02 0.  0.
        -12    1    1    2    0    0  0.69603950745E+01 -0.14704071250E+02 -0.92748652851E+01  0.18726450197E+02  0.00000000000E+00 0.  1.
         11    1    3    3    0    0  0.56453703460E+01 -0.70560640825E+01  0.15551047241E+02  0.17985919972E+02  0.51100000000E-03 0. -1.
        -11    1    3    3    0    0  0.13308500830E+02  0.22572727269E+02  0.41505496615E+01  0.26530572430E+02  0.51100000000E-03 0.  1.
         12    1    3    3    0    0 -0.25914266250E+02 -0.81259193627E+00 -0.10426731618E+02  0.27945057401E+02  0.00000000000E+00 0. -1.
</event>
<event>
 7    1  0.1788006E-013  0.7246146E+02  0.7816164E-02  0.1226708E+00
        -11   -1    0    0    0    0  0.00000000000E+00  0.00000000000E+00  0.45593999997E+02  0.45594000000E+02  0.51100000000E-03 0.  1.
         11   -1    0    0    0    0 -0.00000000000E+00 -0.00000000000E+00 -0.45593999997E+02  0.45594000000E+02  0.51100000000E-03 0. -1.
    9900012    2    1    2    0    0 -0.18091175593E+02 -0.28717976160E+01  0.38917099224E+01  0.72461461025E+02  0.69999857656E+02 0.  0.
        -12    1    1    2    0    0  0.18091175593E+02  0.28717976160E+01 -0.38917099224E+01  0.18726538975E+02  0.00000000000E+00 0.  1.
         11    1    3    3    0    0 -0.92752862113E+01  0.25763205946E+01  0.14206435684E+02  0.17160745241E+02  0.51100000000E-03 0. -1.
        -11    1    3    3    0    0 -0.15328095779E+01 -0.23034173984E+02  0.11961345106E+02  0.25999931795E+02  0.51100000000E-03 0.  1.
         12    1    3    3    0    0 -0.72830798034E+01  0.17586055773E+02 -0.22276070868E+02  0.29300783989E+02  0.00000000000E+00 0. -1.
</event>
<event>
 7    1  0.1788006E-013  0.7246157E+02  0.7816164E-02  0.1226708E+00
        -11   -1    0    0    0    0  0.00000000000E+00  0.00000000000E+00  0.45593999997E+02  0.45594000000E+02  0.51100000000E-03 0. -1.
         11   -1    0    0    0    0 -0.00000000000E+00 -0.00000000000E+00 -0.45593999997E+02  0.45594000000E+02  0.51100000000E-03 0.  1.
    9900012    2    1    2    0    0  0.94063614693E+01  0.34602117737E+01  0.15818547839E+02  0.72461570619E+02  0.70000000423E+02 0.  0.
        -12    1    1    2    0    0 -0.94063614693E+01 -0.34602117737E+01 -0.15818547839E+02  0.18726429381E+02  0.00000000000E+00 0.  1.
         11    1    3    3    0    0  0.14077839293E+02 -0.25445294594E+01  0.41336567864E+02  0.43742108229E+02  0.51100000000E-03 0. -1.
        -11    1    3    3    0    0  0.83972600556E+00  0.74299107048E+01 -0.14965360201E+02  0.16729337077E+02  0.51100000000E-03 0.  1.
        -12    1    3    3    0    0 -0.55112038290E+01 -0.14251694717E+01 -0.10552659823E+02  0.11990125313E+02  0.00000000000E+00 0.  1.
</event>
<event>
 7    1  0.1788006E-013  0.7246107E+02  0.7816164E-02  0.1226709E+00
        -11   -1    0    0    0    0  0.00000000000E+00  0.00000000000E+00  0.45593999997E+02  0.45594000000E+02  0.51100000000E-03 0. -1.
         11   -1    0    0    0    0 -0.00000000000E+00 -0.00000000000E+00 -0.45593999997E+02  0.45594000000E+02  0.51100000000E-03 0.  1.
    9900012    2    1    2    0    0  0.13770537806E+02  0.11978171726E+02 -0.41944806893E+01  0.72461068121E+02  0.69999345822E+02 0.  0.
        -12    1    1    2    0    0 -0.13770537806E+02 -0.11978171726E+02  0.41944806893E+01  0.18726931879E+02  0.00000000000E+00 0.  1.
         11    1    3    3    0    0  0.16674958877E+02  0.11294922776E+02 -0.70928385136E+01  0.21352702230E+02  0.51100000000E-03 0. -1.
        -11    1    3    3    0    0 -0.96650842510E+00 -0.16211012395E+02 -0.17948875180E+02  0.24205230465E+02  0.51100000000E-03 0.  1.
         12    1    3    3    0    0 -0.19379126459E+01  0.16894261344E+02  0.20847233004E+02  0.26903135426E+02  0.00000000000E+00 0. -1.
</event>
<event>
 7    1  0.1788006E-013  0.7246160E+02  0.7816164E-02  0.1226708E+00
        -11   -1    0    0    0    0  0.00000000000E+00  0.00000000000E+00  0.45593999997E+02  0.45594000000E+02  0.51100000000E-03 0.  1.
         11   -1    0    0    0    0 -0.00000000000E+00 -0.00000000000E+00 -0.45593999997E+02  0.45594000000E+02  0.51100000000E-03 0. -1.
    9900012    2    1    2    0    0  0.15492241244E+02  0.10044130445E+00 -0.10519438966E+02  0.72461595557E+02  0.70000032910E+02 0.  0.
        -12    1    1    2    0    0 -0.15492241244E+02 -0.10044130445E+00  0.10519438966E+02  0.18726404443E+02  0.00000000000E+00 0.  1.
         11    1    3    3    0    0 -0.30043834046E+00 -0.24765132009E+01  0.17758899129E+02  0.17933261816E+02  0.51100000000E-03 0. -1.
        -11    1    3    3    0    0 -0.11475087851E+02 -0.11025044059E+02 -0.71356227505E+01  0.17439792143E+02  0.51100000000E-03 0.  1.
         12    1    3    3    0    0  0.27267767435E+02  0.13601998564E+02 -0.21142715344E+02  0.37088541599E+02  0.00000000000E+00 0. -1.
</event>
<event>
 7    1  0.1788006E-013  0.7246158E+02  0.7816164E-02  0.1226708E+00
        -11   -1    0    0    0    0  0.00000000000E+00  0.00000000000E+00  0.45593999997E+02  0.45594000000E+02  0.51100000000E-03 0.  1.
         11   -1    0    0    0    0 -0.00000000000E+00 -0.00000000000E+00 -0.45593999997E+02  0.45594000000E+02  0.51100000000E-03 0. -1.
    9900012    2    1    2    0    0 -0.13617809938E+02  0.40836644123E+01 -0.12188428996E+02  0.72461578454E+02  0.70000010629E+02 0.  0.
        -12    1    1    2    0    0  0.13617809938E+02 -0.40836644123E+01  0.12188428996E+02  0.18726421546E+02  0.00000000000E+00 0.  1.
         11    1    3    3    0    0  0.17055267693E+01 -0.83971500493E+00 -0.39901307613E+00  0.19424609511E+01  0.51100000000E-03 0. -1.
        -11    1    3    3    0    0  0.12646326644E+02  0.26911203517E+02 -0.17476020464E+02  0.34489907855E+02  0.51100000000E-03 0.  1.
         12    1    3    3    0    0 -0.27969663351E+02 -0.21987824099E+02  0.56866045444E+01  0.36029209648E+02  0.00000000000E+00 0. -1.
</event>
<event>
 7    1  0.1788006E-013  0.7246156E+02  0.7816164E-02  0.1226708E+00
        -11   -1    0    0    0    0  0.00000000000E+00  0.00000000000E+00  0.45593999997E+02  0.45594000000E+02  0.51100000000E-03 0.  1.
         11   -1    0    0    0    0 -0.00000000000E+00 -0.00000000000E+00 -0.45593999997E+02  0.45594000000E+02  0.51100000000E-03 0. -1.
    9900012    2    1    2    0    0 -0.15538240941E+02 -0.50052593672E+01 -0.91755056254E+01  0.72461562636E+02  0.69999990023E+02 0.  0.
        -12    1    1    2    0    0  0.15538240941E+02  0.50052593672E+01  0.91755056254E+01  0.18726437364E+02  0.00000000000E+00 0.  1.
         11    1    3    3    0    0  0.11066609168E+02 -0.93353471761E+01  0.50045843770E+00  0.14486856259E+02  0.51100000000E-03 0. -1.
        -11    1    3    3    0    0  0.82867185348E+01 -0.52736845017E+01  0.12219058458E+02  0.15677590445E+02  0.51100000000E-03 0.  1.
         12    1    3    3    0    0 -0.34891568643E+02  0.96037723106E+01 -0.21895022521E+02  0.42297115932E+02  0.00000000000E+00 0. -1.
</event>
<event>
 7    1  0.1788006E-013  0.7246159E+02  0.7816164E-02  0.1226708E+00
        -11   -1    0    0    0    0  0.00000000000E+00  0.00000000000E+00  0.45593999997E+02  0.45594000000E+02  0.51100000000E-03 0. -1.
         11   -1    0    0    0    0 -0.00000000000E+00 -0.00000000000E+00 -0.45593999997E+02  0.45594000000E+02  0.51100000000E-03 0.  1.
    9900012    2    1    2    0    0 -0.44911317021E+01 -0.11464414676E+02 -0.14109401975E+02  0.72461593726E+02  0.70000030524E+02 0.  0.
        -12    1    1    2    0    0  0.44911317021E+01  0.11464414676E+02  0.14109401975E+02  0.18726406274E+02  0.00000000000E+00 0.  1.
         11    1    3    3    0    0  0.12286850989E+00  0.18230383555E+02 -0.95608481816E+01  0.20585718337E+02  0.51100000000E-03 0. -1.
        -11    1    3    3    0    0  0.16634527324E+02 -0.94041469565E+01  0.69387566355E+01  0.20329580005E+02  0.51100000000E-03 0.  1.
        -12    1    3    3    0    0 -0.21248527536E+02 -0.20290651274E+02 -0.11487310429E+02  0.31546295384E+02  0.00000000000E+00 0.  1.
</event>
<event>
 7    1  0.1788006E-013  0.7246158E+02  0.7816164E-02  0.1226708E+00
        -11   -1    0    0    0    0  0.00000000000E+00  0.00000000000E+00  0.45593999997E+02  0.45594000000E+02  0.51100000000E-03 0.  1.
         11   -1    0    0    0    0 -0.00000000000E+00 -0.00000000000E+00 -0.45593999997E+02  0.45594000000E+02  0.51100000000E-03 0. -1.
    9900012    2    1    2    0    0  0.36908023631E+01 -0.22316670699E+01 -0.18222967329E+02  0.72461577537E+02  0.70000009435E+02 0.  0.
        -12    1    1    2    0    0 -0.36908023631E+01  0.22316670699E+01  0.18222967329E+02  0.18726422463E+02  0.00000000000E+00 0.  1.
         11    1    3    3    0    0  0.55409518829E+01 -0.16949166485E+02 -0.48573371213E+01  0.18481615635E+02  0.51100000000E-03 0. -1.
        -11    1    3    3    0    0  0.18428989108E+02  0.20226670576E+02 -0.17611851378E+02  0.32541099419E+02  0.51100000000E-03 0.  1.
         12    1    3    3    0    0 -0.20279138628E+02 -0.55091711608E+01  0.42462211712E+01  0.21438862484E+02  0.00000000000E+00 0. -1.
</event>
<event>
 7    1  0.1788006E-013  0.7246144E+02  0.7816164E-02  0.1226708E+00
        -11   -1    0    0    0    0  0.00000000000E+00  0.00000000000E+00  0.45593999997E+02  0.45594000000E+02  0.51100000000E-03 0.  1.
         11   -1    0    0    0    0 -0.00000000000E+00 -0.00000000000E+00 -0.45593999997E+02  0.45594000000E+02  0.51100000000E-03 0. -1.
    9900012    2    1    2    0    0 -0.16859385356E+02  0.13773043342E+01 -0.80341999980E+01  0.72461435675E+02  0.69999824633E+02 0.  0.
        -12    1    1    2    0    0  0.16859385356E+02 -0.13773043342E+01  0.80341999980E+01  0.18726564325E+02  0.00000000000E+00 0.  1.
         11    1    3    3    0    0  0.81293572069E+01  0.11593741454E+02 -0.22142111122E+02  0.26282586910E+02  0.51100000000E-03 0. -1.
        -11    1    3    3    0    0 -0.24171647746E+01 -0.99575734097E+01 -0.91719288813E+01  0.13752099237E+02  0.51100000000E-03 0.  1.
        -12    1    3    3    0    0 -0.22571577788E+02 -0.25886371041E+00  0.23279840005E+02  0.32426749528E+02  0.00000000000E+00 0.  1.
</event>
<event>
 7    1  0.1788006E-013  0.7246157E+02  0.7816164E-02  0.1226708E+00
        -11   -1    0    0    0    0  0.00000000000E+00  0.00000000000E+00  0.45593999997E+02  0.45594000000E+02  0.51100000000E-03 0.  1.
         11   -1    0    0    0    0 -0.00000000000E+00 -0.00000000000E+00 -0.45593999997E+02  0.45594000000E+02  0.51100000000E-03 0. -1.
    9900012    2    1    2    0    0  0.18514434652E+02 -0.19101416581E+01 -0.20606397348E+01  0.72461570342E+02  0.70000000062E+02 0.  0.
        -12    1    1    2    0    0 -0.18514434652E+02  0.19101416581E+01  0.20606397348E+01  0.18726429658E+02  0.00000000000E+00 0.  1.
         11    1    3    3    0    0  0.24665935207E+02  0.16678104219E+02 -0.85145491491E+01  0.30968775686E+02  0.51100000000E-03 0. -1.
        -11    1    3    3    0    0 -0.36250148456E+01  0.52472121056E+01 -0.10394211929E+02  0.12194818957E+02  0.51100000000E-03 0.  1.
        -12    1    3    3    0    0 -0.25264857100E+01 -0.23835457983E+02  0.16848121343E+02  0.29297975699E+02  0.00000000000E+00 0.  1.
</event>
<event>
 7    1  0.1788006E-013  0.7246183E+02  0.7816164E-02  0.1226707E+00
        -11   -1    0    0    0    0  0.00000000000E+00  0.00000000000E+00  0.45593999997E+02  0.45594000000E+02  0.51100000000E-03 0. -1.
         11   -1    0    0    0    0 -0.00000000000E+00 -0.00000000000E+00 -0.45593999997E+02  0.45594000000E+02  0.51100000000E-03 0.  1.
    9900012    2    1    2    0    0 -0.26960895300E+01 -0.10048717859E+02  0.15569965193E+02  0.72461829931E+02  0.70000338224E+02 0.  0.
        -12    1    1    2    0    0  0.26960895300E+01  0.10048717859E+02 -0.15569965193E+02  0.18726170069E+02  0.00000000000E+00 0.  1.
         11    1    3    3    0    0  0.10095807616E+02 -0.49324785490E+00  0.25352121300E+02  0.27292832018E+02  0.51100000000E-03 0. -1.
        -11    1    3    3    0    0 -0.15265069841E+02  0.45272579396E+01  0.11421332796E+02  0.19595031636E+02  0.51100000000E-03 0.  1.
         12    1    3    3    0    0  0.24731726948E+01 -0.14082727943E+02 -0.21203488903E+02  0.25573966277E+02  0.00000000000E+00 0. -1.
</event>
<event>
 7    1  0.1788006E-013  0.7246156E+02  0.7816164E-02  0.1226708E+00
        -11   -1    0    0    0    0  0.00000000000E+00  0.00000000000E+00  0.45593999997E+02  0.45594000000E+02  0.51100000000E-03 0. -1.
         11   -1    0    0    0    0 -0.00000000000E+00 -0.00000000000E+00 -0.45593999997E+02  0.45594000000E+02  0.51100000000E-03 0.  1.
    9900012    2    1    2    0    0 -0.37803758760E+00  0.15396898899E+02  0.10652325022E+02  0.72461563166E+02  0.69999990713E+02 0.  0.
        -12    1    1    2    0    0  0.37803758760E+00 -0.15396898899E+02 -0.10652325022E+02  0.18726436834E+02  0.00000000000E+00 0.  1.
         11    1    3    3    0    0  0.15295878930E+02  0.25923941717E+01  0.13760505651E+02  0.20737307824E+02  0.51100000000E-03 0. -1.
        -11    1    3    3    0    0  0.43293344291E+01  0.23654117009E+02 -0.12505115973E+02  0.27104212105E+02  0.51100000000E-03 0.  1.
        -12    1    3    3    0    0 -0.20003250947E+02 -0.10849612281E+02  0.93969353446E+01  0.24620043236E+02  0.00000000000E+00 0.  1.
</event>
<event>
 7    1  0.1788006E-013  0.7246153E+02  0.7816164E-02  0.1226708E+00
        -11   -1    0    0    0    0  0.00000000000E+00  0.00000000000E+00  0.45593999997E+02  0.45594000000E+02  0.51100000000E-03 0. -1.
         11   -1    0    0    0    0 -0.00000000000E+00 -0.00000000000E+00 -0.45593999997E+02  0.45594000000E+02  0.51100000000E-03 0.  1.
    9900012    2    1    2    0    0 -0.64961016045E+01  0.10201293313E+02  0.14297372855E+02  0.72461532317E+02  0.69999950528E+02 0.  0.
        -12    1    1    2    0    0  0.64961016045E+01 -0.10201293313E+02 -0.14297372855E+02  0.18726467683E+02  0.00000000000E+00 0.  1.
         11    1    3    3    0    0 -0.31463647075E+01  0.15186769079E+02  0.70069017836E+01  0.17018643859E+02  0.51100000000E-03 0. -1.
        -11    1    3    3    0    0 -0.16903171323E+01  0.20969249786E+02 -0.10911219014E+02  0.23698550783E+02  0.51100000000E-03 0.  1.
         12    1    3    3    0    0 -0.16594197648E+01 -0.25954725552E+02  0.18201690086E+02  0.31744337675E+02  0.00000000000E+00 0. -1.
</event>
<event>
 7    1  0.1788006E-013  0.7246157E+02  0.7816164E-02  0.1226708E+00
        -11   -1    0    0    0    0  0.00000000000E+00  0.00000000000E+00  0.45593999997E+02  0.45594000000E+02  0.51100000000E-03 0.  1.
         11   -1    0    0    0    0 -0.00000000000E+00 -0.00000000000E+00 -0.45593999997E+02  0.45594000000E+02  0.51100000000E-03 0. -1.
    9900012    2    1    2    0    0 -0.94994897122E+01  0.10738106742E+02 -0.12047068609E+02  0.72461572064E+02  0.70000002305E+02 0.  0.
        -12    1    1    2    0    0  0.94994897122E+01 -0.10738106742E+02  0.12047068609E+02  0.18726427936E+02  0.00000000000E+00 0.  1.
         11    1    3    3    0    0  0.27818686546E+01  0.18303009121E+01 -0.12151658714E+02  0.12599666837E+02  0.51100000000E-03 0. -1.
        -11    1    3    3    0    0 -0.14083314898E+02 -0.20330105512E+02 -0.12805068893E+02  0.27850004277E+02  0.51100000000E-03 0.  1.
         12    1    3    3    0    0  0.18019565314E+01  0.29237911342E+02  0.12909658997E+02  0.32011900949E+02  0.00000000000E+00 0. -1.
</event>
<event>
 7    1  0.1788006E-013  0.7246154E+02  0.7816164E-02  0.1226708E+00
        -11   -1    0    0    0    0  0.00000000000E+00  0.00000000000E+00  0.45593999997E+02  0.45594000000E+02  0.51100000000E-03 0.  1.
         11   -1    0    0    0    0 -0.00000000000E+00 -0.00000000000E+00 -0.45593999997E+02  0.45594000000E+02  0.51100000000E-03 0. -1.
    9900012    2    1    2    0    0 -0.11745798728E+02  0.41919793914E+01 -0.13969391687E+02  0.72461537892E+02  0.69999957790E+02 0.  0.
        -12    1    1    2    0    0  0.11745798728E+02 -0.41919793914E+01  0.13969391687E+02  0.18726462108E+02  0.00000000000E+00 0.  1.
         11    1    3    3    0    0  0.19179620795E+01  0.94489334679E-01 -0.82003627721E+01  0.84222002248E+01  0.51100000000E-03 0. -1.
        -11    1    3    3    0    0 -0.16956982541E+02 -0.27258764968E+02 -0.50874309082E+01  0.32503253345E+02  0.51100000000E-03 0.  1.
         12    1    3    3    0    0  0.32932217338E+01  0.31356255025E+02 -0.68159800640E+00  0.31536084323E+02  0.00000000000E+00 0. -1.
</event>
<event>
 7    1  0.1788006E-013  0.7246158E+02  0.7816164E-02  0.1226708E+00
        -11   -1    0    0    0    0  0.00000000000E+00  0.00000000000E+00  0.45593999997E+02  0.45594000000E+02  0.51100000000E-03 0. -1.
         11   -1    0    0    0    0 -0.00000000000E+00 -0.00000000000E+00 -0.45593999997E+02  0.45594000000E+02  0.51100000000E-03 0.  1.
    9900012    2    1    2    0    0 -0.66908307509E+01  0.15744914495E+02  0.76163797264E+01  0.72461580462E+02  0.70000013245E+02 0.  0.
        -12    1    1    2    0    0  0.66908307509E+01 -0.15744914495E+02 -0.76163797264E+01  0.18726419538E+02  0.00000000000E+00 0.  1.
         11    1    3    3    0    0  0.31922328605E+01 -0.25946426653E+02  0.10483253196E+02  0.28165688426E+02  0.51100000000E-03 0. -1.
        -11    1    3    3    0    0  0.29448938264E+00 -0.51075976000E+00  0.47266436579E+00  0.75565295786E+00  0.51100000000E-03 0.  1.
        -12    1    3    3    0    0 -0.10177552994E+02  0.42202100908E+02 -0.33395378353E+01  0.43540239078E+02  0.00000000000E+00 0.  1.
</event>
<event>
 7    1  0.1788006E-013  0.7246170E+02  0.7816164E-02  0.1226708E+00
        -11   -1    0    0    0    0  0.00000000000E+00  0.00000000000E+00  0.45593999997E+02  0.45594000000E+02  0.51100000000E-03 0.  1.
         11   -1    0    0    0    0 -0.00000000000E+00 -0.00000000000E+00 -0.45593999997E+02  0.45594000000E+02  0.51100000000E-03 0. -1.
    9900012    2    1    2    0    0 -0.44687780594E+01  0.60669905831E+01 -0.17143390056E+02  0.72461703657E+02  0.70000173730E+02 0.  0.
        -12    1    1    2    0    0  0.44687780594E+01 -0.60669905831E+01  0.17143390056E+02  0.18726296343E+02  0.00000000000E+00 0.  1.
         11    1    3    3    0    0 -0.77440606917E+01  0.11592500621E+02 -0.94923977891E+00  0.13973460669E+02  0.51100000000E-03 0. -1.
        -11    1    3    3    0    0 -0.69394198311E+01  0.23775603363E+02 -0.37251777259E+01  0.25046193568E+02  0.51100000000E-03 0.  1.
        -12    1    3    3    0    0  0.10214702463E+02 -0.29301113401E+02 -0.12468972552E+02  0.33442049421E+02  0.00000000000E+00 0.  1.
</event>
<event>
 7    1  0.1788006E-013  0.7246158E+02  0.7816164E-02  0.1226708E+00
        -11   -1    0    0    0    0  0.00000000000E+00  0.00000000000E+00  0.45593999997E+02  0.45594000000E+02  0.51100000000E-03 0.  1.
         11   -1    0    0    0    0 -0.00000000000E+00 -0.00000000000E+00 -0.45593999997E+02  0.45594000000E+02  0.51100000000E-03 0. -1.
    9900012    2    1    2    0    0 -0.13267045867E+02  0.36982772914E+01 -0.12688066660E+02  0.72461580253E+02  0.70000012974E+02 0.  0.
        -12    1    1    2    0    0  0.13267045867E+02 -0.36982772914E+01  0.12688066660E+02  0.18726419747E+02  0.00000000000E+00 0.  1.
         11    1    3    3    0    0 -0.29603064093E+01 -0.13874923497E+01 -0.23030459537E+01  0.39990711401E+01  0.51100000000E-03 0. -1.
        -11    1    3    3    0    0 -0.34198039876E+01 -0.55231513346E+01  0.27637882795E+02  0.28391069470E+02  0.51100000000E-03 0.  1.
         12    1    3    3    0    0 -0.68869354698E+01  0.10608920976E+02 -0.38022903501E+02  0.40071439644E+02  0.00000000000E+00 0. -1.
</event>
<event>
 7    1  0.1788006E-013  0.7246160E+02  0.7816164E-02  0.1226708E+00
        -11   -1    0    0    0    0  0.00000000000E+00  0.00000000000E+00  0.45593999997E+02  0.45594000000E+02  0.51100000000E-03 0.  1.
         11   -1    0    0    0    0 -0.00000000000E+00 -0.00000000000E+00 -0.45593999997E+02  0.45594000000E+02  0.51100000000E-03 0. -1.
    9900012    2    1    2    0    0  0.16279450872E+02 -0.87228645045E+01 -0.30934189061E+01  0.72461598147E+02  0.70000036283E+02 0.  0.
        -12    1    1    2    0    0 -0.16279450872E+02  0.87228645045E+01  0.30934189061E+01  0.18726401853E+02  0.00000000000E+00 0.  1.
         11    1    3    3    0    0  0.93047474909E+01  0.14563025496E+02 -0.64461326183E+01  0.18444854661E+02  0.51100000000E-03 0. -1.
        -11    1    3    3    0    0 -0.15204609172E+02 -0.15026272233E+01 -0.11921680694E+02  0.19379486564E+02  0.51100000000E-03 0.  1.
         12    1    3    3    0    0  0.22179312553E+02 -0.21783262777E+02  0.15274394407E+02  0.34637256921E+02  0.00000000000E+00 0. -1.
</event>
<event>
 7    1  0.1788006E-013  0.7246161E+02  0.7816164E-02  0.1226708E+00
        -11   -1    0    0    0    0  0.00000000000E+00  0.00000000000E+00  0.45593999997E+02  0.45594000000E+02  0.51100000000E-03 0. -1.
         11   -1    0    0    0    0 -0.00000000000E+00 -0.00000000000E+00 -0.45593999997E+02  0.45594000000E+02  0.51100000000E-03 0.  1.
    9900012    2    1    2    0    0 -0.14827119771E+02 -0.11437631786E+02  0.12133815919E+00  0.72461611546E+02  0.70000053738E+02 0.  0.
        -12    1    1    2    0    0  0.14827119771E+02  0.11437631786E+02 -0.12133815919E+00  0.18726388454E+02  0.00000000000E+00 0.  1.
         11    1    3    3    0    0  0.31547587618E+01 -0.18778151142E+02  0.70682737276E+01  0.20310882721E+02  0.51100000000E-03 0. -1.
        -11    1    3    3    0    0 -0.21866694795E+02 -0.69180287383E+01  0.13733703363E+02  0.26732490928E+02  0.51100000000E-03 0.  1.
        -12    1    3    3    0    0  0.38848162618E+01  0.14258548095E+02 -0.20680638931E+02  0.25418237897E+02  0.00000000000E+00 0.  1.
</event>
<event>
 7    1  0.1788006E-013  0.7246159E+02  0.7816164E-02  0.1226708E+00
        -11   -1    0    0    0    0  0.00000000000E+00  0.00000000000E+00  0.45593999997E+02  0.45594000000E+02  0.51100000000E-03 0.  1.
         11   -1    0    0    0    0 -0.00000000000E+00 -0.00000000000E+00 -0.45593999997E+02  0.45594000000E+02  0.51100000000E-03 0. -1.
    9900012    2    1    2    0    0  0.57539890325E+01 -0.85802561719E+01 -0.15618870455E+02  0.72461593510E+02  0.70000030242E+02 0.  0.
        -12    1    1    2    0    0 -0.57539890325E+01  0.85802561719E+01  0.15618870455E+02  0.18726406490E+02  0.00000000000E+00 0.  1.
         11    1    3    3    0    0  0.13974302757E+02 -0.16292674894E+02 -0.12612555732E+01  0.21501701296E+02  0.51100000000E-03 0. -1.
        -11    1    3    3    0    0  0.99953954480E+01  0.77720329389E+01  0.12964922506E+02  0.18121855369E+02  0.51100000000E-03 0.  1.
         12    1    3    3    0    0 -0.18215709172E+02 -0.59614216543E-01 -0.27322537387E+02  0.32838036844E+02  0.00000000000E+00 0. -1.
</event>
<event>
 7    1  0.1788006E-013  0.7246156E+02  0.7816164E-02  0.1226708E+00
        -11   -1    0    0    0    0  0.00000000000E+00  0.00000000000E+00  0.45593999997E+02  0.45594000000E+02  0.51100000000E-03 0. -1.
         11   -1    0    0    0    0 -0.00000000000E+00 -0.00000000000E+00 -0.45593999997E+02  0.45594000000E+02  0.51100000000E-03 0.  1.
    9900012    2    1    2    0    0  0.86739706414E+01 -0.14587884699E+02  0.79142581572E+01  0.72461558030E+02  0.69999984023E+02 0.  0.
        -12    1    1    2    0    0 -0.86739706414E+01  0.14587884699E+02 -0.79142581572E+01  0.18726441970E+02  0.00000000000E+00 0.  1.
         11    1    3    3    0    0 -0.90574000975E-01  0.78355648649E+01 -0.53091012689E+01  0.94652436285E+01  0.51100000000E-03 0. -1.
        -11    1    3    3    0    0  0.55474209294E+01  0.16314461018E+02  0.16666227659E+02  0.23972873460E+02  0.51100000000E-03 0.  1.
         12    1    3    3    0    0  0.32171237130E+01 -0.38737910582E+02 -0.34428682327E+01  0.39023440942E+02  0.00000000000E+00 0. -1.
</event>
<event>
 7    1  0.1788006E-013  0.7246158E+02  0.7816164E-02  0.1226708E+00
        -11   -1    0    0    0    0  0.00000000000E+00  0.00000000000E+00  0.45593999997E+02  0.45594000000E+02  0.51100000000E-03 0.  1.
         11   -1    0    0    0    0 -0.00000000000E+00 -0.00000000000E+00 -0.45593999997E+02  0.45594000000E+02  0.51100000000E-03 0. -1.
    9900012    2    1    2    0    0 -0.64735437622E+01 -0.17551517706E+02 -0.84631586310E+00  0.72461580343E+02  0.70000013090E+02 0.  0.
        -12    1    1    2    0    0  0.64735437622E+01  0.17551517706E+02  0.84631586310E+00  0.18726419657E+02  0.00000000000E+00 0.  1.
         11    1    3    3    0    0 -0.12011847419E+02 -0.19071497754E+02 -0.24318268435E+01  0.22669810036E+02  0.51100000000E-03 0.  1.
        -11    1    3    3    0    0 -0.19961820622E+02  0.13482205743E+01  0.10727620033E+02  0.22701846028E+02  0.51100000000E-03 0. -1.
        -12    1    3    3    0    0  0.25500124278E+02  0.17175947387E+00 -0.91421090523E+01  0.27089924279E+02  0.00000000000E+00 0.  1.
</event>
<event>
 7    1  0.1788006E-013  0.7246159E+02  0.7816164E-02  0.1226708E+00
        -11   -1    0    0    0    0  0.00000000000E+00  0.00000000000E+00  0.45593999997E+02  0.45594000000E+02  0.51100000000E-03 0.  1.
         11   -1    0    0    0    0 -0.00000000000E+00 -0.00000000000E+00 -0.45593999997E+02  0.45594000000E+02  0.51100000000E-03 0. -1.
    9900012    2    1    2    0    0  0.38329312175E+01  0.14008428110E+02 -0.11821639452E+02  0.72461586057E+02  0.70000020534E+02 0.  0.
        -12    1    1    2    0    0 -0.38329312175E+01 -0.14008428110E+02  0.11821639452E+02  0.18726413943E+02  0.00000000000E+00 0.  1.
         11    1    3    3    0    0  0.68853709135E+01  0.10040050326E+02  0.51700049997E+01  0.13226484609E+02  0.51100000000E-03 0. -1.
        -11    1    3    3    0    0  0.18127738848E+02  0.19996915823E+02  0.12391628993E+01  0.27019013363E+02  0.51100000000E-03 0.  1.
         12    1    3    3    0    0 -0.21180178544E+02 -0.16028538039E+02 -0.18230807351E+02  0.32216088085E+02  0.00000000000E+00 0. -1.
</event>
<event>
 7    1  0.1788006E-013  0.7246158E+02  0.7816164E-02  0.1226708E+00
        -11   -1    0    0    0    0  0.00000000000E+00  0.00000000000E+00  0.45593999997E+02  0.45594000000E+02  0.51100000000E-03 0. -1.
         11   -1    0    0    0    0 -0.00000000000E+00 -0.00000000000E+00 -0.45593999997E+02  0.45594000000E+02  0.51100000000E-03 0.  1.
    9900012    2    1    2    0    0 -0.12249981333E+02 -0.13009074963E+02  0.56018582197E+01  0.72461577769E+02  0.70000009738E+02 0.  0.
        -12    1    1    2    0    0  0.12249981333E+02  0.13009074963E+02 -0.56018582197E+01  0.18726422231E+02  0.00000000000E+00 0.  1.
         11    1    3    3    0    0 -0.82409797751E+01  0.39817897741E+01 -0.27839161101E+01  0.95665347241E+01  0.51100000000E-03 0. -1.
        -11    1    3    3    0    0 -0.15706024002E+02  0.18279484705E+02  0.90130077411E+01  0.25730391754E+02  0.51100000000E-03 0.  1.
         12    1    3    3    0    0  0.11697022445E+02 -0.35270349442E+02 -0.62723341131E+00  0.37164651291E+02  0.00000000000E+00 0. -1.
</event>
<event>
 7    1  0.1788006E-013  0.7246156E+02  0.7816164E-02  0.1226708E+00
        -11   -1    0    0    0    0  0.00000000000E+00  0.00000000000E+00  0.45593999997E+02  0.45594000000E+02  0.51100000000E-03 0.  1.
         11   -1    0    0    0    0 -0.00000000000E+00 -0.00000000000E+00 -0.45593999997E+02  0.45594000000E+02  0.51100000000E-03 0. -1.
    9900012    2    1    2    0    0 -0.43661042413E+00 -0.12999858302E+02  0.13471918587E+02  0.72461560538E+02  0.69999987290E+02 0.  0.
        -12    1    1    2    0    0  0.43661042413E+00  0.12999858302E+02 -0.13471918587E+02  0.18726439462E+02  0.00000000000E+00 0.  1.
         11    1    3    3    0    0  0.20693791316E+02 -0.23422375128E+02  0.23871293669E+01  0.31345478821E+02  0.51100000000E-03 0. -1.
        -11    1    3    3    0    0  0.12865841335E+01  0.19609730848E+01 -0.93408267145E+01  0.96307714199E+01  0.51100000000E-03 0.  1.
        -12    1    3    3    0    0 -0.22416985873E+02  0.84615437417E+01  0.20425615935E+02  0.31485310296E+02  0.00000000000E+00 0.  1.
</event>
<event>
 7    1  0.1788006E-013  0.7246167E+02  0.7816164E-02  0.1226708E+00
        -11   -1    0    0    0    0  0.00000000000E+00  0.00000000000E+00  0.45593999997E+02  0.45594000000E+02  0.51100000000E-03 0.  1.
         11   -1    0    0    0    0 -0.00000000000E+00 -0.00000000000E+00 -0.45593999997E+02  0.45594000000E+02  0.51100000000E-03 0. -1.
    9900012    2    1    2    0    0  0.16397034917E+01  0.14230476069E+02 -0.12061520714E+02  0.72461672046E+02  0.70000132550E+02 0.  0.
        -12    1    1    2    0    0 -0.16397034917E+01 -0.14230476069E+02  0.12061520714E+02  0.18726327954E+02  0.00000000000E+00 0.  1.
         11    1    3    3    0    0 -0.19210065434E+01  0.32031264476E+01  0.17349126076E+02  0.17746618299E+02  0.51100000000E-03 0. -1.
        -11    1    3    3    0    0 -0.38214098760E+01 -0.16850179293E+02 -0.10205945262E+02  0.20067212926E+02  0.51100000000E-03 0.  1.
         12    1    3    3    0    0  0.73821199111E+01  0.27877528915E+02 -0.19204701528E+02  0.34647840822E+02  0.00000000000E+00 0. -1.
</event>
<event>
 7    1  0.1788006E-013  0.7246160E+02  0.7816164E-02  0.1226708E+00
        -11   -1    0    0    0    0  0.00000000000E+00  0.00000000000E+00  0.45593999997E+02  0.45594000000E+02  0.51100000000E-03 0.  1.
         11   -1    0    0    0    0 -0.00000000000E+00 -0.00000000000E+00 -0.45593999997E+02  0.45594000000E+02  0.51100000000E-03 0. -1.
    9900012    2    1    2    0    0  0.58518564460E+01  0.56538669307E+01 -0.16866165341E+02  0.72461602363E+02  0.70000041775E+02 0.  0.
        -12    1    1    2    0    0 -0.58518564460E+01 -0.56538669307E+01  0.16866165341E+02  0.18726397637E+02  0.00000000000E+00 0.  1.
         11    1    3    3    0    0 -0.10766754452E+02 -0.19483896993E+02 -0.18858850094E+02  0.29175357248E+02  0.51100000000E-03 0. -1.
        -11    1    3    3    0    0 -0.99576497825E+00  0.12792516290E+02 -0.12046749112E+02  0.17600118901E+02  0.51100000000E-03 0.  1.
         12    1    3    3    0    0  0.17614375876E+02  0.12345247634E+02  0.14039433864E+02  0.25686126214E+02  0.00000000000E+00 0. -1.
</event>
<event>
 7    1  0.1788006E-013  0.7246150E+02  0.7816164E-02  0.1226708E+00
        -11   -1    0    0    0    0  0.00000000000E+00  0.00000000000E+00  0.45593999997E+02  0.45594000000E+02  0.51100000000E-03 0. -1.
         11   -1    0    0    0    0 -0.00000000000E+00 -0.00000000000E+00 -0.45593999997E+02  0.45594000000E+02  0.51100000000E-03 0.  1.
    9900012    2    1    2    0    0  0.75803352996E+01 -0.17038910357E+02 -0.17017488455E+01  0.72461497429E+02  0.69999905079E+02 0.  0.
        -12    1    1    2    0    0 -0.75803352996E+01  0.17038910357E+02  0.17017488455E+01  0.18726502571E+02  0.00000000000E+00 0.  1.
         11    1    3    3    0    0  0.88203013005E+01  0.30590621228E+01  0.25167995844E+02  0.26843688106E+02  0.51100000000E-03 0. -1.
        -11    1    3    3    0    0 -0.10008025733E+02  0.35860509595E+01 -0.34546660267E+01  0.11178329847E+02  0.51100000000E-03 0.  1.
         12    1    3    3    0    0  0.87680597318E+01 -0.23684023440E+02 -0.23415078663E+02  0.34439479475E+02  0.00000000000E+00 0. -1.
</event>
<event>
 7    1  0.1788006E-013  0.7246150E+02  0.7816164E-02  0.1226708E+00
        -11   -1    0    0    0    0  0.00000000000E+00  0.00000000000E+00  0.45593999997E+02  0.45594000000E+02  0.51100000000E-03 0.  1.
         11   -1    0    0    0    0 -0.00000000000E+00 -0.00000000000E+00 -0.45593999997E+02  0.45594000000E+02  0.51100000000E-03 0. -1.
    9900012    2    1    2    0    0  0.35639616579E+01 -0.10253425337E+02 -0.15259328583E+02  0.72461503728E+02  0.69999913284E+02 0.  0.
        -12    1    1    2    0    0 -0.35639616579E+01  0.10253425337E+02  0.15259328583E+02  0.18726496272E+02  0.00000000000E+00 0.  1.
         11    1    3    3    0    0 -0.99760389109E+01 -0.14786607325E+02  0.19846176249E+02  0.26683999335E+02  0.51100000000E-03 0. -1.
        -11    1    3    3    0    0  0.52493111808E+01 -0.16471298206E+01  0.30189464278E+01  0.62755352213E+01  0.51100000000E-03 0.  1.
         12    1    3    3    0    0  0.82906893880E+01  0.61803118084E+01 -0.38124451260E+02  0.39501969172E+02  0.00000000000E+00 0. -1.
</event>
<event>
 7    1  0.1788006E-013  0.7246153E+02  0.7816164E-02  0.1226708E+00
        -11   -1    0    0    0    0  0.00000000000E+00  0.00000000000E+00  0.45593999997E+02  0.45594000000E+02  0.51100000000E-03 0. -1.
         11   -1    0    0    0    0 -0.00000000000E+00 -0.00000000000E+00 -0.45593999997E+02  0.45594000000E+02  0.51100000000E-03 0.  1.
    9900012    2    1    2    0    0  0.12491465097E+02 -0.28730212913E+01  0.13652466596E+02  0.72461526873E+02  0.69999943436E+02 0.  0.
        -12    1    1    2    0    0 -0.12491465097E+02  0.28730212913E+01 -0.13652466596E+02  0.18726473127E+02  0.00000000000E+00 0.  1.
         11    1    3    3    0    0  0.25059744367E+01 -0.15104090194E+02  0.11611819620E+02  0.19215821700E+02  0.51100000000E-03 0. -1.
        -11    1    3    3    0    0  0.49250625371E+01 -0.73887765743E+01  0.22659643824E+02  0.24337413970E+02  0.51100000000E-03 0.  1.
        -12    1    3    3    0    0  0.50604281234E+01  0.19619845477E+02 -0.20618996847E+02  0.28908291203E+02  0.00000000000E+00 0.  1.
</event>
<event>
 7    1  0.1788006E-013  0.7246157E+02  0.7816164E-02  0.1226708E+00
        -11   -1    0    0    0    0  0.00000000000E+00  0.00000000000E+00  0.45593999997E+02  0.45594000000E+02  0.51100000000E-03 0.  1.
         11   -1    0    0    0    0 -0.00000000000E+00 -0.00000000000E+00 -0.45593999997E+02  0.45594000000E+02  0.51100000000E-03 0. -1.
    9900012    2    1    2    0    0 -0.11326254885E+02  0.14833912484E+02 -0.15330068999E+01  0.72461571631E+02  0.70000001742E+02 0.  0.
        -12    1    1    2    0    0  0.11326254885E+02 -0.14833912484E+02  0.15330068999E+01  0.18726428369E+02  0.00000000000E+00 0.  1.
         11    1    3    3    0    0 -0.12879106818E+02  0.26040752232E+02  0.89315751121E+01  0.30393505943E+02  0.51100000000E-03 0. -1.
        -11    1    3    3    0    0  0.15649608898E+02  0.58751932924E+01  0.16954517419E+01  0.16801866318E+02  0.51100000000E-03 0.  1.
        -12    1    3    3    0    0 -0.14096756965E+02 -0.17082033041E+02 -0.12160033754E+02  0.25266199371E+02  0.00000000000E+00 0.  1.
</event>
<event>
 7    1  0.1788006E-013  0.7246157E+02  0.7816164E-02  0.1226708E+00
        -11   -1    0    0    0    0  0.00000000000E+00  0.00000000000E+00  0.45593999997E+02  0.45594000000E+02  0.51100000000E-03 0. -1.
         11   -1    0    0    0    0 -0.00000000000E+00 -0.00000000000E+00 -0.45593999997E+02  0.45594000000E+02  0.51100000000E-03 0.  1.
    9900012    2    1    2    0    0  0.36941021196E+01  0.17523148536E+02  0.54746573515E+01  0.72461574869E+02  0.70000005959E+02 0.  0.
        -12    1    1    2    0    0 -0.36941021196E+01 -0.17523148536E+02 -0.54746573515E+01  0.18726425131E+02  0.00000000000E+00 0.  1.
         11    1    3    3    0    0 -0.22327835014E+02  0.24300924310E+01  0.82033854308E+01  0.23910940978E+02  0.51100000000E-03 0. -1.
        -11    1    3    3    0    0 -0.49147504487E+00 -0.44295790427E+01  0.11761493281E+02  0.12577576980E+02  0.51100000000E-03 0.  1.
         12    1    3    3    0    0  0.26513412179E+02  0.19522635148E+02 -0.14490221361E+02  0.35973056911E+02  0.00000000000E+00 0. -1.
</event>
<event>
 7    1  0.1788006E-013  0.7246160E+02  0.7816164E-02  0.1226708E+00
        -11   -1    0    0    0    0  0.00000000000E+00  0.00000000000E+00  0.45593999997E+02  0.45594000000E+02  0.51100000000E-03 0. -1.
         11   -1    0    0    0    0 -0.00000000000E+00 -0.00000000000E+00 -0.45593999997E+02  0.45594000000E+02  0.51100000000E-03 0.  1.
    9900012    2    1    2    0    0  0.72732249878E+00  0.17036363730E+02  0.77402543306E+01  0.72461595533E+02  0.70000032878E+02 0.  0.
        -12    1    1    2    0    0 -0.72732249878E+00 -0.17036363730E+02 -0.77402543306E+01  0.18726404467E+02  0.00000000000E+00 0.  1.
         11    1    3    3    0    0 -0.16211281461E+02  0.24188447843E+01  0.26568528231E+02  0.31217673669E+02  0.51100000000E-03 0. -1.
        -11    1    3    3    0    0 -0.77395359199E+01  0.11297426285E+01 -0.85594189536E+00  0.78682508508E+01  0.51100000000E-03 0.  1.
        -12    1    3    3    0    0  0.24678139880E+02  0.13487776317E+02 -0.17972332005E+02  0.33375671013E+02  0.00000000000E+00 0.  1.
</event>
<event>
 7    1  0.1788006E-013  0.7246157E+02  0.7816164E-02  0.1226708E+00
        -11   -1    0    0    0    0  0.00000000000E+00  0.00000000000E+00  0.45593999997E+02  0.45594000000E+02  0.51100000000E-03 0.  1.
         11   -1    0    0    0    0 -0.00000000000E+00 -0.00000000000E+00 -0.45593999997E+02  0.45594000000E+02  0.51100000000E-03 0. -1.
    9900012    2    1    2    0    0 -0.13024017617E+02  0.13418860707E+02  0.99406564303E+00  0.72461574178E+02  0.70000005059E+02 0.  0.
        -12    1    1    2    0    0  0.13024017617E+02 -0.13418860707E+02 -0.99406564303E+00  0.18726425822E+02  0.00000000000E+00 0.  1.
         11    1    3    3    0    0  0.13554271736E+02  0.29183907938E+02  0.58291146712E+01  0.32701641288E+02  0.51100000000E-03 0. -1.
        -11    1    3    3    0    0  0.20331710084E+01  0.26899152268E+01 -0.46107716270E+01  0.57121487669E+01  0.51100000000E-03 0.  1.
        -12    1    3    3    0    0 -0.28611460362E+02 -0.18454962457E+02 -0.22427740112E+00  0.34047784123E+02  0.00000000000E+00 0.  1.
</event>
<event>
 7    1  0.1788006E-013  0.7246153E+02  0.7816164E-02  0.1226708E+00
        -11   -1    0    0    0    0  0.00000000000E+00  0.00000000000E+00  0.45593999997E+02  0.45594000000E+02  0.51100000000E-03 0.  1.
         11   -1    0    0    0    0 -0.00000000000E+00 -0.00000000000E+00 -0.45593999997E+02  0.45594000000E+02  0.51100000000E-03 0. -1.
    9900012    2    1    2    0    0 -0.53163132457E+01 -0.17912325480E+02 -0.12513695429E+01  0.72461534334E+02  0.69999953155E+02 0.  0.
        -12    1    1    2    0    0  0.53163132457E+01  0.17912325480E+02  0.12513695429E+01  0.18726465666E+02  0.00000000000E+00 0.  1.
         11    1    3    3    0    0  0.18407781806E+02 -0.98764418451E+01 -0.10477196002E+02  0.23370112769E+02  0.51100000000E-03 0. -1.
        -11    1    3    3    0    0 -0.16095395634E+02  0.43517806512E+01 -0.13942165633E+02  0.21734390680E+02  0.51100000000E-03 0.  1.
        -12    1    3    3    0    0 -0.76286994178E+01 -0.12387664286E+02  0.23167992092E+02  0.27357030885E+02  0.00000000000E+00 0.  1.
</event>
<event>
 7    1  0.1788006E-013  0.7246156E+02  0.7816164E-02  0.1226708E+00
        -11   -1    0    0    0    0  0.00000000000E+00  0.00000000000E+00  0.45593999997E+02  0.45594000000E+02  0.51100000000E-03 0.  1.
         11   -1    0    0    0    0 -0.00000000000E+00 -0.00000000000E+00 -0.45593999997E+02  0.45594000000E+02  0.51100000000E-03 0. -1.
    9900012    2    1    2    0    0  0.18267515535E+02  0.39979659936E+01  0.99678017766E+00  0.72461563429E+02  0.69999991057E+02 0.  0.
        -12    1    1    2    0    0 -0.18267515535E+02 -0.39979659936E+01 -0.99678017766E+00  0.18726436571E+02  0.00000000000E+00 0.  1.
         11    1    3    3    0    0  0.10308852725E+02  0.23140708330E+02 -0.17215294513E+02  0.30628927372E+02  0.51100000000E-03 0. -1.
        -11    1    3    3    0    0  0.24210937223E+01 -0.12580454852E+02 -0.74170054326E+01  0.14803428959E+02  0.51100000000E-03 0.  1.
        -12    1    3    3    0    0  0.55375690876E+01 -0.65622874849E+01  0.25629080123E+02  0.27029207099E+02  0.00000000000E+00 0.  1.
</event>
<event>
 7    1  0.1788006E-013  0.7246158E+02  0.7816164E-02  0.1226708E+00
        -11   -1    0    0    0    0  0.00000000000E+00  0.00000000000E+00  0.45593999997E+02  0.45594000000E+02  0.51100000000E-03 0. -1.
         11   -1    0    0    0    0 -0.00000000000E+00 -0.00000000000E+00 -0.45593999997E+02  0.45594000000E+02  0.51100000000E-03 0.  1.
    9900012    2    1    2    0    0 -0.15377340655E+00 -0.86248061931E+01  0.16621311660E+02  0.72461576705E+02  0.70000008351E+02 0.  0.
        -12    1    1    2    0    0  0.15377340655E+00  0.86248061931E+01 -0.16621311660E+02  0.18726423295E+02  0.00000000000E+00 0.  1.
         11    1    3    3    0    0  0.33061721836E+01 -0.34041544415E+00 -0.29387570179E+01  0.44365471093E+01  0.51100000000E-03 0. -1.
        -11    1    3    3    0    0  0.12267778267E+02 -0.52657360279E+01 -0.20736758836E+02  0.24662512581E+02  0.51100000000E-03 0.  1.
         12    1    3    3    0    0 -0.15727723858E+02 -0.30186547210E+01  0.40296827514E+02  0.43362517014E+02  0.00000000000E+00 0. -1.
</event>
<event>
 7    1  0.1788006E-013  0.7246155E+02  0.7816164E-02  0.1226708E+00
        -11   -1    0    0    0    0  0.00000000000E+00  0.00000000000E+00  0.45593999997E+02  0.45594000000E+02  0.51100000000E-03 0.  1.
         11   -1    0    0    0    0 -0.00000000000E+00 -0.00000000000E+00 -0.45593999997E+02  0.45594000000E+02  0.51100000000E-03 0. -1.
    9900012    2    1    2    0    0 -0.37446957088E+01  0.17266087976E+02  0.62080113325E+01  0.72461549598E+02  0.69999973039E+02 0.  0.
        -12    1    1    2    0    0  0.37446957088E+01 -0.17266087976E+02 -0.62080113325E+01  0.18726450402E+02  0.00000000000E+00 0.  1.
         11    1    3    3    0    0  0.13732653411E+02  0.18305392517E+02  0.10652614526E+02  0.25241857329E+02  0.51100000000E-03 0.  1.
        -11    1    3    3    0    0  0.10094467004E+02  0.43451721337E+01  0.10671300211E+02  0.15318467071E+02  0.51100000000E-03 0. -1.
        -12    1    3    3    0    0 -0.27571816123E+02 -0.53844766742E+01 -0.15115903404E+02  0.31901225198E+02  0.00000000000E+00 0.  1.
</event>
<event>
 7    1  0.1788006E-013  0.7246153E+02  0.7816164E-02  0.1226708E+00
        -11   -1    0    0    0    0  0.00000000000E+00  0.00000000000E+00  0.45593999997E+02  0.45594000000E+02  0.51100000000E-03 0.  1.
         11   -1    0    0    0    0 -0.00000000000E+00 -0.00000000000E+00 -0.45593999997E+02  0.45594000000E+02  0.51100000000E-03 0. -1.
    9900012    2    1    2    0    0 -0.11995302755E+02  0.35593694490E+01 -0.13932845858E+02  0.72461532294E+02  0.69999950497E+02 0.  0.
        -12    1    1    2    0    0  0.11995302755E+02 -0.35593694490E+01  0.13932845858E+02  0.18726467706E+02  0.00000000000E+00 0.  1.
         11    1    3    3    0    0  0.17670650185E+02  0.11001480595E+02  0.80776241702E+00  0.20831152959E+02  0.51100000000E-03 0.  1.
        -11    1    3    3    0    0 -0.13348017653E+02 -0.43567267437E+01 -0.27373454810E+02  0.30764535941E+02  0.51100000000E-03 0. -1.
        -12    1    3    3    0    0 -0.16317935287E+02 -0.30853844023E+01  0.12632846535E+02  0.20865843393E+02  0.00000000000E+00 0.  1.
</event>
<event>
 7    1  0.1788006E-013  0.7246157E+02  0.7816164E-02  0.1226708E+00
        -11   -1    0    0    0    0  0.00000000000E+00  0.00000000000E+00  0.45593999997E+02  0.45594000000E+02  0.51100000000E-03 0. -1.
         11   -1    0    0    0    0 -0.00000000000E+00 -0.00000000000E+00 -0.45593999997E+02  0.45594000000E+02  0.51100000000E-03 0.  1.
    9900012    2    1    2    0    0  0.67723258826E+01 -0.61553705713E+01  0.16337874628E+02  0.72461571294E+02  0.70000001302E+02 0.  0.
        -12    1    1    2    0    0 -0.67723258826E+01  0.61553705713E+01 -0.16337874628E+02  0.18726428706E+02  0.00000000000E+00 0.  1.
         11    1    3    3    0    0 -0.33071041835E+01 -0.14287303530E+01 -0.11872819931E+01  0.37931315946E+01  0.51100000000E-03 0. -1.
        -11    1    3    3    0    0  0.16307298748E+02 -0.12774638962E+02 -0.20596507954E+02  0.29211907388E+02  0.51100000000E-03 0.  1.
         12    1    3    3    0    0 -0.62278686817E+01  0.80479987434E+01  0.38121664575E+02  0.39456532312E+02  0.00000000000E+00 0. -1.
</event>
<event>
 7    1  0.1788006E-013  0.7246131E+02  0.7816164E-02  0.1226709E+00
        -11   -1    0    0    0    0  0.00000000000E+00  0.00000000000E+00  0.45593999997E+02  0.45594000000E+02  0.51100000000E-03 0. -1.
         11   -1    0    0    0    0 -0.00000000000E+00 -0.00000000000E+00 -0.45593999997E+02  0.45594000000E+02  0.51100000000E-03 0.  1.
    9900012    2    1    2    0    0 -0.98891966025E+01  0.15630148473E+02 -0.29310897094E+01  0.72461306816E+02  0.69999656770E+02 0.  0.
        -12    1    1    2    0    0  0.98891966025E+01 -0.15630148473E+02  0.29310897094E+01  0.18726693184E+02  0.00000000000E+00 0.  1.
         11    1    3    3    0    0  0.17680046483E+02  0.19611919113E+02  0.62610839489E+01  0.27136922954E+02  0.51100000000E-03 0. -1.
        -11    1    3    3    0    0 -0.11242481898E+02  0.14119670916E+02  0.26175162162E+01  0.18237595714E+02  0.51100000000E-03 0.  1.
        -12    1    3    3    0    0 -0.16326761187E+02 -0.18101441556E+02 -0.11809689874E+02  0.27086788149E+02  0.00000000000E+00 0.  1.
</event>
<event>
 7    1  0.1788006E-013  0.7246157E+02  0.7816164E-02  0.1226708E+00
        -11   -1    0    0    0    0  0.00000000000E+00  0.00000000000E+00  0.45593999997E+02  0.45594000000E+02  0.51100000000E-03 0. -1.
         11   -1    0    0    0    0 -0.00000000000E+00 -0.00000000000E+00 -0.45593999997E+02  0.45594000000E+02  0.51100000000E-03 0.  1.
    9900012    2    1    2    0    0 -0.55853218841E+00  0.18095330633E+02  0.47881425774E+01  0.72461567925E+02  0.69999996914E+02 0.  0.
        -12    1    1    2    0    0  0.55853218841E+00 -0.18095330633E+02 -0.47881425774E+01  0.18726432075E+02  0.00000000000E+00 0.  1.
         11    1    3    3    0    0  0.30703378081E+02  0.15455371801E+02  0.13763189714E+01  0.34401456325E+02  0.51100000000E-03 0. -1.
        -11    1    3    3    0    0  0.25048208232E+00  0.61156006614E+01 -0.36977821949E+00  0.61318878754E+01  0.51100000000E-03 0.  1.
         12    1    3    3    0    0 -0.31512392352E+02 -0.34756418295E+01  0.37816018254E+01  0.31928223725E+02  0.00000000000E+00 0. -1.
</event>
<event>
 7    1  0.1788006E-013  0.7246164E+02  0.7816164E-02  0.1226708E+00
        -11   -1    0    0    0    0  0.00000000000E+00  0.00000000000E+00  0.45593999997E+02  0.45594000000E+02  0.51100000000E-03 0. -1.
         11   -1    0    0    0    0 -0.00000000000E+00 -0.00000000000E+00 -0.45593999997E+02  0.45594000000E+02  0.51100000000E-03 0.  1.
    9900012    2    1    2    0    0  0.25931592944E+00  0.95136874031E+01  0.16127584772E+02  0.72461642016E+02  0.70000093431E+02 0.  0.
        -12    1    1    2    0    0 -0.25931592944E+00 -0.95136874031E+01 -0.16127584772E+02  0.18726357984E+02  0.00000000000E+00 0.  1.
         11    1    3    3    0    0  0.11076022891E+01 -0.60781242941E+01  0.28426313595E+02  0.29089958450E+02  0.51100000000E-03 0. -1.
        -11    1    3    3    0    0 -0.47965530014E+01 -0.80299690208E+01  0.77431368527E+01  0.12142631171E+02  0.51100000000E-03 0.  1.
         12    1    3    3    0    0  0.39482666417E+01  0.23621780718E+02 -0.20041865676E+02  0.31229052396E+02  0.00000000000E+00 0. -1.
</event>
<event>
 7    1  0.1788006E-013  0.7246159E+02  0.7816164E-02  0.1226708E+00
        -11   -1    0    0    0    0  0.00000000000E+00  0.00000000000E+00  0.45593999997E+02  0.45594000000E+02  0.51100000000E-03 0.  1.
         11   -1    0    0    0    0 -0.00000000000E+00 -0.00000000000E+00 -0.45593999997E+02  0.45594000000E+02  0.51100000000E-03 0. -1.
    9900012    2    1    2    0    0  0.16718289356E+01  0.12009884070E+02 -0.14270466545E+02  0.72461587029E+02  0.70000021800E+02 0.  0.
        -12    1    1    2    0    0 -0.16718289356E+01 -0.12009884070E+02  0.14270466545E+02  0.18726412971E+02  0.00000000000E+00 0.  1.
         11    1    3    3    0    0  0.29248018048E+01  0.73953586934E+01 -0.84901056982E+01  0.11633043060E+02  0.51100000000E-03 0. -1.
        -11    1    3    3    0    0  0.28891040609E+02  0.38943758898E+01  0.32995596488E+01  0.29338464260E+02  0.51100000000E-03 0.  1.
         12    1    3    3    0    0 -0.30144013478E+02  0.72014948636E+00 -0.90799204959E+01  0.31490079709E+02  0.00000000000E+00 0. -1.
</event>
<event>
 7    1  0.1788006E-013  0.7246163E+02  0.7816164E-02  0.1226708E+00
        -11   -1    0    0    0    0  0.00000000000E+00  0.00000000000E+00  0.45593999997E+02  0.45594000000E+02  0.51100000000E-03 0. -1.
         11   -1    0    0    0    0 -0.00000000000E+00 -0.00000000000E+00 -0.45593999997E+02  0.45594000000E+02  0.51100000000E-03 0.  1.
    9900012    2    1    2    0    0 -0.13998042782E+02 -0.50101098384E+01  0.11385547626E+02  0.72461625630E+02  0.70000072085E+02 0.  0.
        -12    1    1    2    0    0  0.13998042782E+02  0.50101098384E+01 -0.11385547626E+02  0.18726374370E+02  0.00000000000E+00 0.  1.
         11    1    3    3    0    0  0.12519331249E+02 -0.10618863323E+02 -0.24853983638E+01  0.16603346605E+02  0.51100000000E-03 0. -1.
        -11    1    3    3    0    0  0.34367446267E+01 -0.27717988740E+01 -0.13637751418E+02  0.14334655442E+02  0.51100000000E-03 0.  1.
         12    1    3    3    0    0 -0.29954118658E+02  0.83805523588E+01  0.27508697408E+02  0.41523623583E+02  0.00000000000E+00 0. -1.
</event>
<event>
 7    1  0.1788006E-013  0.7246151E+02  0.7816164E-02  0.1226708E+00
        -11   -1    0    0    0    0  0.00000000000E+00  0.00000000000E+00  0.45593999997E+02  0.45594000000E+02  0.51100000000E-03 0. -1.
         11   -1    0    0    0    0 -0.00000000000E+00 -0.00000000000E+00 -0.45593999997E+02  0.45594000000E+02  0.51100000000E-03 0.  1.
    9900012    2    1    2    0    0 -0.18333373217E+00 -0.14013353829E+02  0.12420704185E+02  0.72461505687E+02  0.69999915837E+02 0.  0.
        -12    1    1    2    0    0  0.18333373217E+00  0.14013353829E+02 -0.12420704185E+02  0.18726494313E+02  0.00000000000E+00 0.  1.
         11    1    3    3    0    0 -0.32564091530E+02  0.49466227295E+01  0.94959441960E+01  0.34279178666E+02  0.51100000000E-03 0. -1.
        -11    1    3    3    0    0  0.19556897572E+01 -0.28078436442E+01  0.14141566698E+01  0.37025055982E+01  0.51100000000E-03 0.  1.
        -12    1    3    3    0    0  0.30425068041E+02 -0.16152132915E+02  0.15106033188E+01  0.34479821423E+02  0.00000000000E+00 0.  1.
</event>
<event>
 7    1  0.1788006E-013  0.7246160E+02  0.7816164E-02  0.1226708E+00
        -11   -1    0    0    0    0  0.00000000000E+00  0.00000000000E+00  0.45593999997E+02  0.45594000000E+02  0.51100000000E-03 0.  1.
         11   -1    0    0    0    0 -0.00000000000E+00 -0.00000000000E+00 -0.45593999997E+02  0.45594000000E+02  0.51100000000E-03 0. -1.
    9900012    2    1    2    0    0  0.18307588539E+02 -0.32078338085E+01  0.22847103303E+01  0.72461604267E+02  0.70000044256E+02 0.  0.
        -12    1    1    2    0    0 -0.18307588539E+02  0.32078338085E+01 -0.22847103303E+01  0.18726395733E+02  0.00000000000E+00 0.  1.
         11    1    3    3    0    0 -0.97858113596E+01  0.17325404059E+02  0.37597849604E+01  0.20250128715E+02  0.51100000000E-03 0. -1.
        -11    1    3    3    0    0  0.14449608632E+02 -0.10648560067E+01 -0.18112580721E+02  0.23194626286E+02  0.51100000000E-03 0.  1.
        -12    1    3    3    0    0  0.13643791267E+02 -0.19468381861E+02  0.16637506091E+02  0.29016849266E+02  0.00000000000E+00 0.  1.
</event>
<event>
 7    1  0.1788006E-013  0.7246161E+02  0.7816164E-02  0.1226708E+00
        -11   -1    0    0    0    0  0.00000000000E+00  0.00000000000E+00  0.45593999997E+02  0.45594000000E+02  0.51100000000E-03 0.  1.
         11   -1    0    0    0    0 -0.00000000000E+00 -0.00000000000E+00 -0.45593999997E+02  0.45594000000E+02  0.51100000000E-03 0. -1.
    9900012    2    1    2    0    0  0.13467298651E+02 -0.10597846864E+01  0.12968673543E+02  0.72461607662E+02  0.70000048678E+02 0.  0.
        -12    1    1    2    0    0 -0.13467298651E+02  0.10597846864E+01 -0.12968673543E+02  0.18726392338E+02  0.00000000000E+00 0.  1.
         11    1    3    3    0    0  0.87113684354E+01 -0.82867851644E+01  0.25736610669E+02  0.28406546383E+02  0.51100000000E-03 0. -1.
        -11    1    3    3    0    0 -0.16763752712E+02 -0.27262575151E+01  0.29129780629E+00  0.16986486973E+02  0.51100000000E-03 0.  1.
         12    1    3    3    0    0  0.21519682927E+02  0.99532579930E+01 -0.13059234933E+02  0.27068574306E+02  0.00000000000E+00 0. -1.
</event>
<event>
 7    1  0.1788006E-013  0.7246156E+02  0.7816164E-02  0.1226708E+00
        -11   -1    0    0    0    0  0.00000000000E+00  0.00000000000E+00  0.45593999997E+02  0.45594000000E+02  0.51100000000E-03 0.  1.
         11   -1    0    0    0    0 -0.00000000000E+00 -0.00000000000E+00 -0.45593999997E+02  0.45594000000E+02  0.51100000000E-03 0. -1.
    9900012    2    1    2    0    0  0.10208642941E+02  0.11584984071E+02 -0.10594865758E+02  0.72461563419E+02  0.69999991043E+02 0.  0.
        -12    1    1    2    0    0 -0.10208642941E+02 -0.11584984071E+02  0.10594865758E+02  0.18726436581E+02  0.00000000000E+00 0.  1.
         11    1    3    3    0    0  0.33811086958E+01 -0.84938036020E+01  0.21002862164E+02  0.22906261480E+02  0.51100000000E-03 0. -1.
        -11    1    3    3    0    0 -0.79643822478E+01 -0.44188135438E+01 -0.45608374041E+01  0.10186193392E+02  0.51100000000E-03 0.  1.
         12    1    3    3    0    0  0.14791916493E+02  0.24497601216E+02 -0.27036890518E+02  0.39369108547E+02  0.00000000000E+00 0. -1.
</event>
<event>
 7    1  0.1788006E-013  0.7246157E+02  0.7816164E-02  0.1226708E+00
        -11   -1    0    0    0    0  0.00000000000E+00  0.00000000000E+00  0.45593999997E+02  0.45594000000E+02  0.51100000000E-03 0.  1.
         11   -1    0    0    0    0 -0.00000000000E+00 -0.00000000000E+00 -0.45593999997E+02  0.45594000000E+02  0.51100000000E-03 0. -1.
    9900012    2    1    2    0    0  0.11834861438E+02  0.10525556072E+02 -0.99913966828E+01  0.72461567249E+02  0.69999996034E+02 0.  0.
        -12    1    1    2    0    0 -0.11834861438E+02 -0.10525556072E+02  0.99913966828E+01  0.18726432751E+02  0.00000000000E+00 0.  1.
         11    1    3    3    0    0  0.15187430193E+02  0.62598916660E+01 -0.16141567638E+01  0.16506052886E+02  0.51100000000E-03 0.  1.
        -11    1    3    3    0    0  0.57872565516E+01  0.19672306137E+02 -0.24434302632E+02  0.31898700796E+02  0.51100000000E-03 0. -1.
        -12    1    3    3    0    0 -0.91398253066E+01 -0.15406641731E+02  0.16057062713E+02  0.24056813567E+02  0.00000000000E+00 0.  1.
</event>
<event>
 7    1  0.1788006E-013  0.7246154E+02  0.7816164E-02  0.1226708E+00
        -11   -1    0    0    0    0  0.00000000000E+00  0.00000000000E+00  0.45593999997E+02  0.45594000000E+02  0.51100000000E-03 0. -1.
         11   -1    0    0    0    0 -0.00000000000E+00 -0.00000000000E+00 -0.45593999997E+02  0.45594000000E+02  0.51100000000E-03 0.  1.
    9900012    2    1    2    0    0  0.23311512156E+01 -0.18575124652E+02 -0.45892679873E+00  0.72461544499E+02  0.69999966397E+02 0.  0.
        -12    1    1    2    0    0 -0.23311512156E+01  0.18575124652E+02  0.45892679873E+00  0.18726455501E+02  0.00000000000E+00 0.  1.
         11    1    3    3    0    0 -0.50707616911E+01 -0.14928711763E+02  0.26447538969E+02  0.30790442946E+02  0.51100000000E-03 0. -1.
        -11    1    3    3    0    0 -0.62376082643E+01 -0.13532702803E+02 -0.11220620598E+02  0.18653260543E+02  0.51100000000E-03 0.  1.
        -12    1    3    3    0    0  0.13639521171E+02  0.98862899142E+01 -0.15685845170E+02  0.23017841010E+02  0.00000000000E+00 0.  1.
</event>
<event>
 7    1  0.1788006E-013  0.7246169E+02  0.7816164E-02  0.1226708E+00
        -11   -1    0    0    0    0  0.00000000000E+00  0.00000000000E+00  0.45593999997E+02  0.45594000000E+02  0.51100000000E-03 0.  1.
         11   -1    0    0    0    0 -0.00000000000E+00 -0.00000000000E+00 -0.45593999997E+02  0.45594000000E+02  0.51100000000E-03 0. -1.
    9900012    2    1    2    0    0 -0.11099279798E+02  0.14935400303E+02 -0.21010364334E+01  0.72461693682E+02  0.70000160735E+02 0.  0.
        -12    1    1    2    0    0  0.11099279798E+02 -0.14935400303E+02  0.21010364334E+01  0.18726306318E+02  0.00000000000E+00 0.  1.
         11    1    3    3    0    0 -0.67844772043E+00 -0.21211303409E+02 -0.11464911704E+02  0.24121025771E+02  0.51100000000E-03 0. -1.
        -11    1    3    3    0    0  0.98730012806E+01  0.12073987465E+02  0.39111429984E+00  0.15601612040E+02  0.51100000000E-03 0.  1.
        -12    1    3    3    0    0 -0.20293833358E+02  0.24072716246E+02  0.89727609706E+01  0.32739055870E+02  0.00000000000E+00 0.  1.
</event>
<event>
 7    1  0.1788006E-013  0.7246157E+02  0.7816164E-02  0.1226708E+00
        -11   -1    0    0    0    0  0.00000000000E+00  0.00000000000E+00  0.45593999997E+02  0.45594000000E+02  0.51100000000E-03 0.  1.
         11   -1    0    0    0    0 -0.00000000000E+00 -0.00000000000E+00 -0.45593999997E+02  0.45594000000E+02  0.51100000000E-03 0. -1.
    9900012    2    1    2    0    0  0.86299294450E+01 -0.12233400607E+02 -0.11249327230E+02  0.72461571195E+02  0.70000001174E+02 0.  0.
        -12    1    1    2    0    0 -0.86299294450E+01  0.12233400607E+02  0.11249327230E+02  0.18726428805E+02  0.00000000000E+00 0.  1.
         11    1    3    3    0    0 -0.13637504475E+02 -0.25755846028E+01 -0.12948682927E+02  0.18981136798E+02  0.51100000000E-03 0. -1.
        -11    1    3    3    0    0  0.54055229538E+01 -0.79587414370E+01  0.23776129550E+02  0.25648890430E+02  0.51100000000E-03 0.  1.
         12    1    3    3    0    0  0.16861910966E+02 -0.16990745674E+01 -0.22076773853E+02  0.27831543967E+02  0.00000000000E+00 0. -1.
</event>
<event>
 7    1  0.1788006E-013  0.7246156E+02  0.7816164E-02  0.1226708E+00
        -11   -1    0    0    0    0  0.00000000000E+00  0.00000000000E+00  0.45593999997E+02  0.45594000000E+02  0.51100000000E-03 0. -1.
         11   -1    0    0    0    0 -0.00000000000E+00 -0.00000000000E+00 -0.45593999997E+02  0.45594000000E+02  0.51100000000E-03 0.  1.
    9900012    2    1    2    0    0 -0.14058030629E+01  0.14243399718E+02  0.12075968864E+02  0.72461555015E+02  0.69999980096E+02 0.  0.
        -12    1    1    2    0    0  0.14058030629E+01 -0.14243399718E+02 -0.12075968864E+02  0.18726444985E+02  0.00000000000E+00 0.  1.
         11    1    3    3    0    0 -0.87813351444E+01  0.11618867786E+00  0.24511524270E+02  0.26037284210E+02  0.51100000000E-03 0. -1.
        -11    1    3    3    0    0 -0.79726589401E+01  0.75238432975E+01  0.12362319589E+02  0.16522664870E+02  0.51100000000E-03 0.  1.
        -12    1    3    3    0    0  0.15348191022E+02  0.66033677424E+01 -0.24797874995E+02  0.29901605935E+02  0.00000000000E+00 0.  1.
</event>
<event>
 7    1  0.1788006E-013  0.7246160E+02  0.7816164E-02  0.1226708E+00
        -11   -1    0    0    0    0  0.00000000000E+00  0.00000000000E+00  0.45593999997E+02  0.45594000000E+02  0.51100000000E-03 0.  1.
         11   -1    0    0    0    0 -0.00000000000E+00 -0.00000000000E+00 -0.45593999997E+02  0.45594000000E+02  0.51100000000E-03 0. -1.
    9900012    2    1    2    0    0 -0.59725626322E+01 -0.15049529603E+02 -0.94084073709E+01  0.72461602191E+02  0.70000041551E+02 0.  0.
        -12    1    1    2    0    0  0.59725626322E+01  0.15049529603E+02  0.94084073709E+01  0.18726397809E+02  0.00000000000E+00 0.  1.
         11    1    3    3    0    0  0.25678307632E+01  0.12901079556E+02 -0.18893171843E+02  0.23021371616E+02  0.51100000000E-03 0. -1.
        -11    1    3    3    0    0  0.12945521148E+02 -0.46640446021E+00 -0.10553785384E+01  0.12996840964E+02  0.51100000000E-03 0.  1.
         12    1    3    3    0    0 -0.21485914544E+02 -0.27484204698E+02  0.10540143010E+02  0.36443389611E+02  0.00000000000E+00 0. -1.
</event>
<event>
 7    1  0.1788006E-013  0.7246154E+02  0.7816164E-02  0.1226708E+00
        -11   -1    0    0    0    0  0.00000000000E+00  0.00000000000E+00  0.45593999997E+02  0.45594000000E+02  0.51100000000E-03 0. -1.
         11   -1    0    0    0    0 -0.00000000000E+00 -0.00000000000E+00 -0.45593999997E+02  0.45594000000E+02  0.51100000000E-03 0.  1.
    9900012    2    1    2    0    0  0.10806376813E+01  0.15149130894E+01  0.18633774413E+02  0.72461540422E+02  0.69999961085E+02 0.  0.
        -12    1    1    2    0    0 -0.10806376813E+01 -0.15149130894E+01 -0.18633774413E+02  0.18726459578E+02  0.00000000000E+00 0.  1.
         11    1    3    3    0    0  0.62435867076E+01  0.13674883486E+02  0.86825558605E+01  0.17360057312E+02  0.51100000000E-03 0. -1.
        -11    1    3    3    0    0 -0.28288052762E+02 -0.38521356114E+01 -0.10987657326E+00  0.28549342391E+02  0.51100000000E-03 0.  1.
         12    1    3    3    0    0  0.23125103736E+02 -0.83078347853E+01  0.10061095126E+02  0.26552140719E+02  0.00000000000E+00 0. -1.
</event>
<event>
 7    1  0.1788006E-013  0.7246158E+02  0.7816164E-02  0.1226708E+00
        -11   -1    0    0    0    0  0.00000000000E+00  0.00000000000E+00  0.45593999997E+02  0.45594000000E+02  0.51100000000E-03 0. -1.
         11   -1    0    0    0    0 -0.00000000000E+00 -0.00000000000E+00 -0.45593999997E+02  0.45594000000E+02  0.51100000000E-03 0.  1.
    9900012    2    1    2    0    0  0.17210358596E+01 -0.18182227954E+02 -0.41380335011E+01  0.72461582856E+02  0.70000016364E+02 0.  0.
        -12    1    1    2    0    0 -0.17210358596E+01  0.18182227954E+02  0.41380335011E+01  0.18726417144E+02  0.00000000000E+00 0.  1.
         11    1    3    3    0    0 -0.16643782162E+02  0.89245229951E+01  0.14586614484E+02  0.23862772632E+02  0.51100000000E-03 0. -1.
        -11    1    3    3    0    0 -0.65258593764E+01 -0.63832506212E+01 -0.12722887971E+02  0.15659010431E+02  0.51100000000E-03 0.  1.
         12    1    3    3    0    0  0.24890677398E+02 -0.20723500327E+02 -0.60017600137E+01  0.32939799793E+02  0.00000000000E+00 0. -1.
</event>
<event>
 7    1  0.1788006E-013  0.7246161E+02  0.7816164E-02  0.1226708E+00
        -11   -1    0    0    0    0  0.00000000000E+00  0.00000000000E+00  0.45593999997E+02  0.45594000000E+02  0.51100000000E-03 0. -1.
         11   -1    0    0    0    0 -0.00000000000E+00 -0.00000000000E+00 -0.45593999997E+02  0.45594000000E+02  0.51100000000E-03 0.  1.
    9900012    2    1    2    0    0 -0.15329847555E+02 -0.10471116432E+02  0.24554216314E+01  0.72461612180E+02  0.70000054564E+02 0.  0.
        -12    1    1    2    0    0  0.15329847555E+02  0.10471116432E+02 -0.24554216314E+01  0.18726387820E+02  0.00000000000E+00 0.  1.
         11    1    3    3    0    0  0.79111897521E+00  0.31721796821E+01  0.12863242485E+02  0.13272211596E+02  0.51100000000E-03 0. -1.
        -11    1    3    3    0    0 -0.14268836009E+02  0.24562170708E+00  0.20659035701E+02  0.25108878259E+02  0.51100000000E-03 0.  1.
        -12    1    3    3    0    0 -0.18521305208E+01 -0.13888917822E+02 -0.31066856555E+02  0.34080522325E+02  0.00000000000E+00 0.  1.
</event>
<event>
 7    1  0.1788006E-013  0.7246138E+02  0.7816164E-02  0.1226709E+00
        -11   -1    0    0    0    0  0.00000000000E+00  0.00000000000E+00  0.45593999997E+02  0.45594000000E+02  0.51100000000E-03 0. -1.
         11   -1    0    0    0    0 -0.00000000000E+00 -0.00000000000E+00 -0.45593999997E+02  0.45594000000E+02  0.51100000000E-03 0.  1.
    9900012    2    1    2    0    0  0.12344317064E+02  0.14062481968E+02  0.74204222723E+00  0.72461382860E+02  0.69999755831E+02 0.  0.
        -12    1    1    2    0    0 -0.12344317064E+02 -0.14062481968E+02 -0.74204222723E+00  0.18726617140E+02  0.00000000000E+00 0.  1.
         11    1    3    3    0    0  0.11259456513E+02 -0.92924587266E+01  0.17574500390E+02  0.22847061395E+02  0.51100000000E-03 0. -1.
        -11    1    3    3    0    0 -0.17171396001E+02  0.22864873548E+01 -0.12591817337E+02  0.21415852287E+02  0.51100000000E-03 0.  1.
         12    1    3    3    0    0  0.18256256551E+02  0.21068453339E+02 -0.42406408256E+01  0.28198469178E+02  0.00000000000E+00 0. -1.
</event>
<event>
 7    1  0.1788006E-013  0.7246155E+02  0.7816164E-02  0.1226708E+00
        -11   -1    0    0    0    0  0.00000000000E+00  0.00000000000E+00  0.45593999997E+02  0.45594000000E+02  0.51100000000E-03 0. -1.
         11   -1    0    0    0    0 -0.00000000000E+00 -0.00000000000E+00 -0.45593999997E+02  0.45594000000E+02  0.51100000000E-03 0.  1.
    9900012    2    1    2    0    0 -0.11156488491E+01 -0.15519932211E+02  0.10419551724E+02  0.72461547418E+02  0.69999970199E+02 0.  0.
        -12    1    1    2    0    0  0.11156488491E+01  0.15519932211E+02 -0.10419551724E+02  0.18726452582E+02  0.00000000000E+00 0.  1.
         11    1    3    3    0    0  0.41242849277E+01  0.31340771748E+01 -0.33578949456E+01  0.61731373408E+01  0.51100000000E-03 0. -1.
        -11    1    3    3    0    0 -0.23213344967E+02 -0.32413220201E+02  0.15206996874E+00  0.39868525855E+02  0.51100000000E-03 0.  1.
         12    1    3    3    0    0  0.17973411190E+02  0.13759210815E+02  0.13625376701E+02  0.26419884222E+02  0.00000000000E+00 0. -1.
</event>
<event>
 7    1  0.1788006E-013  0.7246154E+02  0.7816164E-02  0.1226708E+00
        -11   -1    0    0    0    0  0.00000000000E+00  0.00000000000E+00  0.45593999997E+02  0.45594000000E+02  0.51100000000E-03 0. -1.
         11   -1    0    0    0    0 -0.00000000000E+00 -0.00000000000E+00 -0.45593999997E+02  0.45594000000E+02  0.51100000000E-03 0.  1.
    9900012    2    1    2    0    0  0.16076802434E+02  0.93622494773E+01  0.21366234095E+01  0.72461536069E+02  0.69999955415E+02 0.  0.
        -12    1    1    2    0    0 -0.16076802434E+02 -0.93622494773E+01 -0.21366234095E+01  0.18726463931E+02  0.00000000000E+00 0.  1.
         11    1    3    3    0    0 -0.32102317860E+01 -0.11153712740E+02 -0.63192838330E+01  0.13215303418E+02  0.51100000000E-03 0. -1.
        -11    1    3    3    0    0  0.18022318395E+02  0.52902671635E+01 -0.19695705268E+02  0.27216019056E+02  0.51100000000E-03 0.  1.
        -12    1    3    3    0    0  0.12647158247E+01  0.15225695054E+02  0.28151612510E+02  0.32030213595E+02  0.00000000000E+00 0.  1.
</event>
<event>
 7    1  0.1788006E-013  0.7246155E+02  0.7816164E-02  0.1226708E+00
        -11   -1    0    0    0    0  0.00000000000E+00  0.00000000000E+00  0.45593999997E+02  0.45594000000E+02  0.51100000000E-03 0. -1.
         11   -1    0    0    0    0 -0.00000000000E+00 -0.00000000000E+00 -0.45593999997E+02  0.45594000000E+02  0.51100000000E-03 0.  1.
    9900012    2    1    2    0    0 -0.97863990756E+01  0.79616055025E+00  0.15945928397E+02  0.72461545159E+02  0.69999967256E+02 0.  0.
        -12    1    1    2    0    0  0.97863990756E+01 -0.79616055025E+00 -0.15945928397E+02  0.18726454841E+02  0.00000000000E+00 0.  1.
         11    1    3    3    0    0  0.17450884199E+02 -0.18446049992E+01  0.17747498216E+02  0.24958157387E+02  0.51100000000E-03 0. -1.
        -11    1    3    3    0    0  0.50309099800E+01 -0.10593350650E+02 -0.44107331587E+01  0.12529313648E+02  0.51100000000E-03 0.  1.
        -12    1    3    3    0    0 -0.32268193255E+02  0.13234116200E+02  0.26091633395E+01  0.34974074124E+02  0.00000000000E+00 0.  1.
</event>
<event>
 7    1  0.1788006E-013  0.7246086E+02  0.7816164E-02  0.1226710E+00
        -11   -1    0    0    0    0  0.00000000000E+00  0.00000000000E+00  0.45593999997E+02  0.45594000000E+02  0.51100000000E-03 0.  1.
         11   -1    0    0    0    0 -0.00000000000E+00 -0.00000000000E+00 -0.45593999997E+02  0.45594000000E+02  0.51100000000E-03 0. -1.
    9900012    2    1    2    0    0  0.16858107302E+02 -0.93622713290E+00 -0.81014446755E+01  0.72460861700E+02  0.69999076919E+02 0.  0.
        -12    1    1    2    0    0 -0.16858107302E+02  0.93622713290E+00  0.81014446755E+01  0.18727138300E+02  0.00000000000E+00 0.  1.
         11    1    3    3    0    0  0.14767032197E+02 -0.75146827638E+01 -0.28357843407E+02  0.32843613990E+02  0.51100000000E-03 0. -1.
        -11    1    3    3    0    0  0.10166444457E+02 -0.93768858499E+01  0.18487047271E+01  0.13953504598E+02  0.51100000000E-03 0.  1.
        -12    1    3    3    0    0 -0.80753693520E+01  0.15955341481E+02  0.18407694005E+02  0.25663743112E+02  0.00000000000E+00 0.  1.
</event>
<event>
 7    1  0.1788006E-013  0.7246156E+02  0.7816164E-02  0.1226708E+00
        -11   -1    0    0    0    0  0.00000000000E+00  0.00000000000E+00  0.45593999997E+02  0.45594000000E+02  0.51100000000E-03 0.  1.
         11   -1    0    0    0    0 -0.00000000000E+00 -0.00000000000E+00 -0.45593999997E+02  0.45594000000E+02  0.51100000000E-03 0. -1.
    9900012    2    1    2    0    0 -0.44597579122E+01 -0.15673484071E+02 -0.92266986623E+01  0.72461561156E+02  0.69999988096E+02 0.  0.
        -12    1    1    2    0    0  0.44597579122E+01  0.15673484071E+02  0.92266986623E+01  0.18726438844E+02  0.00000000000E+00 0.  1.
         11    1    3    3    0    0  0.31780922278E+01 -0.15059041843E+02 -0.86988415215E+00  0.15415307656E+02  0.51100000000E-03 0. -1.
        -11    1    3    3    0    0 -0.24041313817E+02 -0.14365135039E+02  0.90768694411E+01  0.29440302883E+02  0.51100000000E-03 0.  1.
        -12    1    3    3    0    0  0.16403463677E+02  0.13750692811E+02 -0.17433683951E+02  0.27605950617E+02  0.00000000000E+00 0.  1.
</event>
<event>
 7    1  0.1788006E-013  0.7246156E+02  0.7816164E-02  0.1226708E+00
        -11   -1    0    0    0    0  0.00000000000E+00  0.00000000000E+00  0.45593999997E+02  0.45594000000E+02  0.51100000000E-03 0. -1.
         11   -1    0    0    0    0 -0.00000000000E+00 -0.00000000000E+00 -0.45593999997E+02  0.45594000000E+02  0.51100000000E-03 0.  1.
    9900012    2    1    2    0    0 -0.86161821286E+01  0.10444609499E+02  0.12936429568E+02  0.72461556878E+02  0.69999982522E+02 0.  0.
        -12    1    1    2    0    0  0.86161821286E+01 -0.10444609499E+02 -0.12936429568E+02  0.18726443122E+02  0.00000000000E+00 0.  1.
         11    1    3    3    0    0 -0.45151362314E+01 -0.13461193014E+02 -0.12506120775E+02  0.18920709015E+02  0.51100000000E-03 0. -1.
        -11    1    3    3    0    0  0.52967082783E+01  0.28181095342E-01 -0.90884802454E+01  0.10519333923E+02  0.51100000000E-03 0.  1.
         12    1    3    3    0    0 -0.93977541755E+01  0.23877621417E+02  0.34531030588E+02  0.43021513939E+02  0.00000000000E+00 0. -1.
</event>
<event>
 7    1  0.1788006E-013  0.7246158E+02  0.7816164E-02  0.1226708E+00
        -11   -1    0    0    0    0  0.00000000000E+00  0.00000000000E+00  0.45593999997E+02  0.45594000000E+02  0.51100000000E-03 0.  1.
         11   -1    0    0    0    0 -0.00000000000E+00 -0.00000000000E+00 -0.45593999997E+02  0.45594000000E+02  0.51100000000E-03 0. -1.
    9900012    2    1    2    0    0 -0.12526826474E+02 -0.39378869617E+01 -0.13351045632E+02  0.72461581370E+02  0.70000014428E+02 0.  0.
        -12    1    1    2    0    0  0.12526826474E+02  0.39378869617E+01  0.13351045632E+02  0.18726418630E+02  0.00000000000E+00 0.  1.
         11    1    3    3    0    0 -0.93898088130E+01 -0.91383739336E+01 -0.17241060905E+01  0.13215556355E+02  0.51100000000E-03 0.  1.
        -11    1    3    3    0    0  0.27120391214E+02 -0.19750907511E+00 -0.81250162701E+01  0.28312020752E+02  0.51100000000E-03 0. -1.
         12    1    3    3    0    0 -0.30257408875E+02  0.53979960470E+01 -0.35019232715E+01  0.30934004263E+02  0.00000000000E+00 0. -1.
</event>
<event>
 7    1  0.1788006E-013  0.7246158E+02  0.7816164E-02  0.1226708E+00
        -11   -1    0    0    0    0  0.00000000000E+00  0.00000000000E+00  0.45593999997E+02  0.45594000000E+02  0.51100000000E-03 0.  1.
         11   -1    0    0    0    0 -0.00000000000E+00 -0.00000000000E+00 -0.45593999997E+02  0.45594000000E+02  0.51100000000E-03 0. -1.
    9900012    2    1    2    0    0  0.15317613131E+02 -0.78397264992E+00 -0.10744057162E+02  0.72461584180E+02  0.70000018089E+02 0.  0.
        -12    1    1    2    0    0 -0.15317613131E+02  0.78397264992E+00  0.10744057162E+02  0.18726415820E+02  0.00000000000E+00 0.  1.
         11    1    3    3    0    0 -0.48527045565E+01 -0.62663267768E+01  0.14409522279E+02  0.16445361819E+02  0.51100000000E-03 0. -1.
        -11    1    3    3    0    0  0.96617031183E+01  0.95525993849E+01  0.11418179122E+02  0.17747548475E+02  0.51100000000E-03 0.  1.
         12    1    3    3    0    0  0.10508614569E+02 -0.40702452580E+01 -0.36571758563E+02  0.38268673886E+02  0.00000000000E+00 0. -1.
</event>
<event>
 7    1  0.1788006E-013  0.7246154E+02  0.7816164E-02  0.1226708E+00
        -11   -1    0    0    0    0  0.00000000000E+00  0.00000000000E+00  0.45593999997E+02  0.45594000000E+02  0.51100000000E-03 0.  1.
         11   -1    0    0    0    0 -0.00000000000E+00 -0.00000000000E+00 -0.45593999997E+02  0.45594000000E+02  0.51100000000E-03 0. -1.
    9900012    2    1    2    0    0  0.56047857849E+01  0.15666937102E+02 -0.85914920105E+01  0.72461540729E+02  0.69999961486E+02 0.  0.
        -12    1    1    2    0    0 -0.56047857849E+01 -0.15666937102E+02  0.85914920105E+01  0.18726459271E+02  0.00000000000E+00 0.  1.
         11    1    3    3    0    0 -0.13238108651E+01  0.31161844646E+00  0.24674175913E+01  0.28173979296E+01  0.51100000000E-03 0. -1.
        -11    1    3    3    0    0 -0.58448678096E+01 -0.24694828307E+02  0.24351312321E+01  0.25493663707E+02  0.51100000000E-03 0.  1.
         12    1    3    3    0    0  0.12773464460E+02  0.40050146963E+02 -0.13494040834E+02  0.44150479092E+02  0.00000000000E+00 0. -1.
</event>
<event>
 7    1  0.1788006E-013  0.7246149E+02  0.7816164E-02  0.1226708E+00
        -11   -1    0    0    0    0  0.00000000000E+00  0.00000000000E+00  0.45593999997E+02  0.45594000000E+02  0.51100000000E-03 0. -1.
         11   -1    0    0    0    0 -0.00000000000E+00 -0.00000000000E+00 -0.45593999997E+02  0.45594000000E+02  0.51100000000E-03 0.  1.
    9900012    2    1    2    0    0 -0.97131922552E+00  0.17416945766E+02  0.68109150128E+01  0.72461494075E+02  0.69999900710E+02 0.  0.
        -12    1    1    2    0    0  0.97131922552E+00 -0.17416945766E+02 -0.68109150128E+01  0.18726505925E+02  0.00000000000E+00 0.  1.
         11    1    3    3    0    0  0.13438232518E+02 -0.38848441928E+01  0.23556612657E+01  0.14185459030E+02  0.51100000000E-03 0. -1.
        -11    1    3    3    0    0  0.34737225451E+01  0.51298591271E+01 -0.21780088791E+02  0.22644082472E+02  0.51100000000E-03 0.  1.
         12    1    3    3    0    0 -0.17883274289E+02  0.16171930831E+02  0.26235342538E+02  0.35631952574E+02  0.00000000000E+00 0. -1.
</event>
<event>
 7    1  0.1788006E-013  0.7246137E+02  0.7816164E-02  0.1226709E+00
        -11   -1    0    0    0    0  0.00000000000E+00  0.00000000000E+00  0.45593999997E+02  0.45594000000E+02  0.51100000000E-03 0. -1.
         11   -1    0    0    0    0 -0.00000000000E+00 -0.00000000000E+00 -0.45593999997E+02  0.45594000000E+02  0.51100000000E-03 0.  1.
    9900012    2    1    2    0    0  0.14547340970E+02 -0.17816873202E+01  0.11657064347E+02  0.72461369544E+02  0.69999738486E+02 0.  0.
        -12    1    1    2    0    0 -0.14547340970E+02  0.17816873202E+01 -0.11657064347E+02  0.18726630456E+02  0.00000000000E+00 0.  1.
         11    1    3    3    0    0 -0.45027390615E+01 -0.94180255253E+01  0.12771275062E+02  0.16494827396E+02  0.51100000000E-03 0. -1.
        -11    1    3    3    0    0 -0.82217265407E+01  0.23112329931E+02  0.87331973511E+00  0.24546675330E+02  0.51100000000E-03 0.  1.
         12    1    3    3    0    0  0.27271806573E+02 -0.15475991725E+02 -0.19875304497E+01  0.31419866819E+02  0.00000000000E+00 0. -1.
</event>
<event>
 7    1  0.1788006E-013  0.7246158E+02  0.7816164E-02  0.1226708E+00
        -11   -1    0    0    0    0  0.00000000000E+00  0.00000000000E+00  0.45593999997E+02  0.45594000000E+02  0.51100000000E-03 0. -1.
         11   -1    0    0    0    0 -0.00000000000E+00 -0.00000000000E+00 -0.45593999997E+02  0.45594000000E+02  0.51100000000E-03 0.  1.
    9900012    2    1    2    0    0 -0.14900179763E+02 -0.28636763025E+01  0.10975552788E+02  0.72461581284E+02  0.70000014316E+02 0.  0.
        -12    1    1    2    0    0  0.14900179763E+02  0.28636763025E+01 -0.10975552788E+02  0.18726418716E+02  0.00000000000E+00 0.  1.
         11    1    3    3    0    0 -0.76407725548E+01 -0.53604183343E+01 -0.68210981958E+01  0.11560400980E+02  0.51100000000E-03 0. -1.
        -11    1    3    3    0    0 -0.20328852308E+02 -0.19451911416E+02 -0.25385783128E+01  0.28250371219E+02  0.51100000000E-03 0.  1.
         12    1    3    3    0    0  0.13069445100E+02  0.21948653447E+02  0.20335229297E+02  0.32650809086E+02  0.00000000000E+00 0. -1.
</event>
<event>
 7    1  0.1788006E-013  0.7246171E+02  0.7816164E-02  0.1226708E+00
        -11   -1    0    0    0    0  0.00000000000E+00  0.00000000000E+00  0.45593999997E+02  0.45594000000E+02  0.51100000000E-03 0. -1.
         11   -1    0    0    0    0 -0.00000000000E+00 -0.00000000000E+00 -0.45593999997E+02  0.45594000000E+02  0.51100000000E-03 0.  1.
    9900012    2    1    2    0    0 -0.40061272372E+01 -0.18037216022E+02  0.30469414226E+01  0.72461706472E+02  0.70000177396E+02 0.  0.
        -12    1    1    2    0    0  0.40061272372E+01  0.18037216022E+02 -0.30469414226E+01  0.18726293528E+02  0.00000000000E+00 0.  1.
         11    1    3    3    0    0  0.14805824689E+02 -0.26103330496E+02 -0.54808215849E+01  0.30506322512E+02  0.51100000000E-03 0. -1.
        -11    1    3    3    0    0 -0.53918634665E+00 -0.12645691720E+02 -0.11010143333E+01  0.12704978308E+02  0.51100000000E-03 0.  1.
        -12    1    3    3    0    0 -0.18272765579E+02  0.20711806194E+02  0.96287773407E+01  0.29250405652E+02  0.00000000000E+00 0.  1.
</event>
<event>
 7    1  0.1788006E-013  0.7246157E+02  0.7816164E-02  0.1226708E+00
        -11   -1    0    0    0    0  0.00000000000E+00  0.00000000000E+00  0.45593999997E+02  0.45594000000E+02  0.51100000000E-03 0.  1.
         11   -1    0    0    0    0 -0.00000000000E+00 -0.00000000000E+00 -0.45593999997E+02  0.45594000000E+02  0.51100000000E-03 0. -1.
    9900012    2    1    2    0    0 -0.98952141626E+01  0.14390788204E+01 -0.15833285376E+02  0.72461571163E+02  0.70000001132E+02 0.  0.
        -12    1    1    2    0    0  0.98952141626E+01 -0.14390788204E+01  0.15833285376E+02  0.18726428837E+02  0.00000000000E+00 0.  1.
         11    1    3    3    0    0 -0.20947341317E+02 -0.14037553246E+02 -0.68055186966E+01  0.26118175556E+02  0.51100000000E-03 0. -1.
        -11    1    3    3    0    0 -0.13025254895E+01 -0.86854122859E+01 -0.16064468501E+02  0.18308470928E+02  0.51100000000E-03 0.  1.
        -12    1    3    3    0    0  0.12354652644E+02  0.24162044353E+02  0.70367018216E+01  0.28034924679E+02  0.00000000000E+00 0.  1.
</event>
<event>
 7    1  0.1788006E-013  0.7246152E+02  0.7816164E-02  0.1226708E+00
        -11   -1    0    0    0    0  0.00000000000E+00  0.00000000000E+00  0.45593999997E+02  0.45594000000E+02  0.51100000000E-03 0. -1.
         11   -1    0    0    0    0 -0.00000000000E+00 -0.00000000000E+00 -0.45593999997E+02  0.45594000000E+02  0.51100000000E-03 0.  1.
    9900012    2    1    2    0    0 -0.13841562579E+02  0.75842855427E+01 -0.10078228750E+02  0.72461523114E+02  0.69999938539E+02 0.  0.
        -12    1    1    2    0    0  0.13841562579E+02 -0.75842855427E+01  0.10078228750E+02  0.18726476886E+02  0.00000000000E+00 0.  1.
         11    1    3    3    0    0  0.15761052586E+01 -0.10577951424E+02  0.20540171198E+02  0.23157629352E+02  0.51100000000E-03 0. -1.
        -11    1    3    3    0    0  0.55423691689E+01 -0.19312446452E+01  0.14478903022E+01  0.60451590940E+01  0.51100000000E-03 0.  1.
        -12    1    3    3    0    0 -0.20960037007E+02  0.20093481612E+02 -0.32066290250E+02  0.43258734667E+02  0.00000000000E+00 0.  1.
</event>
<event>
 7    1  0.1788006E-013  0.7246155E+02  0.7816164E-02  0.1226708E+00
        -11   -1    0    0    0    0  0.00000000000E+00  0.00000000000E+00  0.45593999997E+02  0.45594000000E+02  0.51100000000E-03 0. -1.
         11   -1    0    0    0    0 -0.00000000000E+00 -0.00000000000E+00 -0.45593999997E+02  0.45594000000E+02  0.51100000000E-03 0.  1.
    9900012    2    1    2    0    0  0.12694953584E+02  0.12282625614E+02  0.62173445677E+01  0.72461545132E+02  0.69999967221E+02 0.  0.
        -12    1    1    2    0    0 -0.12694953584E+02 -0.12282625614E+02 -0.62173445677E+01  0.18726454868E+02  0.00000000000E+00 0.  1.
         11    1    3    3    0    0  0.65708956163E+01 -0.13913127829E+02 -0.22997065831E+01  0.15557649109E+02  0.51100000000E-03 0. -1.
        -11    1    3    3    0    0 -0.38318956764E+00  0.42391899323E+01 -0.19932841218E+02  0.20382240427E+02  0.51100000000E-03 0.  1.
         12    1    3    3    0    0  0.65072475351E+01  0.21956563510E+02  0.28449892369E+02  0.36521655596E+02  0.00000000000E+00 0. -1.
</event>
<event>
 7    1  0.1788006E-013  0.7246158E+02  0.7816164E-02  0.1226708E+00
        -11   -1    0    0    0    0  0.00000000000E+00  0.00000000000E+00  0.45593999997E+02  0.45594000000E+02  0.51100000000E-03 0. -1.
         11   -1    0    0    0    0 -0.00000000000E+00 -0.00000000000E+00 -0.45593999997E+02  0.45594000000E+02  0.51100000000E-03 0.  1.
    9900012    2    1    2    0    0 -0.46856109193E+01  0.14090362297E+02 -0.11409893440E+02  0.72461576752E+02  0.70000008412E+02 0.  0.
        -12    1    1    2    0    0  0.46856109193E+01 -0.14090362297E+02  0.11409893440E+02  0.18726423248E+02  0.00000000000E+00 0.  1.
         11    1    3    3    0    0 -0.21086245411E+02  0.91143219114E+01  0.15789918956E+02  0.27875117046E+02  0.51100000000E-03 0. -1.
        -11    1    3    3    0    0  0.12029499752E+02  0.15412411481E+02 -0.58232176822E+01  0.20400028342E+02  0.51100000000E-03 0.  1.
        -12    1    3    3    0    0  0.43711347403E+01 -0.10436371095E+02 -0.21376594714E+02  0.24186431364E+02  0.00000000000E+00 0.  1.
</event>
<event>
 7    1  0.1788006E-013  0.7246157E+02  0.7816164E-02  0.1226708E+00
        -11   -1    0    0    0    0  0.00000000000E+00  0.00000000000E+00  0.45593999997E+02  0.45594000000E+02  0.51100000000E-03 0. -1.
         11   -1    0    0    0    0 -0.00000000000E+00 -0.00000000000E+00 -0.45593999997E+02  0.45594000000E+02  0.51100000000E-03 0.  1.
    9900012    2    1    2    0    0 -0.13857364808E+02 -0.90955926746E+01  0.87133785701E+01  0.72461565966E+02  0.69999994361E+02 0.  0.
        -12    1    1    2    0    0  0.13857364808E+02  0.90955926746E+01 -0.87133785701E+01  0.18726434034E+02  0.00000000000E+00 0.  1.
         11    1    3    3    0    0 -0.42207860434E+01  0.19331346143E+02 -0.17057446404E+02  0.26124173798E+02  0.51100000000E-03 0. -1.
        -11    1    3    3    0    0 -0.42999233179E+01  0.30056874224E+01 -0.14859566136E+00  0.52483881671E+01  0.51100000000E-03 0.  1.
        -12    1    3    3    0    0 -0.53366554472E+01 -0.31432626240E+02  0.25919420635E+02  0.41089004001E+02  0.00000000000E+00 0.  1.
</event>
<event>
 7    1  0.1788006E-013  0.7246152E+02  0.7816164E-02  0.1226708E+00
        -11   -1    0    0    0    0  0.00000000000E+00  0.00000000000E+00  0.45593999997E+02  0.45594000000E+02  0.51100000000E-03 0.  1.
         11   -1    0    0    0    0 -0.00000000000E+00 -0.00000000000E+00 -0.45593999997E+02  0.45594000000E+02  0.51100000000E-03 0. -1.
    9900012    2    1    2    0    0 -0.13204968997E+02 -0.12974033336E+02  0.28256586493E+01  0.72461518910E+02  0.69999933063E+02 0.  0.
        -12    1    1    2    0    0  0.13204968997E+02  0.12974033336E+02 -0.28256586493E+01  0.18726481090E+02  0.00000000000E+00 0.  1.
         11    1    3    3    0    0 -0.12911596438E+01 -0.43749110726E+00 -0.57691404940E+01  0.59280244598E+01  0.51100000000E-03 0. -1.
        -11    1    3    3    0    0 -0.13131225935E+02  0.16655195277E+02 -0.17394663110E+02  0.27429891164E+02  0.51100000000E-03 0.  1.
         12    1    3    3    0    0  0.12174165817E+01 -0.29191737506E+02  0.25989462254E+02  0.39103603287E+02  0.00000000000E+00 0. -1.
</event>
<event>
 7    1  0.1788006E-013  0.7246154E+02  0.7816164E-02  0.1226708E+00
        -11   -1    0    0    0    0  0.00000000000E+00  0.00000000000E+00  0.45593999997E+02  0.45594000000E+02  0.51100000000E-03 0.  1.
         11   -1    0    0    0    0 -0.00000000000E+00 -0.00000000000E+00 -0.45593999997E+02  0.45594000000E+02  0.51100000000E-03 0. -1.
    9900012    2    1    2    0    0 -0.11327421800E+01 -0.12787822189E+02 -0.13633377131E+02  0.72461535486E+02  0.69999954656E+02 0.  0.
        -12    1    1    2    0    0  0.11327421800E+01  0.12787822189E+02  0.13633377131E+02  0.18726464514E+02  0.00000000000E+00 0.  1.
         11    1    3    3    0    0  0.28097766469E+01  0.56636330487E+01  0.11203027864E+01  0.64207992267E+01  0.51100000000E-03 0. -1.
        -11    1    3    3    0    0  0.19533024767E+02 -0.10009972984E+02  0.15468894270E+02  0.26851914380E+02  0.51100000000E-03 0.  1.
         12    1    3    3    0    0 -0.23475543594E+02 -0.84414822544E+01 -0.30222574188E+02  0.39188821879E+02  0.00000000000E+00 0. -1.
</event>
<event>
 7    1  0.1788006E-013  0.7246160E+02  0.7816164E-02  0.1226708E+00
        -11   -1    0    0    0    0  0.00000000000E+00  0.00000000000E+00  0.45593999997E+02  0.45594000000E+02  0.51100000000E-03 0.  1.
         11   -1    0    0    0    0 -0.00000000000E+00 -0.00000000000E+00 -0.45593999997E+02  0.45594000000E+02  0.51100000000E-03 0. -1.
    9900012    2    1    2    0    0 -0.74416120915E+00 -0.16166588459E+02 -0.94215467040E+01  0.72461604174E+02  0.70000044135E+02 0.  0.
        -12    1    1    2    0    0  0.74416120915E+00  0.16166588459E+02  0.94215467040E+01  0.18726395826E+02  0.00000000000E+00 0.  1.
         11    1    3    3    0    0 -0.25613779152E+02 -0.10577267798E+02 -0.12503428330E+02  0.30401973567E+02  0.51100000000E-03 0. -1.
        -11    1    3    3    0    0 -0.81998964150E+01 -0.21627593858E+01 -0.10989211373E+01  0.85512254856E+01  0.51100000000E-03 0.  1.
         12    1    3    3    0    0  0.33069514358E+02 -0.34265612753E+01  0.41808027638E+01  0.33508405121E+02  0.00000000000E+00 0. -1.
</event>
<event>
 7    1  0.1788006E-013  0.7246188E+02  0.7816164E-02  0.1226707E+00
        -11   -1    0    0    0    0  0.00000000000E+00  0.00000000000E+00  0.45593999997E+02  0.45594000000E+02  0.51100000000E-03 0.  1.
         11   -1    0    0    0    0 -0.00000000000E+00 -0.00000000000E+00 -0.45593999997E+02  0.45594000000E+02  0.51100000000E-03 0. -1.
    9900012    2    1    2    0    0 -0.17886239287E+01  0.15059035802E+02 -0.10986076049E+02  0.72461879158E+02  0.70000402351E+02 0.  0.
        -12    1    1    2    0    0  0.17886239287E+01 -0.15059035802E+02  0.10986076049E+02  0.18726120842E+02  0.00000000000E+00 0.  1.
         11    1    3    3    0    0  0.66666615660E+01  0.21633226664E+01 -0.37639209520E+02  0.38286217297E+02  0.51100000000E-03 0. -1.
        -11    1    3    3    0    0 -0.20327224994E+00 -0.19620971595E+01 -0.59609816425E+00  0.20606984625E+01  0.51100000000E-03 0.  1.
        -12    1    3    3    0    0 -0.82520132447E+01  0.14857810295E+02  0.27249231635E+02  0.32114963398E+02  0.00000000000E+00 0.  1.
</event>
<event>
 7    1  0.1788006E-013  0.7246164E+02  0.7816164E-02  0.1226708E+00
        -11   -1    0    0    0    0  0.00000000000E+00  0.00000000000E+00  0.45593999997E+02  0.45594000000E+02  0.51100000000E-03 0.  1.
         11   -1    0    0    0    0 -0.00000000000E+00 -0.00000000000E+00 -0.45593999997E+02  0.45594000000E+02  0.51100000000E-03 0. -1.
    9900012    2    1    2    0    0 -0.20980733952E+01 -0.12069663741E+02 -0.14163258680E+02  0.72461639136E+02  0.70000089679E+02 0.  0.
        -12    1    1    2    0    0  0.20980733952E+01  0.12069663741E+02  0.14163258680E+02  0.18726360864E+02  0.00000000000E+00 0.  1.
         11    1    3    3    0    0 -0.10382785614E+02  0.54427549294E+01 -0.85062434375E+01  0.14483852941E+02  0.51100000000E-03 0. -1.
        -11    1    3    3    0    0 -0.23039500653E+02 -0.99555303986E+01  0.81383811038E+00  0.25111620987E+02  0.51100000000E-03 0.  1.
         12    1    3    3    0    0  0.31324212872E+02 -0.75568882716E+01 -0.64708533527E+01  0.32866165208E+02  0.00000000000E+00 0. -1.
</event>
<event>
 7    1  0.1788006E-013  0.7246156E+02  0.7816164E-02  0.1226708E+00
        -11   -1    0    0    0    0  0.00000000000E+00  0.00000000000E+00  0.45593999997E+02  0.45594000000E+02  0.51100000000E-03 0.  1.
         11   -1    0    0    0    0 -0.00000000000E+00 -0.00000000000E+00 -0.45593999997E+02  0.45594000000E+02  0.51100000000E-03 0. -1.
    9900012    2    1    2    0    0  0.12337569664E+02 -0.15961910981E+01 -0.13996998638E+02  0.72461563550E+02  0.69999991215E+02 0.  0.
        -12    1    1    2    0    0 -0.12337569664E+02  0.15961910981E+01  0.13996998638E+02  0.18726436450E+02  0.00000000000E+00 0.  1.
         11    1    3    3    0    0  0.45455753552E+01  0.35803225516E+01 -0.13625847768E+02  0.14803536488E+02  0.51100000000E-03 0. -1.
        -11    1    3    3    0    0 -0.19234315803E+02  0.12934148616E+02  0.71696265696E+01  0.24262206211E+02  0.51100000000E-03 0.  1.
        -12    1    3    3    0    0  0.27026310111E+02 -0.18110662266E+02 -0.75407774395E+01  0.33395820851E+02  0.00000000000E+00 0.  1.
</event>
<event>
 7    1  0.1788006E-013  0.7246153E+02  0.7816164E-02  0.1226708E+00
        -11   -1    0    0    0    0  0.00000000000E+00  0.00000000000E+00  0.45593999997E+02  0.45594000000E+02  0.51100000000E-03 0.  1.
         11   -1    0    0    0    0 -0.00000000000E+00 -0.00000000000E+00 -0.45593999997E+02  0.45594000000E+02  0.51100000000E-03 0. -1.
    9900012    2    1    2    0    0  0.56554640679E+01 -0.12290578330E+01 -0.17809713226E+02  0.72461528304E+02  0.69999945300E+02 0.  0.
        -12    1    1    2    0    0 -0.56554640679E+01  0.12290578330E+01  0.17809713226E+02  0.18726471696E+02  0.00000000000E+00 0.  1.
         11    1    3    3    0    0  0.50213473963E+01 -0.14977240815E+02 -0.13929032305E+02  0.21060617591E+02  0.51100000000E-03 0. -1.
        -11    1    3    3    0    0  0.15446186861E+02  0.14341284800E+01  0.16985468462E+02  0.23003207432E+02  0.51100000000E-03 0.  1.
        -12    1    3    3    0    0 -0.14812070190E+02  0.12314054502E+02 -0.20866149382E+02  0.28397703281E+02  0.00000000000E+00 0.  1.
</event>
<event>
 7    1  0.1788006E-013  0.7246158E+02  0.7816164E-02  0.1226708E+00
        -11   -1    0    0    0    0  0.00000000000E+00  0.00000000000E+00  0.45593999997E+02  0.45594000000E+02  0.51100000000E-03 0. -1.
         11   -1    0    0    0    0 -0.00000000000E+00 -0.00000000000E+00 -0.45593999997E+02  0.45594000000E+02  0.51100000000E-03 0.  1.
    9900012    2    1    2    0    0  0.50071381294E+01  0.17925898075E+02 -0.20662771956E+01  0.72461581349E+02  0.70000014401E+02 0.  0.
        -12    1    1    2    0    0 -0.50071381294E+01 -0.17925898075E+02  0.20662771956E+01  0.18726418651E+02  0.00000000000E+00 0.  1.
         11    1    3    3    0    0 -0.12430985541E+02  0.32710701310E+02  0.16462638067E+02  0.38672184243E+02  0.51100000000E-03 0. -1.
        -11    1    3    3    0    0 -0.30679245865E+01 -0.37971412446E+01 -0.43922591759E+01  0.65667635734E+01  0.51100000000E-03 0.  1.
        -12    1    3    3    0    0  0.20506048257E+02 -0.10987661990E+02 -0.14136656087E+02  0.27222633533E+02  0.00000000000E+00 0.  1.
</event>
<event>
 7    1  0.1788006E-013  0.7246156E+02  0.7816164E-02  0.1226708E+00
        -11   -1    0    0    0    0  0.00000000000E+00  0.00000000000E+00  0.45593999997E+02  0.45594000000E+02  0.51100000000E-03 0.  1.
         11   -1    0    0    0    0 -0.00000000000E+00 -0.00000000000E+00 -0.45593999997E+02  0.45594000000E+02  0.51100000000E-03 0. -1.
    9900012    2    1    2    0    0 -0.11195100351E+02 -0.13183468462E+02  0.71795088884E+01  0.72461562527E+02  0.69999989882E+02 0.  0.
        -12    1    1    2    0    0  0.11195100351E+02  0.13183468462E+02 -0.71795088884E+01  0.18726437473E+02  0.00000000000E+00 0.  1.
         11    1    3    3    0    0 -0.20294304361E+02 -0.28489757397E+02  0.92553244905E+01  0.36182676763E+02  0.51100000000E-03 0. -1.
        -11    1    3    3    0    0  0.17894921201E+01 -0.82055581272E+00 -0.14509973351E+02  0.14642913672E+02  0.51100000000E-03 0.  1.
        -12    1    3    3    0    0  0.73097118900E+01  0.16126844748E+02  0.12434157749E+02  0.21635972092E+02  0.00000000000E+00 0.  1.
</event>
<event>
 7    1  0.1788006E-013  0.7246146E+02  0.7816164E-02  0.1226708E+00
        -11   -1    0    0    0    0  0.00000000000E+00  0.00000000000E+00  0.45593999997E+02  0.45594000000E+02  0.51100000000E-03 0. -1.
         11   -1    0    0    0    0 -0.00000000000E+00 -0.00000000000E+00 -0.45593999997E+02  0.45594000000E+02  0.51100000000E-03 0.  1.
    9900012    2    1    2    0    0 -0.66388993372E+01 -0.15043959987E+02  0.89603377959E+01  0.72461458143E+02  0.69999853902E+02 0.  0.
        -12    1    1    2    0    0  0.66388993372E+01  0.15043959987E+02 -0.89603377959E+01  0.18726541857E+02  0.00000000000E+00 0.  1.
         11    1    3    3    0    0 -0.10577137477E+02  0.14707354712E+02  0.10862844918E+02  0.21123056593E+02  0.51100000000E-03 0. -1.
        -11    1    3    3    0    0 -0.17687920757E+02 -0.87290442734E+01 -0.66323118572E+01  0.20809764907E+02  0.51100000000E-03 0.  1.
        -12    1    3    3    0    0  0.21626158897E+02 -0.21022270425E+02  0.47298047351E+01  0.30528636644E+02  0.00000000000E+00 0.  1.
</event>
<event>
 7    1  0.1788006E-013  0.7246156E+02  0.7816164E-02  0.1226708E+00
        -11   -1    0    0    0    0  0.00000000000E+00  0.00000000000E+00  0.45593999997E+02  0.45594000000E+02  0.51100000000E-03 0. -1.
         11   -1    0    0    0    0 -0.00000000000E+00 -0.00000000000E+00 -0.45593999997E+02  0.45594000000E+02  0.51100000000E-03 0.  1.
    9900012    2    1    2    0    0 -0.49466262222E+01 -0.54164995844E+01  0.17229978490E+02  0.72461555130E+02  0.69999980245E+02 0.  0.
        -12    1    1    2    0    0  0.49466262222E+01  0.54164995844E+01 -0.17229978490E+02  0.18726444870E+02  0.00000000000E+00 0.  1.
         11    1    3    3    0    0  0.24761199140E+02  0.16350866140E+02 -0.24539180976E+01  0.29773973881E+02  0.51100000000E-03 0. -1.
        -11    1    3    3    0    0 -0.17919027733E+01 -0.17245744379E+00  0.33380503327E+01  0.37925238830E+01  0.51100000000E-03 0.  1.
        -12    1    3    3    0    0 -0.27915922589E+02 -0.21594908281E+02  0.16345846255E+02  0.38895057365E+02  0.00000000000E+00 0.  1.
</event>
<event>
 7    1  0.1788006E-013  0.7246153E+02  0.7816164E-02  0.1226708E+00
        -11   -1    0    0    0    0  0.00000000000E+00  0.00000000000E+00  0.45593999997E+02  0.45594000000E+02  0.51100000000E-03 0.  1.
         11   -1    0    0    0    0 -0.00000000000E+00 -0.00000000000E+00 -0.45593999997E+02  0.45594000000E+02  0.51100000000E-03 0. -1.
    9900012    2    1    2    0    0  0.56006052150E+01 -0.11530750782E+02 -0.13651209445E+02  0.72461534458E+02  0.69999953317E+02 0.  0.
        -12    1    1    2    0    0 -0.56006052150E+01  0.11530750782E+02  0.13651209445E+02  0.18726465542E+02  0.00000000000E+00 0.  1.
         11    1    3    3    0    0 -0.12596474344E+02 -0.17224526246E+02  0.24553032047E+01  0.21479850660E+02  0.51100000000E-03 0. -1.
        -11    1    3    3    0    0 -0.14832354074E+02  0.32208494716E+01 -0.37910483574E+01  0.15644316751E+02  0.51100000000E-03 0.  1.
        -12    1    3    3    0    0  0.33029433633E+02  0.24729259922E+01 -0.12315464292E+02  0.35337367047E+02  0.00000000000E+00 0.  1.
</event>
<event>
 7    1  0.1788006E-013  0.7246135E+02  0.7816164E-02  0.1226709E+00
        -11   -1    0    0    0    0  0.00000000000E+00  0.00000000000E+00  0.45593999997E+02  0.45594000000E+02  0.51100000000E-03 0.  1.
         11   -1    0    0    0    0 -0.00000000000E+00 -0.00000000000E+00 -0.45593999997E+02  0.45594000000E+02  0.51100000000E-03 0. -1.
    9900012    2    1    2    0    0  0.12808199498E+02  0.12629892689E+02 -0.52080094318E+01  0.72461347176E+02  0.69999709347E+02 0.  0.
        -12    1    1    2    0    0 -0.12808199498E+02 -0.12629892689E+02  0.52080094318E+01  0.18726652824E+02  0.00000000000E+00 0.  1.
         11    1    3    3    0    0 -0.36719054990E+01 -0.56210492430E+00 -0.33920447778E+02  0.34123241781E+02  0.51100000000E-03 0. -1.
        -11    1    3    3    0    0 -0.56491994572E+00 -0.21203202405E+01  0.44786080388E+01  0.49872660541E+01  0.51100000000E-03 0.  1.
        -12    1    3    3    0    0  0.17045024943E+02  0.15312317854E+02  0.24233830308E+02  0.33350839341E+02  0.00000000000E+00 0.  1.
</event>
<event>
 7    1  0.1788006E-013  0.7246160E+02  0.7816164E-02  0.1226708E+00
        -11   -1    0    0    0    0  0.00000000000E+00  0.00000000000E+00  0.45593999997E+02  0.45594000000E+02  0.51100000000E-03 0.  1.
         11   -1    0    0    0    0 -0.00000000000E+00 -0.00000000000E+00 -0.45593999997E+02  0.45594000000E+02  0.51100000000E-03 0. -1.
    9900012    2    1    2    0    0  0.91953232492E+01  0.66088533577E+01 -0.14914656312E+02  0.72461604584E+02  0.70000044669E+02 0.  0.
        -12    1    1    2    0    0 -0.91953232492E+01 -0.66088533577E+01  0.14914656312E+02  0.18726395416E+02  0.00000000000E+00 0.  1.
         11    1    3    3    0    0 -0.24640071657E+01  0.13811965096E+01 -0.25391081260E+02  0.25547720895E+02  0.51100000000E-03 0. -1.
        -11    1    3    3    0    0 -0.16409007749E+02  0.45781713697E+01  0.26213510734E+00  0.17037720020E+02  0.51100000000E-03 0.  1.
         12    1    3    3    0    0  0.28068338164E+02  0.64948547841E+00  0.10214289840E+02  0.29876163669E+02  0.00000000000E+00 0. -1.
</event>
<event>
 7    1  0.1788006E-013  0.7246159E+02  0.7816164E-02  0.1226708E+00
        -11   -1    0    0    0    0  0.00000000000E+00  0.00000000000E+00  0.45593999997E+02  0.45594000000E+02  0.51100000000E-03 0. -1.
         11   -1    0    0    0    0 -0.00000000000E+00 -0.00000000000E+00 -0.45593999997E+02  0.45594000000E+02  0.51100000000E-03 0.  1.
    9900012    2    1    2    0    0  0.16362608172E+02 -0.50883006452E+01  0.75533161740E+01  0.72461592580E+02  0.70000029031E+02 0.  0.
        -12    1    1    2    0    0 -0.16362608172E+02  0.50883006452E+01 -0.75533161740E+01  0.18726407420E+02  0.00000000000E+00 0.  1.
         11    1    3    3    0    0  0.83447269885E+01 -0.23417660113E+02  0.10859531809E+01  0.24883741042E+02  0.51100000000E-03 0. -1.
        -11    1    3    3    0    0 -0.22879661733E+01  0.18094334240E+01 -0.16906640263E+02  0.17156436803E+02  0.51100000000E-03 0.  1.
        -12    1    3    3    0    0  0.10305847357E+02  0.16519926044E+02  0.23374003256E+02  0.30421414735E+02  0.00000000000E+00 0.  1.
</event>
<event>
 7    1  0.1788006E-013  0.7246160E+02  0.7816164E-02  0.1226708E+00
        -11   -1    0    0    0    0  0.00000000000E+00  0.00000000000E+00  0.45593999997E+02  0.45594000000E+02  0.51100000000E-03 0.  1.
         11   -1    0    0    0    0 -0.00000000000E+00 -0.00000000000E+00 -0.45593999997E+02  0.45594000000E+02  0.51100000000E-03 0. -1.
    9900012    2    1    2    0    0 -0.13842321708E+01  0.13851480583E+02 -0.12525903836E+02  0.72461604726E+02  0.70000044854E+02 0.  0.
        -12    1    1    2    0    0  0.13842321708E+01 -0.13851480583E+02  0.12525903836E+02  0.18726395274E+02  0.00000000000E+00 0.  1.
         11    1    3    3    0    0 -0.16588474577E+02 -0.10971329488E+02 -0.17828546486E+02  0.26709635520E+02  0.51100000000E-03 0. -1.
        -11    1    3    3    0    0 -0.36366731317E+00 -0.84118686185E+01 -0.11204567918E+01  0.84939514510E+01  0.51100000000E-03 0.  1.
        -12    1    3    3    0    0  0.15567909720E+02  0.33234678689E+02  0.64230994421E+01  0.37258017755E+02  0.00000000000E+00 0.  1.
</event>
<event>
 7    1  0.1815118E-013  0.7246155E+02  0.7816164E-02  0.1226708E+00
        -11   -1    0    0    0    0  0.00000000000E+00  0.00000000000E+00  0.45593999997E+02  0.45594000000E+02  0.51100000000E-03 0. -1.
         11   -1    0    0    0    0 -0.00000000000E+00 -0.00000000000E+00 -0.45593999997E+02  0.45594000000E+02  0.51100000000E-03 0.  1.
    9900012    2    1    2    0    0 -0.70157146309E+01  0.73508878015E+01  0.15729725672E+02  0.72461546172E+02  0.69999968576E+02 0.  0.
        -12    1    1    2    0    0  0.70157146309E+01 -0.73508878015E+01 -0.15729725672E+02  0.18726453828E+02  0.00000000000E+00 0.  1.
         11    1    3    3    0    0  0.11203028217E+02 -0.43909728865E+01  0.49136711970E+01  0.12997409319E+02  0.51100000000E-03 0. -1.
        -11    1    3    3    0    0  0.52749879187E+01 -0.68025743407E+01 -0.16712249567E+02  0.18798930849E+02  0.51100000000E-03 0.  1.
         12    1    3    3    0    0 -0.23493730767E+02  0.18544435029E+02  0.27528304042E+02  0.40665206004E+02  0.00000000000E+00 0. -1.
</event>
<event>
 7    1  0.1788006E-013  0.7246155E+02  0.7816164E-02  0.1226708E+00
        -11   -1    0    0    0    0  0.00000000000E+00  0.00000000000E+00  0.45593999997E+02  0.45594000000E+02  0.51100000000E-03 0.  1.
         11   -1    0    0    0    0 -0.00000000000E+00 -0.00000000000E+00 -0.45593999997E+02  0.45594000000E+02  0.51100000000E-03 0. -1.
    9900012    2    1    2    0    0 -0.15283062532E+01 -0.18006023046E+02 -0.49119678619E+01  0.72461547741E+02  0.69999970620E+02 0.  0.
        -12    1    1    2    0    0  0.15283062532E+01  0.18006023046E+02  0.49119678619E+01  0.18726452259E+02  0.00000000000E+00 0.  1.
         11    1    3    3    0    0 -0.67626765487E+01 -0.23796759523E+02  0.71786976136E+01  0.25759527511E+02  0.51100000000E-03 0. -1.
        -11    1    3    3    0    0 -0.17743765229E+01 -0.18803538828E+02 -0.90661905852E+01  0.20950353135E+02  0.51100000000E-03 0.  1.
         12    1    3    3    0    0  0.70087468185E+01  0.24594275305E+02 -0.30244748903E+01  0.25751667094E+02  0.00000000000E+00 0. -1.
</event>
<event>
 7    1  0.1788006E-013  0.7246158E+02  0.7816164E-02  0.1226708E+00
        -11   -1    0    0    0    0  0.00000000000E+00  0.00000000000E+00  0.45593999997E+02  0.45594000000E+02  0.51100000000E-03 0.  1.
         11   -1    0    0    0    0 -0.00000000000E+00 -0.00000000000E+00 -0.45593999997E+02  0.45594000000E+02  0.51100000000E-03 0. -1.
    9900012    2    1    2    0    0 -0.14649859372E+02  0.38458191909E+01 -0.11012264705E+02  0.72461583397E+02  0.70000017069E+02 0.  0.
        -12    1    1    2    0    0  0.14649859372E+02 -0.38458191909E+01  0.11012264705E+02  0.18726416603E+02  0.00000000000E+00 0.  1.
         11    1    3    3    0    0  0.78162186983E+01 -0.48935810884E+00  0.95461742176E+01  0.12347558000E+02  0.51100000000E-03 0. -1.
        -11    1    3    3    0    0 -0.97369527675E+01  0.24350370096E+02  0.33467750391E+01  0.26437656410E+02  0.51100000000E-03 0.  1.
         12    1    3    3    0    0 -0.12729125303E+02 -0.20015192796E+02 -0.23905213961E+02  0.33676368988E+02  0.00000000000E+00 0. -1.
</event>
<event>
 7    1  0.1788006E-013  0.7246159E+02  0.7816164E-02  0.1226708E+00
        -11   -1    0    0    0    0  0.00000000000E+00  0.00000000000E+00  0.45593999997E+02  0.45594000000E+02  0.51100000000E-03 0. -1.
         11   -1    0    0    0    0 -0.00000000000E+00 -0.00000000000E+00 -0.45593999997E+02  0.45594000000E+02  0.51100000000E-03 0.  1.
    9900012    2    1    2    0    0  0.12541895848E+02 -0.13765157222E+02 -0.19747953931E+01  0.72461587592E+02  0.70000022534E+02 0.  0.
        -12    1    1    2    0    0 -0.12541895848E+02  0.13765157222E+02  0.19747953931E+01  0.18726412408E+02  0.00000000000E+00 0.  1.
         11    1    3    3    0    0 -0.58476470690E+00 -0.36393645760E+02 -0.71115603148E+01  0.37086570236E+02  0.51100000000E-03 0. -1.
        -11    1    3    3    0    0 -0.57027234550E+01  0.12110479890E+02  0.28519914396E+01  0.13686439764E+02  0.51100000000E-03 0.  1.
        -12    1    3    3    0    0  0.18829384010E+02  0.10518008648E+02  0.22847734821E+01  0.21688577593E+02  0.00000000000E+00 0.  1.
</event>
<event>
 7    1  0.1788006E-013  0.7246157E+02  0.7816164E-02  0.1226708E+00
        -11   -1    0    0    0    0  0.00000000000E+00  0.00000000000E+00  0.45593999997E+02  0.45594000000E+02  0.51100000000E-03 0.  1.
         11   -1    0    0    0    0 -0.00000000000E+00 -0.00000000000E+00 -0.45593999997E+02  0.45594000000E+02  0.51100000000E-03 0. -1.
    9900012    2    1    2    0    0 -0.34732523143E+01  0.14642411897E+02 -0.11145200350E+02  0.72461569517E+02  0.69999998987E+02 0.  0.
        -12    1    1    2    0    0  0.34732523143E+01 -0.14642411897E+02  0.11145200350E+02  0.18726430483E+02  0.00000000000E+00 0.  1.
         11    1    3    3    0    0 -0.49781452341E+01 -0.14642671988E+00 -0.57816120493E+01  0.76308851981E+01  0.51100000000E-03 0. -1.
        -11    1    3    3    0    0 -0.17672329400E+02  0.33271595155E+02 -0.60842777810E-01  0.37673783626E+02  0.51100000000E-03 0.  1.
         12    1    3    3    0    0  0.19177222319E+02 -0.18482756538E+02 -0.53027455230E+01  0.27156900693E+02  0.00000000000E+00 0. -1.
</event>
<event>
 7    1  0.1788006E-013  0.7246155E+02  0.7816164E-02  0.1226708E+00
        -11   -1    0    0    0    0  0.00000000000E+00  0.00000000000E+00  0.45593999997E+02  0.45594000000E+02  0.51100000000E-03 0. -1.
         11   -1    0    0    0    0 -0.00000000000E+00 -0.00000000000E+00 -0.45593999997E+02  0.45594000000E+02  0.51100000000E-03 0.  1.
    9900012    2    1    2    0    0 -0.45901278964E+01 -0.11851856719E+02  0.13752967806E+02  0.72461550650E+02  0.69999974410E+02 0.  0.
        -12    1    1    2    0    0  0.45901278964E+01  0.11851856719E+02 -0.13752967806E+02  0.18726449350E+02  0.00000000000E+00 0.  1.
         11    1    3    3    0    0 -0.16248339811E+02  0.12519749818E+02  0.16772321604E+02  0.26496480037E+02  0.51100000000E-03 0. -1.
        -11    1    3    3    0    0  0.47872546233E+01 -0.35390805804E+01  0.15911975970E+02  0.16989228285E+02  0.51100000000E-03 0.  1.
        -12    1    3    3    0    0  0.68709572916E+01 -0.20832525956E+02 -0.18931329768E+02  0.28975842328E+02  0.00000000000E+00 0.  1.
</event>
<event>
 7    1  0.1788006E-013  0.7246153E+02  0.7816164E-02  0.1226708E+00
        -11   -1    0    0    0    0  0.00000000000E+00  0.00000000000E+00  0.45593999997E+02  0.45594000000E+02  0.51100000000E-03 0.  1.
         11   -1    0    0    0    0 -0.00000000000E+00 -0.00000000000E+00 -0.45593999997E+02  0.45594000000E+02  0.51100000000E-03 0. -1.
    9900012    2    1    2    0    0 -0.74436444224E+01  0.72761766000E+01  0.15566955934E+02  0.72461529290E+02  0.69999946585E+02 0.  0.
        -12    1    1    2    0    0  0.74436444224E+01 -0.72761766000E+01 -0.15566955934E+02  0.18726470710E+02  0.00000000000E+00 0.  1.
         11    1    3    3    0    0 -0.20886644360E+02 -0.10808240862E+02  0.10676985761E+02  0.25827659754E+02  0.51100000000E-03 0. -1.
        -11    1    3    3    0    0  0.13012200085E+02 -0.66642500104E+01  0.14015849694E+02  0.20252743571E+02  0.51100000000E-03 0.  1.
         12    1    3    3    0    0  0.43079985226E+00  0.24748667472E+02 -0.91258795219E+01  0.26381125965E+02  0.00000000000E+00 0. -1.
</event>
<event>
 7    1  0.1788006E-013  0.7246188E+02  0.7816164E-02  0.1226707E+00
        -11   -1    0    0    0    0  0.00000000000E+00  0.00000000000E+00  0.45593999997E+02  0.45594000000E+02  0.51100000000E-03 0. -1.
         11   -1    0    0    0    0 -0.00000000000E+00 -0.00000000000E+00 -0.45593999997E+02  0.45594000000E+02  0.51100000000E-03 0.  1.
    9900012    2    1    2    0    0 -0.11559455170E+02  0.60842541040E+01  0.13417471250E+02  0.72461876895E+02  0.70000399403E+02 0.  0.
        -12    1    1    2    0    0  0.11559455170E+02 -0.60842541040E+01 -0.13417471250E+02  0.18726123105E+02  0.00000000000E+00 0.  1.
         11    1    3    3    0    0 -0.11912779852E+02  0.49499475481E+01  0.10831006747E+02  0.16844198169E+02  0.51100000000E-03 0. -1.
        -11    1    3    3    0    0 -0.14229578905E+02  0.23334809831E+02  0.80662163245E+01  0.28496633340E+02  0.51100000000E-03 0.  1.
        -12    1    3    3    0    0  0.14582903588E+02 -0.22200503276E+02 -0.54797518221E+01  0.27121045385E+02  0.00000000000E+00 0.  1.
</event>
<event>
 7    1  0.1788006E-013  0.7246147E+02  0.7816164E-02  0.1226708E+00
        -11   -1    0    0    0    0  0.00000000000E+00  0.00000000000E+00  0.45593999997E+02  0.45594000000E+02  0.51100000000E-03 0.  1.
         11   -1    0    0    0    0 -0.00000000000E+00 -0.00000000000E+00 -0.45593999997E+02  0.45594000000E+02  0.51100000000E-03 0. -1.
    9900012    2    1    2    0    0 -0.17279418055E+02  0.57650398440E+01  0.43438264600E+01  0.72461473332E+02  0.69999873688E+02 0.  0.
        -12    1    1    2    0    0  0.17279418055E+02 -0.57650398440E+01 -0.43438264600E+01  0.18726526668E+02  0.00000000000E+00 0.  1.
         11    1    3    3    0    0 -0.69378361369E+01  0.10893579374E+01 -0.15262478107E+02  0.16800699664E+02  0.51100000000E-03 0. -1.
        -11    1    3    3    0    0 -0.39310390502E+01  0.12049739205E+02 -0.15036813001E+02  0.19666088285E+02  0.51100000000E-03 0.  1.
        -12    1    3    3    0    0 -0.64105428682E+01 -0.73740572986E+01  0.34643117569E+02  0.35994685383E+02  0.00000000000E+00 0.  1.
</event>
<event>
 7    1  0.1788006E-013  0.7246156E+02  0.7816164E-02  0.1226708E+00
        -11   -1    0    0    0    0  0.00000000000E+00  0.00000000000E+00  0.45593999997E+02  0.45594000000E+02  0.51100000000E-03 0.  1.
         11   -1    0    0    0    0 -0.00000000000E+00 -0.00000000000E+00 -0.45593999997E+02  0.45594000000E+02  0.51100000000E-03 0. -1.
    9900012    2    1    2    0    0  0.93340437539E+01 -0.15662729110E+02 -0.42701617208E+01  0.72461555140E+02  0.69999980258E+02 0.  0.
        -12    1    1    2    0    0 -0.93340437539E+01  0.15662729110E+02  0.42701617208E+01  0.18726444860E+02  0.00000000000E+00 0.  1.
         11    1    3    3    0    0 -0.10040324200E+02  0.80508414401E+01 -0.77927663350E+01  0.15044978078E+02  0.51100000000E-03 0. -1.
        -11    1    3    3    0    0  0.10623357121E+02  0.21017541072E+01  0.21976057453E+02  0.24499391590E+02  0.51100000000E-03 0.  1.
         12    1    3    3    0    0  0.87510108331E+01 -0.25815324657E+02 -0.18453452838E+02  0.32917185473E+02  0.00000000000E+00 0. -1.
</event>
<event>
 7    1  0.1788006E-013  0.7246210E+02  0.7816164E-02  0.1226707E+00
        -11   -1    0    0    0    0  0.00000000000E+00  0.00000000000E+00  0.45593999997E+02  0.45594000000E+02  0.51100000000E-03 0. -1.
         11   -1    0    0    0    0 -0.00000000000E+00 -0.00000000000E+00 -0.45593999997E+02  0.45594000000E+02  0.51100000000E-03 0.  1.
    9900012    2    1    2    0    0  0.15402692123E+02  0.10623201805E+02 -0.75105927506E+00  0.72462097318E+02  0.70000686543E+02 0.  0.
        -12    1    1    2    0    0 -0.15402692123E+02 -0.10623201805E+02  0.75105927506E+00  0.18725902682E+02  0.00000000000E+00 0.  1.
         11    1    3    3    0    0  0.15334085701E+02  0.32286836762E+01 -0.15440680748E+01  0.15746197288E+02  0.51100000000E-03 0. -1.
        -11    1    3    3    0    0  0.22100696665E+02 -0.94448063028E+01  0.11930484179E+02  0.26832473091E+02  0.51100000000E-03 0.  1.
        -12    1    3    3    0    0 -0.22032090243E+02  0.16839324431E+02 -0.11137475380E+02  0.29883426939E+02  0.00000000000E+00 0.  1.
</event>
<event>
 7    1  0.1788006E-013  0.7246153E+02  0.7816164E-02  0.1226708E+00
        -11   -1    0    0    0    0  0.00000000000E+00  0.00000000000E+00  0.45593999997E+02  0.45594000000E+02  0.51100000000E-03 0.  1.
         11   -1    0    0    0    0 -0.00000000000E+00 -0.00000000000E+00 -0.45593999997E+02  0.45594000000E+02  0.51100000000E-03 0. -1.
    9900012    2    1    2    0    0 -0.57965362830E+01  0.14401657127E+02 -0.10472499192E+02  0.72461526755E+02  0.69999943281E+02 0.  0.
        -12    1    1    2    0    0  0.57965362830E+01 -0.14401657127E+02  0.10472499192E+02  0.18726473245E+02  0.00000000000E+00 0.  1.
         11    1    3    3    0    0  0.43117199985E+01 -0.24710151289E+01 -0.31060170169E+01  0.58603913763E+01  0.51100000000E-03 0. -1.
        -11    1    3    3    0    0 -0.86861042853E+01 -0.18809242419E+02 -0.19927487550E+02  0.28746143539E+02  0.51100000000E-03 0.  1.
         12    1    3    3    0    0 -0.14221519961E+01  0.35681914674E+02  0.12561005375E+02  0.37854991840E+02  0.00000000000E+00 0. -1.
</event>
<event>
 7    1  0.1788006E-013  0.7246129E+02  0.7816164E-02  0.1226709E+00
        -11   -1    0    0    0    0  0.00000000000E+00  0.00000000000E+00  0.45593999997E+02  0.45594000000E+02  0.51100000000E-03 0.  1.
         11   -1    0    0    0    0 -0.00000000000E+00 -0.00000000000E+00 -0.45593999997E+02  0.45594000000E+02  0.51100000000E-03 0. -1.
    9900012    2    1    2    0    0 -0.34707625055E+01  0.18398468260E+02 -0.37377748925E+00  0.72461293502E+02  0.69999639425E+02 0.  0.
        -12    1    1    2    0    0  0.34707625055E+01 -0.18398468260E+02  0.37377748925E+00  0.18726706498E+02  0.00000000000E+00 0.  1.
         11    1    3    3    0    0 -0.15366861043E+02 -0.15497442379E+01 -0.87551100852E+01  0.17753706047E+02  0.51100000000E-03 0. -1.
        -11    1    3    3    0    0 -0.61037771696E+01  0.31712190451E+02  0.23758371164E+01  0.32381533645E+02  0.51100000000E-03 0.  1.
         12    1    3    3    0    0  0.17999875707E+02 -0.11763977953E+02  0.60054954795E+01  0.22326053810E+02  0.00000000000E+00 0. -1.
</event>
<event>
 7    1  0.1788006E-013  0.7246159E+02  0.7816164E-02  0.1226708E+00
        -11   -1    0    0    0    0  0.00000000000E+00  0.00000000000E+00  0.45593999997E+02  0.45594000000E+02  0.51100000000E-03 0. -1.
         11   -1    0    0    0    0 -0.00000000000E+00 -0.00000000000E+00 -0.45593999997E+02  0.45594000000E+02  0.51100000000E-03 0.  1.
    9900012    2    1    2    0    0  0.11266352856E+02 -0.13685205407E+02  0.60384522936E+01  0.72461589243E+02  0.70000024685E+02 0.  0.
        -12    1    1    2    0    0 -0.11266352856E+02  0.13685205407E+02 -0.60384522936E+01  0.18726410757E+02  0.00000000000E+00 0.  1.
         11    1    3    3    0    0 -0.27890335910E+01 -0.16876316504E+01 -0.10103732922E+02  0.10616601536E+02  0.51100000000E-03 0. -1.
        -11    1    3    3    0    0  0.70509287803E+01 -0.24585244509E+02 -0.13476058765E+02  0.28909410307E+02  0.51100000000E-03 0.  1.
         12    1    3    3    0    0  0.70044576668E+01  0.12587670752E+02  0.29618243980E+02  0.32935577400E+02  0.00000000000E+00 0. -1.
</event>
<event>
 7    1  0.1788006E-013  0.7246158E+02  0.7816164E-02  0.1226708E+00
        -11   -1    0    0    0    0  0.00000000000E+00  0.00000000000E+00  0.45593999997E+02  0.45594000000E+02  0.51100000000E-03 0.  1.
         11   -1    0    0    0    0 -0.00000000000E+00 -0.00000000000E+00 -0.45593999997E+02  0.45594000000E+02  0.51100000000E-03 0. -1.
    9900012    2    1    2    0    0 -0.11808236815E+02  0.36145983615E+01  0.14077611840E+02  0.72461576606E+02  0.70000008223E+02 0.  0.
        -12    1    1    2    0    0  0.11808236815E+02 -0.36145983615E+01 -0.14077611840E+02  0.18726423394E+02  0.00000000000E+00 0.  1.
         11    1    3    3    0    0 -0.16607600600E+01 -0.19443940284E+02 -0.13065386605E+01  0.19558424816E+02  0.51100000000E-03 0. -1.
        -11    1    3    3    0    0 -0.22331271412E+02  0.61910525860E+01  0.21083227380E+02  0.31329176370E+02  0.51100000000E-03 0.  1.
         12    1    3    3    0    0  0.12183794656E+02  0.16867486059E+02 -0.56990768799E+01  0.21573975421E+02  0.00000000000E+00 0. -1.
</event>
<event>
 7    1  0.1788006E-013  0.7246172E+02  0.7816164E-02  0.1226708E+00
        -11   -1    0    0    0    0  0.00000000000E+00  0.00000000000E+00  0.45593999997E+02  0.45594000000E+02  0.51100000000E-03 0.  1.
         11   -1    0    0    0    0 -0.00000000000E+00 -0.00000000000E+00 -0.45593999997E+02  0.45594000000E+02  0.51100000000E-03 0. -1.
    9900012    2    1    2    0    0 -0.14276043860E+02 -0.91876211981E+01  0.79028858991E+01  0.72461723886E+02  0.70000200081E+02 0.  0.
        -12    1    1    2    0    0  0.14276043860E+02  0.91876211981E+01 -0.79028858991E+01  0.18726276114E+02  0.00000000000E+00 0.  1.
         11    1    3    3    0    0 -0.30768206957E+01 -0.46780991864E+01 -0.14023932476E+02  0.15100401317E+02  0.51100000000E-03 0. -1.
        -11    1    3    3    0    0 -0.15660856586E+02 -0.26262280208E+02  0.10097380180E+02  0.32201349001E+02  0.51100000000E-03 0.  1.
        -12    1    3    3    0    0  0.44616334216E+01  0.21752758196E+02  0.11829438195E+02  0.25159973568E+02  0.00000000000E+00 0.  1.
</event>
<event>
 7    1  0.1788006E-013  0.7246159E+02  0.7816164E-02  0.1226708E+00
        -11   -1    0    0    0    0  0.00000000000E+00  0.00000000000E+00  0.45593999997E+02  0.45594000000E+02  0.51100000000E-03 0.  1.
         11   -1    0    0    0    0 -0.00000000000E+00 -0.00000000000E+00 -0.45593999997E+02  0.45594000000E+02  0.51100000000E-03 0. -1.
    9900012    2    1    2    0    0 -0.95196307416E+01  0.10964254263E+02 -0.11825397929E+02  0.72461594120E+02  0.70000031038E+02 0.  0.
        -12    1    1    2    0    0  0.95196307416E+01 -0.10964254263E+02  0.11825397929E+02  0.18726405880E+02  0.00000000000E+00 0.  1.
         11    1    3    3    0    0 -0.36221279598E+01 -0.96909807377E+01  0.65545186426E+01  0.12247311277E+02  0.51100000000E-03 0.  1.
        -11    1    3    3    0    0  0.40349353761E+01  0.95968334232E+01 -0.35818308495E+02  0.37300551456E+02  0.51100000000E-03 0. -1.
         12    1    3    3    0    0 -0.99324381579E+01  0.11058401577E+02  0.17438391924E+02  0.22913731387E+02  0.00000000000E+00 0. -1.
</event>
<event>
 7    1  0.1788006E-013  0.7246158E+02  0.7816164E-02  0.1226708E+00
        -11   -1    0    0    0    0  0.00000000000E+00  0.00000000000E+00  0.45593999997E+02  0.45594000000E+02  0.51100000000E-03 0. -1.
         11   -1    0    0    0    0 -0.00000000000E+00 -0.00000000000E+00 -0.45593999997E+02  0.45594000000E+02  0.51100000000E-03 0.  1.
    9900012    2    1    2    0    0  0.17285011984E+02  0.72040395737E+01  0.95224381982E-01  0.72461577673E+02  0.70000009612E+02 0.  0.
        -12    1    1    2    0    0 -0.17285011984E+02 -0.72040395737E+01 -0.95224381982E-01  0.18726422327E+02  0.00000000000E+00 0.  1.
         11    1    3    3    0    0  0.53284774816E+00 -0.14491031293E+01  0.34210215893E+01  0.37532939636E+01  0.51100000000E-03 0. -1.
        -11    1    3    3    0    0  0.24006845441E+02  0.28999405076E+02  0.14857764624E+02  0.40472796946E+02  0.51100000000E-03 0.  1.
         12    1    3    3    0    0 -0.72546812047E+01 -0.20346262373E+02 -0.18183561831E+02  0.28235486764E+02  0.00000000000E+00 0. -1.
</event>
<event>
 7    1  0.1788006E-013  0.7246202E+02  0.7816164E-02  0.1226707E+00
        -11   -1    0    0    0    0  0.00000000000E+00  0.00000000000E+00  0.45593999997E+02  0.45594000000E+02  0.51100000000E-03 0.  1.
         11   -1    0    0    0    0 -0.00000000000E+00 -0.00000000000E+00 -0.45593999997E+02  0.45594000000E+02  0.51100000000E-03 0. -1.
    9900012    2    1    2    0    0  0.16021212460E+02 -0.55361300836E+01 -0.79582955848E+01  0.72462016618E+02  0.70000581417E+02 0.  0.
        -12    1    1    2    0    0 -0.16021212460E+02  0.55361300836E+01  0.79582955848E+01  0.18725983382E+02  0.00000000000E+00 0.  1.
         11    1    3    3    0    0  0.25058174424E+02 -0.23692610682E+02 -0.37528846820E+01  0.34689134468E+02  0.51100000000E-03 0. -1.
        -11    1    3    3    0    0  0.11694188803E+02  0.53440890336E+01  0.84155875594E+00  0.12884935420E+02  0.51100000000E-03 0.  1.
        -12    1    3    3    0    0 -0.20731150767E+02  0.12812391565E+02 -0.50469696588E+01  0.24887946731E+02  0.00000000000E+00 0.  1.
</event>
<event>
 7    1  0.1788006E-013  0.7246152E+02  0.7816164E-02  0.1226708E+00
        -11   -1    0    0    0    0  0.00000000000E+00  0.00000000000E+00  0.45593999997E+02  0.45594000000E+02  0.51100000000E-03 0.  1.
         11   -1    0    0    0    0 -0.00000000000E+00 -0.00000000000E+00 -0.45593999997E+02  0.45594000000E+02  0.51100000000E-03 0. -1.
    9900012    2    1    2    0    0 -0.46375959329E+01 -0.87510407741E+01 -0.15893171001E+02  0.72461524221E+02  0.69999939980E+02 0.  0.
        -12    1    1    2    0    0  0.46375959329E+01  0.87510407741E+01  0.15893171001E+02  0.18726475779E+02  0.00000000000E+00 0.  1.
         11    1    3    3    0    0  0.27904082713E+02 -0.11003214104E+02 -0.52914556318E+01  0.30458300274E+02  0.51100000000E-03 0. -1.
        -11    1    3    3    0    0 -0.93225006923E+01 -0.56370074756E+01  0.59539235612E+01  0.12415074646E+02  0.51100000000E-03 0.  1.
         12    1    3    3    0    0 -0.23219177953E+02  0.78891808055E+01 -0.16555638930E+02  0.29588149300E+02  0.00000000000E+00 0. -1.
</event>
<event>
 7    1  0.1788006E-013  0.7246163E+02  0.7816164E-02  0.1226708E+00
        -11   -1    0    0    0    0  0.00000000000E+00  0.00000000000E+00  0.45593999997E+02  0.45594000000E+02  0.51100000000E-03 0. -1.
         11   -1    0    0    0    0 -0.00000000000E+00 -0.00000000000E+00 -0.45593999997E+02  0.45594000000E+02  0.51100000000E-03 0.  1.
    9900012    2    1    2    0    0  0.10833010312E+02  0.60191667503E+01  0.14038960968E+02  0.72461630735E+02  0.70000078735E+02 0.  0.
        -12    1    1    2    0    0 -0.10833010312E+02 -0.60191667503E+01 -0.14038960968E+02  0.18726369265E+02  0.00000000000E+00 0.  1.
         11    1    3    3    0    0  0.88394254472E+01  0.17787123658E+02  0.29449928835E+00  0.19864640454E+02  0.51100000000E-03 0. -1.
        -11    1    3    3    0    0 -0.53978922040E+01  0.18345062497E+02  0.93300977898E+01  0.21277436014E+02  0.51100000000E-03 0.  1.
        -12    1    3    3    0    0  0.73914770690E+01 -0.30113019405E+02  0.44143638895E+01  0.31319554268E+02  0.00000000000E+00 0.  1.
</event>
<event>
 7    1  0.1788006E-013  0.7246155E+02  0.7816164E-02  0.1226708E+00
        -11   -1    0    0    0    0  0.00000000000E+00  0.00000000000E+00  0.45593999997E+02  0.45594000000E+02  0.51100000000E-03 0.  1.
         11   -1    0    0    0    0 -0.00000000000E+00 -0.00000000000E+00 -0.45593999997E+02  0.45594000000E+02  0.51100000000E-03 0. -1.
    9900012    2    1    2    0    0 -0.14994240470E+02 -0.31046780423E+01 -0.10780239886E+02  0.72461552258E+02  0.69999976505E+02 0.  0.
        -12    1    1    2    0    0  0.14994240470E+02  0.31046780423E+01  0.10780239886E+02  0.18726447742E+02  0.00000000000E+00 0.  1.
         11    1    3    3    0    0 -0.45345408727E+01  0.12385285573E+01  0.15235634701E+01  0.49413823797E+01  0.51100000000E-03 0. -1.
        -11    1    3    3    0    0 -0.23611141815E+01  0.50461472640E+00  0.26995519984E+02  0.27103276475E+02  0.51100000000E-03 0.  1.
         12    1    3    3    0    0 -0.80985854158E+01 -0.48478213260E+01 -0.39299323341E+02  0.40416893403E+02  0.00000000000E+00 0. -1.
</event>
<event>
 7    1  0.1788006E-013  0.7246151E+02  0.7816164E-02  0.1226708E+00
        -11   -1    0    0    0    0  0.00000000000E+00  0.00000000000E+00  0.45593999997E+02  0.45594000000E+02  0.51100000000E-03 0.  1.
         11   -1    0    0    0    0 -0.00000000000E+00 -0.00000000000E+00 -0.45593999997E+02  0.45594000000E+02  0.51100000000E-03 0. -1.
    9900012    2    1    2    0    0  0.34499858188E+01 -0.90454769234E+01 -0.16029927004E+02  0.72461505008E+02  0.69999914953E+02 0.  0.
        -12    1    1    2    0    0 -0.34499858188E+01  0.90454769234E+01  0.16029927004E+02  0.18726494992E+02  0.00000000000E+00 0.  1.
         11    1    3    3    0    0  0.38322123349E+01 -0.63253879775E+01 -0.18225814801E+02  0.19669181728E+02  0.51100000000E-03 0. -1.
        -11    1    3    3    0    0 -0.88877246333E+01  0.52822324411E+01 -0.22892592960E+02  0.25119005581E+02  0.51100000000E-03 0.  1.
        -12    1    3    3    0    0  0.85054981173E+01 -0.80023213870E+01  0.25088480756E+02  0.27673317699E+02  0.00000000000E+00 0.  1.
</event>
<event>
 7    1  0.1788006E-013  0.7246168E+02  0.7816164E-02  0.1226708E+00
        -11   -1    0    0    0    0  0.00000000000E+00  0.00000000000E+00  0.45593999997E+02  0.45594000000E+02  0.51100000000E-03 0. -1.
         11   -1    0    0    0    0 -0.00000000000E+00 -0.00000000000E+00 -0.45593999997E+02  0.45594000000E+02  0.51100000000E-03 0.  1.
    9900012    2    1    2    0    0  0.16760255760E+02  0.64523255933E+01 -0.53043730773E+01  0.72461680221E+02  0.70000143200E+02 0.  0.
        -12    1    1    2    0    0 -0.16760255760E+02 -0.64523255933E+01  0.53043730773E+01  0.18726319779E+02  0.00000000000E+00 0.  1.
         11    1    3    3    0    0  0.55519356151E+01 -0.74846143152E+01 -0.18408105036E+02  0.20632541573E+02  0.51100000000E-03 0. -1.
        -11    1    3    3    0    0  0.22562181989E+02  0.57898400322E+01 -0.95800409326E+01  0.25186335347E+02  0.51100000000E-03 0.  1.
         12    1    3    3    0    0 -0.11353861843E+02  0.81470998763E+01  0.22683772891E+02  0.26642803301E+02  0.00000000000E+00 0. -1.
</event>
<event>
 7    1  0.1788006E-013  0.7246153E+02  0.7816164E-02  0.1226708E+00
        -11   -1    0    0    0    0  0.00000000000E+00  0.00000000000E+00  0.45593999997E+02  0.45594000000E+02  0.51100000000E-03 0. -1.
         11   -1    0    0    0    0 -0.00000000000E+00 -0.00000000000E+00 -0.45593999997E+02  0.45594000000E+02  0.51100000000E-03 0.  1.
    9900012    2    1    2    0    0 -0.47645755568E+01  0.12374844534E+02  0.13222810121E+02  0.72461530366E+02  0.69999947986E+02 0.  0.
        -12    1    1    2    0    0  0.47645755568E+01 -0.12374844534E+02 -0.13222810121E+02  0.18726469634E+02  0.00000000000E+00 0.  1.
         11    1    3    3    0    0  0.49617898137E+00  0.12744972256E+01  0.99124325351E+00  0.16891122545E+01  0.51100000000E-03 0. -1.
        -11    1    3    3    0    0  0.29325358110E+02  0.73776588987E+01  0.18466939365E+02  0.35432108728E+02  0.51100000000E-03 0.  1.
         12    1    3    3    0    0 -0.34586112648E+02  0.37226884097E+01 -0.62353724982E+01  0.35340309383E+02  0.00000000000E+00 0. -1.
</event>
<event>
 7    1  0.1788006E-013  0.7246155E+02  0.7816164E-02  0.1226708E+00
        -11   -1    0    0    0    0  0.00000000000E+00  0.00000000000E+00  0.45593999997E+02  0.45594000000E+02  0.51100000000E-03 0. -1.
         11   -1    0    0    0    0 -0.00000000000E+00 -0.00000000000E+00 -0.45593999997E+02  0.45594000000E+02  0.51100000000E-03 0.  1.
    9900012    2    1    2    0    0  0.92087611517E+01  0.43829387187E+01  0.15705686750E+02  0.72461547318E+02  0.69999970069E+02 0.  0.
        -12    1    1    2    0    0 -0.92087611517E+01 -0.43829387187E+01 -0.15705686750E+02  0.18726452682E+02  0.00000000000E+00 0.  1.
         11    1    3    3    0    0  0.54929943760E+01 -0.65731962222E+01  0.29990940732E+02  0.31190325777E+02  0.51100000000E-03 0. -1.
        -11    1    3    3    0    0 -0.43121236542E+01 -0.44047910002E+01  0.98123660088E+01  0.11587886827E+02  0.51100000000E-03 0.  1.
        -12    1    3    3    0    0  0.80278904298E+01  0.15360925941E+02 -0.24097619991E+02  0.29683334714E+02  0.00000000000E+00 0.  1.
</event>
<event>
 7    1  0.1788006E-013  0.7246154E+02  0.7816164E-02  0.1226708E+00
        -11   -1    0    0    0    0  0.00000000000E+00  0.00000000000E+00  0.45593999997E+02  0.45594000000E+02  0.51100000000E-03 0.  1.
         11   -1    0    0    0    0 -0.00000000000E+00 -0.00000000000E+00 -0.45593999997E+02  0.45594000000E+02  0.51100000000E-03 0. -1.
    9900012    2    1    2    0    0 -0.43877224376E+01 -0.13624128695E+02 -0.12075237775E+02  0.72461538556E+02  0.69999958655E+02 0.  0.
        -12    1    1    2    0    0  0.43877224376E+01  0.13624128695E+02  0.12075237775E+02  0.18726461444E+02  0.00000000000E+00 0.  1.
         11    1    3    3    0    0  0.65047907945E+01  0.44563457816E+01 -0.35492641888E+02  0.36357928289E+02  0.51100000000E-03 0. -1.
        -11    1    3    3    0    0 -0.42927409803E+00 -0.10097271383E+02  0.10622496902E+01  0.10162063781E+02  0.51100000000E-03 0.  1.
        -12    1    3    3    0    0 -0.10463239134E+02 -0.79832030939E+01  0.22355154423E+02  0.25941546486E+02  0.00000000000E+00 0.  1.
</event>
<event>
 7    1  0.1788006E-013  0.7246159E+02  0.7816164E-02  0.1226708E+00
        -11   -1    0    0    0    0  0.00000000000E+00  0.00000000000E+00  0.45593999997E+02  0.45594000000E+02  0.51100000000E-03 0.  1.
         11   -1    0    0    0    0 -0.00000000000E+00 -0.00000000000E+00 -0.45593999997E+02  0.45594000000E+02  0.51100000000E-03 0. -1.
    9900012    2    1    2    0    0  0.16514546459E+02  0.64952408625E+01 -0.59799683630E+01  0.72461590301E+02  0.70000026062E+02 0.  0.
        -12    1    1    2    0    0 -0.16514546459E+02 -0.64952408625E+01  0.59799683630E+01  0.18726409699E+02  0.00000000000E+00 0.  1.
         11    1    3    3    0    0  0.18468676159E+02 -0.15709907428E+02 -0.10317928133E+02  0.26350575548E+02  0.51100000000E-03 0. -1.
        -11    1    3    3    0    0 -0.75887188066E+01 -0.10270744378E+02 -0.58905778197E+00  0.12783733122E+02  0.51100000000E-03 0.  1.
        -12    1    3    3    0    0  0.56345891061E+01  0.32475892668E+02  0.49270175522E+01  0.33327281632E+02  0.00000000000E+00 0.  1.
</event>
<event>
 7    1  0.1788006E-013  0.7246161E+02  0.7816164E-02  0.1226708E+00
        -11   -1    0    0    0    0  0.00000000000E+00  0.00000000000E+00  0.45593999997E+02  0.45594000000E+02  0.51100000000E-03 0.  1.
         11   -1    0    0    0    0 -0.00000000000E+00 -0.00000000000E+00 -0.45593999997E+02  0.45594000000E+02  0.51100000000E-03 0. -1.
    9900012    2    1    2    0    0  0.16576351722E+02 -0.72214030923E+01 -0.48737678719E+01  0.72461609203E+02  0.70000050686E+02 0.  0.
        -12    1    1    2    0    0 -0.16576351722E+02  0.72214030923E+01  0.48737678719E+01  0.18726390797E+02  0.00000000000E+00 0.  1.
         11    1    3    3    0    0  0.97363830222E+01 -0.10616344640E+02 -0.76544946019E+01  0.16312425195E+02  0.51100000000E-03 0. -1.
        -11    1    3    3    0    0  0.17977145737E+02 -0.20932282101E+02 -0.55132033439E+01  0.28137761357E+02  0.51100000000E-03 0.  1.
        -12    1    3    3    0    0 -0.11137177037E+02  0.24327223649E+02  0.82939300740E+01  0.28011422651E+02  0.00000000000E+00 0.  1.
</event>
<event>
 7    1  0.1788006E-013  0.7246150E+02  0.7816164E-02  0.1226708E+00
        -11   -1    0    0    0    0  0.00000000000E+00  0.00000000000E+00  0.45593999997E+02  0.45594000000E+02  0.51100000000E-03 0. -1.
         11   -1    0    0    0    0 -0.00000000000E+00 -0.00000000000E+00 -0.45593999997E+02  0.45594000000E+02  0.51100000000E-03 0.  1.
    9900012    2    1    2    0    0  0.17603466409E+02  0.60844150919E+01  0.19441726808E+01  0.72461496215E+02  0.69999903497E+02 0.  0.
        -12    1    1    2    0    0 -0.17603466409E+02 -0.60844150919E+01 -0.19441726808E+01  0.18726503785E+02  0.00000000000E+00 0.  1.
         11    1    3    3    0    0  0.28736074527E+02 -0.10623351590E+02  0.11512106050E+02  0.32728369410E+02  0.51100000000E-03 0. -1.
        -11    1    3    3    0    0  0.60983415673E+01  0.11269469520E+02  0.75254853993E+01  0.14860136066E+02  0.51100000000E-03 0.  1.
        -12    1    3    3    0    0 -0.17230949686E+02  0.54382971624E+01 -0.17093418769E+02  0.24872990739E+02  0.00000000000E+00 0.  1.
</event>
<event>
 7    1  0.1788006E-013  0.7246189E+02  0.7816164E-02  0.1226707E+00
        -11   -1    0    0    0    0  0.00000000000E+00  0.00000000000E+00  0.45593999997E+02  0.45594000000E+02  0.51100000000E-03 0. -1.
         11   -1    0    0    0    0 -0.00000000000E+00 -0.00000000000E+00 -0.45593999997E+02  0.45594000000E+02  0.51100000000E-03 0.  1.
    9900012    2    1    2    0    0  0.35811030658E+01 -0.15785990648E+02  0.94151744715E+01  0.72461886943E+02  0.70000412492E+02 0.  0.
        -12    1    1    2    0    0 -0.35811030658E+01  0.15785990648E+02 -0.94151744715E+01  0.18726113057E+02  0.00000000000E+00 0.  1.
         11    1    3    3    0    0  0.44593651498E+01 -0.45681703501E+01  0.20507038948E+01  0.67051849051E+01  0.51100000000E-03 0. -1.
        -11    1    3    3    0    0 -0.42754447522E+01 -0.77747417310E+01  0.35815121643E+02  0.36897818030E+02  0.51100000000E-03 0.  1.
        -12    1    3    3    0    0  0.33971826681E+01 -0.34430785671E+01 -0.28450651066E+02  0.28858884008E+02  0.00000000000E+00 0.  1.
</event>
<event>
 7    1  0.1788006E-013  0.7246154E+02  0.7816164E-02  0.1226708E+00
        -11   -1    0    0    0    0  0.00000000000E+00  0.00000000000E+00  0.45593999997E+02  0.45594000000E+02  0.51100000000E-03 0.  1.
         11   -1    0    0    0    0 -0.00000000000E+00 -0.00000000000E+00 -0.45593999997E+02  0.45594000000E+02  0.51100000000E-03 0. -1.
    9900012    2    1    2    0    0 -0.14336902883E+02 -0.60313835908E+01  0.10428616413E+02  0.72461537104E+02  0.69999956763E+02 0.  0.
        -12    1    1    2    0    0  0.14336902883E+02  0.60313835908E+01 -0.10428616413E+02  0.18726462896E+02  0.00000000000E+00 0.  1.
         11    1    3    3    0    0  0.52128176951E+01 -0.67427783710E+01 -0.23474387321E+02  0.24973693937E+02  0.51100000000E-03 0. -1.
        -11    1    3    3    0    0  0.13816998748E+01  0.99765694794E+01  0.75881661615E+01  0.12610364748E+02  0.51100000000E-03 0.  1.
        -12    1    3    3    0    0 -0.20931420453E+02 -0.92651746993E+01  0.26314837573E+02  0.34877478419E+02  0.00000000000E+00 0.  1.
</event>
<event>
 7    1  0.1788006E-013  0.7246156E+02  0.7816164E-02  0.1226708E+00
        -11   -1    0    0    0    0  0.00000000000E+00  0.00000000000E+00  0.45593999997E+02  0.45594000000E+02  0.51100000000E-03 0. -1.
         11   -1    0    0    0    0 -0.00000000000E+00 -0.00000000000E+00 -0.45593999997E+02  0.45594000000E+02  0.51100000000E-03 0.  1.
    9900012    2    1    2    0    0 -0.12877631012E+02 -0.30377513613E+01  0.13252106884E+02  0.72461557448E+02  0.69999983265E+02 0.  0.
        -12    1    1    2    0    0  0.12877631012E+02  0.30377513613E+01 -0.13252106884E+02  0.18726442552E+02  0.00000000000E+00 0.  1.
         11    1    3    3    0    0 -0.25090488248E+02 -0.46180398293E+01  0.23568489841E+02  0.34732299176E+02  0.51100000000E-03 0. -1.
        -11    1    3    3    0    0  0.99598226521E+00 -0.11958596156E+02  0.62866476683E+01  0.13547027048E+02  0.51100000000E-03 0.  1.
        -12    1    3    3    0    0  0.11216874971E+02  0.13538884624E+02 -0.16603030626E+02  0.24182231223E+02  0.00000000000E+00 0.  1.
</event>
<event>
 7    1  0.1788006E-013  0.7246157E+02  0.7816164E-02  0.1226708E+00
        -11   -1    0    0    0    0  0.00000000000E+00  0.00000000000E+00  0.45593999997E+02  0.45594000000E+02  0.51100000000E-03 0.  1.
         11   -1    0    0    0    0 -0.00000000000E+00 -0.00000000000E+00 -0.45593999997E+02  0.45594000000E+02  0.51100000000E-03 0. -1.
    9900012    2    1    2    0    0 -0.14366078236E+01 -0.11287556402E+02 -0.14873012158E+02  0.72461567819E+02  0.69999996776E+02 0.  0.
        -12    1    1    2    0    0  0.14366078236E+01  0.11287556402E+02  0.14873012158E+02  0.18726432181E+02  0.00000000000E+00 0.  1.
         11    1    3    3    0    0  0.82093550320E+01 -0.34865556093E+01 -0.27780653180E+02  0.29177290337E+02  0.51100000000E-03 0. -1.
        -11    1    3    3    0    0 -0.10946443020E+02  0.93210260804E+01 -0.78212325846E+01  0.16366973495E+02  0.51100000000E-03 0.  1.
        -12    1    3    3    0    0  0.13004801643E+01 -0.17122026874E+02  0.20728873607E+02  0.26917303987E+02  0.00000000000E+00 0.  1.
</event>
<event>
 7    1  0.1788006E-013  0.7246161E+02  0.7816164E-02  0.1226708E+00
        -11   -1    0    0    0    0  0.00000000000E+00  0.00000000000E+00  0.45593999997E+02  0.45594000000E+02  0.51100000000E-03 0. -1.
         11   -1    0    0    0    0 -0.00000000000E+00 -0.00000000000E+00 -0.45593999997E+02  0.45594000000E+02  0.51100000000E-03 0.  1.
    9900012    2    1    2    0    0  0.14685798862E+02 -0.10229544259E+02  0.55101239262E+01  0.72461608740E+02  0.70000050082E+02 0.  0.
        -12    1    1    2    0    0 -0.14685798862E+02  0.10229544259E+02 -0.55101239262E+01  0.18726391260E+02  0.00000000000E+00 0.  1.
         11    1    3    3    0    0 -0.11239543363E+02  0.51912254510E+01  0.16189524298E+02  0.20380796205E+02  0.51100000000E-03 0. -1.
        -11    1    3    3    0    0  0.27023750592E+02 -0.14381167917E+02  0.93393069914E+01  0.32005058070E+02  0.51100000000E-03 0.  1.
         12    1    3    3    0    0 -0.10984083671E+01 -0.10396017928E+01 -0.20018707363E+02  0.20075754464E+02  0.00000000000E+00 0. -1.
</event>
<event>
 7    1  0.1788006E-013  0.7246159E+02  0.7816164E-02  0.1226708E+00
        -11   -1    0    0    0    0  0.00000000000E+00  0.00000000000E+00  0.45593999997E+02  0.45594000000E+02  0.51100000000E-03 0.  1.
         11   -1    0    0    0    0 -0.00000000000E+00 -0.00000000000E+00 -0.45593999997E+02  0.45594000000E+02  0.51100000000E-03 0. -1.
    9900012    2    1    2    0    0  0.68884797618E+01 -0.81210912645E+01 -0.15403741526E+02  0.72461587376E+02  0.70000022252E+02 0.  0.
        -12    1    1    2    0    0 -0.68884797618E+01  0.81210912645E+01  0.15403741526E+02  0.18726412624E+02  0.00000000000E+00 0.  1.
         11    1    3    3    0    0 -0.31674259011E+01 -0.11849087059E+02  0.16722290749E+02  0.20738091984E+02  0.51100000000E-03 0. -1.
        -11    1    3    3    0    0 -0.11335498883E+02  0.20971097248E+01  0.17154890421E+01  0.11654797598E+02  0.51100000000E-03 0.  1.
         12    1    3    3    0    0  0.21391404546E+02  0.16308860701E+01 -0.33841521317E+02  0.40068697794E+02  0.00000000000E+00 0. -1.
</event>
<event>
 7    1  0.1788006E-013  0.7246159E+02  0.7816164E-02  0.1226708E+00
        -11   -1    0    0    0    0  0.00000000000E+00  0.00000000000E+00  0.45593999997E+02  0.45594000000E+02  0.51100000000E-03 0.  1.
         11   -1    0    0    0    0 -0.00000000000E+00 -0.00000000000E+00 -0.45593999997E+02  0.45594000000E+02  0.51100000000E-03 0. -1.
    9900012    2    1    2    0    0 -0.11488195790E+02 -0.16394018082E+01 -0.14697351336E+02  0.72461590384E+02  0.70000026171E+02 0.  0.
        -12    1    1    2    0    0  0.11488195790E+02  0.16394018082E+01  0.14697351336E+02  0.18726409616E+02  0.00000000000E+00 0.  1.
         11    1    3    3    0    0  0.15495294497E+02  0.11538036731E+02  0.17601051036E+00  0.19319974719E+02  0.51100000000E-03 0. -1.
        -11    1    3    3    0    0 -0.22962649257E+02  0.85341621549E+01 -0.18587326841E+02  0.30750673227E+02  0.51100000000E-03 0.  1.
        -12    1    3    3    0    0 -0.40208410295E+01 -0.21711600694E+02  0.37139649939E+01  0.22390942438E+02  0.00000000000E+00 0.  1.
</event>
<event>
 7    1  0.1788006E-013  0.7246157E+02  0.7816164E-02  0.1226708E+00
        -11   -1    0    0    0    0  0.00000000000E+00  0.00000000000E+00  0.45593999997E+02  0.45594000000E+02  0.51100000000E-03 0.  1.
         11   -1    0    0    0    0 -0.00000000000E+00 -0.00000000000E+00 -0.45593999997E+02  0.45594000000E+02  0.51100000000E-03 0. -1.
    9900012    2    1    2    0    0 -0.83634579716E+01 -0.16346217555E+02  0.36787066778E+01  0.72461571071E+02  0.70000001012E+02 0.  0.
        -12    1    1    2    0    0  0.83634579716E+01  0.16346217555E+02 -0.36787066778E+01  0.18726428929E+02  0.00000000000E+00 0.  1.
         11    1    3    3    0    0 -0.19150079400E+02  0.70441440959E+01 -0.85586944559E+01  0.22126833441E+02  0.51100000000E-03 0. -1.
        -11    1    3    3    0    0 -0.36394900180E+01  0.10956780347E+02  0.22090543885E+01  0.11754864726E+02  0.51100000000E-03 0.  1.
        -12    1    3    3    0    0  0.14426111447E+02 -0.34347141998E+02  0.10028346745E+02  0.38579872905E+02  0.00000000000E+00 0.  1.
</event>
<event>
 7    1  0.1788006E-013  0.7246159E+02  0.7816164E-02  0.1226708E+00
        -11   -1    0    0    0    0  0.00000000000E+00  0.00000000000E+00  0.45593999997E+02  0.45594000000E+02  0.51100000000E-03 0.  1.
         11   -1    0    0    0    0 -0.00000000000E+00 -0.00000000000E+00 -0.45593999997E+02  0.45594000000E+02  0.51100000000E-03 0. -1.
    9900012    2    1    2    0    0 -0.88667201166E+01  0.81567971088E+01 -0.14336185328E+02  0.72461594192E+02  0.70000031132E+02 0.  0.
        -12    1    1    2    0    0  0.88667201166E+01 -0.81567971088E+01  0.14336185328E+02  0.18726405808E+02  0.00000000000E+00 0.  1.
         11    1    3    3    0    0  0.49530807129E+01  0.71242791068E+01  0.73723399215E+01  0.11385945614E+02  0.51100000000E-03 0. -1.
        -11    1    3    3    0    0 -0.28945207600E+01  0.62346026667E+01  0.18156763435E+02  0.19414339534E+02  0.51100000000E-03 0.  1.
         12    1    3    3    0    0 -0.10925280070E+02 -0.52020846647E+01 -0.39865288684E+02  0.41661309045E+02  0.00000000000E+00 0. -1.
</event>
<event>
 7    1  0.1788006E-013  0.7246159E+02  0.7816164E-02  0.1226708E+00
        -11   -1    0    0    0    0  0.00000000000E+00  0.00000000000E+00  0.45593999997E+02  0.45594000000E+02  0.51100000000E-03 0. -1.
         11   -1    0    0    0    0 -0.00000000000E+00 -0.00000000000E+00 -0.45593999997E+02  0.45594000000E+02  0.51100000000E-03 0.  1.
    9900012    2    1    2    0    0  0.17795577066E+02 -0.52842132251E+01 -0.24643354160E+01  0.72461590265E+02  0.70000026015E+02 0.  0.
        -12    1    1    2    0    0 -0.17795577066E+02  0.52842132251E+01  0.24643354160E+01  0.18726409735E+02  0.00000000000E+00 0.  1.
         11    1    3    3    0    0  0.31326139974E+01  0.19847526324E+02  0.43488385533E+01  0.20558452488E+02  0.51100000000E-03 0. -1.
        -11    1    3    3    0    0 -0.94883931681E+01  0.45612905919E+01 -0.85892058107E+01  0.13587105413E+02  0.51100000000E-03 0.  1.
         12    1    3    3    0    0  0.24151356237E+02 -0.29693030141E+02  0.17760318414E+01  0.38316032365E+02  0.00000000000E+00 0. -1.
</event>
<event>
 7    1  0.1788006E-013  0.7246159E+02  0.7816164E-02  0.1226708E+00
        -11   -1    0    0    0    0  0.00000000000E+00  0.00000000000E+00  0.45593999997E+02  0.45594000000E+02  0.51100000000E-03 0. -1.
         11   -1    0    0    0    0 -0.00000000000E+00 -0.00000000000E+00 -0.45593999997E+02  0.45594000000E+02  0.51100000000E-03 0.  1.
    9900012    2    1    2    0    0  0.82822204117E+01  0.82749129572E+01  0.14615372721E+02  0.72461588727E+02  0.70000024012E+02 0.  0.
        -12    1    1    2    0    0 -0.82822204117E+01 -0.82749129572E+01 -0.14615372721E+02  0.18726411273E+02  0.00000000000E+00 0.  1.
         11    1    3    3    0    0  0.27818249148E+02  0.25833879723E+01  0.10386791921E+02  0.29806279972E+02  0.51100000000E-03 0. -1.
        -11    1    3    3    0    0  0.10569451307E+02  0.29646866378E+01  0.57425742988E+01  0.12388697576E+02  0.51100000000E-03 0.  1.
        -12    1    3    3    0    0 -0.30105480043E+02  0.27268383471E+01 -0.15139934988E+01  0.30266611180E+02  0.00000000000E+00 0.  1.
</event>
<event>
 7    1  0.1788006E-013  0.7246154E+02  0.7816164E-02  0.1226708E+00
        -11   -1    0    0    0    0  0.00000000000E+00  0.00000000000E+00  0.45593999997E+02  0.45594000000E+02  0.51100000000E-03 0.  1.
         11   -1    0    0    0    0 -0.00000000000E+00 -0.00000000000E+00 -0.45593999997E+02  0.45594000000E+02  0.51100000000E-03 0. -1.
    9900012    2    1    2    0    0  0.29448609617E+01 -0.11339489552E+02 -0.14609042843E+02  0.72461538450E+02  0.69999958517E+02 0.  0.
        -12    1    1    2    0    0 -0.29448609617E+01  0.11339489552E+02  0.14609042843E+02  0.18726461550E+02  0.00000000000E+00 0.  1.
         11    1    3    3    0    0  0.79486287259E+00  0.64021092930E+01 -0.25871891982E+02  0.26664088310E+02  0.51100000000E-03 0. -1.
        -11    1    3    3    0    0  0.18612695290E+02 -0.13497761273E+02 -0.35306630071E+01  0.23261289020E+02  0.51100000000E-03 0.  1.
         12    1    3    3    0    0 -0.16462697200E+02 -0.42438375714E+01  0.14793512146E+02  0.22536161121E+02  0.00000000000E+00 0. -1.
</event>
<event>
 7    1  0.1788006E-013  0.7246159E+02  0.7816164E-02  0.1226708E+00
        -11   -1    0    0    0    0  0.00000000000E+00  0.00000000000E+00  0.45593999997E+02  0.45594000000E+02  0.51100000000E-03 0. -1.
         11   -1    0    0    0    0 -0.00000000000E+00 -0.00000000000E+00 -0.45593999997E+02  0.45594000000E+02  0.51100000000E-03 0.  1.
    9900012    2    1    2    0    0 -0.91688651388E+01  0.15983753523E+02 -0.33361387222E+01  0.72461593880E+02  0.70000030724E+02 0.  0.
        -12    1    1    2    0    0  0.91688651388E+01 -0.15983753523E+02  0.33361387222E+01  0.18726406120E+02  0.00000000000E+00 0.  1.
         11    1    3    3    0    0  0.52837390477E+01  0.23092076658E+02  0.57721260344E+01  0.24381947049E+02  0.51100000000E-03 0.  1.
        -11    1    3    3    0    0  0.30976270601E+01 -0.18467464154E+02  0.86715409600E+01  0.20635846204E+02  0.51100000000E-03 0. -1.
        -12    1    3    3    0    0 -0.17550231247E+02  0.11359141019E+02 -0.17779805717E+02  0.27443800626E+02  0.00000000000E+00 0.  1.
</event>
<event>
 7    1  0.1788006E-013  0.7246159E+02  0.7816164E-02  0.1226708E+00
        -11   -1    0    0    0    0  0.00000000000E+00  0.00000000000E+00  0.45593999997E+02  0.45594000000E+02  0.51100000000E-03 0. -1.
         11   -1    0    0    0    0 -0.00000000000E+00 -0.00000000000E+00 -0.45593999997E+02  0.45594000000E+02  0.51100000000E-03 0.  1.
    9900012    2    1    2    0    0 -0.93562147399E+01  0.39207866219E+00  0.16216846138E+02  0.72461586072E+02  0.70000020553E+02 0.  0.
        -12    1    1    2    0    0  0.93562147399E+01 -0.39207866219E+00 -0.16216846138E+02  0.18726413928E+02  0.00000000000E+00 0.  1.
         11    1    3    3    0    0  0.63707957387E+01  0.60140703926E+01  0.17850114086E+01  0.89410484297E+01  0.51100000000E-03 0. -1.
        -11    1    3    3    0    0  0.51489660950E+01  0.11262608002E+02 -0.17728645583E+02  0.21625518845E+02  0.51100000000E-03 0.  1.
         12    1    3    3    0    0 -0.20875976574E+02 -0.16884599733E+02  0.32160480313E+02  0.41895018797E+02  0.00000000000E+00 0. -1.
</event>
<event>
 7    1  0.1788006E-013  0.7246125E+02  0.7816164E-02  0.1226709E+00
        -11   -1    0    0    0    0  0.00000000000E+00  0.00000000000E+00  0.45593999997E+02  0.45594000000E+02  0.51100000000E-03 0. -1.
         11   -1    0    0    0    0 -0.00000000000E+00 -0.00000000000E+00 -0.45593999997E+02  0.45594000000E+02  0.51100000000E-03 0.  1.
    9900012    2    1    2    0    0 -0.13366126877E+02  0.10730928037E+02 -0.75422212545E+01  0.72461247327E+02  0.69999579274E+02 0.  0.
        -12    1    1    2    0    0  0.13366126877E+02 -0.10730928037E+02  0.75422212545E+01  0.18726752673E+02  0.00000000000E+00 0.  1.
         11    1    3    3    0    0 -0.52417069750E+01  0.67359958918E+01  0.26770649899E+02  0.28098342103E+02  0.51100000000E-03 0. -1.
        -11    1    3    3    0    0  0.46459693453E+01 -0.71839638912E+01 -0.36192391197E+01  0.92894165809E+01  0.51100000000E-03 0.  1.
        -12    1    3    3    0    0 -0.12770389248E+02  0.11178896036E+02 -0.30693632034E+02  0.35073488643E+02  0.00000000000E+00 0.  1.
</event>
<event>
 7    1  0.1788006E-013  0.7246145E+02  0.7816164E-02  0.1226708E+00
        -11   -1    0    0    0    0  0.00000000000E+00  0.00000000000E+00  0.45593999997E+02  0.45594000000E+02  0.51100000000E-03 0.  1.
         11   -1    0    0    0    0 -0.00000000000E+00 -0.00000000000E+00 -0.45593999997E+02  0.45594000000E+02  0.51100000000E-03 0. -1.
    9900012    2    1    2    0    0 -0.14057617891E+01  0.71670032141E+01 -0.17243599011E+02  0.72461446442E+02  0.69999838660E+02 0.  0.
        -12    1    1    2    0    0  0.14057617891E+01 -0.71670032141E+01  0.17243599011E+02  0.18726553558E+02  0.00000000000E+00 0.  1.
         11    1    3    3    0    0 -0.14919562913E+02  0.22834938461E+02 -0.32062349656E+02  0.42095392120E+02  0.51100000000E-03 0. -1.
        -11    1    3    3    0    0  0.76768825476E+01  0.19698319214E+01  0.43317583667E+01  0.90321035345E+01  0.51100000000E-03 0.  1.
        -12    1    3    3    0    0  0.58369185766E+01 -0.17637767169E+02  0.10486992278E+02  0.21333950787E+02  0.00000000000E+00 0.  1.
</event>
<event>
 7    1  0.1788006E-013  0.7246153E+02  0.7816164E-02  0.1226708E+00
        -11   -1    0    0    0    0  0.00000000000E+00  0.00000000000E+00  0.45593999997E+02  0.45594000000E+02  0.51100000000E-03 0.  1.
         11   -1    0    0    0    0 -0.00000000000E+00 -0.00000000000E+00 -0.45593999997E+02  0.45594000000E+02  0.51100000000E-03 0. -1.
    9900012    2    1    2    0    0 -0.11719556933E+02 -0.14573666215E+02  0.97003818971E+00  0.72461528476E+02  0.69999945524E+02 0.  0.
        -12    1    1    2    0    0  0.11719556933E+02  0.14573666215E+02 -0.97003818971E+00  0.18726471524E+02  0.00000000000E+00 0.  1.
         11    1    3    3    0    0  0.12169301068E+01 -0.41913995789E+01  0.34939154925E+01  0.55907240179E+01  0.51100000000E-03 0. -1.
        -11    1    3    3    0    0  0.21654977467E+02 -0.89902451063E+00  0.15580659427E+02  0.26692756370E+02  0.51100000000E-03 0.  1.
         12    1    3    3    0    0 -0.34591464507E+02 -0.94832421253E+01 -0.18104536730E+02  0.40178048088E+02  0.00000000000E+00 0. -1.
</event>
<event>
 7    1  0.1788006E-013  0.7246122E+02  0.7816164E-02  0.1226709E+00
        -11   -1    0    0    0    0  0.00000000000E+00  0.00000000000E+00  0.45593999997E+02  0.45594000000E+02  0.51100000000E-03 0.  1.
         11   -1    0    0    0    0 -0.00000000000E+00 -0.00000000000E+00 -0.45593999997E+02  0.45594000000E+02  0.51100000000E-03 0. -1.
    9900012    2    1    2    0    0 -0.16277635764E+02  0.86282451985E+01 -0.33591855705E+01  0.72461223209E+02  0.69999547856E+02 0.  0.
        -12    1    1    2    0    0  0.16277635764E+02 -0.86282451985E+01  0.33591855705E+01  0.18726776791E+02  0.00000000000E+00 0.  1.
         11    1    3    3    0    0 -0.97951748370E+01  0.13692757048E+02  0.13382989565E+02  0.21506776970E+02  0.51100000000E-03 0. -1.
        -11    1    3    3    0    0 -0.29304201479E+01 -0.52087348476E+01  0.16486404630E+02  0.17536243008E+02  0.51100000000E-03 0.  1.
         12    1    3    3    0    0 -0.35520407790E+01  0.14422299777E+00 -0.33228579766E+02  0.33418203231E+02  0.00000000000E+00 0. -1.
</event>
<event>
 7    1  0.1788006E-013  0.7246146E+02  0.7816164E-02  0.1226708E+00
        -11   -1    0    0    0    0  0.00000000000E+00  0.00000000000E+00  0.45593999997E+02  0.45594000000E+02  0.51100000000E-03 0. -1.
         11   -1    0    0    0    0 -0.00000000000E+00 -0.00000000000E+00 -0.45593999997E+02  0.45594000000E+02  0.51100000000E-03 0.  1.
    9900012    2    1    2    0    0  0.35452694951E+01  0.17582910625E+02  0.53810566159E+01  0.72461455948E+02  0.69999851042E+02 0.  0.
        -12    1    1    2    0    0 -0.35452694951E+01 -0.17582910625E+02 -0.53810566159E+01  0.18726544052E+02  0.00000000000E+00 0.  1.
         11    1    3    3    0    0  0.95320926387E+01 -0.10417340185E+02  0.22024863660E+01  0.14291001122E+02  0.51100000000E-03 0. -1.
        -11    1    3    3    0    0 -0.14444118108E+02 -0.43817128050E+01 -0.13968181437E+02  0.20565554891E+02  0.51100000000E-03 0.  1.
        -12    1    3    3    0    0  0.84572949649E+01  0.32381963615E+02  0.17146751687E+02  0.37604899935E+02  0.00000000000E+00 0.  1.
</event>
<event>
 7    1  0.1788006E-013  0.7246156E+02  0.7816164E-02  0.1226708E+00
        -11   -1    0    0    0    0  0.00000000000E+00  0.00000000000E+00  0.45593999997E+02  0.45594000000E+02  0.51100000000E-03 0. -1.
         11   -1    0    0    0    0 -0.00000000000E+00 -0.00000000000E+00 -0.45593999997E+02  0.45594000000E+02  0.51100000000E-03 0.  1.
    9900012    2    1    2    0    0  0.10147112321E+02 -0.14142784946E+02  0.69063143497E+01  0.72461563276E+02  0.69999990857E+02 0.  0.
        -12    1    1    2    0    0 -0.10147112321E+02  0.14142784946E+02 -0.69063143497E+01  0.18726436724E+02  0.00000000000E+00 0.  1.
         11    1    3    3    0    0 -0.12141690101E+02 -0.25814016643E+02 -0.11952001162E+01  0.28551928085E+02  0.51100000000E-03 0. -1.
        -11    1    3    3    0    0 -0.70909131459E+01 -0.49467867192E+01  0.50629376109E+01  0.10019235779E+02  0.51100000000E-03 0.  1.
         12    1    3    3    0    0  0.29379715569E+02  0.16618018417E+02  0.30385768550E+01  0.33890399412E+02  0.00000000000E+00 0. -1.
</event>
<event>
 7    1  0.1788006E-013  0.7246155E+02  0.7816164E-02  0.1226708E+00
        -11   -1    0    0    0    0  0.00000000000E+00  0.00000000000E+00  0.45593999997E+02  0.45594000000E+02  0.51100000000E-03 0. -1.
         11   -1    0    0    0    0 -0.00000000000E+00 -0.00000000000E+00 -0.45593999997E+02  0.45594000000E+02  0.51100000000E-03 0.  1.
    9900012    2    1    2    0    0 -0.14190255483E+02  0.12182611892E+02  0.94893350455E+00  0.72461551912E+02  0.69999976054E+02 0.  0.
        -12    1    1    2    0    0  0.14190255483E+02 -0.12182611892E+02 -0.94893350455E+00  0.18726448088E+02  0.00000000000E+00 0.  1.
         11    1    3    3    0    0  0.47024168010E+01 -0.36425661988E+00  0.15138538212E+01  0.49534998040E+01  0.51100000000E-03 0. -1.
        -11    1    3    3    0    0 -0.14814184377E+02 -0.13396160133E+02  0.24223077242E+02  0.31395455665E+02  0.51100000000E-03 0.  1.
        -12    1    3    3    0    0 -0.40784879074E+01  0.25943028645E+02 -0.24787997559E+02  0.36112596443E+02  0.00000000000E+00 0.  1.
</event>
<event>
 7    1  0.1788006E-013  0.7246159E+02  0.7816164E-02  0.1226708E+00
        -11   -1    0    0    0    0  0.00000000000E+00  0.00000000000E+00  0.45593999997E+02  0.45594000000E+02  0.51100000000E-03 0.  1.
         11   -1    0    0    0    0 -0.00000000000E+00 -0.00000000000E+00 -0.45593999997E+02  0.45594000000E+02  0.51100000000E-03 0. -1.
    9900012    2    1    2    0    0 -0.74846599387E+00 -0.18194590334E+02  0.43675110449E+01  0.72461588932E+02  0.70000024279E+02 0.  0.
        -12    1    1    2    0    0  0.74846599387E+00  0.18194590334E+02 -0.43675110449E+01  0.18726411068E+02  0.00000000000E+00 0.  1.
         11    1    3    3    0    0  0.11080050728E+02  0.14782571118E+01 -0.92583802849E+00  0.11216503222E+02  0.51100000000E-03 0. -1.
        -11    1    3    3    0    0 -0.20632652001E+01  0.14099525225E+02 -0.14969860497E+02  0.20667617144E+02  0.51100000000E-03 0.  1.
         12    1    3    3    0    0 -0.97652515217E+01 -0.33772372671E+02  0.20263209570E+02  0.40577468566E+02  0.00000000000E+00 0. -1.
</event>
<event>
 7    1  0.1788006E-013  0.7246159E+02  0.7816164E-02  0.1226708E+00
        -11   -1    0    0    0    0  0.00000000000E+00  0.00000000000E+00  0.45593999997E+02  0.45594000000E+02  0.51100000000E-03 0.  1.
         11   -1    0    0    0    0 -0.00000000000E+00 -0.00000000000E+00 -0.45593999997E+02  0.45594000000E+02  0.51100000000E-03 0. -1.
    9900012    2    1    2    0    0 -0.11431509860E+02  0.13272076849E+02 -0.66220190578E+01  0.72461586089E+02  0.70000020576E+02 0.  0.
        -12    1    1    2    0    0  0.11431509860E+02 -0.13272076849E+02  0.66220190578E+01  0.18726413911E+02  0.00000000000E+00 0.  1.
         11    1    3    3    0    0 -0.15121406617E+02  0.28103549330E+02 -0.22538715282E+02  0.39069938697E+02  0.51100000000E-03 0. -1.
        -11    1    3    3    0    0  0.88998270533E+01  0.14182416602E+01 -0.13531902700E+01  0.91131473791E+01  0.51100000000E-03 0.  1.
        -12    1    3    3    0    0 -0.52099302965E+01 -0.16249714141E+02  0.17269886494E+02  0.24278500013E+02  0.00000000000E+00 0.  1.
</event>
<event>
 7    1  0.1788006E-013  0.7246174E+02  0.7816164E-02  0.1226708E+00
        -11   -1    0    0    0    0  0.00000000000E+00  0.00000000000E+00  0.45593999997E+02  0.45594000000E+02  0.51100000000E-03 0. -1.
         11   -1    0    0    0    0 -0.00000000000E+00 -0.00000000000E+00 -0.45593999997E+02  0.45594000000E+02  0.51100000000E-03 0.  1.
    9900012    2    1    2    0    0  0.91079195438E+01 -0.57545832084E+01  0.15316771451E+02  0.72461737319E+02  0.70000217580E+02 0.  0.
        -12    1    1    2    0    0 -0.91079195438E+01  0.57545832084E+01 -0.15316771451E+02  0.18726262681E+02  0.00000000000E+00 0.  1.
         11    1    3    3    0    0  0.11800541083E+02 -0.35453602095E+00  0.13200156058E+02  0.17709392589E+02  0.51100000000E-03 0. -1.
        -11    1    3    3    0    0  0.14823671504E+02 -0.24496037453E+02 -0.10203717189E+01  0.28650274806E+02  0.51100000000E-03 0.  1.
         12    1    3    3    0    0 -0.17516293043E+02  0.19095990265E+02  0.31369871121E+01  0.26102069924E+02  0.00000000000E+00 0. -1.
</event>
<event>
 7    1  0.1788006E-013  0.7246153E+02  0.7816164E-02  0.1226708E+00
        -11   -1    0    0    0    0  0.00000000000E+00  0.00000000000E+00  0.45593999997E+02  0.45594000000E+02  0.51100000000E-03 0.  1.
         11   -1    0    0    0    0 -0.00000000000E+00 -0.00000000000E+00 -0.45593999997E+02  0.45594000000E+02  0.51100000000E-03 0. -1.
    9900012    2    1    2    0    0  0.16182622153E+02  0.35643741868E+01 -0.87234469309E+01  0.72461533450E+02  0.69999952003E+02 0.  0.
        -12    1    1    2    0    0 -0.16182622153E+02 -0.35643741868E+01  0.87234469309E+01  0.18726466550E+02  0.00000000000E+00 0.  1.
         11    1    3    3    0    0 -0.14039890014E+02  0.62953027179E+01 -0.96926803779E+01  0.18185087327E+02  0.51100000000E-03 0. -1.
        -11    1    3    3    0    0 -0.10282000988E+02 -0.81660010188E+01  0.25621264500E+01  0.13377877603E+02  0.51100000000E-03 0.  1.
        -12    1    3    3    0    0  0.40504513155E+02  0.54350724877E+01 -0.15928930030E+01  0.40898568520E+02  0.00000000000E+00 0.  1.
</event>
<event>
 7    1  0.1788006E-013  0.7246165E+02  0.7816164E-02  0.1226708E+00
        -11   -1    0    0    0    0  0.00000000000E+00  0.00000000000E+00  0.45593999997E+02  0.45594000000E+02  0.51100000000E-03 0. -1.
         11   -1    0    0    0    0 -0.00000000000E+00 -0.00000000000E+00 -0.45593999997E+02  0.45594000000E+02  0.51100000000E-03 0.  1.
    9900012    2    1    2    0    0 -0.60886701226E+01 -0.83254088627E+01  0.15629836839E+02  0.72461651285E+02  0.70000105505E+02 0.  0.
        -12    1    1    2    0    0  0.60886701226E+01  0.83254088627E+01 -0.15629836839E+02  0.18726348715E+02  0.00000000000E+00 0.  1.
         11    1    3    3    0    0 -0.83266503491E+01 -0.28233298018E+02 -0.64952559250E+01  0.30143665550E+02  0.51100000000E-03 0. -1.
        -11    1    3    3    0    0  0.14886608845E+02  0.52786292432E+01  0.14778207756E+02  0.21630313783E+02  0.51100000000E-03 0.  1.
        -12    1    3    3    0    0 -0.12648628618E+02  0.14629259912E+02  0.73468850078E+01  0.20687671952E+02  0.00000000000E+00 0.  1.
</event>
<event>
 7    1  0.1788006E-013  0.7246157E+02  0.7816164E-02  0.1226708E+00
        -11   -1    0    0    0    0  0.00000000000E+00  0.00000000000E+00  0.45593999997E+02  0.45594000000E+02  0.51100000000E-03 0. -1.
         11   -1    0    0    0    0 -0.00000000000E+00 -0.00000000000E+00 -0.45593999997E+02  0.45594000000E+02  0.51100000000E-03 0.  1.
    9900012    2    1    2    0    0  0.11404864234E+02 -0.12795637621E+02  0.75418783968E+01  0.72461569478E+02  0.69999998937E+02 0.  0.
        -12    1    1    2    0    0 -0.11404864234E+02  0.12795637621E+02 -0.75418783968E+01  0.18726430522E+02  0.00000000000E+00 0.  1.
         11    1    3    3    0    0 -0.43820009230E+01  0.15684630833E+02  0.35492987249E+01  0.16667546254E+02  0.51100000000E-03 0. -1.
        -11    1    3    3    0    0 -0.25527735825E+01  0.39996250219E+01 -0.13708949398E+02  0.14506858624E+02  0.51100000000E-03 0.  1.
         12    1    3    3    0    0  0.18339638740E+02 -0.32479893476E+02  0.17701529070E+02  0.41287164600E+02  0.00000000000E+00 0. -1.
</event>
<event>
 7    1  0.1788006E-013  0.7246156E+02  0.7816164E-02  0.1226708E+00
        -11   -1    0    0    0    0  0.00000000000E+00  0.00000000000E+00  0.45593999997E+02  0.45594000000E+02  0.51100000000E-03 0.  1.
         11   -1    0    0    0    0 -0.00000000000E+00 -0.00000000000E+00 -0.45593999997E+02  0.45594000000E+02  0.51100000000E-03 0. -1.
    9900012    2    1    2    0    0 -0.15390194262E+02  0.32107771600E+01 -0.10174105720E+02  0.72461558891E+02  0.69999985145E+02 0.  0.
        -12    1    1    2    0    0  0.15390194262E+02 -0.32107771600E+01  0.10174105720E+02  0.18726441109E+02  0.00000000000E+00 0.  1.
         11    1    3    3    0    0 -0.34691213412E+02 -0.16618098918E+02 -0.59055867201E+01  0.38916801698E+02  0.51100000000E-03 0. -1.
        -11    1    3    3    0    0 -0.36855869357E+01  0.23997545831E+01 -0.10247125534E+01  0.45157955221E+01  0.51100000000E-03 0.  1.
        -12    1    3    3    0    0  0.22986606086E+02  0.17429121495E+02 -0.32438064466E+01  0.29028961671E+02  0.00000000000E+00 0.  1.
</event>
<event>
 7    1  0.1788006E-013  0.7246164E+02  0.7816164E-02  0.1226708E+00
        -11   -1    0    0    0    0  0.00000000000E+00  0.00000000000E+00  0.45593999997E+02  0.45594000000E+02  0.51100000000E-03 0. -1.
         11   -1    0    0    0    0 -0.00000000000E+00 -0.00000000000E+00 -0.45593999997E+02  0.45594000000E+02  0.51100000000E-03 0.  1.
    9900012    2    1    2    0    0  0.63048565698E+01  0.64242197238E+01  0.16421165414E+02  0.72461641866E+02  0.70000093235E+02 0.  0.
        -12    1    1    2    0    0 -0.63048565698E+01 -0.64242197238E+01 -0.16421165414E+02  0.18726358134E+02  0.00000000000E+00 0.  1.
         11    1    3    3    0    0  0.71241734985E+01 -0.92721616975E+01  0.27552032351E+02  0.29930608372E+02  0.51100000000E-03 0. -1.
        -11    1    3    3    0    0 -0.61088093168E+00  0.21955354709E+02  0.72366152934E+01  0.23125297340E+02  0.51100000000E-03 0.  1.
        -12    1    3    3    0    0 -0.20843599706E+00 -0.62589732877E+01 -0.18367482230E+02  0.19405736153E+02  0.00000000000E+00 0.  1.
</event>
<event>
 7    1  0.1788006E-013  0.7246159E+02  0.7816164E-02  0.1226708E+00
        -11   -1    0    0    0    0  0.00000000000E+00  0.00000000000E+00  0.45593999997E+02  0.45594000000E+02  0.51100000000E-03 0. -1.
         11   -1    0    0    0    0 -0.00000000000E+00 -0.00000000000E+00 -0.45593999997E+02  0.45594000000E+02  0.51100000000E-03 0.  1.
    9900012    2    1    2    0    0 -0.70982810906E+01  0.29597717780E+01  0.17074330762E+02  0.72461585116E+02  0.70000019309E+02 0.  0.
        -12    1    1    2    0    0  0.70982810906E+01 -0.29597717780E+01 -0.17074330762E+02  0.18726414884E+02  0.00000000000E+00 0.  1.
         11    1    3    3    0    0  0.16123795253E+02 -0.93833461086E+00  0.25418498744E+02  0.30115732166E+02  0.51100000000E-03 0. -1.
        -11    1    3    3    0    0 -0.24514745232E+02 -0.92540280158E+01  0.89903398772E+00  0.26218658064E+02  0.51100000000E-03 0.  1.
        -12    1    3    3    0    0  0.12926688884E+01  0.13152134405E+02 -0.92432019700E+01  0.16127194887E+02  0.00000000000E+00 0.  1.
</event>
<event>
 7    1  0.1788006E-013  0.7246158E+02  0.7816164E-02  0.1226708E+00
        -11   -1    0    0    0    0  0.00000000000E+00  0.00000000000E+00  0.45593999997E+02  0.45594000000E+02  0.51100000000E-03 0.  1.
         11   -1    0    0    0    0 -0.00000000000E+00 -0.00000000000E+00 -0.45593999997E+02  0.45594000000E+02  0.51100000000E-03 0. -1.
    9900012    2    1    2    0    0  0.16560350001E+02 -0.30300283900E+01 -0.82007661670E+01  0.72461579361E+02  0.70000011811E+02 0.  0.
        -12    1    1    2    0    0 -0.16560350001E+02  0.30300283900E+01  0.82007661670E+01  0.18726420639E+02  0.00000000000E+00 0.  1.
         11    1    3    3    0    0 -0.58821073334E+01  0.19547132201E+02 -0.76001666150E+01  0.21781921329E+02  0.51100000000E-03 0. -1.
        -11    1    3    3    0    0  0.10848069055E+02  0.57180094292E+01  0.12411542120E+02  0.17447710799E+02  0.51100000000E-03 0.  1.
         12    1    3    3    0    0  0.11594388280E+02 -0.28295170020E+02 -0.13012141672E+02  0.33231947233E+02  0.00000000000E+00 0. -1.
</event>
<event>
 7    1  0.1788006E-013  0.7246154E+02  0.7816164E-02  0.1226708E+00
        -11   -1    0    0    0    0  0.00000000000E+00  0.00000000000E+00  0.45593999997E+02  0.45594000000E+02  0.51100000000E-03 0.  1.
         11   -1    0    0    0    0 -0.00000000000E+00 -0.00000000000E+00 -0.45593999997E+02  0.45594000000E+02  0.51100000000E-03 0. -1.
    9900012    2    1    2    0    0 -0.61045674697E+00  0.15842405678E+00 -0.18715836653E+02  0.72461540184E+02  0.69999960776E+02 0.  0.
        -12    1    1    2    0    0  0.61045674697E+00 -0.15842405678E+00  0.18715836653E+02  0.18726459816E+02  0.00000000000E+00 0.  1.
         11    1    3    3    0    0  0.33701863344E+01 -0.39824660383E+01 -0.19556056707E+02  0.20239998662E+02  0.51100000000E-03 0. -1.
        -11    1    3    3    0    0  0.20034849733E+02 -0.10409040637E+02 -0.59184468800E+01  0.23340337285E+02  0.51100000000E-03 0.  1.
        -12    1    3    3    0    0 -0.24015492815E+02  0.14549930733E+02  0.67586669336E+01  0.28881204237E+02  0.00000000000E+00 0.  1.
</event>
<event>
 7    1  0.1788006E-013  0.7246162E+02  0.7816164E-02  0.1226708E+00
        -11   -1    0    0    0    0  0.00000000000E+00  0.00000000000E+00  0.45593999997E+02  0.45594000000E+02  0.51100000000E-03 0.  1.
         11   -1    0    0    0    0 -0.00000000000E+00 -0.00000000000E+00 -0.45593999997E+02  0.45594000000E+02  0.51100000000E-03 0. -1.
    9900012    2    1    2    0    0  0.59911050729E+01 -0.14852178165E+01 -0.17679875165E+02  0.72461622940E+02  0.70000068580E+02 0.  0.
        -12    1    1    2    0    0 -0.59911050729E+01  0.14852178165E+01  0.17679875165E+02  0.18726377060E+02  0.00000000000E+00 0.  1.
         11    1    3    3    0    0 -0.21586270469E+01  0.14600928632E+02 -0.10409589682E+02  0.18061183385E+02  0.51100000000E-03 0. -1.
        -11    1    3    3    0    0 -0.19314659286E+00  0.17549703339E+02 -0.89571989072E+01  0.19704334686E+02  0.51100000000E-03 0.  1.
        -12    1    3    3    0    0  0.83428787127E+01 -0.33635849788E+02  0.16869134243E+01  0.34696104869E+02  0.00000000000E+00 0.  1.
</event>
<event>
 7    1  0.1788006E-013  0.7246160E+02  0.7816164E-02  0.1226708E+00
        -11   -1    0    0    0    0  0.00000000000E+00  0.00000000000E+00  0.45593999997E+02  0.45594000000E+02  0.51100000000E-03 0.  1.
         11   -1    0    0    0    0 -0.00000000000E+00 -0.00000000000E+00 -0.45593999997E+02  0.45594000000E+02  0.51100000000E-03 0. -1.
    9900012    2    1    2    0    0 -0.14326412951E+02 -0.46349105758E+01 -0.11133257768E+02  0.72461603320E+02  0.70000043022E+02 0.  0.
        -12    1    1    2    0    0  0.14326412951E+02  0.46349105758E+01  0.11133257768E+02  0.18726396680E+02  0.00000000000E+00 0.  1.
         11    1    3    3    0    0 -0.20431584699E+02 -0.99334240902E+01 -0.88154451321E+01  0.24368722589E+02  0.51100000000E-03 0.  1.
        -11    1    3    3    0    0 -0.75954267803E+01 -0.18350420452E+02  0.34561981580E+01  0.20158713866E+02  0.51100000000E-03 0. -1.
        -12    1    3    3    0    0  0.13700598529E+02  0.23648933967E+02 -0.57740107942E+01  0.27934166865E+02  0.00000000000E+00 0.  1.
</event>
<event>
 7    1  0.1788006E-013  0.7246102E+02  0.7816164E-02  0.1226709E+00
        -11   -1    0    0    0    0  0.00000000000E+00  0.00000000000E+00  0.45593999997E+02  0.45594000000E+02  0.51100000000E-03 0. -1.
         11   -1    0    0    0    0 -0.00000000000E+00 -0.00000000000E+00 -0.45593999997E+02  0.45594000000E+02  0.51100000000E-03 0.  1.
    9900012    2    1    2    0    0  0.14900101132E+02 -0.14639440362E+01  0.11249155489E+02  0.72461023600E+02  0.69999287825E+02 0.  0.
        -12    1    1    2    0    0 -0.14900101132E+02  0.14639440362E+01 -0.11249155489E+02  0.18726976400E+02  0.00000000000E+00 0.  1.
         11    1    3    3    0    0  0.99030539264E+01  0.14616404085E+02  0.33540862973E+01  0.17971077892E+02  0.51100000000E-03 0. -1.
        -11    1    3    3    0    0 -0.20040105942E+02 -0.20095974063E+02  0.63723890862E+01  0.29087133971E+02  0.51100000000E-03 0.  1.
         12    1    3    3    0    0  0.25037153148E+02  0.40156259416E+01  0.15226801052E+01  0.25402811737E+02  0.00000000000E+00 0. -1.
</event>
<event>
 7    1  0.1788006E-013  0.7246145E+02  0.7816164E-02  0.1226708E+00
        -11   -1    0    0    0    0  0.00000000000E+00  0.00000000000E+00  0.45593999997E+02  0.45594000000E+02  0.51100000000E-03 0.  1.
         11   -1    0    0    0    0 -0.00000000000E+00 -0.00000000000E+00 -0.45593999997E+02  0.45594000000E+02  0.51100000000E-03 0. -1.
    9900012    2    1    2    0    0  0.71938931025E+01  0.10592078280E+02 -0.13665262423E+02  0.72461451537E+02  0.69999845296E+02 0.  0.
        -12    1    1    2    0    0 -0.71938931025E+01 -0.10592078280E+02  0.13665262423E+02  0.18726548463E+02  0.00000000000E+00 0.  1.
         11    1    3    3    0    0  0.37831154888E+01  0.25706554072E+01 -0.31612596827E+02  0.31941767491E+02  0.51100000000E-03 0. -1.
        -11    1    3    3    0    0 -0.93286248390E+01 -0.80024736388E+01 -0.13780920833E+01  0.12367779258E+02  0.51100000000E-03 0.  1.
         12    1    3    3    0    0  0.12739402453E+02  0.16023896511E+02  0.19325426488E+02  0.28151904788E+02  0.00000000000E+00 0. -1.
</event>
<event>
 7    1  0.1788006E-013  0.7246155E+02  0.7816164E-02  0.1226708E+00
        -11   -1    0    0    0    0  0.00000000000E+00  0.00000000000E+00  0.45593999997E+02  0.45594000000E+02  0.51100000000E-03 0.  1.
         11   -1    0    0    0    0 -0.00000000000E+00 -0.00000000000E+00 -0.45593999997E+02  0.45594000000E+02  0.51100000000E-03 0. -1.
    9900012    2    1    2    0    0 -0.88043821227E+01  0.11768593185E+02 -0.11604433525E+02  0.72461553259E+02  0.69999977808E+02 0.  0.
        -12    1    1    2    0    0  0.88043821227E+01 -0.11768593185E+02  0.11604433525E+02  0.18726446741E+02  0.00000000000E+00 0.  1.
         11    1    3    3    0    0  0.96850125858E+01 -0.27017931969E+01  0.61437160510E+01  0.11783225469E+02  0.51100000000E-03 0. -1.
        -11    1    3    3    0    0 -0.23914659259E+02 -0.10627885896E+02  0.46795148272E+01  0.26584972172E+02  0.51100000000E-03 0.  1.
         12    1    3    3    0    0  0.54252645504E+01  0.25098272278E+02 -0.22427664403E+02  0.34093355619E+02  0.00000000000E+00 0. -1.
</event>
<event>
 7    1  0.1788006E-013  0.7246157E+02  0.7816164E-02  0.1226708E+00
        -11   -1    0    0    0    0  0.00000000000E+00  0.00000000000E+00  0.45593999997E+02  0.45594000000E+02  0.51100000000E-03 0. -1.
         11   -1    0    0    0    0 -0.00000000000E+00 -0.00000000000E+00 -0.45593999997E+02  0.45594000000E+02  0.51100000000E-03 0.  1.
    9900012    2    1    2    0    0 -0.17811347561E+00  0.75347966999E+01  0.17142765601E+02  0.72461566860E+02  0.69999995526E+02 0.  0.
        -12    1    1    2    0    0  0.17811347561E+00 -0.75347966999E+01 -0.17142765601E+02  0.18726433140E+02  0.00000000000E+00 0.  1.
         11    1    3    3    0    0 -0.16834073126E+02  0.18174609177E+02  0.23135946556E+02  0.33896525781E+02  0.51100000000E-03 0. -1.
        -11    1    3    3    0    0  0.64219567027E+01  0.92225656322E+01  0.64828762432E+01  0.12974009765E+02  0.51100000000E-03 0.  1.
        -12    1    3    3    0    0  0.10234002948E+02 -0.19862378109E+02 -0.12476057199E+02  0.25591031314E+02  0.00000000000E+00 0.  1.
</event>
<event>
 7    1  0.1788006E-013  0.7246141E+02  0.7816164E-02  0.1226708E+00
        -11   -1    0    0    0    0  0.00000000000E+00  0.00000000000E+00  0.45593999997E+02  0.45594000000E+02  0.51100000000E-03 0.  1.
         11   -1    0    0    0    0 -0.00000000000E+00 -0.00000000000E+00 -0.45593999997E+02  0.45594000000E+02  0.51100000000E-03 0. -1.
    9900012    2    1    2    0    0  0.84279677936E+01 -0.11562808250E+02 -0.12081218309E+02  0.72461414311E+02  0.69999796802E+02 0.  0.
        -12    1    1    2    0    0 -0.84279677936E+01  0.11562808250E+02  0.12081218309E+02  0.18726585689E+02  0.00000000000E+00 0.  1.
         11    1    3    3    0    0  0.35558049761E+01  0.20614716782E+02 -0.20428807445E+01  0.21018650267E+02  0.51100000000E-03 0. -1.
        -11    1    3    3    0    0 -0.19335427455E+01  0.26432739526E+01  0.10119734736E+02  0.10636471037E+02  0.51100000000E-03 0.  1.
        -12    1    3    3    0    0  0.68057055629E+01 -0.34820798985E+02 -0.20158072300E+02  0.40806293007E+02  0.00000000000E+00 0.  1.
</event>
<event>
 7    1  0.1788006E-013  0.7246148E+02  0.7816164E-02  0.1226708E+00
        -11   -1    0    0    0    0  0.00000000000E+00  0.00000000000E+00  0.45593999997E+02  0.45594000000E+02  0.51100000000E-03 0. -1.
         11   -1    0    0    0    0 -0.00000000000E+00 -0.00000000000E+00 -0.45593999997E+02  0.45594000000E+02  0.51100000000E-03 0.  1.
    9900012    2    1    2    0    0  0.57759419578E+01  0.52660577807E+01  0.17017331512E+02  0.72461482923E+02  0.69999886182E+02 0.  0.
        -12    1    1    2    0    0 -0.57759419578E+01 -0.52660577807E+01 -0.17017331512E+02  0.18726517077E+02  0.00000000000E+00 0.  1.
         11    1    3    3    0    0  0.31557298087E+01 -0.82671481190E+01  0.64145384797E+01  0.10929349149E+02  0.51100000000E-03 0. -1.
        -11    1    3    3    0    0 -0.51258005361E+01 -0.17279751215E+02 -0.12770127644E+02  0.22089359282E+02  0.51100000000E-03 0.  1.
         12    1    3    3    0    0  0.77460126852E+01  0.30812957114E+02  0.23372920677E+02  0.39442774492E+02  0.00000000000E+00 0. -1.
</event>
<event>
 7    1  0.1788006E-013  0.7246160E+02  0.7816164E-02  0.1226708E+00
        -11   -1    0    0    0    0  0.00000000000E+00  0.00000000000E+00  0.45593999997E+02  0.45594000000E+02  0.51100000000E-03 0.  1.
         11   -1    0    0    0    0 -0.00000000000E+00 -0.00000000000E+00 -0.45593999997E+02  0.45594000000E+02  0.51100000000E-03 0. -1.
    9900012    2    1    2    0    0  0.83424134816E+01  0.35113183871E+01 -0.16393683667E+02  0.72461599287E+02  0.70000037768E+02 0.  0.
        -12    1    1    2    0    0 -0.83424134816E+01 -0.35113183871E+01  0.16393683667E+02  0.18726400713E+02  0.00000000000E+00 0.  1.
         11    1    3    3    0    0 -0.79563887970E+01 -0.25223000299E+02 -0.10231709065E+02  0.28358274585E+02  0.51100000000E-03 0. -1.
        -11    1    3    3    0    0  0.15371062825E+02  0.30508580195E+02 -0.13322717459E+02  0.36667940202E+02  0.51100000000E-03 0.  1.
         12    1    3    3    0    0  0.92773945392E+00 -0.17742615087E+01  0.71607428569E+01  0.74353844997E+01  0.00000000000E+00 0. -1.
</event>
<event>
 7    1  0.1788006E-013  0.7246107E+02  0.7816164E-02  0.1226709E+00
        -11   -1    0    0    0    0  0.00000000000E+00  0.00000000000E+00  0.45593999997E+02  0.45594000000E+02  0.51100000000E-03 0.  1.
         11   -1    0    0    0    0 -0.00000000000E+00 -0.00000000000E+00 -0.45593999997E+02  0.45594000000E+02  0.51100000000E-03 0. -1.
    9900012    2    1    2    0    0  0.47547681929E+01  0.91367680591E+00 -0.18090199309E+02  0.72461069208E+02  0.69999347239E+02 0.  0.
        -12    1    1    2    0    0 -0.47547681929E+01 -0.91367680591E+00  0.18090199309E+02  0.18726930792E+02  0.00000000000E+00 0.  1.
         11    1    3    3    0    0  0.22031098787E+01  0.11201713652E+02  0.10535735789E+02  0.15534922297E+02  0.51100000000E-03 0. -1.
        -11    1    3    3    0    0 -0.72581700271E+01 -0.11491472936E+02  0.10116207494E+02  0.16943218015E+02  0.51100000000E-03 0.  1.
         12    1    3    3    0    0  0.98098283413E+01  0.12034360899E+01 -0.38742142592E+02  0.39982928896E+02  0.00000000000E+00 0. -1.
</event>
<event>
 7    1  0.1788006E-013  0.7246135E+02  0.7816164E-02  0.1226709E+00
        -11   -1    0    0    0    0  0.00000000000E+00  0.00000000000E+00  0.45593999997E+02  0.45594000000E+02  0.51100000000E-03 0.  1.
         11   -1    0    0    0    0 -0.00000000000E+00 -0.00000000000E+00 -0.45593999997E+02  0.45594000000E+02  0.51100000000E-03 0. -1.
    9900012    2    1    2    0    0  0.14669243193E+02 -0.20414115509E+01 -0.11460071085E+02  0.72461353577E+02  0.69999717685E+02 0.  0.
        -12    1    1    2    0    0 -0.14669243193E+02  0.20414115509E+01  0.11460071085E+02  0.18726646423E+02  0.00000000000E+00 0.  1.
         11    1    3    3    0    0  0.44182363895E+01 -0.12902184533E+02 -0.30908128218E+02  0.33783125502E+02  0.51100000000E-03 0. -1.
        -11    1    3    3    0    0 -0.66917229195E+01  0.12606969750E+02  0.22065803047E+01  0.14442431887E+02  0.51100000000E-03 0.  1.
         12    1    3    3    0    0  0.16942729723E+02 -0.17461967686E+01  0.17241476828E+02  0.24235796187E+02  0.00000000000E+00 0. -1.
</event>
<event>
 7    1  0.1788006E-013  0.7246157E+02  0.7816164E-02  0.1226708E+00
        -11   -1    0    0    0    0  0.00000000000E+00  0.00000000000E+00  0.45593999997E+02  0.45594000000E+02  0.51100000000E-03 0.  1.
         11   -1    0    0    0    0 -0.00000000000E+00 -0.00000000000E+00 -0.45593999997E+02  0.45594000000E+02  0.51100000000E-03 0. -1.
    9900012    2    1    2    0    0 -0.33688294707E+01  0.16638634148E+02 -0.79048157654E+01  0.72461567595E+02  0.69999996484E+02 0.  0.
        -12    1    1    2    0    0  0.33688294707E+01 -0.16638634148E+02  0.79048157654E+01  0.18726432405E+02  0.00000000000E+00 0.  1.
         11    1    3    3    0    0  0.12904590584E+02  0.17638065034E+02 -0.12198414094E+02  0.25028605693E+02  0.51100000000E-03 0. -1.
        -11    1    3    3    0    0 -0.38221711571E+01  0.18560901620E+02 -0.87015264601E+01  0.20852640703E+02  0.51100000000E-03 0.  1.
         12    1    3    3    0    0 -0.12451248897E+02 -0.19560332505E+02  0.12995124789E+02  0.26580321199E+02  0.00000000000E+00 0. -1.
</event>
<event>
 7    1  0.1788006E-013  0.7246154E+02  0.7816164E-02  0.1226708E+00
        -11   -1    0    0    0    0  0.00000000000E+00  0.00000000000E+00  0.45593999997E+02  0.45594000000E+02  0.51100000000E-03 0.  1.
         11   -1    0    0    0    0 -0.00000000000E+00 -0.00000000000E+00 -0.45593999997E+02  0.45594000000E+02  0.51100000000E-03 0. -1.
    9900012    2    1    2    0    0  0.78400347486E+01  0.13468748012E+02 -0.10383019885E+02  0.72461536911E+02  0.69999956513E+02 0.  0.
        -12    1    1    2    0    0 -0.78400347486E+01 -0.13468748012E+02  0.10383019885E+02  0.18726463089E+02  0.00000000000E+00 0.  1.
         11    1    3    3    0    0  0.38588740420E+01 -0.49759438241E+01 -0.20506397324E+02  0.21451416206E+02  0.51100000000E-03 0. -1.
        -11    1    3    3    0    0  0.12279214258E+02 -0.12356248281E+02 -0.38631819430E+00  0.17424270900E+02  0.51100000000E-03 0.  1.
         12    1    3    3    0    0 -0.82980535517E+01  0.30800940117E+02  0.10509695632E+02  0.33585849805E+02  0.00000000000E+00 0. -1.
</event>
<event>
 7    1  0.1788006E-013  0.7246155E+02  0.7816164E-02  0.1226708E+00
        -11   -1    0    0    0    0  0.00000000000E+00  0.00000000000E+00  0.45593999997E+02  0.45594000000E+02  0.51100000000E-03 0.  1.
         11   -1    0    0    0    0 -0.00000000000E+00 -0.00000000000E+00 -0.45593999997E+02  0.45594000000E+02  0.51100000000E-03 0. -1.
    9900012    2    1    2    0    0  0.62370478936E+01 -0.17589360952E+02 -0.15471048027E+01  0.72461550299E+02  0.69999973953E+02 0.  0.
        -12    1    1    2    0    0 -0.62370478936E+01  0.17589360952E+02  0.15471048027E+01  0.18726449701E+02  0.00000000000E+00 0.  1.
         11    1    3    3    0    0  0.18383272441E+02  0.58788766824E+01 -0.51709262258E-01  0.19300481102E+02  0.51100000000E-03 0. -1.
        -11    1    3    3    0    0 -0.95646161251E+01  0.91581497203E+01  0.11894290973E+02  0.17799655781E+02  0.51100000000E-03 0.  1.
         12    1    3    3    0    0 -0.25816084218E+01 -0.32626387354E+02 -0.13389686513E+02  0.35361413416E+02  0.00000000000E+00 0. -1.
</event>
<event>
 7    1  0.1788006E-013  0.7246161E+02  0.7816164E-02  0.1226708E+00
        -11   -1    0    0    0    0  0.00000000000E+00  0.00000000000E+00  0.45593999997E+02  0.45594000000E+02  0.51100000000E-03 0. -1.
         11   -1    0    0    0    0 -0.00000000000E+00 -0.00000000000E+00 -0.45593999997E+02  0.45594000000E+02  0.51100000000E-03 0.  1.
    9900012    2    1    2    0    0  0.15873343300E+02 -0.74973735756E+01  0.65195248153E+01  0.72461605743E+02  0.70000046179E+02 0.  0.
        -12    1    1    2    0    0 -0.15873343300E+02  0.74973735756E+01 -0.65195248153E+01  0.18726394257E+02  0.00000000000E+00 0.  1.
         11    1    3    3    0    0  0.13001265546E+02  0.41091365092E-01  0.98145816226E+01  0.16289892786E+02  0.51100000000E-03 0. -1.
        -11    1    3    3    0    0  0.28909613843E+02 -0.69802967227E+01 -0.46073726771E+01  0.30095152403E+02  0.51100000000E-03 0.  1.
         12    1    3    3    0    0 -0.26037536090E+02 -0.55816821801E+00  0.13123158698E+01  0.26076560554E+02  0.00000000000E+00 0. -1.
</event>
<event>
 7    1  0.1788006E-013  0.7246156E+02  0.7816164E-02  0.1226708E+00
        -11   -1    0    0    0    0  0.00000000000E+00  0.00000000000E+00  0.45593999997E+02  0.45594000000E+02  0.51100000000E-03 0.  1.
         11   -1    0    0    0    0 -0.00000000000E+00 -0.00000000000E+00 -0.45593999997E+02  0.45594000000E+02  0.51100000000E-03 0. -1.
    9900012    2    1    2    0    0  0.12794266197E+02  0.54008779658E+01 -0.12562513131E+02  0.72461562366E+02  0.69999989671E+02 0.  0.
        -12    1    1    2    0    0 -0.12794266197E+02 -0.54008779658E+01  0.12562513131E+02  0.18726437634E+02  0.00000000000E+00 0.  1.
         11    1    3    3    0    0 -0.44758461896E+01  0.80720804375E+01 -0.11991110629E+01  0.93074996269E+01  0.51100000000E-03 0. -1.
        -11    1    3    3    0    0 -0.19658088130E+02  0.80776245441E+01  0.41995214361E+01  0.21663896873E+02  0.51100000000E-03 0.  1.
         12    1    3    3    0    0  0.36928200516E+02 -0.10748827016E+02 -0.15562923504E+02  0.41490165865E+02  0.00000000000E+00 0. -1.
</event>
<event>
 7    1  0.1788006E-013  0.7246151E+02  0.7816164E-02  0.1226708E+00
        -11   -1    0    0    0    0  0.00000000000E+00  0.00000000000E+00  0.45593999997E+02  0.45594000000E+02  0.51100000000E-03 0. -1.
         11   -1    0    0    0    0 -0.00000000000E+00 -0.00000000000E+00 -0.45593999997E+02  0.45594000000E+02  0.51100000000E-03 0.  1.
    9900012    2    1    2    0    0  0.16510389903E+02 -0.71676247935E+01  0.51685203348E+01  0.72461510142E+02  0.69999921641E+02 0.  0.
        -12    1    1    2    0    0 -0.16510389903E+02  0.71676247935E+01 -0.51685203348E+01  0.18726489858E+02  0.00000000000E+00 0.  1.
         11    1    3    3    0    0  0.15675093924E+02  0.82431273103E+01 -0.16315515140E+02  0.24080152655E+02  0.51100000000E-03 0. -1.
        -11    1    3    3    0    0 -0.12900217611E+02 -0.22220650807E+02  0.55831814667E+01  0.26293437437E+02  0.51100000000E-03 0.  1.
         12    1    3    3    0    0  0.13735513591E+02  0.68098987031E+01  0.15900854008E+02  0.22087920050E+02  0.00000000000E+00 0. -1.
</event>
<event>
 7    1  0.1788006E-013  0.7246157E+02  0.7816164E-02  0.1226708E+00
        -11   -1    0    0    0    0  0.00000000000E+00  0.00000000000E+00  0.45593999997E+02  0.45594000000E+02  0.51100000000E-03 0.  1.
         11   -1    0    0    0    0 -0.00000000000E+00 -0.00000000000E+00 -0.45593999997E+02  0.45594000000E+02  0.51100000000E-03 0. -1.
    9900012    2    1    2    0    0 -0.14121183227E+02 -0.77394005156E+01  0.95589321730E+01  0.72461566267E+02  0.69999994753E+02 0.  0.
        -12    1    1    2    0    0  0.14121183227E+02  0.77394005156E+01 -0.95589321730E+01  0.18726433733E+02  0.00000000000E+00 0.  1.
         11    1    3    3    0    0  0.29865800803E+01 -0.17482158041E+02  0.57653067249E+01  0.18648975099E+02  0.51100000000E-03 0. -1.
        -11    1    3    3    0    0  0.82136224967E+01  0.14783485280E+01  0.20662543658E+02  0.22284295357E+02  0.51100000000E-03 0.  1.
         12    1    3    3    0    0 -0.25321385804E+02  0.82644089972E+01 -0.16868918210E+02  0.31528295810E+02  0.00000000000E+00 0. -1.
</event>
<event>
 7    1  0.1788006E-013  0.7246162E+02  0.7816164E-02  0.1226708E+00
        -11   -1    0    0    0    0  0.00000000000E+00  0.00000000000E+00  0.45593999997E+02  0.45594000000E+02  0.51100000000E-03 0.  1.
         11   -1    0    0    0    0 -0.00000000000E+00 -0.00000000000E+00 -0.45593999997E+02  0.45594000000E+02  0.51100000000E-03 0. -1.
    9900012    2    1    2    0    0 -0.74939157095E+01 -0.31825745063E+00 -0.17158585958E+02  0.72461624682E+02  0.70000070850E+02 0.  0.
        -12    1    1    2    0    0  0.74939157095E+01  0.31825745063E+00  0.17158585958E+02  0.18726375318E+02  0.00000000000E+00 0.  1.
         11    1    3    3    0    0  0.99456552566E+01  0.25908637459E+01 -0.27625955965E+02  0.29475787974E+02  0.51100000000E-03 0. -1.
        -11    1    3    3    0    0 -0.86996857304E+01 -0.14363900745E+02 -0.87746126848E+01  0.18947295439E+02  0.51100000000E-03 0.  1.
        -12    1    3    3    0    0 -0.87398852357E+01  0.11454779548E+02  0.19241982692E+02  0.24038541269E+02  0.00000000000E+00 0.  1.
</event>
<event>
 7    1  0.1788006E-013  0.7246159E+02  0.7816164E-02  0.1226708E+00
        -11   -1    0    0    0    0  0.00000000000E+00  0.00000000000E+00  0.45593999997E+02  0.45594000000E+02  0.51100000000E-03 0.  1.
         11   -1    0    0    0    0 -0.00000000000E+00 -0.00000000000E+00 -0.45593999997E+02  0.45594000000E+02  0.51100000000E-03 0. -1.
    9900012    2    1    2    0    0 -0.16986173079E+02  0.55473121935E+01  0.56013956679E+01  0.72461591325E+02  0.70000027396E+02 0.  0.
        -12    1    1    2    0    0  0.16986173079E+02 -0.55473121935E+01 -0.56013956679E+01  0.18726408675E+02  0.00000000000E+00 0.  1.
         11    1    3    3    0    0 -0.39046469225E+01  0.64536750516E+01  0.16770864023E+02  0.18389074735E+02  0.51100000000E-03 0. -1.
        -11    1    3    3    0    0 -0.13292944085E+02 -0.24907609752E+02 -0.17460161214E+01  0.28286745281E+02  0.51100000000E-03 0.  1.
         12    1    3    3    0    0  0.21141792836E+00  0.24001246894E+02 -0.94234522340E+01  0.25785771309E+02  0.00000000000E+00 0. -1.
</event>
<event>
 7    1  0.1788006E-013  0.7246153E+02  0.7816164E-02  0.1226708E+00
        -11   -1    0    0    0    0  0.00000000000E+00  0.00000000000E+00  0.45593999997E+02  0.45594000000E+02  0.51100000000E-03 0.  1.
         11   -1    0    0    0    0 -0.00000000000E+00 -0.00000000000E+00 -0.45593999997E+02  0.45594000000E+02  0.51100000000E-03 0. -1.
    9900012    2    1    2    0    0 -0.60402559294E+01 -0.17258242060E+02 -0.40434032806E+01  0.72461528875E+02  0.69999946044E+02 0.  0.
        -12    1    1    2    0    0  0.60402559294E+01  0.17258242060E+02  0.40434032806E+01  0.18726471125E+02  0.00000000000E+00 0.  1.
         11    1    3    3    0    0  0.53217730613E+01 -0.18597036285E+02 -0.12762755729E+02  0.23174532598E+02  0.51100000000E-03 0. -1.
        -11    1    3    3    0    0 -0.25793034216E+02 -0.10182630963E+02 -0.22282801502E+01  0.27819630121E+02  0.51100000000E-03 0.  1.
        -12    1    3    3    0    0  0.14431005225E+02  0.11521425188E+02  0.10947632598E+02  0.21467366156E+02  0.00000000000E+00 0.  1.
</event>
<event>
 7    1  0.1788006E-013  0.7246154E+02  0.7816164E-02  0.1226708E+00
        -11   -1    0    0    0    0  0.00000000000E+00  0.00000000000E+00  0.45593999997E+02  0.45594000000E+02  0.51100000000E-03 0.  1.
         11   -1    0    0    0    0 -0.00000000000E+00 -0.00000000000E+00 -0.45593999997E+02  0.45594000000E+02  0.51100000000E-03 0. -1.
    9900012    2    1    2    0    0  0.99765188021E+01  0.94247093580E+00 -0.15819640574E+02  0.72461542600E+02  0.69999963922E+02 0.  0.
        -12    1    1    2    0    0 -0.99765188021E+01 -0.94247093580E+00  0.15819640574E+02  0.18726457400E+02  0.00000000000E+00 0.  1.
         11    1    3    3    0    0 -0.19983902879E+01 -0.69670553956E+01 -0.24182626564E+02  0.25245452114E+02  0.51100000000E-03 0. -1.
        -11    1    3    3    0    0 -0.94327995768E+01 -0.45759706985E+01 -0.11422261639E+02  0.15504363157E+02  0.51100000000E-03 0.  1.
        -12    1    3    3    0    0  0.21407708667E+02  0.12485497030E+02  0.19785247629E+02  0.31711727329E+02  0.00000000000E+00 0.  1.
</event>
<event>
 7    1  0.1788006E-013  0.7246156E+02  0.7816164E-02  0.1226708E+00
        -11   -1    0    0    0    0  0.00000000000E+00  0.00000000000E+00  0.45593999997E+02  0.45594000000E+02  0.51100000000E-03 0. -1.
         11   -1    0    0    0    0 -0.00000000000E+00 -0.00000000000E+00 -0.45593999997E+02  0.45594000000E+02  0.51100000000E-03 0.  1.
    9900012    2    1    2    0    0  0.12809310272E+02  0.13087500970E+02 -0.39138702754E+01  0.72461561689E+02  0.69999988790E+02 0.  0.
        -12    1    1    2    0    0 -0.12809310272E+02 -0.13087500970E+02  0.39138702754E+01  0.18726438311E+02  0.00000000000E+00 0.  1.
         11    1    3    3    0    0  0.52394919883E+01  0.15932166710E+02 -0.11038674523E+02  0.20078310384E+02  0.51100000000E-03 0. -1.
        -11    1    3    3    0    0 -0.16500346990E+02 -0.89819841841E+01 -0.10874802374E+02  0.21707114447E+02  0.51100000000E-03 0.  1.
         12    1    3    3    0    0  0.24070165274E+02  0.61373184435E+01  0.17999606622E+02  0.30676136858E+02  0.00000000000E+00 0. -1.
</event>
<event>
 7    1  0.1788006E-013  0.7246157E+02  0.7816164E-02  0.1226708E+00
        -11   -1    0    0    0    0  0.00000000000E+00  0.00000000000E+00  0.45593999997E+02  0.45594000000E+02  0.51100000000E-03 0.  1.
         11   -1    0    0    0    0 -0.00000000000E+00 -0.00000000000E+00 -0.45593999997E+02  0.45594000000E+02  0.51100000000E-03 0. -1.
    9900012    2    1    2    0    0  0.17098300171E+02 -0.13392269185E+01  0.75188923226E+01  0.72461571103E+02  0.70000001053E+02 0.  0.
        -12    1    1    2    0    0 -0.17098300171E+02  0.13392269185E+01 -0.75188923226E+01  0.18726428897E+02  0.00000000000E+00 0.  1.
         11    1    3    3    0    0  0.24312579014E+02  0.19414903435E+02 -0.18647783249E+02  0.36273679081E+02  0.51100000000E-03 0. -1.
        -11    1    3    3    0    0  0.28901028771E+01 -0.76428103811E+01  0.11257849295E+02  0.13910586478E+02  0.51100000000E-03 0.  1.
        -12    1    3    3    0    0 -0.10104381720E+02 -0.13111319972E+02  0.14908826277E+02  0.22277305544E+02  0.00000000000E+00 0.  1.
</event>
<event>
 7    1  0.1788006E-013  0.7246157E+02  0.7816164E-02  0.1226708E+00
        -11   -1    0    0    0    0  0.00000000000E+00  0.00000000000E+00  0.45593999997E+02  0.45594000000E+02  0.51100000000E-03 0.  1.
         11   -1    0    0    0    0 -0.00000000000E+00 -0.00000000000E+00 -0.45593999997E+02  0.45594000000E+02  0.51100000000E-03 0. -1.
    9900012    2    1    2    0    0 -0.49726715781E+01  0.10544503352E+02 -0.14654872471E+02  0.72461566792E+02  0.69999995437E+02 0.  0.
        -12    1    1    2    0    0  0.49726715781E+01 -0.10544503352E+02  0.14654872471E+02  0.18726433208E+02  0.00000000000E+00 0.  1.
         11    1    3    3    0    0 -0.21436999330E+02 -0.15698680975E+02  0.13353684216E+02  0.29737424351E+02  0.51100000000E-03 0.  1.
        -11    1    3    3    0    0  0.53910451037E+00  0.81143639303E+01 -0.71075218833E+01  0.10800481621E+02  0.51100000000E-03 0. -1.
        -12    1    3    3    0    0  0.15925223241E+02  0.18128820397E+02 -0.20901034804E+02  0.31923660820E+02  0.00000000000E+00 0.  1.
</event>
<event>
 7    1  0.1788006E-013  0.7246160E+02  0.7816164E-02  0.1226708E+00
        -11   -1    0    0    0    0  0.00000000000E+00  0.00000000000E+00  0.45593999997E+02  0.45594000000E+02  0.51100000000E-03 0.  1.
         11   -1    0    0    0    0 -0.00000000000E+00 -0.00000000000E+00 -0.45593999997E+02  0.45594000000E+02  0.51100000000E-03 0. -1.
    9900012    2    1    2    0    0 -0.11769369450E+02 -0.71951376483E+01 -0.12664511783E+02  0.72461603611E+02  0.70000043401E+02 0.  0.
        -12    1    1    2    0    0  0.11769369450E+02  0.71951376483E+01  0.12664511783E+02  0.18726396389E+02  0.00000000000E+00 0.  1.
         11    1    3    3    0    0 -0.10429029095E+01 -0.35382257812E+01  0.13732547878E+02  0.14219337525E+02  0.51100000000E-03 0. -1.
        -11    1    3    3    0    0  0.83977227185E+01  0.79707759690E+01  0.10142775470E+02  0.15392560245E+02  0.51100000000E-03 0.  1.
         12    1    3    3    0    0 -0.19124189259E+02 -0.11627687836E+02 -0.36539835131E+02  0.42849705841E+02  0.00000000000E+00 0. -1.
</event>
<event>
 7    1  0.1788006E-013  0.7246163E+02  0.7816164E-02  0.1226708E+00
        -11   -1    0    0    0    0  0.00000000000E+00  0.00000000000E+00  0.45593999997E+02  0.45594000000E+02  0.51100000000E-03 0.  1.
         11   -1    0    0    0    0 -0.00000000000E+00 -0.00000000000E+00 -0.45593999997E+02  0.45594000000E+02  0.51100000000E-03 0. -1.
    9900012    2    1    2    0    0 -0.14259637668E+02  0.88356184767E+01 -0.83229422598E+01  0.72461633877E+02  0.70000082829E+02 0.  0.
        -12    1    1    2    0    0  0.14259637668E+02 -0.88356184767E+01  0.83229422598E+01  0.18726366123E+02  0.00000000000E+00 0.  1.
         11    1    3    3    0    0  0.90597570466E+01 -0.92307065431E+01  0.29572221748E+01  0.13267641248E+02  0.51100000000E-03 0. -1.
        -11    1    3    3    0    0 -0.23121249441E+02 -0.13209751941E+02 -0.27217096918E+01  0.26767469547E+02  0.51100000000E-03 0.  1.
         12    1    3    3    0    0 -0.19814527395E+00  0.31276076961E+02 -0.85584547428E+01  0.32426523082E+02  0.00000000000E+00 0. -1.
</event>
<event>
 7    1  0.1788006E-013  0.7246164E+02  0.7816164E-02  0.1226708E+00
        -11   -1    0    0    0    0  0.00000000000E+00  0.00000000000E+00  0.45593999997E+02  0.45594000000E+02  0.51100000000E-03 0.  1.
         11   -1    0    0    0    0 -0.00000000000E+00 -0.00000000000E+00 -0.45593999997E+02  0.45594000000E+02  0.51100000000E-03 0. -1.
    9900012    2    1    2    0    0  0.12319630479E+02 -0.12746223988E+02 -0.60363172746E+01  0.72461637637E+02  0.70000087726E+02 0.  0.
        -12    1    1    2    0    0 -0.12319630479E+02  0.12746223988E+02  0.60363172746E+01  0.18726362363E+02  0.00000000000E+00 0.  1.
         11    1    3    3    0    0  0.88592243880E+01  0.21832074300E+02  0.42597005776E+00  0.23564948032E+02  0.51100000000E-03 0. -1.
        -11    1    3    3    0    0  0.48741090010E+01 -0.11046659477E+02 -0.18758515178E+02  0.22308462881E+02  0.51100000000E-03 0.  1.
        -12    1    3    3    0    0 -0.14137029098E+01 -0.23531638811E+02  0.12296227846E+02  0.26588226724E+02  0.00000000000E+00 0.  1.
</event>
<event>
 7    1  0.1788006E-013  0.7246157E+02  0.7816164E-02  0.1226708E+00
        -11   -1    0    0    0    0  0.00000000000E+00  0.00000000000E+00  0.45593999997E+02  0.45594000000E+02  0.51100000000E-03 0.  1.
         11   -1    0    0    0    0 -0.00000000000E+00 -0.00000000000E+00 -0.45593999997E+02  0.45594000000E+02  0.51100000000E-03 0. -1.
    9900012    2    1    2    0    0  0.15002077165E+02  0.10562533982E+02 -0.37483160139E+01  0.72461566374E+02  0.69999994894E+02 0.  0.
        -12    1    1    2    0    0 -0.15002077165E+02 -0.10562533982E+02  0.37483160139E+01  0.18726433626E+02  0.00000000000E+00 0.  1.
         11    1    3    3    0    0  0.11017541744E+02  0.35947771461E+01  0.49579414731E+01  0.12605151039E+02  0.51100000000E-03 0. -1.
        -11    1    3    3    0    0  0.21804324967E+02  0.55342886737E+01  0.17243814046E+02  0.28344418525E+02  0.51100000000E-03 0.  1.
         12    1    3    3    0    0 -0.17819789545E+02  0.14334681622E+01 -0.25950071533E+02  0.31511996811E+02  0.00000000000E+00 0. -1.
</event>
<event>
 7    1  0.1788006E-013  0.7246204E+02  0.7816164E-02  0.1226707E+00
        -11   -1    0    0    0    0  0.00000000000E+00  0.00000000000E+00  0.45593999997E+02  0.45594000000E+02  0.51100000000E-03 0. -1.
         11   -1    0    0    0    0 -0.00000000000E+00 -0.00000000000E+00 -0.45593999997E+02  0.45594000000E+02  0.51100000000E-03 0.  1.
    9900012    2    1    2    0    0  0.50481069814E+01 -0.16070879221E+02  0.81795595114E+01  0.72462035757E+02  0.70000606349E+02 0.  0.
        -12    1    1    2    0    0 -0.50481069814E+01  0.16070879221E+02 -0.81795595114E+01  0.18725964243E+02  0.00000000000E+00 0.  1.
         11    1    3    3    0    0  0.47220427906E+01 -0.39882992882E+01  0.16754051388E+02  0.17857840225E+02  0.51100000000E-03 0. -1.
        -11    1    3    3    0    0  0.18624941702E+02 -0.20293707911E+02  0.78927733133E+01  0.28653427457E+02  0.51100000000E-03 0.  1.
         12    1    3    3    0    0 -0.18298877512E+02  0.82111279789E+01 -0.16467265190E+02  0.25950768075E+02  0.00000000000E+00 0. -1.
</event>
<event>
 7    1  0.1788006E-013  0.7246175E+02  0.7816164E-02  0.1226708E+00
        -11   -1    0    0    0    0  0.00000000000E+00  0.00000000000E+00  0.45593999997E+02  0.45594000000E+02  0.51100000000E-03 0.  1.
         11   -1    0    0    0    0 -0.00000000000E+00 -0.00000000000E+00 -0.45593999997E+02  0.45594000000E+02  0.51100000000E-03 0. -1.
    9900012    2    1    2    0    0  0.16440624374E+02  0.89613912828E+01 -0.26799717927E+00  0.72461748746E+02  0.70000232466E+02 0.  0.
        -12    1    1    2    0    0 -0.16440624374E+02 -0.89613912828E+01  0.26799717927E+00  0.18726251254E+02  0.00000000000E+00 0.  1.
         11    1    3    3    0    0 -0.15257906840E+02  0.70292121782E+01 -0.22420511487E+02  0.28015939759E+02  0.51100000000E-03 0. -1.
        -11    1    3    3    0    0  0.17913564125E+01 -0.50662964592E+01 -0.16124443220E+01  0.56103738344E+01  0.51100000000E-03 0.  1.
        -12    1    3    3    0    0  0.29907174801E+02  0.69984755639E+01  0.23764958630E+02  0.38835435153E+02  0.00000000000E+00 0.  1.
</event>
<event>
 7    1  0.1788006E-013  0.7246154E+02  0.7816164E-02  0.1226708E+00
        -11   -1    0    0    0    0  0.00000000000E+00  0.00000000000E+00  0.45593999997E+02  0.45594000000E+02  0.51100000000E-03 0. -1.
         11   -1    0    0    0    0 -0.00000000000E+00 -0.00000000000E+00 -0.45593999997E+02  0.45594000000E+02  0.51100000000E-03 0.  1.
    9900012    2    1    2    0    0  0.17979986441E+02 -0.36620886936E+01 -0.37402717628E+01  0.72461536402E+02  0.69999955849E+02 0.  0.
        -12    1    1    2    0    0 -0.17979986441E+02  0.36620886936E+01  0.37402717628E+01  0.18726463598E+02  0.00000000000E+00 0.  1.
         11    1    3    3    0    0 -0.17286701418E+02 -0.18313848137E+01  0.85885943307E+00  0.17404644669E+02  0.51100000000E-03 0. -1.
        -11    1    3    3    0    0 -0.75078568194E+01  0.98630818299E+00 -0.92317442881E+01  0.11940092994E+02  0.51100000000E-03 0.  1.
        -12    1    3    3    0    0  0.42774544679E+02 -0.28170120629E+01  0.46326130922E+01  0.43116798739E+02  0.00000000000E+00 0.  1.
</event>
<event>
 7    1  0.1788006E-013  0.7246160E+02  0.7816164E-02  0.1226708E+00
        -11   -1    0    0    0    0  0.00000000000E+00  0.00000000000E+00  0.45593999997E+02  0.45594000000E+02  0.51100000000E-03 0.  1.
         11   -1    0    0    0    0 -0.00000000000E+00 -0.00000000000E+00 -0.45593999997E+02  0.45594000000E+02  0.51100000000E-03 0. -1.
    9900012    2    1    2    0    0 -0.58331610034E+01  0.13604839011E+02  0.11469983634E+02  0.72461603220E+02  0.70000042891E+02 0.  0.
        -12    1    1    2    0    0  0.58331610034E+01 -0.13604839011E+02 -0.11469983634E+02  0.18726396780E+02  0.00000000000E+00 0.  1.
         11    1    3    3    0    0 -0.81618117072E+01 -0.52973850334E+01  0.34243183698E+02  0.35598779313E+02  0.51100000000E-03 0.  1.
        -11    1    3    3    0    0 -0.45199014536E+01 -0.33172643112E+01 -0.31058792075E+01  0.64093866768E+01  0.51100000000E-03 0. -1.
         12    1    3    3    0    0  0.68485521574E+01  0.22219488356E+02 -0.19667320856E+02  0.30453437230E+02  0.00000000000E+00 0. -1.
</event>
<event>
 7    1  0.1788006E-013  0.7246153E+02  0.7816164E-02  0.1226708E+00
        -11   -1    0    0    0    0  0.00000000000E+00  0.00000000000E+00  0.45593999997E+02  0.45594000000E+02  0.51100000000E-03 0.  1.
         11   -1    0    0    0    0 -0.00000000000E+00 -0.00000000000E+00 -0.45593999997E+02  0.45594000000E+02  0.51100000000E-03 0. -1.
    9900012    2    1    2    0    0  0.12246973631E+02 -0.13405531049E+01  0.14103020213E+02  0.72461531437E+02  0.69999949380E+02 0.  0.
        -12    1    1    2    0    0 -0.12246973631E+02  0.13405531049E+01 -0.14103020213E+02  0.18726468563E+02  0.00000000000E+00 0.  1.
         11    1    3    3    0    0  0.69880115843E+01 -0.78707429708E+01 -0.11768349004E+02  0.15788443221E+02  0.51100000000E-03 0. -1.
        -11    1    3    3    0    0 -0.52212467700E+01  0.10760844370E+02 -0.12124972168E+02  0.17031504329E+02  0.51100000000E-03 0.  1.
        -12    1    3    3    0    0  0.10480208816E+02 -0.42306545041E+01  0.37996341384E+02  0.39641583886E+02  0.00000000000E+00 0.  1.
</event>
<event>
 7    1  0.1788006E-013  0.7246165E+02  0.7816164E-02  0.1226708E+00
        -11   -1    0    0    0    0  0.00000000000E+00  0.00000000000E+00  0.45593999997E+02  0.45594000000E+02  0.51100000000E-03 0. -1.
         11   -1    0    0    0    0 -0.00000000000E+00 -0.00000000000E+00 -0.45593999997E+02  0.45594000000E+02  0.51100000000E-03 0.  1.
    9900012    2    1    2    0    0  0.88837441400E+01 -0.15282191364E+02  0.61814300156E+01  0.72461645313E+02  0.70000097725E+02 0.  0.
        -12    1    1    2    0    0 -0.88837441400E+01  0.15282191364E+02 -0.61814300156E+01  0.18726354687E+02  0.00000000000E+00 0.  1.
         11    1    3    3    0    0 -0.14880494047E+02 -0.15104521177E+02 -0.66523757936E+01  0.22222280869E+02  0.51100000000E-03 0. -1.
        -11    1    3    3    0    0  0.14762656496E+02 -0.27858638213E+01 -0.14782296671E+02  0.21076369687E+02  0.51100000000E-03 0.  1.
         12    1    3    3    0    0  0.90015816905E+01  0.26081936342E+01  0.27616102480E+02  0.29162994756E+02  0.00000000000E+00 0. -1.
</event>
<event>
 7    1  0.1788006E-013  0.7246160E+02  0.7816164E-02  0.1226708E+00
        -11   -1    0    0    0    0  0.00000000000E+00  0.00000000000E+00  0.45593999997E+02  0.45594000000E+02  0.51100000000E-03 0. -1.
         11   -1    0    0    0    0 -0.00000000000E+00 -0.00000000000E+00 -0.45593999997E+02  0.45594000000E+02  0.51100000000E-03 0.  1.
    9900012    2    1    2    0    0 -0.12259574344E+02 -0.11339127097E+02  0.84737885360E+01  0.72461599957E+02  0.70000038641E+02 0.  0.
        -12    1    1    2    0    0  0.12259574344E+02  0.11339127097E+02 -0.84737885360E+01  0.18726400043E+02  0.00000000000E+00 0.  1.
         11    1    3    3    0    0  0.10524554436E+02 -0.13748868485E+02 -0.10868091791E+02  0.20442921762E+02  0.51100000000E-03 0. -1.
        -11    1    3    3    0    0  0.53535010677E+01 -0.90728964365E+01 -0.62837368826E+01  0.12266326789E+02  0.51100000000E-03 0.  1.
        -12    1    3    3    0    0 -0.28137629848E+02  0.11482637825E+02  0.25625617210E+02  0.39752351406E+02  0.00000000000E+00 0.  1.
</event>
<event>
 7    1  0.1788006E-013  0.7246157E+02  0.7816164E-02  0.1226708E+00
        -11   -1    0    0    0    0  0.00000000000E+00  0.00000000000E+00  0.45593999997E+02  0.45594000000E+02  0.51100000000E-03 0.  1.
         11   -1    0    0    0    0 -0.00000000000E+00 -0.00000000000E+00 -0.45593999997E+02  0.45594000000E+02  0.51100000000E-03 0. -1.
    9900012    2    1    2    0    0  0.58582270808E+01 -0.26001953224E+00 -0.17784619095E+02  0.72461571856E+02  0.70000002034E+02 0.  0.
        -12    1    1    2    0    0 -0.58582270808E+01  0.26001953224E+00  0.17784619095E+02  0.18726428144E+02  0.00000000000E+00 0.  1.
         11    1    3    3    0    0 -0.55777386218E+01 -0.10006423827E+01  0.26206884970E+01  0.62434334921E+01  0.51100000000E-03 0. -1.
        -11    1    3    3    0    0 -0.18560342485E+02  0.16894529514E+02 -0.20088105632E+02  0.32147214947E+02  0.51100000000E-03 0.  1.
         12    1    3    3    0    0  0.29996308188E+02 -0.16153906663E+02 -0.31720195974E+00  0.34070923417E+02  0.00000000000E+00 0. -1.
</event>
<event>
 7    1  0.1788006E-013  0.7246158E+02  0.7816164E-02  0.1226708E+00
        -11   -1    0    0    0    0  0.00000000000E+00  0.00000000000E+00  0.45593999997E+02  0.45594000000E+02  0.51100000000E-03 0. -1.
         11   -1    0    0    0    0 -0.00000000000E+00 -0.00000000000E+00 -0.45593999997E+02  0.45594000000E+02  0.51100000000E-03 0.  1.
    9900012    2    1    2    0    0 -0.86109103932E+01 -0.48863011686E+01  0.15895127172E+02  0.72461580568E+02  0.70000013384E+02 0.  0.
        -12    1    1    2    0    0  0.86109103932E+01  0.48863011686E+01 -0.15895127172E+02  0.18726419432E+02  0.00000000000E+00 0.  1.
         11    1    3    3    0    0 -0.20545670396E+02  0.76390060693E+01  0.20521281945E+02  0.30026688107E+02  0.51100000000E-03 0. -1.
        -11    1    3    3    0    0 -0.10479564381E+02  0.66670735185E+01  0.73940564767E+00  0.12442582525E+02  0.51100000000E-03 0.  1.
         12    1    3    3    0    0  0.22414324384E+02 -0.19192380756E+02 -0.53655604208E+01  0.29992309936E+02  0.00000000000E+00 0. -1.
</event>
<event>
 7    1  0.1788006E-013  0.7246164E+02  0.7816164E-02  0.1226708E+00
        -11   -1    0    0    0    0  0.00000000000E+00  0.00000000000E+00  0.45593999997E+02  0.45594000000E+02  0.51100000000E-03 0.  1.
         11   -1    0    0    0    0 -0.00000000000E+00 -0.00000000000E+00 -0.45593999997E+02  0.45594000000E+02  0.51100000000E-03 0. -1.
    9900012    2    1    2    0    0  0.18689016704E+02  0.82095379511E+00 -0.85044972185E+00  0.72461639562E+02  0.70000090235E+02 0.  0.
        -12    1    1    2    0    0 -0.18689016704E+02 -0.82095379511E+00  0.85044972185E+00  0.18726360438E+02  0.00000000000E+00 0.  1.
         11    1    3    3    0    0  0.15738843601E+02  0.44303306016E+01 -0.21560078988E+02  0.27058751511E+02  0.51100000000E-03 0. -1.
        -11    1    3    3    0    0 -0.47231576854E+01 -0.34987467536E+00 -0.11338629548E+02  0.12288008427E+02  0.51100000000E-03 0.  1.
        -12    1    3    3    0    0  0.76733307891E+01 -0.32595021311E+01  0.32048258814E+02  0.33114879625E+02  0.00000000000E+00 0.  1.
</event>
<event>
 7    1  0.1788006E-013  0.7246156E+02  0.7816164E-02  0.1226708E+00
        -11   -1    0    0    0    0  0.00000000000E+00  0.00000000000E+00  0.45593999997E+02  0.45594000000E+02  0.51100000000E-03 0. -1.
         11   -1    0    0    0    0 -0.00000000000E+00 -0.00000000000E+00 -0.45593999997E+02  0.45594000000E+02  0.51100000000E-03 0.  1.
    9900012    2    1    2    0    0 -0.77757432281E+01  0.48806453474E+01  0.16321665739E+02  0.72461557352E+02  0.69999983140E+02 0.  0.
        -12    1    1    2    0    0  0.77757432281E+01 -0.48806453474E+01 -0.16321665739E+02  0.18726442648E+02  0.00000000000E+00 0.  1.
         11    1    3    3    0    0 -0.79597322988E+01  0.10926537693E+02  0.13381007998E+02  0.19020986818E+02  0.51100000000E-03 0. -1.
        -11    1    3    3    0    0 -0.93883411984E+01  0.32884410052E+01  0.25413607910E+02  0.27291138891E+02  0.51100000000E-03 0.  1.
        -12    1    3    3    0    0  0.95723302690E+01 -0.93343333506E+01 -0.22472950170E+02  0.26149431643E+02  0.00000000000E+00 0.  1.
</event>
<event>
 7    1  0.1788006E-013  0.7246157E+02  0.7816164E-02  0.1226708E+00
        -11   -1    0    0    0    0  0.00000000000E+00  0.00000000000E+00  0.45593999997E+02  0.45594000000E+02  0.51100000000E-03 0.  1.
         11   -1    0    0    0    0 -0.00000000000E+00 -0.00000000000E+00 -0.45593999997E+02  0.45594000000E+02  0.51100000000E-03 0. -1.
    9900012    2    1    2    0    0 -0.13628833338E+02  0.12491748186E+02  0.29816826046E+01  0.72461566756E+02  0.69999995390E+02 0.  0.
        -12    1    1    2    0    0  0.13628833338E+02 -0.12491748186E+02 -0.29816826046E+01  0.18726433244E+02  0.00000000000E+00 0.  1.
         11    1    3    3    0    0 -0.19565655028E+02  0.53757721034E+00 -0.10050261439E+01  0.19598824550E+02  0.51100000000E-03 0. -1.
        -11    1    3    3    0    0  0.48674057150E+01  0.63445538263E+01  0.27513908186E+02  0.28652402091E+02  0.51100000000E-03 0.  1.
         12    1    3    3    0    0  0.10694159743E+01  0.56096171490E+01 -0.23527199438E+02  0.24210340115E+02  0.00000000000E+00 0. -1.
</event>
<event>
 7    1  0.1788006E-013  0.7246157E+02  0.7816164E-02  0.1226708E+00
        -11   -1    0    0    0    0  0.00000000000E+00  0.00000000000E+00  0.45593999997E+02  0.45594000000E+02  0.51100000000E-03 0.  1.
         11   -1    0    0    0    0 -0.00000000000E+00 -0.00000000000E+00 -0.45593999997E+02  0.45594000000E+02  0.51100000000E-03 0. -1.
    9900012    2    1    2    0    0  0.12796147332E+02 -0.72039825658E+01 -0.11620689365E+02  0.72461570210E+02  0.69999999890E+02 0.  0.
        -12    1    1    2    0    0 -0.12796147332E+02  0.72039825658E+01  0.11620689365E+02  0.18726429790E+02  0.00000000000E+00 0.  1.
         11    1    3    3    0    0  0.19202435298E+02  0.76627559693E+01 -0.18028319306E+02  0.27431216664E+02  0.51100000000E-03 0. -1.
        -11    1    3    3    0    0  0.11880173154E+02  0.86806567641E+01  0.30653986643E+01  0.15029603629E+02  0.51100000000E-03 0.  1.
        -12    1    3    3    0    0 -0.18286461120E+02 -0.23547395299E+02  0.33422312767E+01  0.30000749917E+02  0.00000000000E+00 0.  1.
</event>
<event>
 7    1  0.1788006E-013  0.7246160E+02  0.7816164E-02  0.1226708E+00
        -11   -1    0    0    0    0  0.00000000000E+00  0.00000000000E+00  0.45593999997E+02  0.45594000000E+02  0.51100000000E-03 0.  1.
         11   -1    0    0    0    0 -0.00000000000E+00 -0.00000000000E+00 -0.45593999997E+02  0.45594000000E+02  0.51100000000E-03 0. -1.
    9900012    2    1    2    0    0 -0.71541621498E+00  0.72140945225E+01 -0.17266244593E+02  0.72461596648E+02  0.70000034331E+02 0.  0.
        -12    1    1    2    0    0  0.71541621498E+00 -0.72140945225E+01  0.17266244593E+02  0.18726403352E+02  0.00000000000E+00 0.  1.
         11    1    3    3    0    0 -0.42614068065E+01 -0.12049941778E+02 -0.30678964730E+02  0.33234914803E+02  0.51100000000E-03 0. -1.
        -11    1    3    3    0    0 -0.47089831889E+01 -0.67298801742E+01 -0.11747929415E+01  0.82973458738E+01  0.51100000000E-03 0.  1.
        -12    1    3    3    0    0  0.82549737805E+01  0.25993916475E+02  0.14587513078E+02  0.30929335971E+02  0.00000000000E+00 0.  1.
</event>
<event>
 7    1  0.1788006E-013  0.7246155E+02  0.7816164E-02  0.1226708E+00
        -11   -1    0    0    0    0  0.00000000000E+00  0.00000000000E+00  0.45593999997E+02  0.45594000000E+02  0.51100000000E-03 0. -1.
         11   -1    0    0    0    0 -0.00000000000E+00 -0.00000000000E+00 -0.45593999997E+02  0.45594000000E+02  0.51100000000E-03 0.  1.
    9900012    2    1    2    0    0  0.10291071550E+02 -0.39091094809E+01  0.15149012773E+02  0.72461551363E+02  0.69999975338E+02 0.  0.
        -12    1    1    2    0    0 -0.10291071550E+02  0.39091094809E+01 -0.15149012773E+02  0.18726448637E+02  0.00000000000E+00 0.  1.
         11    1    3    3    0    0  0.13524462335E+02 -0.28364702516E+02 -0.70694483651E+01  0.32209385755E+02  0.51100000000E-03 0. -1.
        -11    1    3    3    0    0 -0.19284133197E+01 -0.40736758483E+01  0.85660507603E+00  0.45877429490E+01  0.51100000000E-03 0.  1.
        -12    1    3    3    0    0 -0.13049774652E+01  0.28529268883E+02  0.21361856062E+02  0.35664422659E+02  0.00000000000E+00 0.  1.
</event>
<event>
 7    1  0.1977769E-013  0.7246153E+02  0.7816164E-02  0.1226708E+00
        -11   -1    0    0    0    0  0.00000000000E+00  0.00000000000E+00  0.45593999997E+02  0.45594000000E+02  0.51100000000E-03 0.  1.
         11   -1    0    0    0    0 -0.00000000000E+00 -0.00000000000E+00 -0.45593999997E+02  0.45594000000E+02  0.51100000000E-03 0. -1.
    9900012    2    1    2    0    0 -0.31182116080E+01 -0.18438408155E+02 -0.99129369930E+00  0.72461526704E+02  0.69999943215E+02 0.  0.
        -12    1    1    2    0    0  0.31182116080E+01  0.18438408155E+02  0.99129369930E+00  0.18726473296E+02  0.00000000000E+00 0.  1.
         11    1    3    3    0    0  0.11485851981E+01 -0.18715928526E+02 -0.84572082022E+01  0.20570114229E+02  0.51100000000E-03 0. -1.
        -11    1    3    3    0    0  0.12444162785E+02  0.15548150647E+02 -0.10934346160E+02  0.22719201178E+02  0.51100000000E-03 0.  1.
         12    1    3    3    0    0 -0.16710959591E+02 -0.15270630275E+02  0.18400260663E+02  0.29172211297E+02  0.00000000000E+00 0. -1.
</event>
<event>
 7    1  0.1788006E-013  0.7246158E+02  0.7816164E-02  0.1226708E+00
        -11   -1    0    0    0    0  0.00000000000E+00  0.00000000000E+00  0.45593999997E+02  0.45594000000E+02  0.51100000000E-03 0. -1.
         11   -1    0    0    0    0 -0.00000000000E+00 -0.00000000000E+00 -0.45593999997E+02  0.45594000000E+02  0.51100000000E-03 0.  1.
    9900012    2    1    2    0    0 -0.98815002239E+01 -0.10746972726E+02  0.11727634669E+02  0.72461577908E+02  0.70000009918E+02 0.  0.
        -12    1    1    2    0    0  0.98815002239E+01  0.10746972726E+02 -0.11727634669E+02  0.18726422092E+02  0.00000000000E+00 0.  1.
         11    1    3    3    0    0  0.18058888567E+02 -0.12112106697E+02  0.25305259239E+02  0.33364393151E+02  0.51100000000E-03 0. -1.
        -11    1    3    3    0    0  0.39620445075E+01  0.25451825098E+01 -0.12196698895E+01  0.48644984929E+01  0.51100000000E-03 0.  1.
        -12    1    3    3    0    0 -0.31902433299E+02 -0.11800485391E+01 -0.12357954681E+02  0.34232686264E+02  0.00000000000E+00 0.  1.
</event>
<event>
 7    1  0.1788006E-013  0.7246160E+02  0.7816164E-02  0.1226708E+00
        -11   -1    0    0    0    0  0.00000000000E+00  0.00000000000E+00  0.45593999997E+02  0.45594000000E+02  0.51100000000E-03 0. -1.
         11   -1    0    0    0    0 -0.00000000000E+00 -0.00000000000E+00 -0.45593999997E+02  0.45594000000E+02  0.51100000000E-03 0.  1.
    9900012    2    1    2    0    0  0.12737135952E+02  0.12071978622E+02  0.65353358605E+01  0.72461603792E+02  0.70000043637E+02 0.  0.
        -12    1    1    2    0    0 -0.12737135952E+02 -0.12071978622E+02 -0.65353358605E+01  0.18726396208E+02  0.00000000000E+00 0.  1.
         11    1    3    3    0    0  0.16897326773E+02  0.82709206540E+01  0.54140282251E+01  0.19576503325E+02  0.51100000000E-03 0. -1.
        -11    1    3    3    0    0  0.10821853168E+02  0.20653224403E+02  0.13721426483E+02  0.27054495546E+02  0.51100000000E-03 0.  1.
        -12    1    3    3    0    0 -0.14982043990E+02 -0.16852166435E+02 -0.12600118847E+02  0.25830604922E+02  0.00000000000E+00 0.  1.
</event>
<event>
 7    1  0.1788006E-013  0.7246153E+02  0.7816164E-02  0.1226708E+00
        -11   -1    0    0    0    0  0.00000000000E+00  0.00000000000E+00  0.45593999997E+02  0.45594000000E+02  0.51100000000E-03 0.  1.
         11   -1    0    0    0    0 -0.00000000000E+00 -0.00000000000E+00 -0.45593999997E+02  0.45594000000E+02  0.51100000000E-03 0. -1.
    9900012    2    1    2    0    0  0.11204735791E+02  0.14118315223E+02 -0.50801157001E+01  0.72461534652E+02  0.69999953570E+02 0.  0.
        -12    1    1    2    0    0 -0.11204735791E+02 -0.14118315223E+02  0.50801157001E+01  0.18726465348E+02  0.00000000000E+00 0.  1.
         11    1    3    3    0    0  0.64220275189E+01 -0.35904511080E+01 -0.27145170786E+01  0.78423453025E+01  0.51100000000E-03 0. -1.
        -11    1    3    3    0    0  0.29953701731E+02  0.24049991344E+02  0.11109703834E+01  0.38429943878E+02  0.51100000000E-03 0.  1.
         12    1    3    3    0    0 -0.25170993459E+02 -0.63412250125E+01 -0.34765690049E+01  0.26189245472E+02  0.00000000000E+00 0. -1.
</event>
<event>
 7    1  0.1788006E-013  0.7246155E+02  0.7816164E-02  0.1226708E+00
        -11   -1    0    0    0    0  0.00000000000E+00  0.00000000000E+00  0.45593999997E+02  0.45594000000E+02  0.51100000000E-03 0.  1.
         11   -1    0    0    0    0 -0.00000000000E+00 -0.00000000000E+00 -0.45593999997E+02  0.45594000000E+02  0.51100000000E-03 0. -1.
    9900012    2    1    2    0    0 -0.23691017753E+01  0.14786975338E+02 -0.11243345455E+02  0.72461545453E+02  0.69999967640E+02 0.  0.
        -12    1    1    2    0    0  0.23691017753E+01 -0.14786975338E+02  0.11243345455E+02  0.18726454547E+02  0.00000000000E+00 0.  1.
         11    1    3    3    0    0 -0.80562895505E+01  0.10306191359E+02  0.10504958464E+02  0.16777232616E+02  0.51100000000E-03 0. -1.
        -11    1    3    3    0    0  0.58919831580E+01  0.27437438799E+02 -0.92682087109E+01  0.29553818812E+02  0.51100000000E-03 0.  1.
         12    1    3    3    0    0 -0.20479538288E+00 -0.22956654819E+02 -0.12480095208E+02  0.26130494026E+02  0.00000000000E+00 0. -1.
</event>
<event>
 7    1  0.1788006E-013  0.7246157E+02  0.7816164E-02  0.1226708E+00
        -11   -1    0    0    0    0  0.00000000000E+00  0.00000000000E+00  0.45593999997E+02  0.45594000000E+02  0.51100000000E-03 0.  1.
         11   -1    0    0    0    0 -0.00000000000E+00 -0.00000000000E+00 -0.45593999997E+02  0.45594000000E+02  0.51100000000E-03 0. -1.
    9900012    2    1    2    0    0 -0.12092038394E+02  0.14248212779E+02  0.12042380229E+01  0.72461570839E+02  0.70000000709E+02 0.  0.
        -12    1    1    2    0    0  0.12092038394E+02 -0.14248212779E+02 -0.12042380229E+01  0.18726429161E+02  0.00000000000E+00 0.  1.
         11    1    3    3    0    0 -0.15463744289E+02  0.18262872776E+02  0.12600271334E+00  0.23930645341E+02  0.51100000000E-03 0. -1.
        -11    1    3    3    0    0 -0.25100985931E+01  0.95985645170E+01 -0.20252321834E+02  0.22551930641E+02  0.51100000000E-03 0.  1.
        -12    1    3    3    0    0  0.58818044883E+01 -0.13613224515E+02  0.21330557143E+02  0.25978994857E+02  0.00000000000E+00 0.  1.
</event>
<event>
 7    1  0.2149656E-013  0.7246162E+02  0.7816164E-02  0.1226708E+00
        -11   -1    0    0    0    0  0.00000000000E+00  0.00000000000E+00  0.45593999997E+02  0.45594000000E+02  0.51100000000E-03 0.  1.
         11   -1    0    0    0    0 -0.00000000000E+00 -0.00000000000E+00 -0.45593999997E+02  0.45594000000E+02  0.51100000000E-03 0. -1.
    9900012    2    1    2    0    0 -0.75432432693E+00  0.18486527128E+02  0.28907875558E+01  0.72461619059E+02  0.70000063525E+02 0.  0.
        -12    1    1    2    0    0  0.75432432693E+00 -0.18486527128E+02 -0.28907875558E+01  0.18726380941E+02  0.00000000000E+00 0.  1.
         11    1    3    3    0    0 -0.15744528257E+02  0.11004590501E+02  0.58691271906E+01  0.20085762031E+02  0.51100000000E-03 0. -1.
        -11    1    3    3    0    0 -0.33716495869E+01  0.15044365528E+00 -0.23580844491E+02  0.23821143579E+02  0.51100000000E-03 0.  1.
         12    1    3    3    0    0  0.18361853517E+02  0.73314929718E+01  0.20602504857E+02  0.28554713449E+02  0.00000000000E+00 0. -1.
</event>
<event>
 7    1  0.1788006E-013  0.7246159E+02  0.7816164E-02  0.1226708E+00
        -11   -1    0    0    0    0  0.00000000000E+00  0.00000000000E+00  0.45593999997E+02  0.45594000000E+02  0.51100000000E-03 0. -1.
         11   -1    0    0    0    0 -0.00000000000E+00 -0.00000000000E+00 -0.45593999997E+02  0.45594000000E+02  0.51100000000E-03 0.  1.
    9900012    2    1    2    0    0  0.63576436689E+01 -0.15419943192E+02 -0.85137523996E+01  0.72461594552E+02  0.70000031600E+02 0.  0.
        -12    1    1    2    0    0 -0.63576436689E+01  0.15419943192E+02  0.85137523996E+01  0.18726405448E+02  0.00000000000E+00 0.  1.
         11    1    3    3    0    0 -0.79173719093E+01  0.17331430330E+02  0.10086176154E+02  0.21559086365E+02  0.51100000000E-03 0. -1.
        -11    1    3    3    0    0  0.85457760002E+01  0.29863699871E+01 -0.10406011921E+02  0.13792526147E+02  0.51100000000E-03 0.  1.
        -12    1    3    3    0    0  0.57292395780E+01 -0.35737743509E+02 -0.81939166320E+01  0.37109982040E+02  0.00000000000E+00 0.  1.
</event>
<event>
 7    1  0.1788006E-013  0.7246193E+02  0.7816164E-02  0.1226707E+00
        -11   -1    0    0    0    0  0.00000000000E+00  0.00000000000E+00  0.45593999997E+02  0.45594000000E+02  0.51100000000E-03 0.  1.
         11   -1    0    0    0    0 -0.00000000000E+00 -0.00000000000E+00 -0.45593999997E+02  0.45594000000E+02  0.51100000000E-03 0. -1.
    9900012    2    1    2    0    0 -0.12364868464E+02  0.93944527378E+01 -0.10465185824E+02  0.72461926500E+02  0.70000464023E+02 0.  0.
        -12    1    1    2    0    0  0.12364868464E+02 -0.93944527378E+01  0.10465185824E+02  0.18726073500E+02  0.00000000000E+00 0.  1.
         11    1    3    3    0    0 -0.44479220246E+01  0.13016872338E+02  0.12749505824E+02  0.18755609156E+02  0.51100000000E-03 0. -1.
        -11    1    3    3    0    0 -0.27946514790E+01 -0.76629117028E+01  0.13849171729E+02  0.16072642922E+02  0.51100000000E-03 0.  1.
         12    1    3    3    0    0 -0.51222949608E+01  0.40404921029E+01 -0.37063863377E+02  0.37633674422E+02  0.00000000000E+00 0. -1.
</event>
<event>
 7    1  0.1788006E-013  0.7246163E+02  0.7816164E-02  0.1226708E+00
        -11   -1    0    0    0    0  0.00000000000E+00  0.00000000000E+00  0.45593999997E+02  0.45594000000E+02  0.51100000000E-03 0.  1.
         11   -1    0    0    0    0 -0.00000000000E+00 -0.00000000000E+00 -0.45593999997E+02  0.45594000000E+02  0.51100000000E-03 0. -1.
    9900012    2    1    2    0    0  0.45206203585E+01  0.17799451300E+02 -0.36634091273E+01  0.72461627115E+02  0.70000074020E+02 0.  0.
        -12    1    1    2    0    0 -0.45206203585E+01 -0.17799451300E+02  0.36634091273E+01  0.18726372885E+02  0.00000000000E+00 0.  1.
         11    1    3    3    0    0  0.18934109197E+02  0.51578472494E+01 -0.58970085252E+01  0.20490939196E+02  0.51100000000E-03 0. -1.
        -11    1    3    3    0    0  0.14353911588E+02  0.30795041058E+00  0.12493641730E+02  0.19032096449E+02  0.51100000000E-03 0.  1.
         12    1    3    3    0    0 -0.28767400426E+02  0.12333653640E+02 -0.10260042332E+02  0.32938591470E+02  0.00000000000E+00 0. -1.
</event>
<event>
 7    1  0.1788006E-013  0.7246153E+02  0.7816164E-02  0.1226708E+00
        -11   -1    0    0    0    0  0.00000000000E+00  0.00000000000E+00  0.45593999997E+02  0.45594000000E+02  0.51100000000E-03 0. -1.
         11   -1    0    0    0    0 -0.00000000000E+00 -0.00000000000E+00 -0.45593999997E+02  0.45594000000E+02  0.51100000000E-03 0.  1.
    9900012    2    1    2    0    0  0.54548957736E+01  0.16391911865E+02  0.72270253221E+01  0.72461533235E+02  0.69999951723E+02 0.  0.
        -12    1    1    2    0    0 -0.54548957736E+01 -0.16391911865E+02 -0.72270253221E+01  0.18726466765E+02  0.00000000000E+00 0.  1.
         11    1    3    3    0    0  0.14825101335E+02  0.36135643438E+02  0.20511820088E+02  0.44116925549E+02  0.51100000000E-03 0. -1.
        -11    1    3    3    0    0 -0.39280036836E+00 -0.30369330515E+01  0.22732137771E+01  0.38137587268E+01  0.51100000000E-03 0.  1.
        -12    1    3    3    0    0 -0.89774051929E+01 -0.16706798521E+02 -0.15558008543E+02  0.24530848959E+02  0.00000000000E+00 0.  1.
</event>
<event>
 7    1  0.1788006E-013  0.7246159E+02  0.7816164E-02  0.1226708E+00
        -11   -1    0    0    0    0  0.00000000000E+00  0.00000000000E+00  0.45593999997E+02  0.45594000000E+02  0.51100000000E-03 0.  1.
         11   -1    0    0    0    0 -0.00000000000E+00 -0.00000000000E+00 -0.45593999997E+02  0.45594000000E+02  0.51100000000E-03 0. -1.
    9900012    2    1    2    0    0 -0.99598315591E+01  0.19891675868E+01 -0.15732875927E+02  0.72461590379E+02  0.70000026164E+02 0.  0.
        -12    1    1    2    0    0  0.99598315591E+01 -0.19891675868E+01  0.15732875927E+02  0.18726409621E+02  0.00000000000E+00 0.  1.
         11    1    3    3    0    0 -0.75714970063E+01 -0.17115679383E+02 -0.23941669485E+02  0.30388774007E+02  0.51100000000E-03 0. -1.
        -11    1    3    3    0    0  0.96809792538E+01 -0.44862720892E+01  0.11123658475E+02  0.15413752778E+02  0.51100000000E-03 0.  1.
        -12    1    3    3    0    0 -0.12069313807E+02  0.23591119059E+02 -0.29148649179E+01  0.26659063594E+02  0.00000000000E+00 0.  1.
</event>
<event>
 7    1  0.1788006E-013  0.7246155E+02  0.7816164E-02  0.1226708E+00
        -11   -1    0    0    0    0  0.00000000000E+00  0.00000000000E+00  0.45593999997E+02  0.45594000000E+02  0.51100000000E-03 0.  1.
         11   -1    0    0    0    0 -0.00000000000E+00 -0.00000000000E+00 -0.45593999997E+02  0.45594000000E+02  0.51100000000E-03 0. -1.
    9900012    2    1    2    0    0  0.13079812230E+02 -0.12426624093E+02 -0.50176981983E+01  0.72461554274E+02  0.69999979131E+02 0.  0.
        -12    1    1    2    0    0 -0.13079812230E+02  0.12426624093E+02  0.50176981983E+01  0.18726445726E+02  0.00000000000E+00 0.  1.
         11    1    3    3    0    0  0.60655306780E+01  0.43212021824E+01  0.19629123237E+02  0.20994426166E+02  0.51100000000E-03 0. -1.
        -11    1    3    3    0    0 -0.15951245320E+02 -0.14954442074E+02 -0.91394184654E+01  0.23698239072E+02  0.51100000000E-03 0.  1.
         12    1    3    3    0    0  0.22965526872E+02 -0.17933842011E+01 -0.15507402970E+02  0.27768889036E+02  0.00000000000E+00 0. -1.
</event>
<event>
 7    1  0.1788006E-013  0.7246156E+02  0.7816164E-02  0.1226708E+00
        -11   -1    0    0    0    0  0.00000000000E+00  0.00000000000E+00  0.45593999997E+02  0.45594000000E+02  0.51100000000E-03 0. -1.
         11   -1    0    0    0    0 -0.00000000000E+00 -0.00000000000E+00 -0.45593999997E+02  0.45594000000E+02  0.51100000000E-03 0.  1.
    9900012    2    1    2    0    0 -0.16013760160E+02 -0.89264283902E+01 -0.38154839794E+01  0.72461559968E+02  0.69999986548E+02 0.  0.
        -12    1    1    2    0    0  0.16013760160E+02  0.89264283902E+01  0.38154839794E+01  0.18726440032E+02  0.00000000000E+00 0.  1.
         11    1    3    3    0    0  0.37408581769E+01 -0.27300535254E+01  0.78486868130E+01  0.91131277343E+01  0.51100000000E-03 0. -1.
        -11    1    3    3    0    0 -0.30847864384E+02 -0.16240825863E+02  0.10675223119E+02  0.36459779905E+02  0.51100000000E-03 0.  1.
        -12    1    3    3    0    0  0.11093246047E+02  0.10044450998E+02 -0.22339393912E+02  0.26888652329E+02  0.00000000000E+00 0.  1.
</event>
<event>
 7    1  0.1788006E-013  0.7246162E+02  0.7816164E-02  0.1226708E+00
        -11   -1    0    0    0    0  0.00000000000E+00  0.00000000000E+00  0.45593999997E+02  0.45594000000E+02  0.51100000000E-03 0. -1.
         11   -1    0    0    0    0 -0.00000000000E+00 -0.00000000000E+00 -0.45593999997E+02  0.45594000000E+02  0.51100000000E-03 0.  1.
    9900012    2    1    2    0    0  0.67904160942E+01 -0.14162039634E+02  0.10198247651E+02  0.72461618276E+02  0.70000062505E+02 0.  0.
        -12    1    1    2    0    0 -0.67904160942E+01  0.14162039634E+02 -0.10198247651E+02  0.18726381724E+02  0.00000000000E+00 0.  1.
         11    1    3    3    0    0 -0.25149309508E+00 -0.37552513000E+02 -0.10506087688E+01  0.37568048398E+02  0.51100000000E-03 0. -1.
        -11    1    3    3    0    0  0.31248313993E+00 -0.19757053770E+01  0.82384958961E+01  0.84778459729E+01  0.51100000000E-03 0.  1.
        -12    1    3    3    0    0  0.67294260494E+01  0.25366178742E+02  0.30103605239E+01  0.26415723905E+02  0.00000000000E+00 0.  1.
</event>
<event>
 7    1  0.1788006E-013  0.7246154E+02  0.7816164E-02  0.1226708E+00
        -11   -1    0    0    0    0  0.00000000000E+00  0.00000000000E+00  0.45593999997E+02  0.45594000000E+02  0.51100000000E-03 0. -1.
         11   -1    0    0    0    0 -0.00000000000E+00 -0.00000000000E+00 -0.45593999997E+02  0.45594000000E+02  0.51100000000E-03 0.  1.
    9900012    2    1    2    0    0 -0.35094339511E+01  0.14550954023E+02 -0.11253171138E+02  0.72461541437E+02  0.69999962408E+02 0.  0.
        -12    1    1    2    0    0  0.35094339511E+01 -0.14550954023E+02  0.11253171138E+02  0.18726458563E+02  0.00000000000E+00 0.  1.
         11    1    3    3    0    0 -0.12997609221E+02  0.52368289961E+01 -0.25001170450E+02  0.28660438718E+02  0.51100000000E-03 0.  1.
        -11    1    3    3    0    0  0.20039528960E+02 -0.20956054537E+01 -0.36458845466E+01  0.20476004433E+02  0.51100000000E-03 0. -1.
         12    1    3    3    0    0 -0.10551353691E+02  0.11409730481E+02  0.17393883858E+02  0.23325098285E+02  0.00000000000E+00 0. -1.
</event>
<event>
 7    1  0.1788006E-013  0.7246158E+02  0.7816164E-02  0.1226708E+00
        -11   -1    0    0    0    0  0.00000000000E+00  0.00000000000E+00  0.45593999997E+02  0.45594000000E+02  0.51100000000E-03 0.  1.
         11   -1    0    0    0    0 -0.00000000000E+00 -0.00000000000E+00 -0.45593999997E+02  0.45594000000E+02  0.51100000000E-03 0. -1.
    9900012    2    1    2    0    0 -0.71027942166E+01  0.15572662321E+02 -0.75974518093E+01  0.72461580923E+02  0.70000013846E+02 0.  0.
        -12    1    1    2    0    0  0.71027942166E+01 -0.15572662321E+02  0.75974518093E+01  0.18726419077E+02  0.00000000000E+00 0.  1.
         11    1    3    3    0    0  0.93853575832E+01  0.20038420254E+02  0.55199589734E+01  0.22805551310E+02  0.51100000000E-03 0. -1.
        -11    1    3    3    0    0  0.65840442591E+00  0.11891194472E+02  0.10734788596E+02  0.16033392929E+02  0.51100000000E-03 0.  1.
         12    1    3    3    0    0 -0.17146556226E+02 -0.16356952404E+02 -0.23852199379E+02  0.33622636684E+02  0.00000000000E+00 0. -1.
</event>
<event>
 7    1  0.1788006E-013  0.7246152E+02  0.7816164E-02  0.1226708E+00
        -11   -1    0    0    0    0  0.00000000000E+00  0.00000000000E+00  0.45593999997E+02  0.45594000000E+02  0.51100000000E-03 0. -1.
         11   -1    0    0    0    0 -0.00000000000E+00 -0.00000000000E+00 -0.45593999997E+02  0.45594000000E+02  0.51100000000E-03 0.  1.
    9900012    2    1    2    0    0 -0.90874301718E+01  0.15768827568E+02 -0.44094952641E+01  0.72461522529E+02  0.69999937777E+02 0.  0.
        -12    1    1    2    0    0  0.90874301718E+01 -0.15768827568E+02  0.44094952641E+01  0.18726477471E+02  0.00000000000E+00 0.  1.
         11    1    3    3    0    0  0.77934313935E+01 -0.96115731171E+00  0.65711160593E+01  0.10239187604E+02  0.51100000000E-03 0. -1.
        -11    1    3    3    0    0 -0.54788514411E+01 -0.19994322082E+01 -0.31593716660E+02  0.32127534529E+02  0.51100000000E-03 0.  1.
         12    1    3    3    0    0 -0.11402010124E+02  0.18729417087E+02  0.20613105336E+02  0.30094800397E+02  0.00000000000E+00 0. -1.
</event>
<event>
 7    1  0.1788006E-013  0.7246147E+02  0.7816164E-02  0.1226708E+00
        -11   -1    0    0    0    0  0.00000000000E+00  0.00000000000E+00  0.45593999997E+02  0.45594000000E+02  0.51100000000E-03 0. -1.
         11   -1    0    0    0    0 -0.00000000000E+00 -0.00000000000E+00 -0.45593999997E+02  0.45594000000E+02  0.51100000000E-03 0.  1.
    9900012    2    1    2    0    0 -0.37927489701E+01 -0.16236806498E+02 -0.85243138159E+01  0.72461474534E+02  0.69999875255E+02 0.  0.
        -12    1    1    2    0    0  0.37927489701E+01  0.16236806498E+02  0.85243138159E+01  0.18726525466E+02  0.00000000000E+00 0.  1.
         11    1    3    3    0    0 -0.58476932290E+01  0.41924360827E+01 -0.44079769981E+01  0.84381454056E+01  0.51100000000E-03 0. -1.
        -11    1    3    3    0    0  0.22634352953E+02  0.11360146541E+02 -0.62803701850E+01  0.26092334371E+02  0.51100000000E-03 0.  1.
         12    1    3    3    0    0 -0.20579408694E+02 -0.31789389121E+02  0.21640333672E+01  0.37930994757E+02  0.00000000000E+00 0. -1.
</event>
<event>
 7    1  0.1788006E-013  0.7246178E+02  0.7816164E-02  0.1226707E+00
        -11   -1    0    0    0    0  0.00000000000E+00  0.00000000000E+00  0.45593999997E+02  0.45594000000E+02  0.51100000000E-03 0.  1.
         11   -1    0    0    0    0 -0.00000000000E+00 -0.00000000000E+00 -0.45593999997E+02  0.45594000000E+02  0.51100000000E-03 0. -1.
    9900012    2    1    2    0    0  0.12714532835E+02 -0.12290417492E+02 -0.61609806824E+01  0.72461778002E+02  0.70000270578E+02 0.  0.
        -12    1    1    2    0    0 -0.12714532835E+02  0.12290417492E+02  0.61609806824E+01  0.18726221998E+02  0.00000000000E+00 0.  1.
         11    1    3    3    0    0 -0.38916846645E+01 -0.26668092216E+01  0.33548400708E+01  0.57889578608E+01  0.51100000000E-03 0. -1.
        -11    1    3    3    0    0  0.13696666167E+02  0.27299738189E+01  0.25694595319E+02  0.29244891006E+02  0.51100000000E-03 0.  1.
         12    1    3    3    0    0  0.29095513324E+01 -0.12353582089E+02 -0.35210416072E+02  0.37427929135E+02  0.00000000000E+00 0. -1.
</event>
<event>
 7    1  0.1788006E-013  0.7246158E+02  0.7816164E-02  0.1226708E+00
        -11   -1    0    0    0    0  0.00000000000E+00  0.00000000000E+00  0.45593999997E+02  0.45594000000E+02  0.51100000000E-03 0. -1.
         11   -1    0    0    0    0 -0.00000000000E+00 -0.00000000000E+00 -0.45593999997E+02  0.45594000000E+02  0.51100000000E-03 0.  1.
    9900012    2    1    2    0    0  0.15807015493E+02 -0.99025405428E+01  0.16603412141E+01  0.72461580670E+02  0.70000013516E+02 0.  0.
        -12    1    1    2    0    0 -0.15807015493E+02  0.99025405428E+01 -0.16603412141E+01  0.18726419330E+02  0.00000000000E+00 0.  1.
         11    1    3    3    0    0  0.24110331764E+02  0.20383156019E+01 -0.77273823810E-01  0.24196462546E+02  0.51100000000E-03 0. -1.
        -11    1    3    3    0    0  0.39606338103E+01 -0.77341207711E+01 -0.20644662705E+02  0.22398779939E+02  0.51100000000E-03 0.  1.
         12    1    3    3    0    0 -0.12263950081E+02 -0.42067353736E+01  0.22382277743E+02  0.25866338185E+02  0.00000000000E+00 0. -1.
</event>
<event>
 7    1  0.1788006E-013  0.7246154E+02  0.7816164E-02  0.1226708E+00
        -11   -1    0    0    0    0  0.00000000000E+00  0.00000000000E+00  0.45593999997E+02  0.45594000000E+02  0.51100000000E-03 0.  1.
         11   -1    0    0    0    0 -0.00000000000E+00 -0.00000000000E+00 -0.45593999997E+02  0.45594000000E+02  0.51100000000E-03 0. -1.
    9900012    2    1    2    0    0 -0.43420732863E+01  0.10330865275E+01 -0.18186791930E+02  0.72461540940E+02  0.69999961761E+02 0.  0.
        -12    1    1    2    0    0  0.43420732863E+01 -0.10330865275E+01  0.18186791930E+02  0.18726459060E+02  0.00000000000E+00 0.  1.
         11    1    3    3    0    0  0.16051497328E+02  0.26508944885E+02 -0.42967748798E+01  0.31286370835E+02  0.51100000000E-03 0. -1.
        -11    1    3    3    0    0  0.44011652701E+01 -0.42800680256E+01 -0.20195509659E+01  0.64628031382E+01  0.51100000000E-03 0.  1.
         12    1    3    3    0    0 -0.24794735884E+02 -0.21195790332E+02 -0.11870466085E+02  0.34712366967E+02  0.00000000000E+00 0. -1.
</event>
<event>
 7    1  0.1788006E-013  0.7246154E+02  0.7816164E-02  0.1226708E+00
        -11   -1    0    0    0    0  0.00000000000E+00  0.00000000000E+00  0.45593999997E+02  0.45594000000E+02  0.51100000000E-03 0. -1.
         11   -1    0    0    0    0 -0.00000000000E+00 -0.00000000000E+00 -0.45593999997E+02  0.45594000000E+02  0.51100000000E-03 0.  1.
    9900012    2    1    2    0    0 -0.59357386504E+01  0.11532689907E+02 -0.13507201074E+02  0.72461537156E+02  0.69999956831E+02 0.  0.
        -12    1    1    2    0    0  0.59357386504E+01 -0.11532689907E+02  0.13507201074E+02  0.18726462844E+02  0.00000000000E+00 0.  1.
         11    1    3    3    0    0 -0.55141618979E+01 -0.50231012652E+01  0.42946674981E+01  0.86070724951E+01  0.51100000000E-03 0. -1.
        -11    1    3    3    0    0 -0.86153608558E+01  0.18810659274E+01 -0.37175108540E+02  0.38206695054E+02  0.51100000000E-03 0.  1.
         12    1    3    3    0    0  0.81937841033E+01  0.14674725245E+02  0.19373239968E+02  0.25647769607E+02  0.00000000000E+00 0. -1.
</event>
<event>
 7    1  0.1788006E-013  0.7246159E+02  0.7816164E-02  0.1226708E+00
        -11   -1    0    0    0    0  0.00000000000E+00  0.00000000000E+00  0.45593999997E+02  0.45594000000E+02  0.51100000000E-03 0. -1.
         11   -1    0    0    0    0 -0.00000000000E+00 -0.00000000000E+00 -0.45593999997E+02  0.45594000000E+02  0.51100000000E-03 0.  1.
    9900012    2    1    2    0    0  0.76391167031E+01  0.29181388432E+00  0.17094951034E+02  0.72461585228E+02  0.70000019454E+02 0.  0.
        -12    1    1    2    0    0 -0.76391167031E+01 -0.29181388432E+00 -0.17094951034E+02  0.18726414772E+02  0.00000000000E+00 0.  1.
         11    1    3    3    0    0  0.59042158127E+01 -0.14716940199E+02  0.43922134791E+01  0.16454167639E+02  0.51100000000E-03 0. -1.
        -11    1    3    3    0    0  0.13499293119E+02  0.30806575538E+02  0.13623780148E+02  0.36288888063E+02  0.51100000000E-03 0.  1.
         12    1    3    3    0    0 -0.11764392228E+02 -0.15797821455E+02 -0.92104259275E+00  0.19718529526E+02  0.00000000000E+00 0. -1.
</event>
<event>
 7    1  0.1788006E-013  0.7246162E+02  0.7816164E-02  0.1226708E+00
        -11   -1    0    0    0    0  0.00000000000E+00  0.00000000000E+00  0.45593999997E+02  0.45594000000E+02  0.51100000000E-03 0. -1.
         11   -1    0    0    0    0 -0.00000000000E+00 -0.00000000000E+00 -0.45593999997E+02  0.45594000000E+02  0.51100000000E-03 0.  1.
    9900012    2    1    2    0    0  0.41143628892E+01  0.10243191596E+02  0.15127008759E+02  0.72461618874E+02  0.70000063285E+02 0.  0.
        -12    1    1    2    0    0 -0.41143628892E+01 -0.10243191596E+02 -0.15127008759E+02  0.18726381126E+02  0.00000000000E+00 0.  1.
         11    1    3    3    0    0 -0.10321806607E+02  0.28091111666E+01  0.26917293859E+00  0.10700619212E+02  0.51100000000E-03 0. -1.
        -11    1    3    3    0    0  0.20524122172E+02 -0.21621868668E+02  0.11214548775E+02  0.31851387726E+02  0.51100000000E-03 0.  1.
         12    1    3    3    0    0 -0.60879526758E+01  0.29055949097E+02  0.36432870458E+01  0.29909611937E+02  0.00000000000E+00 0. -1.
</event>
<event>
 7    1  0.1788006E-013  0.7246159E+02  0.7816164E-02  0.1226708E+00
        -11   -1    0    0    0    0  0.00000000000E+00  0.00000000000E+00  0.45593999997E+02  0.45594000000E+02  0.51100000000E-03 0. -1.
         11   -1    0    0    0    0 -0.00000000000E+00 -0.00000000000E+00 -0.45593999997E+02  0.45594000000E+02  0.51100000000E-03 0.  1.
    9900012    2    1    2    0    0  0.15019111435E+02  0.50928619950E+01  0.99582868017E+01  0.72461590103E+02  0.70000025805E+02 0.  0.
        -12    1    1    2    0    0 -0.15019111435E+02 -0.50928619950E+01 -0.99582868017E+01  0.18726409897E+02  0.00000000000E+00 0.  1.
         11    1    3    3    0    0  0.27789786709E+01 -0.38436936750E+01 -0.39607240037E+01  0.61793234594E+01  0.51100000000E-03 0. -1.
        -11    1    3    3    0    0  0.16728017505E+02  0.30049683320E+02 -0.82217525346E+01  0.35361098007E+02  0.51100000000E-03 0.  1.
         12    1    3    3    0    0 -0.44878847407E+01 -0.21113127650E+02  0.22140763340E+02  0.30921168637E+02  0.00000000000E+00 0. -1.
</event>
<event>
 7    1  0.1788006E-013  0.7246157E+02  0.7816164E-02  0.1226708E+00
        -11   -1    0    0    0    0  0.00000000000E+00  0.00000000000E+00  0.45593999997E+02  0.45594000000E+02  0.51100000000E-03 0. -1.
         11   -1    0    0    0    0 -0.00000000000E+00 -0.00000000000E+00 -0.45593999997E+02  0.45594000000E+02  0.51100000000E-03 0.  1.
    9900012    2    1    2    0    0  0.50029096133E+01  0.83752076263E+01  0.15984553082E+02  0.72461570959E+02  0.70000000866E+02 0.  0.
        -12    1    1    2    0    0 -0.50029096133E+01 -0.83752076263E+01 -0.15984553082E+02  0.18726429041E+02  0.00000000000E+00 0.  1.
         11    1    3    3    0    0 -0.39448081170E+01 -0.18131637247E+02  0.10234085244E+02  0.21190900910E+02  0.51100000000E-03 0. -1.
        -11    1    3    3    0    0  0.42574897671E+01 -0.36555778712E+01 -0.13884778175E+02  0.14975865048E+02  0.51100000000E-03 0.  1.
        -12    1    3    3    0    0  0.46902279632E+01  0.30162422744E+02  0.19635246013E+02  0.36294805002E+02  0.00000000000E+00 0.  1.
</event>
<event>
 7    1  0.1788006E-013  0.7246154E+02  0.7816164E-02  0.1226708E+00
        -11   -1    0    0    0    0  0.00000000000E+00  0.00000000000E+00  0.45593999997E+02  0.45594000000E+02  0.51100000000E-03 0.  1.
         11   -1    0    0    0    0 -0.00000000000E+00 -0.00000000000E+00 -0.45593999997E+02  0.45594000000E+02  0.51100000000E-03 0. -1.
    9900012    2    1    2    0    0  0.45158413310E+01  0.14935747045E+02 -0.10354269683E+02  0.72461541088E+02  0.69999961953E+02 0.  0.
        -12    1    1    2    0    0 -0.45158413310E+01 -0.14935747045E+02  0.10354269683E+02  0.18726458912E+02  0.00000000000E+00 0.  1.
         11    1    3    3    0    0  0.18686777807E+02  0.25227138834E+02  0.11539740593E+02  0.33448016560E+02  0.51100000000E-03 0. -1.
        -11    1    3    3    0    0 -0.66379515229E+01  0.84049935660E+01 -0.24074287287E+01  0.10977341691E+02  0.51100000000E-03 0.  1.
        -12    1    3    3    0    0 -0.75329849529E+01 -0.18696385355E+02 -0.19486581548E+02  0.28036182837E+02  0.00000000000E+00 0.  1.
</event>
<event>
 7    1  0.1788006E-013  0.7246159E+02  0.7816164E-02  0.1226708E+00
        -11   -1    0    0    0    0  0.00000000000E+00  0.00000000000E+00  0.45593999997E+02  0.45594000000E+02  0.51100000000E-03 0. -1.
         11   -1    0    0    0    0 -0.00000000000E+00 -0.00000000000E+00 -0.45593999997E+02  0.45594000000E+02  0.51100000000E-03 0.  1.
    9900012    2    1    2    0    0  0.32965852801E+01 -0.16973411942E+02 -0.71912556969E+01  0.72461592283E+02  0.70000028645E+02 0.  0.
        -12    1    1    2    0    0 -0.32965852801E+01  0.16973411942E+02  0.71912556969E+01  0.18726407717E+02  0.00000000000E+00 0.  1.
         11    1    3    3    0    0 -0.12076537355E+02  0.88311264026E+00  0.19658839665E+02  0.23088798575E+02  0.51100000000E-03 0. -1.
        -11    1    3    3    0    0 -0.30220504895E+01 -0.22259743308E+02 -0.13308374061E+02  0.26110185401E+02  0.51100000000E-03 0.  1.
        -12    1    3    3    0    0  0.18395173125E+02  0.44032187250E+01 -0.13541721301E+02  0.23262608306E+02  0.00000000000E+00 0.  1.
</event>
<event>
 7    1  0.1788006E-013  0.7246159E+02  0.7816164E-02  0.1226708E+00
        -11   -1    0    0    0    0  0.00000000000E+00  0.00000000000E+00  0.45593999997E+02  0.45594000000E+02  0.51100000000E-03 0. -1.
         11   -1    0    0    0    0 -0.00000000000E+00 -0.00000000000E+00 -0.45593999997E+02  0.45594000000E+02  0.51100000000E-03 0.  1.
    9900012    2    1    2    0    0  0.47727541404E+01  0.12486975397E+02  0.13113916805E+02  0.72461586819E+02  0.70000021526E+02 0.  0.
        -12    1    1    2    0    0 -0.47727541404E+01 -0.12486975397E+02 -0.13113916805E+02  0.18726413181E+02  0.00000000000E+00 0.  1.
         11    1    3    3    0    0  0.62584491336E+01 -0.13705710340E+01  0.33075374192E+02  0.33690162195E+02  0.51100000000E-03 0. -1.
        -11    1    3    3    0    0  0.93845598302E+01  0.60936159164E+01  0.35424412007E+01  0.11736737539E+02  0.51100000000E-03 0.  1.
        -12    1    3    3    0    0 -0.10870254823E+02  0.77639305148E+01 -0.23503898587E+02  0.27034687085E+02  0.00000000000E+00 0.  1.
</event>
<event>
 7    1  0.1788006E-013  0.7246155E+02  0.7816164E-02  0.1226708E+00
        -11   -1    0    0    0    0  0.00000000000E+00  0.00000000000E+00  0.45593999997E+02  0.45594000000E+02  0.51100000000E-03 0.  1.
         11   -1    0    0    0    0 -0.00000000000E+00 -0.00000000000E+00 -0.45593999997E+02  0.45594000000E+02  0.51100000000E-03 0. -1.
    9900012    2    1    2    0    0  0.93902650863E+01  0.14494403593E+00 -0.16201296203E+02  0.72461545829E+02  0.69999968129E+02 0.  0.
        -12    1    1    2    0    0 -0.93902650863E+01 -0.14494403593E+00  0.16201296203E+02  0.18726454171E+02  0.00000000000E+00 0.  1.
         11    1    3    3    0    0  0.13437579823E+02  0.19327941247E+02 -0.14243281022E+02  0.27513795065E+02  0.51100000000E-03 0. -1.
        -11    1    3    3    0    0  0.81562473666E+01 -0.14203463486E+02 -0.17900108342E+02  0.24262659067E+02  0.51100000000E-03 0.  1.
        -12    1    3    3    0    0 -0.12203562103E+02 -0.49795337249E+01  0.15942093161E+02  0.20685091696E+02  0.00000000000E+00 0.  1.
</event>
<event>
 7    1  0.1788006E-013  0.7246161E+02  0.7816164E-02  0.1226708E+00
        -11   -1    0    0    0    0  0.00000000000E+00  0.00000000000E+00  0.45593999997E+02  0.45594000000E+02  0.51100000000E-03 0. -1.
         11   -1    0    0    0    0 -0.00000000000E+00 -0.00000000000E+00 -0.45593999997E+02  0.45594000000E+02  0.51100000000E-03 0.  1.
    9900012    2    1    2    0    0 -0.17190919336E+02 -0.67329158495E+01 -0.31333579922E+01  0.72461606974E+02  0.70000047782E+02 0.  0.
        -12    1    1    2    0    0  0.17190919336E+02  0.67329158495E+01  0.31333579922E+01  0.18726393026E+02  0.00000000000E+00 0.  1.
         11    1    3    3    0    0 -0.18929950429E+01 -0.23977217660E+02 -0.29041942807E+01  0.24226529706E+02  0.51100000000E-03 0. -1.
        -11    1    3    3    0    0 -0.13846094192E+02  0.99912277096E+01 -0.20486785932E+02  0.26669221092E+02  0.51100000000E-03 0.  1.
         12    1    3    3    0    0 -0.14518301011E+01  0.72530741006E+01  0.20257622221E+02  0.21565856176E+02  0.00000000000E+00 0. -1.
</event>
<event>
 7    1  0.1788006E-013  0.7246206E+02  0.7816164E-02  0.1226707E+00
        -11   -1    0    0    0    0  0.00000000000E+00  0.00000000000E+00  0.45593999997E+02  0.45594000000E+02  0.51100000000E-03 0. -1.
         11   -1    0    0    0    0 -0.00000000000E+00 -0.00000000000E+00 -0.45593999997E+02  0.45594000000E+02  0.51100000000E-03 0.  1.
    9900012    2    1    2    0    0 -0.13243101026E+02 -0.38476915353E+01  0.12667927914E+02  0.72462059367E+02  0.70000637105E+02 0.  0.
        -12    1    1    2    0    0  0.13243101026E+02  0.38476915353E+01 -0.12667927914E+02  0.18725940633E+02  0.00000000000E+00 0.  1.
         11    1    3    3    0    0 -0.19425499821E+02 -0.77973903766E+00  0.23536316541E+02  0.30527303072E+02  0.51100000000E-03 0. -1.
        -11    1    3    3    0    0  0.42889962643E+01  0.70169520671E+01  0.13323186339E+02  0.15656960106E+02  0.51100000000E-03 0.  1.
        -12    1    3    3    0    0  0.18934025301E+01 -0.10084904565E+02 -0.24191574966E+02  0.26277796189E+02  0.00000000000E+00 0.  1.
</event>
<event>
 7    1  0.1788006E-013  0.7246142E+02  0.7816164E-02  0.1226708E+00
        -11   -1    0    0    0    0  0.00000000000E+00  0.00000000000E+00  0.45593999997E+02  0.45594000000E+02  0.51100000000E-03 0.  1.
         11   -1    0    0    0    0 -0.00000000000E+00 -0.00000000000E+00 -0.45593999997E+02  0.45594000000E+02  0.51100000000E-03 0. -1.
    9900012    2    1    2    0    0 -0.85546608512E+01  0.99975560576E+01 -0.13324843804E+02  0.72461419645E+02  0.69999803750E+02 0.  0.
        -12    1    1    2    0    0  0.85546608512E+01 -0.99975560576E+01  0.13324843804E+02  0.18726580355E+02  0.00000000000E+00 0.  1.
         11    1    3    3    0    0 -0.11185144599E+01 -0.63083269532E+00  0.93392842534E+01  0.94271551972E+01  0.51100000000E-03 0. -1.
        -11    1    3    3    0    0 -0.29681128740E+02  0.16694012979E+02 -0.59822356878E+01  0.34575231260E+02  0.51100000000E-03 0.  1.
         12    1    3    3    0    0  0.22244982348E+02 -0.60656242258E+01 -0.16681892370E+02  0.28459033187E+02  0.00000000000E+00 0. -1.
</event>
<event>
 7    1  0.1788006E-013  0.7246145E+02  0.7816164E-02  0.1226708E+00
        -11   -1    0    0    0    0  0.00000000000E+00  0.00000000000E+00  0.45593999997E+02  0.45594000000E+02  0.51100000000E-03 0.  1.
         11   -1    0    0    0    0 -0.00000000000E+00 -0.00000000000E+00 -0.45593999997E+02  0.45594000000E+02  0.51100000000E-03 0. -1.
    9900012    2    1    2    0    0 -0.18223881761E+02  0.31673708179E+01  0.29225934150E+01  0.72461450489E+02  0.69999843931E+02 0.  0.
        -12    1    1    2    0    0  0.18223881761E+02 -0.31673708179E+01 -0.29225934150E+01  0.18726549511E+02  0.00000000000E+00 0.  1.
         11    1    3    3    0    0  0.20092273200E+01  0.81380173202E+00 -0.21449973392E+01  0.30496362945E+01  0.51100000000E-03 0. -1.
        -11    1    3    3    0    0 -0.21075624392E+02  0.84241743485E+01 -0.27850701291E+02  0.35927847412E+02  0.51100000000E-03 0.  1.
        -12    1    3    3    0    0  0.84251531104E+00 -0.60706052626E+01  0.32918292046E+02  0.33483966783E+02  0.00000000000E+00 0.  1.
</event>
<event>
 7    1  0.1788006E-013  0.7246157E+02  0.7816164E-02  0.1226708E+00
        -11   -1    0    0    0    0  0.00000000000E+00  0.00000000000E+00  0.45593999997E+02  0.45594000000E+02  0.51100000000E-03 0. -1.
         11   -1    0    0    0    0 -0.00000000000E+00 -0.00000000000E+00 -0.45593999997E+02  0.45594000000E+02  0.51100000000E-03 0.  1.
    9900012    2    1    2    0    0 -0.11001611466E+02 -0.10971916723E+02  0.10452789274E+02  0.72461569080E+02  0.69999998417E+02 0.  0.
        -12    1    1    2    0    0  0.11001611466E+02  0.10971916723E+02 -0.10452789274E+02  0.18726430920E+02  0.00000000000E+00 0.  1.
         11    1    3    3    0    0  0.78377990553E+00 -0.76007911374E+01 -0.10280307411E+02  0.12809022507E+02  0.51100000000E-03 0.  1.
        -11    1    3    3    0    0 -0.50473458016E+01  0.11870611527E+02  0.35259781530E+02  0.37545163623E+02  0.51100000000E-03 0. -1.
         12    1    3    3    0    0 -0.67380455694E+01 -0.15241737113E+02 -0.14526684845E+02  0.22107382950E+02  0.00000000000E+00 0. -1.
</event>
<event>
 7    1  0.1788006E-013  0.7246155E+02  0.7816164E-02  0.1226708E+00
        -11   -1    0    0    0    0  0.00000000000E+00  0.00000000000E+00  0.45593999997E+02  0.45594000000E+02  0.51100000000E-03 0. -1.
         11   -1    0    0    0    0 -0.00000000000E+00 -0.00000000000E+00 -0.45593999997E+02  0.45594000000E+02  0.51100000000E-03 0.  1.
    9900012    2    1    2    0    0 -0.61450822553E+01  0.10482600355E+02  0.14248969114E+02  0.72461546333E+02  0.69999968786E+02 0.  0.
        -12    1    1    2    0    0  0.61450822553E+01 -0.10482600355E+02 -0.14248969114E+02  0.18726453667E+02  0.00000000000E+00 0.  1.
         11    1    3    3    0    0 -0.76477840229E+01 -0.30529876691E+00  0.33622803856E+02  0.34482963144E+02  0.51100000000E-03 0. -1.
        -11    1    3    3    0    0  0.58636456050E+01 -0.80926011073E+01  0.77528569419E+00  0.10023652061E+02  0.51100000000E-03 0.  1.
        -12    1    3    3    0    0 -0.43609438373E+01  0.18880500229E+02 -0.20149120436E+02  0.27954931129E+02  0.00000000000E+00 0.  1.
</event>
<event>
 7    1  0.1788006E-013  0.7246161E+02  0.7816164E-02  0.1226708E+00
        -11   -1    0    0    0    0  0.00000000000E+00  0.00000000000E+00  0.45593999997E+02  0.45594000000E+02  0.51100000000E-03 0.  1.
         11   -1    0    0    0    0 -0.00000000000E+00 -0.00000000000E+00 -0.45593999997E+02  0.45594000000E+02  0.51100000000E-03 0. -1.
    9900012    2    1    2    0    0 -0.14606429478E+02  0.62132596295E+01 -0.99360655064E+01  0.72461607526E+02  0.70000048502E+02 0.  0.
        -12    1    1    2    0    0  0.14606429478E+02 -0.62132596295E+01  0.99360655064E+01  0.18726392474E+02  0.00000000000E+00 0.  1.
         11    1    3    3    0    0  0.11054161101E+01 -0.13611012271E+00 -0.25734659379E+02  0.25758749278E+02  0.51100000000E-03 0. -1.
        -11    1    3    3    0    0 -0.26655131057E+02 -0.49748532739E+01  0.14876132870E+02  0.30928053708E+02  0.51100000000E-03 0.  1.
         12    1    3    3    0    0  0.10943285468E+02  0.11324223026E+02  0.92246100245E+00  0.15774804540E+02  0.00000000000E+00 0. -1.
</event>
<event>
 7    1  0.1788006E-013  0.7246227E+02  0.7816164E-02  0.1226706E+00
        -11   -1    0    0    0    0  0.00000000000E+00  0.00000000000E+00  0.45593999997E+02  0.45594000000E+02  0.51100000000E-03 0.  1.
         11   -1    0    0    0    0 -0.00000000000E+00 -0.00000000000E+00 -0.45593999997E+02  0.45594000000E+02  0.51100000000E-03 0. -1.
    9900012    2    1    2    0    0 -0.77250363028E+01 -0.12316734833E+02 -0.11801470493E+02  0.72462273082E+02  0.70000915505E+02 0.  0.
        -12    1    1    2    0    0  0.77250363028E+01  0.12316734833E+02  0.11801470493E+02  0.18725726918E+02  0.00000000000E+00 0.  1.
         11    1    3    3    0    0 -0.21896911446E+01 -0.97190187089E+01 -0.11083260395E+02  0.14902776024E+02  0.51100000000E-03 0. -1.
        -11    1    3    3    0    0 -0.20426501176E+02 -0.18350819335E+02 -0.15300293936E+02  0.31433954816E+02  0.51100000000E-03 0.  1.
         12    1    3    3    0    0  0.14891156018E+02  0.15753103212E+02  0.14582083838E+02  0.26125542241E+02  0.00000000000E+00 0. -1.
</event>
<event>
 7    1  0.1788006E-013  0.7246156E+02  0.7816164E-02  0.1226708E+00
        -11   -1    0    0    0    0  0.00000000000E+00  0.00000000000E+00  0.45593999997E+02  0.45594000000E+02  0.51100000000E-03 0.  1.
         11   -1    0    0    0    0 -0.00000000000E+00 -0.00000000000E+00 -0.45593999997E+02  0.45594000000E+02  0.51100000000E-03 0. -1.
    9900012    2    1    2    0    0  0.17722951944E+01  0.18620585273E+02 -0.90134528698E+00  0.72461557479E+02  0.69999983306E+02 0.  0.
        -12    1    1    2    0    0 -0.17722951944E+01 -0.18620585273E+02  0.90134528698E+00  0.18726442521E+02  0.00000000000E+00 0.  1.
         11    1    3    3    0    0 -0.24574398464E+02 -0.41046443809E+00 -0.10196424469E+02  0.26608957385E+02  0.51100000000E-03 0. -1.
        -11    1    3    3    0    0 -0.42777648783E+01 -0.36822463405E+01  0.48954292355E+01  0.74715084238E+01  0.51100000000E-03 0.  1.
        -12    1    3    3    0    0  0.30624458536E+02  0.22713296051E+02  0.43996499463E+01  0.38381091670E+02  0.00000000000E+00 0.  1.
</event>
<event>
 7    1  0.1788006E-013  0.7246157E+02  0.7816164E-02  0.1226708E+00
        -11   -1    0    0    0    0  0.00000000000E+00  0.00000000000E+00  0.45593999997E+02  0.45594000000E+02  0.51100000000E-03 0.  1.
         11   -1    0    0    0    0 -0.00000000000E+00 -0.00000000000E+00 -0.45593999997E+02  0.45594000000E+02  0.51100000000E-03 0. -1.
    9900012    2    1    2    0    0  0.89749701170E+01  0.66786650806E+01 -0.15017475195E+02  0.72461569024E+02  0.69999998345E+02 0.  0.
        -12    1    1    2    0    0 -0.89749701170E+01 -0.66786650806E+01  0.15017475195E+02  0.18726430976E+02  0.00000000000E+00 0.  1.
         11    1    3    3    0    0  0.61410790590E+01 -0.41732966958E+01 -0.80527020630E+00  0.74684481444E+01  0.51100000000E-03 0. -1.
        -11    1    3    3    0    0  0.57744209176E+01 -0.21915716141E+02  0.93602733268E+01  0.24520547872E+02  0.51100000000E-03 0.  1.
         12    1    3    3    0    0 -0.29405298596E+01  0.32767677917E+02 -0.23572478316E+02  0.40472573008E+02  0.00000000000E+00 0. -1.
</event>
<event>
 7    1  0.1788006E-013  0.7246158E+02  0.7816164E-02  0.1226708E+00
        -11   -1    0    0    0    0  0.00000000000E+00  0.00000000000E+00  0.45593999997E+02  0.45594000000E+02  0.51100000000E-03 0.  1.
         11   -1    0    0    0    0 -0.00000000000E+00 -0.00000000000E+00 -0.45593999997E+02  0.45594000000E+02  0.51100000000E-03 0. -1.
    9900012    2    1    2    0    0  0.10049677561E+02 -0.13221220106E+02  0.86534541124E+01  0.72461576203E+02  0.70000007697E+02 0.  0.
        -12    1    1    2    0    0 -0.10049677561E+02  0.13221220106E+02 -0.86534541124E+01  0.18726423797E+02  0.00000000000E+00 0.  1.
         11    1    3    3    0    0 -0.79687675538E+01 -0.14910208616E+02  0.33543702582E+01  0.17235642645E+02  0.51100000000E-03 0. -1.
        -11    1    3    3    0    0 -0.95872718487E+01 -0.10620511827E+02  0.17522681015E+02  0.22622011475E+02  0.51100000000E-03 0.  1.
         12    1    3    3    0    0  0.27605716964E+02  0.12309500337E+02 -0.12223597160E+02  0.32603922083E+02  0.00000000000E+00 0. -1.
</event>
<event>
 7    1  0.1788006E-013  0.7246163E+02  0.7816164E-02  0.1226708E+00
        -11   -1    0    0    0    0  0.00000000000E+00  0.00000000000E+00  0.45593999997E+02  0.45594000000E+02  0.51100000000E-03 0. -1.
         11   -1    0    0    0    0 -0.00000000000E+00 -0.00000000000E+00 -0.45593999997E+02  0.45594000000E+02  0.51100000000E-03 0.  1.
    9900012    2    1    2    0    0  0.55827556491E+01  0.17340661551E+02  0.43371905148E+01  0.72461630217E+02  0.70000078061E+02 0.  0.
        -12    1    1    2    0    0 -0.55827556491E+01 -0.17340661551E+02 -0.43371905148E+01  0.18726369783E+02  0.00000000000E+00 0.  1.
         11    1    3    3    0    0  0.20249498713E+02  0.22803053840E+02 -0.80806743938E-01  0.30496360316E+02  0.51100000000E-03 0. -1.
        -11    1    3    3    0    0 -0.57796657437E+01  0.16762763219E+02  0.30366258748E+01  0.17989326385E+02  0.51100000000E-03 0.  1.
        -12    1    3    3    0    0 -0.88870773198E+01 -0.22225155507E+02  0.13813713840E+01  0.23975943516E+02  0.00000000000E+00 0.  1.
</event>
<event>
 7    1  0.1788006E-013  0.7246155E+02  0.7816164E-02  0.1226708E+00
        -11   -1    0    0    0    0  0.00000000000E+00  0.00000000000E+00  0.45593999997E+02  0.45594000000E+02  0.51100000000E-03 0.  1.
         11   -1    0    0    0    0 -0.00000000000E+00 -0.00000000000E+00 -0.45593999997E+02  0.45594000000E+02  0.51100000000E-03 0. -1.
    9900012    2    1    2    0    0 -0.59432265782E+01 -0.66145040996E+01 -0.16480480480E+02  0.72461552299E+02  0.69999976557E+02 0.  0.
        -12    1    1    2    0    0  0.59432265782E+01  0.66145040996E+01  0.16480480480E+02  0.18726447701E+02  0.00000000000E+00 0.  1.
         11    1    3    3    0    0 -0.27149809242E+02 -0.43895012738E+01  0.13420505877E+02  0.30602121521E+02  0.51100000000E-03 0. -1.
        -11    1    3    3    0    0 -0.37225652380E+01 -0.16660953703E+01 -0.64358539626E+01  0.76192901391E+01  0.51100000000E-03 0.  1.
        -12    1    3    3    0    0  0.24929147902E+02 -0.55890745553E+00 -0.23465132394E+02  0.34240140639E+02  0.00000000000E+00 0.  1.
</event>
<event>
 7    1  0.1788006E-013  0.7246156E+02  0.7816164E-02  0.1226708E+00
        -11   -1    0    0    0    0  0.00000000000E+00  0.00000000000E+00  0.45593999997E+02  0.45594000000E+02  0.51100000000E-03 0.  1.
         11   -1    0    0    0    0 -0.00000000000E+00 -0.00000000000E+00 -0.45593999997E+02  0.45594000000E+02  0.51100000000E-03 0. -1.
    9900012    2    1    2    0    0 -0.12140579709E+02 -0.68138493098E+01 -0.12524262474E+02  0.72461564979E+02  0.69999993076E+02 0.  0.
        -12    1    1    2    0    0  0.12140579709E+02  0.68138493098E+01  0.12524262474E+02  0.18726435021E+02  0.00000000000E+00 0.  1.
         11    1    3    3    0    0  0.92373501789E+01  0.20558554456E+02 -0.12528768005E+02  0.25786679267E+02  0.51100000000E-03 0. -1.
        -11    1    3    3    0    0  0.64540359275E+01 -0.91702194310E+01  0.62500434011E+01  0.12837856010E+02  0.51100000000E-03 0.  1.
        -12    1    3    3    0    0 -0.27831965815E+02 -0.18202184335E+02 -0.62455378706E+01  0.33837029701E+02  0.00000000000E+00 0.  1.
</event>
<event>
 7    1  0.1788006E-013  0.7246160E+02  0.7816164E-02  0.1226708E+00
        -11   -1    0    0    0    0  0.00000000000E+00  0.00000000000E+00  0.45593999997E+02  0.45594000000E+02  0.51100000000E-03 0.  1.
         11   -1    0    0    0    0 -0.00000000000E+00 -0.00000000000E+00 -0.45593999997E+02  0.45594000000E+02  0.51100000000E-03 0. -1.
    9900012    2    1    2    0    0  0.10797538759E+01  0.16301333684E+02 -0.91530714915E+01  0.72461599757E+02  0.70000038381E+02 0.  0.
        -12    1    1    2    0    0 -0.10797538759E+01 -0.16301333684E+02  0.91530714915E+01  0.18726400243E+02  0.00000000000E+00 0.  1.
         11    1    3    3    0    0 -0.74678840966E+01 -0.60646521126E+01  0.45748255151E+01  0.10652620658E+02  0.51100000000E-03 0. -1.
        -11    1    3    3    0    0 -0.20710184812E+02  0.27598260668E+01  0.56050874053E+01  0.21632045671E+02  0.51100000000E-03 0.  1.
         12    1    3    3    0    0  0.29257822784E+02  0.19606159730E+02 -0.19332984412E+02  0.40176933428E+02  0.00000000000E+00 0. -1.
</event>
<event>
 7    1  0.1788006E-013  0.7246159E+02  0.7816164E-02  0.1226708E+00
        -11   -1    0    0    0    0  0.00000000000E+00  0.00000000000E+00  0.45593999997E+02  0.45594000000E+02  0.51100000000E-03 0. -1.
         11   -1    0    0    0    0 -0.00000000000E+00 -0.00000000000E+00 -0.45593999997E+02  0.45594000000E+02  0.51100000000E-03 0.  1.
    9900012    2    1    2    0    0  0.10614848114E+02 -0.15147685020E+02  0.29241899890E+01  0.72461594872E+02  0.70000032017E+02 0.  0.
        -12    1    1    2    0    0 -0.10614848114E+02  0.15147685020E+02 -0.29241899890E+01  0.18726405128E+02  0.00000000000E+00 0.  1.
         11    1    3    3    0    0 -0.14233822507E+02 -0.11436121026E+00  0.99119018931E+01  0.17345333120E+02  0.51100000000E-03 0. -1.
        -11    1    3    3    0    0  0.95451010144E+01 -0.37613382793E+01 -0.26171870776E+02  0.28110913169E+02  0.51100000000E-03 0.  1.
         12    1    3    3    0    0  0.15303569606E+02 -0.11271985530E+02  0.19184158871E+02  0.27005348583E+02  0.00000000000E+00 0. -1.
</event>
<event>
 7    1  0.1788006E-013  0.7246150E+02  0.7816164E-02  0.1226708E+00
        -11   -1    0    0    0    0  0.00000000000E+00  0.00000000000E+00  0.45593999997E+02  0.45594000000E+02  0.51100000000E-03 0.  1.
         11   -1    0    0    0    0 -0.00000000000E+00 -0.00000000000E+00 -0.45593999997E+02  0.45594000000E+02  0.51100000000E-03 0. -1.
    9900012    2    1    2    0    0  0.85704271380E+01  0.20070711373E+01 -0.16528797369E+02  0.72461502774E+02  0.69999912042E+02 0.  0.
        -12    1    1    2    0    0 -0.85704271380E+01 -0.20070711373E+01  0.16528797369E+02  0.18726497226E+02  0.00000000000E+00 0.  1.
         11    1    3    3    0    0  0.35802008990E+01 -0.38570720529E+01  0.15619767091E+02  0.16482474557E+02  0.51100000000E-03 0.  1.
        -11    1    3    3    0    0  0.16129366156E+02  0.19164554195E+02 -0.29045940467E+02  0.38354963798E+02  0.51100000000E-03 0. -1.
         12    1    3    3    0    0 -0.11139139917E+02 -0.13300411005E+02 -0.31026239931E+01  0.17624064418E+02  0.00000000000E+00 0. -1.
</event>
<event>
 7    1  0.1788006E-013  0.7246158E+02  0.7816164E-02  0.1226708E+00
        -11   -1    0    0    0    0  0.00000000000E+00  0.00000000000E+00  0.45593999997E+02  0.45594000000E+02  0.51100000000E-03 0. -1.
         11   -1    0    0    0    0 -0.00000000000E+00 -0.00000000000E+00 -0.45593999997E+02  0.45594000000E+02  0.51100000000E-03 0.  1.
    9900012    2    1    2    0    0  0.10026416385E+02  0.12506061535E+02  0.96823609435E+01  0.72461582455E+02  0.70000015842E+02 0.  0.
        -12    1    1    2    0    0 -0.10026416385E+02 -0.12506061535E+02 -0.96823609435E+01  0.18726417545E+02  0.00000000000E+00 0.  1.
         11    1    3    3    0    0 -0.37010544104E+01 -0.48236428737E+01 -0.65859196497E+01  0.89632400512E+01  0.51100000000E-03 0. -1.
        -11    1    3    3    0    0 -0.15951636538E+02  0.12824168876E+02 -0.10743173657E+02  0.23115574751E+02  0.51100000000E-03 0.  1.
         12    1    3    3    0    0  0.29679107333E+02  0.45055355325E+01  0.27011454251E+02  0.40382767652E+02  0.00000000000E+00 0. -1.
</event>
<event>
 7    1  0.1788006E-013  0.7246154E+02  0.7816164E-02  0.1226708E+00
        -11   -1    0    0    0    0  0.00000000000E+00  0.00000000000E+00  0.45593999997E+02  0.45594000000E+02  0.51100000000E-03 0.  1.
         11   -1    0    0    0    0 -0.00000000000E+00 -0.00000000000E+00 -0.45593999997E+02  0.45594000000E+02  0.51100000000E-03 0. -1.
    9900012    2    1    2    0    0  0.13696938113E+02  0.10537597217E+02 -0.72134115904E+01  0.72461538093E+02  0.69999958052E+02 0.  0.
        -12    1    1    2    0    0 -0.13696938113E+02 -0.10537597217E+02  0.72134115904E+01  0.18726461907E+02  0.00000000000E+00 0.  1.
         11    1    3    3    0    0  0.15814484283E+01 -0.71408831930E-01  0.15743000431E+02  0.15822393662E+02  0.51100000000E-03 0. -1.
        -11    1    3    3    0    0 -0.18401365835E+02  0.11290689456E+01 -0.14846411239E+02  0.23670677815E+02  0.51100000000E-03 0.  1.
         12    1    3    3    0    0  0.30516855520E+02  0.94799371033E+01 -0.81100007831E+01  0.32968466616E+02  0.00000000000E+00 0. -1.
</event>
<event>
 7    1  0.1788006E-013  0.7246163E+02  0.7816164E-02  0.1226708E+00
        -11   -1    0    0    0    0  0.00000000000E+00  0.00000000000E+00  0.45593999997E+02  0.45594000000E+02  0.51100000000E-03 0.  1.
         11   -1    0    0    0    0 -0.00000000000E+00 -0.00000000000E+00 -0.45593999997E+02  0.45594000000E+02  0.51100000000E-03 0. -1.
    9900012    2    1    2    0    0  0.12865430297E+02 -0.95241350644E+01 -0.97184678820E+01  0.72461626528E+02  0.70000073255E+02 0.  0.
        -12    1    1    2    0    0 -0.12865430297E+02  0.95241350644E+01  0.97184678820E+01  0.18726373472E+02  0.00000000000E+00 0.  1.
         11    1    3    3    0    0  0.29427172753E+02 -0.11461652406E+02 -0.23736349328E+02  0.39506230544E+02  0.51100000000E-03 0. -1.
        -11    1    3    3    0    0 -0.51126460477E+00 -0.93747409107E+01  0.82264032522E+01  0.12482822973E+02  0.51100000000E-03 0.  1.
        -12    1    3    3    0    0 -0.16050477852E+02  0.11312258252E+02  0.57914781939E+01  0.20472573011E+02  0.00000000000E+00 0.  1.
</event>
<event>
 7    1  0.1788006E-013  0.7246164E+02  0.7816164E-02  0.1226708E+00
        -11   -1    0    0    0    0  0.00000000000E+00  0.00000000000E+00  0.45593999997E+02  0.45594000000E+02  0.51100000000E-03 0.  1.
         11   -1    0    0    0    0 -0.00000000000E+00 -0.00000000000E+00 -0.45593999997E+02  0.45594000000E+02  0.51100000000E-03 0. -1.
    9900012    2    1    2    0    0  0.17396492742E+02  0.26291351376E+01 -0.64129879526E+01  0.72461635543E+02  0.70000084998E+02 0.  0.
        -12    1    1    2    0    0 -0.17396492742E+02 -0.26291351376E+01  0.64129879526E+01  0.18726364457E+02  0.00000000000E+00 0.  1.
         11    1    3    3    0    0  0.15710867693E+02 -0.40146638122E+01  0.83659127339E+01  0.18246571879E+02  0.51100000000E-03 0. -1.
        -11    1    3    3    0    0 -0.12882196816E+02  0.17318591895E+02  0.98076893740E+01  0.23708129221E+02  0.51100000000E-03 0.  1.
         12    1    3    3    0    0  0.14567821865E+02 -0.10674792946E+02 -0.24586590061E+02  0.30506934443E+02  0.00000000000E+00 0. -1.
</event>
<event>
 7    1  0.1788006E-013  0.7246158E+02  0.7816164E-02  0.1226708E+00
        -11   -1    0    0    0    0  0.00000000000E+00  0.00000000000E+00  0.45593999997E+02  0.45594000000E+02  0.51100000000E-03 0.  1.
         11   -1    0    0    0    0 -0.00000000000E+00 -0.00000000000E+00 -0.45593999997E+02  0.45594000000E+02  0.51100000000E-03 0. -1.
    9900012    2    1    2    0    0 -0.13220268297E+02  0.10778430488E+02 -0.77284391847E+01  0.72461579363E+02  0.70000011814E+02 0.  0.
        -12    1    1    2    0    0  0.13220268297E+02 -0.10778430488E+02  0.77284391847E+01  0.18726420637E+02  0.00000000000E+00 0.  1.
         11    1    3    3    0    0 -0.21027890332E+02 -0.22580859831E+01  0.76121263279E+01  0.22477001393E+02  0.51100000000E-03 0. -1.
        -11    1    3    3    0    0 -0.14923570582E+02  0.82313882724E+01  0.63616833722E+01  0.18191748882E+02  0.51100000000E-03 0.  1.
         12    1    3    3    0    0  0.22731192617E+02  0.48051281983E+01 -0.21702248885E+02  0.31792829088E+02  0.00000000000E+00 0. -1.
</event>
<event>
 7    1  0.1788006E-013  0.7246162E+02  0.7816164E-02  0.1226708E+00
        -11   -1    0    0    0    0  0.00000000000E+00  0.00000000000E+00  0.45593999997E+02  0.45594000000E+02  0.51100000000E-03 0. -1.
         11   -1    0    0    0    0 -0.00000000000E+00 -0.00000000000E+00 -0.45593999997E+02  0.45594000000E+02  0.51100000000E-03 0.  1.
    9900012    2    1    2    0    0  0.13319882027E+02  0.78961105787E+01  0.10531362036E+02  0.72461617386E+02  0.70000061345E+02 0.  0.
        -12    1    1    2    0    0 -0.13319882027E+02 -0.78961105787E+01 -0.10531362036E+02  0.18726382614E+02  0.00000000000E+00 0.  1.
         11    1    3    3    0    0  0.12370679754E+02 -0.29443879159E+01 -0.12653928271E+01  0.12779059317E+02  0.51100000000E-03 0. -1.
        -11    1    3    3    0    0  0.21850582927E+02  0.17709477287E+02 -0.88755914197E+01  0.29493214191E+02  0.51100000000E-03 0.  1.
         12    1    3    3    0    0 -0.20901380654E+02 -0.68689787923E+01  0.20672346283E+02  0.30189343877E+02  0.00000000000E+00 0. -1.
</event>
<event>
 7    1  0.1788006E-013  0.7246140E+02  0.7816164E-02  0.1226708E+00
        -11   -1    0    0    0    0  0.00000000000E+00  0.00000000000E+00  0.45593999997E+02  0.45594000000E+02  0.51100000000E-03 0.  1.
         11   -1    0    0    0    0 -0.00000000000E+00 -0.00000000000E+00 -0.45593999997E+02  0.45594000000E+02  0.51100000000E-03 0. -1.
    9900012    2    1    2    0    0 -0.22944092495E+01 -0.18585417175E+02 -0.58029051022E-01  0.72461403600E+02  0.69999782849E+02 0.  0.
        -12    1    1    2    0    0  0.22944092495E+01  0.18585417175E+02  0.58029051022E-01  0.18726596400E+02  0.00000000000E+00 0.  1.
         11    1    3    3    0    0 -0.18546869173E+02 -0.11930967153E+02 -0.18764723039E+02  0.28955986675E+02  0.51100000000E-03 0. -1.
        -11    1    3    3    0    0 -0.72590328994E+01  0.83621024865E+01  0.29249490957E+01  0.11453106308E+02  0.51100000000E-03 0.  1.
        -12    1    3    3    0    0  0.23511492823E+02 -0.15016552508E+02  0.15781744893E+02  0.32052310617E+02  0.00000000000E+00 0.  1.
</event>
<event>
 7    1  0.1788006E-013  0.7246172E+02  0.7816164E-02  0.1226708E+00
        -11   -1    0    0    0    0  0.00000000000E+00  0.00000000000E+00  0.45593999997E+02  0.45594000000E+02  0.51100000000E-03 0.  1.
         11   -1    0    0    0    0 -0.00000000000E+00 -0.00000000000E+00 -0.45593999997E+02  0.45594000000E+02  0.51100000000E-03 0. -1.
    9900012    2    1    2    0    0  0.12345054991E+02 -0.10714927314E+02  0.91358305846E+01  0.72461722993E+02  0.70000198918E+02 0.  0.
        -12    1    1    2    0    0 -0.12345054991E+02  0.10714927314E+02 -0.91358305846E+01  0.18726277007E+02  0.00000000000E+00 0.  1.
         11    1    3    3    0    0  0.27542105294E+01 -0.24799763990E+02  0.89598250056E+01  0.26512118625E+02  0.51100000000E-03 0. -1.
        -11    1    3    3    0    0 -0.11283789480E+02 -0.77455984776E+01 -0.62868694876E+01  0.15061305688E+02  0.51100000000E-03 0.  1.
         12    1    3    3    0    0  0.20874633942E+02  0.21830435154E+02  0.64628750666E+01  0.30888298680E+02  0.00000000000E+00 0. -1.
</event>
<event>
 7    1  0.1788006E-013  0.7246153E+02  0.7816164E-02  0.1226708E+00
        -11   -1    0    0    0    0  0.00000000000E+00  0.00000000000E+00  0.45593999997E+02  0.45594000000E+02  0.51100000000E-03 0. -1.
         11   -1    0    0    0    0 -0.00000000000E+00 -0.00000000000E+00 -0.45593999997E+02  0.45594000000E+02  0.51100000000E-03 0.  1.
    9900012    2    1    2    0    0  0.14672523547E+02 -0.51363666250E+01  0.10441049157E+02  0.72461528981E+02  0.69999946182E+02 0.  0.
        -12    1    1    2    0    0 -0.14672523547E+02  0.51363666250E+01 -0.10441049157E+02  0.18726471019E+02  0.00000000000E+00 0.  1.
         11    1    3    3    0    0 -0.47328368709E+01 -0.22058854224E+01  0.10635110237E+02  0.11847837159E+02  0.51100000000E-03 0. -1.
        -11    1    3    3    0    0  0.19865489739E+02 -0.21268351185E+02  0.18450120325E+02  0.34458487851E+02  0.51100000000E-03 0.  1.
        -12    1    3    3    0    0 -0.46012932139E+00  0.18337869983E+02 -0.18644181405E+02  0.26155203971E+02  0.00000000000E+00 0.  1.
</event>
<event>
 7    1  0.1788006E-013  0.7246154E+02  0.7816164E-02  0.1226708E+00
        -11   -1    0    0    0    0  0.00000000000E+00  0.00000000000E+00  0.45593999997E+02  0.45594000000E+02  0.51100000000E-03 0.  1.
         11   -1    0    0    0    0 -0.00000000000E+00 -0.00000000000E+00 -0.45593999997E+02  0.45594000000E+02  0.51100000000E-03 0. -1.
    9900012    2    1    2    0    0  0.42600985239E+00  0.18605870879E+02 -0.20785404349E+01  0.72461541555E+02  0.69999962562E+02 0.  0.
        -12    1    1    2    0    0 -0.42600985239E+00 -0.18605870879E+02  0.20785404349E+01  0.18726458445E+02  0.00000000000E+00 0.  1.
         11    1    3    3    0    0  0.11082216907E+02 -0.60771895156E+01 -0.17409950598E+02  0.21514045274E+02  0.51100000000E-03 0. -1.
        -11    1    3    3    0    0  0.13284079078E+02  0.17010685417E+02  0.15803902443E+00  0.21583677905E+02  0.51100000000E-03 0.  1.
        -12    1    3    3    0    0 -0.23940286132E+02  0.76723749769E+01  0.15173371139E+02  0.29363818376E+02  0.00000000000E+00 0.  1.
</event>
<event>
 7    1  0.1788006E-013  0.7246157E+02  0.7816164E-02  0.1226708E+00
        -11   -1    0    0    0    0  0.00000000000E+00  0.00000000000E+00  0.45593999997E+02  0.45594000000E+02  0.51100000000E-03 0.  1.
         11   -1    0    0    0    0 -0.00000000000E+00 -0.00000000000E+00 -0.45593999997E+02  0.45594000000E+02  0.51100000000E-03 0. -1.
    9900012    2    1    2    0    0 -0.18551625838E+02  0.28146264100E+00 -0.25371359989E+01  0.72461572110E+02  0.70000002365E+02 0.  0.
        -12    1    1    2    0    0  0.18551625838E+02 -0.28146264100E+00  0.25371359989E+01  0.18726427890E+02  0.00000000000E+00 0.  1.
         11    1    3    3    0    0 -0.10619863611E+02  0.17043892579E+02 -0.15322399571E+02  0.25259685395E+02  0.51100000000E-03 0. -1.
        -11    1    3    3    0    0  0.38711866612E+01 -0.19582152736E+02 -0.92853795103E+01  0.22015109922E+02  0.51100000000E-03 0.  1.
         12    1    3    3    0    0 -0.11802948889E+02  0.28197227984E+01  0.22070643083E+02  0.25186776793E+02  0.00000000000E+00 0. -1.
</event>
<event>
 7    1  0.1788006E-013  0.7246155E+02  0.7816164E-02  0.1226708E+00
        -11   -1    0    0    0    0  0.00000000000E+00  0.00000000000E+00  0.45593999997E+02  0.45594000000E+02  0.51100000000E-03 0.  1.
         11   -1    0    0    0    0 -0.00000000000E+00 -0.00000000000E+00 -0.45593999997E+02  0.45594000000E+02  0.51100000000E-03 0. -1.
    9900012    2    1    2    0    0  0.15890703284E+02  0.79195908030E+01 -0.59536183809E+01  0.72461549691E+02  0.69999973161E+02 0.  0.
        -12    1    1    2    0    0 -0.15890703284E+02 -0.79195908030E+01  0.59536183809E+01  0.18726450309E+02  0.00000000000E+00 0.  1.
         11    1    3    3    0    0  0.51316699900E+01  0.26171716883E+02 -0.23492863921E+02  0.35541629914E+02  0.51100000000E-03 0. -1.
        -11    1    3    3    0    0 -0.76003064063E+01 -0.19469002720E+01  0.31101740703E+01  0.84396837113E+01  0.51100000000E-03 0.  1.
         12    1    3    3    0    0  0.18359339700E+02 -0.16305225808E+02  0.14429071470E+02  0.28480236066E+02  0.00000000000E+00 0. -1.
</event>
<event>
 7    1  0.1788006E-013  0.7246154E+02  0.7816164E-02  0.1226708E+00
        -11   -1    0    0    0    0  0.00000000000E+00  0.00000000000E+00  0.45593999997E+02  0.45594000000E+02  0.51100000000E-03 0.  1.
         11   -1    0    0    0    0 -0.00000000000E+00 -0.00000000000E+00 -0.45593999997E+02  0.45594000000E+02  0.51100000000E-03 0. -1.
    9900012    2    1    2    0    0  0.46513844358E+01 -0.15810150903E+02 -0.88929174414E+01  0.72461541997E+02  0.69999963137E+02 0.  0.
        -12    1    1    2    0    0 -0.46513844358E+01  0.15810150903E+02  0.88929174414E+01  0.18726458003E+02  0.00000000000E+00 0.  1.
         11    1    3    3    0    0  0.28360150543E+02 -0.20536712094E+02  0.35964978377E+01  0.35199282371E+02  0.51100000000E-03 0. -1.
        -11    1    3    3    0    0 -0.13844841007E+02 -0.70869502508E+01 -0.15070757344E+02  0.21657151557E+02  0.51100000000E-03 0.  1.
        -12    1    3    3    0    0 -0.98639251008E+01  0.11813511442E+02  0.25813420650E+01  0.15605108069E+02  0.00000000000E+00 0.  1.
</event>
<event>
 7    1  0.1788006E-013  0.7246152E+02  0.7816164E-02  0.1226708E+00
        -11   -1    0    0    0    0  0.00000000000E+00  0.00000000000E+00  0.45593999997E+02  0.45594000000E+02  0.51100000000E-03 0.  1.
         11   -1    0    0    0    0 -0.00000000000E+00 -0.00000000000E+00 -0.45593999997E+02  0.45594000000E+02  0.51100000000E-03 0. -1.
    9900012    2    1    2    0    0 -0.21424322045E+01 -0.17761623494E+02  0.55331369136E+01  0.72461524384E+02  0.69999940193E+02 0.  0.
        -12    1    1    2    0    0  0.21424322045E+01  0.17761623494E+02 -0.55331369136E+01  0.18726475616E+02  0.00000000000E+00 0.  1.
         11    1    3    3    0    0  0.52115363373E+01 -0.14938265198E+02 -0.79731575858E+01  0.17716746887E+02  0.51100000000E-03 0. -1.
        -11    1    3    3    0    0  0.12374317105E+02  0.17609832476E+02 -0.32512639556E+01  0.21766962150E+02  0.51100000000E-03 0.  1.
         12    1    3    3    0    0 -0.19728285647E+02 -0.20433190772E+02  0.16757558455E+02  0.32977815347E+02  0.00000000000E+00 0. -1.
</event>
<event>
 7    1  0.1788006E-013  0.7246162E+02  0.7816164E-02  0.1226708E+00
        -11   -1    0    0    0    0  0.00000000000E+00  0.00000000000E+00  0.45593999997E+02  0.45594000000E+02  0.51100000000E-03 0.  1.
         11   -1    0    0    0    0 -0.00000000000E+00 -0.00000000000E+00 -0.45593999997E+02  0.45594000000E+02  0.51100000000E-03 0. -1.
    9900012    2    1    2    0    0  0.10219103169E+01  0.60628760080E+01 -0.17688263462E+02  0.72461616727E+02  0.70000060487E+02 0.  0.
        -12    1    1    2    0    0 -0.10219103169E+01 -0.60628760080E+01  0.17688263462E+02  0.18726383273E+02  0.00000000000E+00 0.  1.
         11    1    3    3    0    0  0.10119596441E+02 -0.33574562337E+01 -0.49369779740E+01  0.11749574301E+02  0.51100000000E-03 0. -1.
        -11    1    3    3    0    0  0.94515913371E+01 -0.44818637469E+01 -0.30030259402E+02  0.31799939646E+02  0.51100000000E-03 0.  1.
        -12    1    3    3    0    0 -0.18549277461E+02  0.13902195989E+02  0.17278973914E+02  0.28912102780E+02  0.00000000000E+00 0.  1.
</event>
<event>
 7    1  0.1788006E-013  0.7246162E+02  0.7816164E-02  0.1226708E+00
        -11   -1    0    0    0    0  0.00000000000E+00  0.00000000000E+00  0.45593999997E+02  0.45594000000E+02  0.51100000000E-03 0. -1.
         11   -1    0    0    0    0 -0.00000000000E+00 -0.00000000000E+00 -0.45593999997E+02  0.45594000000E+02  0.51100000000E-03 0.  1.
    9900012    2    1    2    0    0  0.13893335705E+02 -0.85539400527E+01  0.91914381459E+01  0.72461622811E+02  0.70000068412E+02 0.  0.
        -12    1    1    2    0    0 -0.13893335705E+02  0.85539400527E+01 -0.91914381459E+01  0.18726377189E+02  0.00000000000E+00 0.  1.
         11    1    3    3    0    0  0.12451856618E+02 -0.15925166787E+02 -0.10717629708E+02  0.22880718023E+02  0.51100000000E-03 0. -1.
        -11    1    3    3    0    0 -0.10317870565E+02  0.14973614424E+02 -0.68078147494E+01  0.19416846393E+02  0.51100000000E-03 0.  1.
         12    1    3    3    0    0  0.11759349653E+02 -0.76023876895E+01  0.26716882603E+02  0.30164058395E+02  0.00000000000E+00 0. -1.
</event>
<event>
 7    1  0.1788006E-013  0.7246131E+02  0.7816164E-02  0.1226709E+00
        -11   -1    0    0    0    0  0.00000000000E+00  0.00000000000E+00  0.45593999997E+02  0.45594000000E+02  0.51100000000E-03 0.  1.
         11   -1    0    0    0    0 -0.00000000000E+00 -0.00000000000E+00 -0.45593999997E+02  0.45594000000E+02  0.51100000000E-03 0. -1.
    9900012    2    1    2    0    0 -0.74972719748E+01 -0.66340491512E+01 -0.15826215842E+02  0.72461313078E+02  0.69999664927E+02 0.  0.
        -12    1    1    2    0    0  0.74972719748E+01  0.66340491512E+01  0.15826215842E+02  0.18726686922E+02  0.00000000000E+00 0.  1.
         11    1    3    3    0    0  0.22200609396E+02 -0.88951715804E+01 -0.73055246591E+01  0.25007235469E+02  0.51100000000E-03 0. -1.
        -11    1    3    3    0    0  0.75152270468E+01  0.45716175262E+01  0.13139132410E+01  0.88940818884E+01  0.51100000000E-03 0.  1.
        -12    1    3    3    0    0 -0.37213108418E+02 -0.23104950970E+01 -0.98346044241E+01  0.38559995720E+02  0.00000000000E+00 0.  1.
</event>
<event>
 7    1  0.1788006E-013  0.7246155E+02  0.7816164E-02  0.1226708E+00
        -11   -1    0    0    0    0  0.00000000000E+00  0.00000000000E+00  0.45593999997E+02  0.45594000000E+02  0.51100000000E-03 0. -1.
         11   -1    0    0    0    0 -0.00000000000E+00 -0.00000000000E+00 -0.45593999997E+02  0.45594000000E+02  0.51100000000E-03 0.  1.
    9900012    2    1    2    0    0 -0.97203654876E+01 -0.81248409174E+01 -0.13790623724E+02  0.72461552183E+02  0.69999976407E+02 0.  0.
        -12    1    1    2    0    0  0.97203654876E+01  0.81248409174E+01  0.13790623724E+02  0.18726447817E+02  0.00000000000E+00 0.  1.
         11    1    3    3    0    0 -0.74284347424E+01 -0.51204951086E+01  0.15684745413E+02  0.18094539282E+02  0.51100000000E-03 0. -1.
        -11    1    3    3    0    0  0.51270414683E+01 -0.85340563021E+00  0.11526339182E+02  0.12644024304E+02  0.51100000000E-03 0.  1.
        -12    1    3    3    0    0 -0.74189722135E+01 -0.21509401785E+01 -0.41001708320E+02  0.41722988597E+02  0.00000000000E+00 0.  1.
</event>
<event>
 7    1  0.1788006E-013  0.7246159E+02  0.7816164E-02  0.1226708E+00
        -11   -1    0    0    0    0  0.00000000000E+00  0.00000000000E+00  0.45593999997E+02  0.45594000000E+02  0.51100000000E-03 0. -1.
         11   -1    0    0    0    0 -0.00000000000E+00 -0.00000000000E+00 -0.45593999997E+02  0.45594000000E+02  0.51100000000E-03 0.  1.
    9900012    2    1    2    0    0  0.27325548830E+01 -0.16309540070E+02  0.87869404007E+01  0.72461594176E+02  0.70000031110E+02 0.  0.
        -12    1    1    2    0    0 -0.27325548830E+01  0.16309540070E+02 -0.87869404007E+01  0.18726405824E+02  0.00000000000E+00 0.  1.
         11    1    3    3    0    0  0.14072468252E+01  0.99398721386E+01 -0.29240719236E+01  0.10456175144E+02  0.51100000000E-03 0. -1.
        -11    1    3    3    0    0 -0.20767316728E+02  0.26454868426E+01 -0.56750960376E+01  0.21690706766E+02  0.51100000000E-03 0.  1.
         12    1    3    3    0    0  0.22092624786E+02 -0.28894899052E+02  0.17386108362E+02  0.40314712266E+02  0.00000000000E+00 0. -1.
</event>
<event>
 7    1  0.1788006E-013  0.7246157E+02  0.7816164E-02  0.1226708E+00
        -11   -1    0    0    0    0  0.00000000000E+00  0.00000000000E+00  0.45593999997E+02  0.45594000000E+02  0.51100000000E-03 0.  1.
         11   -1    0    0    0    0 -0.00000000000E+00 -0.00000000000E+00 -0.45593999997E+02  0.45594000000E+02  0.51100000000E-03 0. -1.
    9900012    2    1    2    0    0  0.55485971095E+01 -0.17656217210E+02  0.28548875990E+01  0.72461566296E+02  0.69999994792E+02 0.  0.
        -12    1    1    2    0    0 -0.55485971095E+01  0.17656217210E+02 -0.28548875990E+01  0.18726433704E+02  0.00000000000E+00 0.  1.
         11    1    3    3    0    0  0.17304704416E+02 -0.19181099485E+02 -0.22960210811E+02  0.34562098506E+02  0.51100000000E-03 0. -1.
        -11    1    3    3    0    0  0.49627670938E+01 -0.52470283107E+01  0.11055960549E+01  0.73063469818E+01  0.51100000000E-03 0.  1.
        -12    1    3    3    0    0 -0.16718874400E+02  0.67719105850E+01  0.24709502355E+02  0.30593120809E+02  0.00000000000E+00 0.  1.
</event>
<event>
 7    1  0.1788006E-013  0.7246152E+02  0.7816164E-02  0.1226708E+00
        -11   -1    0    0    0    0  0.00000000000E+00  0.00000000000E+00  0.45593999997E+02  0.45594000000E+02  0.51100000000E-03 0. -1.
         11   -1    0    0    0    0 -0.00000000000E+00 -0.00000000000E+00 -0.45593999997E+02  0.45594000000E+02  0.51100000000E-03 0.  1.
    9900012    2    1    2    0    0  0.15901972206E+02  0.28564782733E+01  0.94683118741E+01  0.72461518272E+02  0.69999932231E+02 0.  0.
        -12    1    1    2    0    0 -0.15901972206E+02 -0.28564782733E+01 -0.94683118741E+01  0.18726481728E+02  0.00000000000E+00 0.  1.
         11    1    3    3    0    0 -0.48728301789E+01 -0.29710214656E+02  0.10311850718E+02  0.31824135406E+02  0.51100000000E-03 0. -1.
        -11    1    3    3    0    0 -0.75158017793E+00  0.16768230886E+01  0.21970346043E+01  0.28641874499E+01  0.51100000000E-03 0.  1.
        -12    1    3    3    0    0  0.21526382563E+02  0.30889869841E+02 -0.30405734478E+01  0.37773195416E+02  0.00000000000E+00 0.  1.
</event>
<event>
 7    1  0.1788006E-013  0.7246158E+02  0.7816164E-02  0.1226708E+00
        -11   -1    0    0    0    0  0.00000000000E+00  0.00000000000E+00  0.45593999997E+02  0.45594000000E+02  0.51100000000E-03 0. -1.
         11   -1    0    0    0    0 -0.00000000000E+00 -0.00000000000E+00 -0.45593999997E+02  0.45594000000E+02  0.51100000000E-03 0.  1.
    9900012    2    1    2    0    0 -0.15925977870E+02  0.60029417238E+01  0.78106889022E+01  0.72461576380E+02  0.70000007928E+02 0.  0.
        -12    1    1    2    0    0  0.15925977870E+02 -0.60029417238E+01 -0.78106889022E+01  0.18726423620E+02  0.00000000000E+00 0.  1.
         11    1    3    3    0    0  0.67698563131E+01  0.30048946597E+02  0.30809194970E+01  0.30955810623E+02  0.51100000000E-03 0. -1.
        -11    1    3    3    0    0 -0.14729750503E+02 -0.16406794431E+01  0.90094419188E+01  0.17344377270E+02  0.51100000000E-03 0.  1.
        -12    1    3    3    0    0 -0.79660836796E+01 -0.22405325430E+02 -0.42796725135E+01  0.24161388488E+02  0.00000000000E+00 0.  1.
</event>
<event>
 7    1  0.1788006E-013  0.7246159E+02  0.7816164E-02  0.1226708E+00
        -11   -1    0    0    0    0  0.00000000000E+00  0.00000000000E+00  0.45593999997E+02  0.45594000000E+02  0.51100000000E-03 0. -1.
         11   -1    0    0    0    0 -0.00000000000E+00 -0.00000000000E+00 -0.45593999997E+02  0.45594000000E+02  0.51100000000E-03 0.  1.
    9900012    2    1    2    0    0 -0.80139792483E+01 -0.14818637870E+02 -0.81769436511E+01  0.72461593532E+02  0.70000030272E+02 0.  0.
        -12    1    1    2    0    0  0.80139792483E+01  0.14818637870E+02  0.81769436511E+01  0.18726406468E+02  0.00000000000E+00 0.  1.
         11    1    3    3    0    0 -0.95145862117E+00 -0.99036012012E+01  0.96198673216E+01  0.13839379965E+02  0.51100000000E-03 0. -1.
        -11    1    3    3    0    0 -0.72826507695E+01 -0.80989622080E+01  0.18885567778E+02  0.21801258258E+02  0.51100000000E-03 0.  1.
        -12    1    3    3    0    0  0.22013014235E+00  0.31839255389E+01 -0.36682378751E+02  0.36820955310E+02  0.00000000000E+00 0.  1.
</event>
<event>
 7    1  0.1788006E-013  0.7246154E+02  0.7816164E-02  0.1226708E+00
        -11   -1    0    0    0    0  0.00000000000E+00  0.00000000000E+00  0.45593999997E+02  0.45594000000E+02  0.51100000000E-03 0.  1.
         11   -1    0    0    0    0 -0.00000000000E+00 -0.00000000000E+00 -0.45593999997E+02  0.45594000000E+02  0.51100000000E-03 0. -1.
    9900012    2    1    2    0    0  0.34335860250E+01 -0.13732345266E+02 -0.12260242627E+02  0.72461538274E+02  0.69999958288E+02 0.  0.
        -12    1    1    2    0    0 -0.34335860250E+01  0.13732345266E+02  0.12260242627E+02  0.18726461726E+02  0.00000000000E+00 0.  1.
         11    1    3    3    0    0 -0.35780219428E+01  0.19369151035E+02  0.43261386028E+01  0.20166351388E+02  0.51100000000E-03 0. -1.
        -11    1    3    3    0    0  0.10941305789E+02  0.42046075483E+01 -0.13211122027E+01  0.11795602346E+02  0.51100000000E-03 0.  1.
         12    1    3    3    0    0 -0.39296978210E+01 -0.37306103850E+02 -0.15265269027E+02  0.40499584539E+02  0.00000000000E+00 0. -1.
</event>
<event>
 7    1  0.1788006E-013  0.7246160E+02  0.7816164E-02  0.1226708E+00
        -11   -1    0    0    0    0  0.00000000000E+00  0.00000000000E+00  0.45593999997E+02  0.45594000000E+02  0.51100000000E-03 0. -1.
         11   -1    0    0    0    0 -0.00000000000E+00 -0.00000000000E+00 -0.45593999997E+02  0.45594000000E+02  0.51100000000E-03 0.  1.
    9900012    2    1    2    0    0 -0.51512999159E+01  0.35230105622E+01  0.17655890961E+02  0.72461602058E+02  0.70000041378E+02 0.  0.
        -12    1    1    2    0    0  0.51512999159E+01 -0.35230105622E+01 -0.17655890961E+02  0.18726397942E+02  0.00000000000E+00 0.  1.
         11    1    3    3    0    0  0.23032899459E+01  0.23630035523E+02 -0.97694008446E+01  0.25673428219E+02  0.51100000000E-03 0. -1.
        -11    1    3    3    0    0  0.63234991711E+00  0.48124630008E+01  0.18476083596E+02  0.19103018920E+02  0.51100000000E-03 0.  1.
        -12    1    3    3    0    0 -0.80869397790E+01 -0.24919487962E+02  0.89492082098E+01  0.27685154918E+02  0.00000000000E+00 0.  1.
</event>
<event>
 7    1  0.1788006E-013  0.7246154E+02  0.7816164E-02  0.1226708E+00
        -11   -1    0    0    0    0  0.00000000000E+00  0.00000000000E+00  0.45593999997E+02  0.45594000000E+02  0.51100000000E-03 0.  1.
         11   -1    0    0    0    0 -0.00000000000E+00 -0.00000000000E+00 -0.45593999997E+02  0.45594000000E+02  0.51100000000E-03 0. -1.
    9900012    2    1    2    0    0 -0.83027270709E+01 -0.16298968269E+02  0.40110877659E+01  0.72461535611E+02  0.69999954818E+02 0.  0.
        -12    1    1    2    0    0  0.83027270709E+01  0.16298968269E+02 -0.40110877659E+01  0.18726464389E+02  0.00000000000E+00 0.  1.
         11    1    3    3    0    0 -0.13983291201E+02 -0.42235487527E+02 -0.20061573335E+01  0.44535306297E+02  0.51100000000E-03 0. -1.
        -11    1    3    3    0    0 -0.38411075082E-01  0.28484500715E+01 -0.11679545693E+01  0.30788409114E+01  0.51100000000E-03 0.  1.
        -12    1    3    3    0    0  0.57189752051E+01  0.23088069186E+02  0.71851996687E+01  0.24847388403E+02  0.00000000000E+00 0.  1.
</event>
<event>
 7    1  0.1788006E-013  0.7246142E+02  0.7816164E-02  0.1226708E+00
        -11   -1    0    0    0    0  0.00000000000E+00  0.00000000000E+00  0.45593999997E+02  0.45594000000E+02  0.51100000000E-03 0.  1.
         11   -1    0    0    0    0 -0.00000000000E+00 -0.00000000000E+00 -0.45593999997E+02  0.45594000000E+02  0.51100000000E-03 0. -1.
    9900012    2    1    2    0    0  0.12454771445E+02 -0.52095153159E+01 -0.12977844781E+02  0.72461418979E+02  0.69999802883E+02 0.  0.
        -12    1    1    2    0    0 -0.12454771445E+02  0.52095153159E+01  0.12977844781E+02  0.18726581021E+02  0.00000000000E+00 0.  1.
         11    1    3    3    0    0  0.10971369884E+02 -0.11855990506E+02 -0.24692630726E+02  0.29506973420E+02  0.51100000000E-03 0. -1.
        -11    1    3    3    0    0 -0.17171962912E+02 -0.25544537618E+01 -0.28063731785E+01  0.17586280873E+02  0.51100000000E-03 0.  1.
        -12    1    3    3    0    0  0.18655364474E+02  0.92009289520E+01  0.14521159123E+02  0.25368164685E+02  0.00000000000E+00 0.  1.
</event>
<event>
 7    1  0.1788006E-013  0.7246100E+02  0.7816164E-02  0.1226710E+00
        -11   -1    0    0    0    0  0.00000000000E+00  0.00000000000E+00  0.45593999997E+02  0.45594000000E+02  0.51100000000E-03 0.  1.
         11   -1    0    0    0    0 -0.00000000000E+00 -0.00000000000E+00 -0.45593999997E+02  0.45594000000E+02  0.51100000000E-03 0. -1.
    9900012    2    1    2    0    0  0.81336963111E+01  0.38031691777E+01 -0.16434088402E+02  0.72461004163E+02  0.69999262504E+02 0.  0.
        -12    1    1    2    0    0 -0.81336963111E+01 -0.38031691777E+01  0.16434088402E+02  0.18726995837E+02  0.00000000000E+00 0.  1.
         11    1    3    3    0    0  0.27397823146E+02  0.73981445227E+01  0.65025879997E+01  0.29114548021E+02  0.51100000000E-03 0. -1.
        -11    1    3    3    0    0  0.17941167031E+01  0.62154551800E+01 -0.18627468531E+02  0.19718857015E+02  0.51100000000E-03 0.  1.
        -12    1    3    3    0    0 -0.21058243538E+02 -0.98104305250E+01 -0.43092078710E+01  0.23627599126E+02  0.00000000000E+00 0.  1.
</event>
<event>
 7    1  0.1788006E-013  0.7246182E+02  0.7816164E-02  0.1226707E+00
        -11   -1    0    0    0    0  0.00000000000E+00  0.00000000000E+00  0.45593999997E+02  0.45594000000E+02  0.51100000000E-03 0. -1.
         11   -1    0    0    0    0 -0.00000000000E+00 -0.00000000000E+00 -0.45593999997E+02  0.45594000000E+02  0.51100000000E-03 0.  1.
    9900012    2    1    2    0    0 -0.53196099264E+01  0.74923232353E+01  0.16316765105E+02  0.72461815639E+02  0.70000319606E+02 0.  0.
        -12    1    1    2    0    0  0.53196099264E+01 -0.74923232353E+01 -0.16316765105E+02  0.18726184361E+02  0.00000000000E+00 0.  1.
         11    1    3    3    0    0 -0.99912972626E+01  0.27800249803E+02 -0.83512684487E+01  0.30698918467E+02  0.51100000000E-03 0. -1.
        -11    1    3    3    0    0 -0.86159041080E+01 -0.18543556067E+00  0.11236332047E+02  0.14160626683E+02  0.51100000000E-03 0.  1.
        -12    1    3    3    0    0  0.13287591444E+02 -0.20122491007E+02  0.13431701507E+02  0.27602270488E+02  0.00000000000E+00 0.  1.
</event>
<event>
 7    1  0.1788006E-013  0.7246155E+02  0.7816164E-02  0.1226708E+00
        -11   -1    0    0    0    0  0.00000000000E+00  0.00000000000E+00  0.45593999997E+02  0.45594000000E+02  0.51100000000E-03 0.  1.
         11   -1    0    0    0    0 -0.00000000000E+00 -0.00000000000E+00 -0.45593999997E+02  0.45594000000E+02  0.51100000000E-03 0. -1.
    9900012    2    1    2    0    0 -0.13934362446E+02 -0.19005941569E+01 -0.12365326978E+02  0.72461547421E+02  0.69999970203E+02 0.  0.
        -12    1    1    2    0    0  0.13934362446E+02  0.19005941569E+01  0.12365326978E+02  0.18726452579E+02  0.00000000000E+00 0.  1.
         11    1    3    3    0    0  0.23744587071E+01  0.17107200737E+02 -0.29348819967E+02  0.34053599001E+02  0.51100000000E-03 0. -1.
        -11    1    3    3    0    0 -0.10652122405E+02  0.35209902563E+01  0.57213195450E+01  0.12593592884E+02  0.51100000000E-03 0.  1.
        -12    1    3    3    0    0 -0.56566987478E+01 -0.22528785150E+02  0.11262173444E+02  0.25814355536E+02  0.00000000000E+00 0.  1.
</event>
<event>
 7    1  0.1788006E-013  0.7246154E+02  0.7816164E-02  0.1226708E+00
        -11   -1    0    0    0    0  0.00000000000E+00  0.00000000000E+00  0.45593999997E+02  0.45594000000E+02  0.51100000000E-03 0.  1.
         11   -1    0    0    0    0 -0.00000000000E+00 -0.00000000000E+00 -0.45593999997E+02  0.45594000000E+02  0.51100000000E-03 0. -1.
    9900012    2    1    2    0    0  0.37972351150E+01  0.21068827397E+01 -0.18215996267E+02  0.72461535588E+02  0.69999954788E+02 0.  0.
        -12    1    1    2    0    0 -0.37972351150E+01 -0.21068827397E+01  0.18215996267E+02  0.18726464412E+02  0.00000000000E+00 0.  1.
         11    1    3    3    0    0  0.48654046399E+01  0.95762797863E+01 -0.18461780982E+02  0.21359181964E+02  0.51100000000E-03 0. -1.
        -11    1    3    3    0    0 -0.20888364468E+02  0.10428637767E+02 -0.50253821934E+01  0.23881681730E+02  0.51100000000E-03 0.  1.
         12    1    3    3    0    0  0.19820194943E+02 -0.17898034813E+02  0.52711669089E+01  0.27220671894E+02  0.00000000000E+00 0. -1.
</event>
<event>
 7    1  0.1788006E-013  0.7246176E+02  0.7816164E-02  0.1226708E+00
        -11   -1    0    0    0    0  0.00000000000E+00  0.00000000000E+00  0.45593999997E+02  0.45594000000E+02  0.51100000000E-03 0.  1.
         11   -1    0    0    0    0 -0.00000000000E+00 -0.00000000000E+00 -0.45593999997E+02  0.45594000000E+02  0.51100000000E-03 0. -1.
    9900012    2    1    2    0    0  0.14388195433E+02 -0.11101367029E+01 -0.11933967226E+02  0.72461757850E+02  0.70000244325E+02 0.  0.
        -12    1    1    2    0    0 -0.14388195433E+02  0.11101367029E+01  0.11933967226E+02  0.18726242150E+02  0.00000000000E+00 0.  1.
         11    1    3    3    0    0 -0.11550802021E+02 -0.66058672863E+01 -0.93013916896E+01  0.16234974517E+02  0.51100000000E-03 0. -1.
        -11    1    3    3    0    0  0.30154489613E+01  0.17278648655E+02  0.16536055795E+02  0.24105720758E+02  0.51100000000E-03 0.  1.
         12    1    3    3    0    0  0.22923548493E+02 -0.11782918071E+02 -0.19168631331E+02  0.32121062574E+02  0.00000000000E+00 0. -1.
</event>
<event>
 7    1  0.1788006E-013  0.7246143E+02  0.7816164E-02  0.1226708E+00
        -11   -1    0    0    0    0  0.00000000000E+00  0.00000000000E+00  0.45593999997E+02  0.45594000000E+02  0.51100000000E-03 0.  1.
         11   -1    0    0    0    0 -0.00000000000E+00 -0.00000000000E+00 -0.45593999997E+02  0.45594000000E+02  0.51100000000E-03 0. -1.
    9900012    2    1    2    0    0  0.14313677765E+02  0.11168535372E+02 -0.45898741830E+01  0.72461428009E+02  0.69999814646E+02 0.  0.
        -12    1    1    2    0    0 -0.14313677765E+02 -0.11168535372E+02  0.45898741830E+01  0.18726571991E+02  0.00000000000E+00 0.  1.
         11    1    3    3    0    0 -0.58025278160E+01  0.15317529820E+01  0.25857084680E+01  0.65346373117E+01  0.51100000000E-03 0. -1.
        -11    1    3    3    0    0 -0.11293891058E+02  0.24784782160E+02  0.72558338454E+01  0.28186601906E+02  0.51100000000E-03 0.  1.
         12    1    3    3    0    0  0.31410096639E+02 -0.15147999770E+02 -0.14431416496E+02  0.37740188791E+02  0.00000000000E+00 0. -1.
</event>
<event>
 7    1  0.1788006E-013  0.7246153E+02  0.7816164E-02  0.1226708E+00
        -11   -1    0    0    0    0  0.00000000000E+00  0.00000000000E+00  0.45593999997E+02  0.45594000000E+02  0.51100000000E-03 0. -1.
         11   -1    0    0    0    0 -0.00000000000E+00 -0.00000000000E+00 -0.45593999997E+02  0.45594000000E+02  0.51100000000E-03 0.  1.
    9900012    2    1    2    0    0  0.15825886814E+02  0.99258356906E+01  0.13037806344E+01  0.72461528054E+02  0.69999944974E+02 0.  0.
        -12    1    1    2    0    0 -0.15825886814E+02 -0.99258356906E+01 -0.13037806344E+01  0.18726471946E+02  0.00000000000E+00 0.  1.
         11    1    3    3    0    0  0.40297348758E+01 -0.46440674873E+01 -0.11819728367E+02  0.13323366877E+02  0.51100000000E-03 0. -1.
        -11    1    3    3    0    0 -0.18654162853E+02 -0.71240707269E+01  0.74975895776E+01  0.21329416898E+02  0.51100000000E-03 0.  1.
         12    1    3    3    0    0  0.30450314791E+02  0.21693973905E+02  0.56259194238E+01  0.37808744280E+02  0.00000000000E+00 0. -1.
</event>
<event>
 7    1  0.1788006E-013  0.7246126E+02  0.7816164E-02  0.1226709E+00
        -11   -1    0    0    0    0  0.00000000000E+00  0.00000000000E+00  0.45593999997E+02  0.45594000000E+02  0.51100000000E-03 0.  1.
         11   -1    0    0    0    0 -0.00000000000E+00 -0.00000000000E+00 -0.45593999997E+02  0.45594000000E+02  0.51100000000E-03 0. -1.
    9900012    2    1    2    0    0 -0.11526405858E+02  0.12763438590E+02  0.74113078946E+01  0.72461257588E+02  0.69999592641E+02 0.  0.
        -12    1    1    2    0    0  0.11526405858E+02 -0.12763438590E+02 -0.74113078946E+01  0.18726742412E+02  0.00000000000E+00 0.  1.
         11    1    3    3    0    0 -0.15863065745E+01  0.53415187402E+01 -0.24025141297E+01  0.60679704519E+01  0.51100000000E-03 0. -1.
        -11    1    3    3    0    0 -0.53953933216E+01  0.31214277557E+02  0.22686185360E+02  0.38962859225E+02  0.51100000000E-03 0.  1.
         12    1    3    3    0    0 -0.45447059621E+01 -0.23792357708E+02 -0.12872363336E+02  0.27430427912E+02  0.00000000000E+00 0. -1.
</event>
<event>
 7    1  0.1788006E-013  0.7246157E+02  0.7816164E-02  0.1226708E+00
        -11   -1    0    0    0    0  0.00000000000E+00  0.00000000000E+00  0.45593999997E+02  0.45594000000E+02  0.51100000000E-03 0.  1.
         11   -1    0    0    0    0 -0.00000000000E+00 -0.00000000000E+00 -0.45593999997E+02  0.45594000000E+02  0.51100000000E-03 0. -1.
    9900012    2    1    2    0    0 -0.12181953748E+02 -0.12090566075E+02 -0.74898089948E+01  0.72461574182E+02  0.70000005064E+02 0.  0.
        -12    1    1    2    0    0  0.12181953748E+02  0.12090566075E+02  0.74898089948E+01  0.18726425818E+02  0.00000000000E+00 0.  1.
         11    1    3    3    0    0 -0.18150360313E+01 -0.19353564064E+02 -0.45069476508E+01  0.19954131782E+02  0.51100000000E-03 0. -1.
        -11    1    3    3    0    0 -0.10794205995E+02 -0.18651843296E+02  0.97233022571E+01  0.23642096956E+02  0.51100000000E-03 0.  1.
         12    1    3    3    0    0  0.42728827823E+00  0.25914841285E+02 -0.12706163601E+02  0.28865345444E+02  0.00000000000E+00 0. -1.
</event>
<event>
 7    1  0.1788006E-013  0.7246154E+02  0.7816164E-02  0.1226708E+00
        -11   -1    0    0    0    0  0.00000000000E+00  0.00000000000E+00  0.45593999997E+02  0.45594000000E+02  0.51100000000E-03 0. -1.
         11   -1    0    0    0    0 -0.00000000000E+00 -0.00000000000E+00 -0.45593999997E+02  0.45594000000E+02  0.51100000000E-03 0.  1.
    9900012    2    1    2    0    0  0.79939031060E+01 -0.10362463467E+02  0.13393916215E+02  0.72461544715E+02  0.69999966678E+02 0.  0.
        -12    1    1    2    0    0 -0.79939031060E+01  0.10362463467E+02 -0.13393916215E+02  0.18726455285E+02  0.00000000000E+00 0.  1.
         11    1    3    3    0    0  0.89823613646E+01  0.52060749158E+00  0.29859281973E+01  0.94799586130E+01  0.51100000000E-03 0. -1.
        -11    1    3    3    0    0  0.94094099393E+01 -0.14535357819E+02 -0.22434488536E+02  0.28339370114E+02  0.51100000000E-03 0.  1.
         12    1    3    3    0    0 -0.10397868198E+02  0.36522868612E+01  0.32842476554E+02  0.34642215988E+02  0.00000000000E+00 0. -1.
</event>
<event>
 7    1  0.1788006E-013  0.7246142E+02  0.7816164E-02  0.1226708E+00
        -11   -1    0    0    0    0  0.00000000000E+00  0.00000000000E+00  0.45593999997E+02  0.45594000000E+02  0.51100000000E-03 0.  1.
         11   -1    0    0    0    0 -0.00000000000E+00 -0.00000000000E+00 -0.45593999997E+02  0.45594000000E+02  0.51100000000E-03 0. -1.
    9900012    2    1    2    0    0 -0.17488804613E+02  0.47641897857E+01  0.47041296159E+01  0.72461424591E+02  0.69999810194E+02 0.  0.
        -12    1    1    2    0    0  0.17488804613E+02 -0.47641897857E+01 -0.47041296159E+01  0.18726575409E+02  0.00000000000E+00 0.  1.
         11    1    3    3    0    0 -0.24329043551E+01  0.49481693490E+00 -0.11779627880E+02  0.12038417697E+02  0.51100000000E-03 0. -1.
        -11    1    3    3    0    0  0.10093668446E+02  0.17246337935E+02 -0.93887542916E+01  0.22078655354E+02  0.51100000000E-03 0.  1.
        -12    1    3    3    0    0 -0.25149568704E+02 -0.12976965084E+02  0.25872511787E+02  0.38344351539E+02  0.00000000000E+00 0.  1.
</event>
<event>
 7    1  0.1788006E-013  0.7246160E+02  0.7816164E-02  0.1226708E+00
        -11   -1    0    0    0    0  0.00000000000E+00  0.00000000000E+00  0.45593999997E+02  0.45594000000E+02  0.51100000000E-03 0.  1.
         11   -1    0    0    0    0 -0.00000000000E+00 -0.00000000000E+00 -0.45593999997E+02  0.45594000000E+02  0.51100000000E-03 0. -1.
    9900012    2    1    2    0    0 -0.13476739466E+02 -0.52318586696E+01 -0.11903071205E+02  0.72461602699E+02  0.70000042213E+02 0.  0.
        -12    1    1    2    0    0  0.13476739466E+02  0.52318586696E+01  0.11903071205E+02  0.18726397301E+02  0.00000000000E+00 0.  1.
         11    1    3    3    0    0  0.38276933468E+01  0.69121644656E+01 -0.25253824555E+02  0.26461007329E+02  0.51100000000E-03 0. -1.
        -11    1    3    3    0    0  0.25399960686E+01 -0.18912631217E+02  0.15953389428E+02  0.24872672435E+02  0.51100000000E-03 0.  1.
         12    1    3    3    0    0 -0.19844428881E+02  0.67686080813E+01 -0.26026360774E+01  0.21127922935E+02  0.00000000000E+00 0. -1.
</event>
<event>
 7    1  0.1788006E-013  0.7246161E+02  0.7816164E-02  0.1226708E+00
        -11   -1    0    0    0    0  0.00000000000E+00  0.00000000000E+00  0.45593999997E+02  0.45594000000E+02  0.51100000000E-03 0.  1.
         11   -1    0    0    0    0 -0.00000000000E+00 -0.00000000000E+00 -0.45593999997E+02  0.45594000000E+02  0.51100000000E-03 0. -1.
    9900012    2    1    2    0    0 -0.56522830430E+01  0.15034015151E+02 -0.96284934158E+01  0.72461606845E+02  0.70000047614E+02 0.  0.
        -12    1    1    2    0    0  0.56522830430E+01 -0.15034015151E+02  0.96284934158E+01  0.18726393155E+02  0.00000000000E+00 0.  1.
         11    1    3    3    0    0 -0.20996919874E+02  0.12721004840E+02  0.13109823887E+02  0.27830955624E+02  0.51100000000E-03 0. -1.
        -11    1    3    3    0    0  0.14708312757E+02  0.16712994327E+02 -0.71123169614E+01  0.23371856930E+02  0.51100000000E-03 0.  1.
        -12    1    3    3    0    0  0.63632407342E+00 -0.14399984017E+02 -0.15626000341E+02  0.21258794291E+02  0.00000000000E+00 0.  1.
</event>
<event>
 7    1  0.1788006E-013  0.7246179E+02  0.7816164E-02  0.1226707E+00
        -11   -1    0    0    0    0  0.00000000000E+00  0.00000000000E+00  0.45593999997E+02  0.45594000000E+02  0.51100000000E-03 0. -1.
         11   -1    0    0    0    0 -0.00000000000E+00 -0.00000000000E+00 -0.45593999997E+02  0.45594000000E+02  0.51100000000E-03 0.  1.
    9900012    2    1    2    0    0 -0.16320671860E+02  0.62566363971E+01  0.67201882703E+01  0.72461794849E+02  0.70000292524E+02 0.  0.
        -12    1    1    2    0    0  0.16320671860E+02 -0.62566363971E+01 -0.67201882703E+01  0.18726205151E+02  0.00000000000E+00 0.  1.
         11    1    3    3    0    0 -0.63937827732E+01  0.29201960207E+02  0.74508154333E+01  0.30808271437E+02  0.51100000000E-03 0. -1.
        -11    1    3    3    0    0  0.11802760515E+02 -0.12898712859E+02 -0.24381488041E+01  0.17652946469E+02  0.51100000000E-03 0.  1.
        -12    1    3    3    0    0 -0.21729649602E+02 -0.10046610951E+02  0.17075216411E+01  0.24000576943E+02  0.00000000000E+00 0.  1.
</event>
<event>
 7    1  0.1788006E-013  0.7246157E+02  0.7816164E-02  0.1226708E+00
        -11   -1    0    0    0    0  0.00000000000E+00  0.00000000000E+00  0.45593999997E+02  0.45594000000E+02  0.51100000000E-03 0. -1.
         11   -1    0    0    0    0 -0.00000000000E+00 -0.00000000000E+00 -0.45593999997E+02  0.45594000000E+02  0.51100000000E-03 0.  1.
    9900012    2    1    2    0    0 -0.10460034917E+02  0.10493763863E+02  0.11451968612E+02  0.72461574939E+02  0.70000006050E+02 0.  0.
        -12    1    1    2    0    0  0.10460034917E+02 -0.10493763863E+02 -0.11451968612E+02  0.18726425061E+02  0.00000000000E+00 0.  1.
         11    1    3    3    0    0 -0.24653140163E+02  0.90026741666E+01  0.17844077682E+02  0.31736990573E+02  0.51100000000E-03 0. -1.
        -11    1    3    3    0    0 -0.10255697328E+02 -0.36009743648E+01  0.64536272365E+01  0.12641030371E+02  0.51100000000E-03 0.  1.
        -12    1    3    3    0    0  0.24448802575E+02  0.50920640613E+01 -0.12845736306E+02  0.28083553995E+02  0.00000000000E+00 0.  1.
</event>
<event>
 7    1  0.1788006E-013  0.7246163E+02  0.7816164E-02  0.1226708E+00
        -11   -1    0    0    0    0  0.00000000000E+00  0.00000000000E+00  0.45593999997E+02  0.45594000000E+02  0.51100000000E-03 0.  1.
         11   -1    0    0    0    0 -0.00000000000E+00 -0.00000000000E+00 -0.45593999997E+02  0.45594000000E+02  0.51100000000E-03 0. -1.
    9900012    2    1    2    0    0  0.34125829192E+01  0.68662935480E+01 -0.17084647067E+02  0.72461631567E+02  0.70000079819E+02 0.  0.
        -12    1    1    2    0    0 -0.34125829192E+01 -0.68662935480E+01  0.17084647067E+02  0.18726368433E+02  0.00000000000E+00 0.  1.
         11    1    3    3    0    0 -0.83590244752E+01  0.88434245702E+01 -0.12375160264E+02  0.17355807101E+02  0.51100000000E-03 0. -1.
        -11    1    3    3    0    0 -0.75433375475E+01  0.22193972069E+02 -0.57943182905E+01  0.24146396466E+02  0.51100000000E-03 0.  1.
         12    1    3    3    0    0  0.19314944942E+02 -0.24171103091E+02  0.10848314877E+01  0.30959428000E+02  0.00000000000E+00 0. -1.
</event>
<event>
 7    1  0.1788006E-013  0.7246149E+02  0.7816164E-02  0.1226708E+00
        -11   -1    0    0    0    0  0.00000000000E+00  0.00000000000E+00  0.45593999997E+02  0.45594000000E+02  0.51100000000E-03 0.  1.
         11   -1    0    0    0    0 -0.00000000000E+00 -0.00000000000E+00 -0.45593999997E+02  0.45594000000E+02  0.51100000000E-03 0. -1.
    9900012    2    1    2    0    0 -0.13685231212E+02  0.12020124573E+02 -0.43489292813E+01  0.72461491144E+02  0.69999896891E+02 0.  0.
        -12    1    1    2    0    0  0.13685231212E+02 -0.12020124573E+02  0.43489292813E+01  0.18726508856E+02  0.00000000000E+00 0.  1.
         11    1    3    3    0    0  0.43384751756E+01 -0.29924626857E+01  0.10817842643E+02  0.12033408473E+02  0.51100000000E-03 0. -1.
        -11    1    3    3    0    0 -0.12357030788E+02  0.20381916731E+02  0.15731644528E+02  0.28558770620E+02  0.51100000000E-03 0.  1.
         12    1    3    3    0    0 -0.56666755994E+01 -0.53693294729E+01 -0.30898416452E+02  0.31869312050E+02  0.00000000000E+00 0. -1.
</event>
<event>
 7    1  0.1788006E-013  0.7246152E+02  0.7816164E-02  0.1226708E+00
        -11   -1    0    0    0    0  0.00000000000E+00  0.00000000000E+00  0.45593999997E+02  0.45594000000E+02  0.51100000000E-03 0.  1.
         11   -1    0    0    0    0 -0.00000000000E+00 -0.00000000000E+00 -0.45593999997E+02  0.45594000000E+02  0.51100000000E-03 0. -1.
    9900012    2    1    2    0    0  0.12220119562E+02  0.14158829880E+02  0.93660273968E+00  0.72461521143E+02  0.69999935972E+02 0.  0.
        -12    1    1    2    0    0 -0.12220119562E+02 -0.14158829880E+02 -0.93660273968E+00  0.18726478857E+02  0.00000000000E+00 0.  1.
         11    1    3    3    0    0 -0.96041278504E+01  0.73782804302E+01  0.74088875950E+01  0.14197531811E+02  0.51100000000E-03 0. -1.
        -11    1    3    3    0    0 -0.75176292632E+01 -0.12480987922E+02  0.11748893653E+02  0.18717005946E+02  0.51100000000E-03 0.  1.
         12    1    3    3    0    0  0.29341876676E+02  0.19261537371E+02 -0.18221178508E+02  0.39546983387E+02  0.00000000000E+00 0. -1.
</event>
<event>
 7    1  0.1788006E-013  0.7246152E+02  0.7816164E-02  0.1226708E+00
        -11   -1    0    0    0    0  0.00000000000E+00  0.00000000000E+00  0.45593999997E+02  0.45594000000E+02  0.51100000000E-03 0.  1.
         11   -1    0    0    0    0 -0.00000000000E+00 -0.00000000000E+00 -0.45593999997E+02  0.45594000000E+02  0.51100000000E-03 0. -1.
    9900012    2    1    2    0    0  0.16177256764E+02  0.64994161832E+01 -0.68363030045E+01  0.72461519127E+02  0.69999933345E+02 0.  0.
        -12    1    1    2    0    0 -0.16177256764E+02 -0.64994161832E+01  0.68363030045E+01  0.18726480873E+02  0.00000000000E+00 0.  1.
         11    1    3    3    0    0  0.41165229525E+01 -0.17654000738E+02  0.72643677932E+01  0.19528966766E+02  0.51100000000E-03 0. -1.
        -11    1    3    3    0    0  0.13656369127E+02 -0.90857713247E+01 -0.10465824001E+02  0.19457161421E+02  0.51100000000E-03 0.  1.
        -12    1    3    3    0    0 -0.15956353155E+01  0.33239188246E+02 -0.36348467967E+01  0.33475390939E+02  0.00000000000E+00 0.  1.
</event>
<event>
 7    1  0.1788006E-013  0.7246155E+02  0.7816164E-02  0.1226708E+00
        -11   -1    0    0    0    0  0.00000000000E+00  0.00000000000E+00  0.45593999997E+02  0.45594000000E+02  0.51100000000E-03 0. -1.
         11   -1    0    0    0    0 -0.00000000000E+00 -0.00000000000E+00 -0.45593999997E+02  0.45594000000E+02  0.51100000000E-03 0.  1.
    9900012    2    1    2    0    0 -0.55968300628E+01  0.16634322565E+02  0.65310674376E+01  0.72461547164E+02  0.69999969868E+02 0.  0.
        -12    1    1    2    0    0  0.55968300628E+01 -0.16634322565E+02 -0.65310674376E+01  0.18726452836E+02  0.00000000000E+00 0.  1.
         11    1    3    3    0    0  0.10696008358E+02  0.79201790703E+01 -0.58410240360E+01  0.14534489786E+02  0.51100000000E-03 0. -1.
        -11    1    3    3    0    0  0.13546341555E+02 -0.82822724519E+01  0.17017107545E+02  0.23274048980E+02  0.51100000000E-03 0.  1.
         12    1    3    3    0    0 -0.29839179976E+02  0.16996415947E+02 -0.46450160715E+01  0.34653008397E+02  0.00000000000E+00 0. -1.
</event>
<event>
 7    1  0.1788006E-013  0.7246161E+02  0.7816164E-02  0.1226708E+00
        -11   -1    0    0    0    0  0.00000000000E+00  0.00000000000E+00  0.45593999997E+02  0.45594000000E+02  0.51100000000E-03 0.  1.
         11   -1    0    0    0    0 -0.00000000000E+00 -0.00000000000E+00 -0.45593999997E+02  0.45594000000E+02  0.51100000000E-03 0. -1.
    9900012    2    1    2    0    0 -0.80298797612E+00 -0.17521415189E+02 -0.65599545072E+01  0.72461607314E+02  0.70000048225E+02 0.  0.
        -12    1    1    2    0    0  0.80298797612E+00  0.17521415189E+02  0.65599545072E+01  0.18726392686E+02  0.00000000000E+00 0.  1.
         11    1    3    3    0    0 -0.12440472146E+02 -0.90643412530E+01 -0.28753675010E+01  0.15658715404E+02  0.51100000000E-03 0. -1.
        -11    1    3    3    0    0  0.59985309059E+00  0.23147300288E+02 -0.27013029040E+01  0.23312107841E+02  0.51100000000E-03 0.  1.
         12    1    3    3    0    0  0.11037631080E+02 -0.31604374224E+02 -0.98328410225E+00  0.33490784069E+02  0.00000000000E+00 0. -1.
</event>
<event>
 7    1  0.1788006E-013  0.7246157E+02  0.7816164E-02  0.1226708E+00
        -11   -1    0    0    0    0  0.00000000000E+00  0.00000000000E+00  0.45593999997E+02  0.45594000000E+02  0.51100000000E-03 0. -1.
         11   -1    0    0    0    0 -0.00000000000E+00 -0.00000000000E+00 -0.45593999997E+02  0.45594000000E+02  0.51100000000E-03 0.  1.
    9900012    2    1    2    0    0 -0.91632832216E+01 -0.14179442164E+02  0.81028970614E+01  0.72461567338E+02  0.69999996148E+02 0.  0.
        -12    1    1    2    0    0  0.91632832216E+01  0.14179442164E+02 -0.81028970614E+01  0.18726432662E+02  0.00000000000E+00 0.  1.
         11    1    3    3    0    0  0.14178114533E+02  0.18257953667E+01  0.59125762114E+01  0.15469680609E+02  0.51100000000E-03 0. -1.
        -11    1    3    3    0    0 -0.18596638172E+02  0.15787325289E+02 -0.24381926903E+01  0.24515696501E+02  0.51100000000E-03 0.  1.
         12    1    3    3    0    0 -0.47447595821E+01 -0.31792562819E+02  0.46285135402E+01  0.32476190228E+02  0.00000000000E+00 0. -1.
</event>
<event>
 7    1  0.1788006E-013  0.7246159E+02  0.7816164E-02  0.1226708E+00
        -11   -1    0    0    0    0  0.00000000000E+00  0.00000000000E+00  0.45593999997E+02  0.45594000000E+02  0.51100000000E-03 0.  1.
         11   -1    0    0    0    0 -0.00000000000E+00 -0.00000000000E+00 -0.45593999997E+02  0.45594000000E+02  0.51100000000E-03 0. -1.
    9900012    2    1    2    0    0  0.20341411243E+01  0.13049378126E+02 -0.13276084805E+02  0.72461590111E+02  0.70000025815E+02 0.  0.
        -12    1    1    2    0    0 -0.20341411243E+01 -0.13049378126E+02  0.13276084805E+02  0.18726409889E+02  0.00000000000E+00 0.  1.
         11    1    3    3    0    0  0.13759441046E+02  0.26420555399E+02 -0.26108647572E+02  0.39610976304E+02  0.51100000000E-03 0. -1.
        -11    1    3    3    0    0 -0.24566332173E+01  0.63176887919E+01 -0.13010306966E+01  0.69022401850E+01  0.51100000000E-03 0.  1.
        -12    1    3    3    0    0 -0.92686667046E+01 -0.19688866065E+02  0.14133593464E+02  0.25948373621E+02  0.00000000000E+00 0.  1.
</event>
<event>
 7    1  0.1788006E-013  0.7246156E+02  0.7816164E-02  0.1226708E+00
        -11   -1    0    0    0    0  0.00000000000E+00  0.00000000000E+00  0.45593999997E+02  0.45594000000E+02  0.51100000000E-03 0.  1.
         11   -1    0    0    0    0 -0.00000000000E+00 -0.00000000000E+00 -0.45593999997E+02  0.45594000000E+02  0.51100000000E-03 0. -1.
    9900012    2    1    2    0    0  0.16946471533E+02 -0.76786574654E+00 -0.79313882070E+01  0.72461563229E+02  0.69999990796E+02 0.  0.
        -12    1    1    2    0    0 -0.16946471533E+02  0.76786574654E+00  0.79313882070E+01  0.18726436771E+02  0.00000000000E+00 0.  1.
         11    1    3    3    0    0  0.27459076233E+01 -0.13553647342E+02  0.23113719675E+01  0.14020834696E+02  0.51100000000E-03 0. -1.
        -11    1    3    3    0    0  0.70719460380E+01 -0.33953405620E+01  0.21068637091E+02  0.22481730970E+02  0.51100000000E-03 0.  1.
         12    1    3    3    0    0  0.71286178721E+01  0.16181122157E+02 -0.31311397265E+02  0.35958997563E+02  0.00000000000E+00 0. -1.
</event>
<event>
 7    1  0.1788006E-013  0.7246154E+02  0.7816164E-02  0.1226708E+00
        -11   -1    0    0    0    0  0.00000000000E+00  0.00000000000E+00  0.45593999997E+02  0.45594000000E+02  0.51100000000E-03 0.  1.
         11   -1    0    0    0    0 -0.00000000000E+00 -0.00000000000E+00 -0.45593999997E+02  0.45594000000E+02  0.51100000000E-03 0. -1.
    9900012    2    1    2    0    0  0.81959563871E+01 -0.16201422904E+02 -0.45848316026E+01  0.72461535143E+02  0.69999954209E+02 0.  0.
        -12    1    1    2    0    0 -0.81959563871E+01  0.16201422904E+02  0.45848316026E+01  0.18726464857E+02  0.00000000000E+00 0.  1.
         11    1    3    3    0    0  0.62088618940E+01 -0.20473011808E+02 -0.26619301253E+02  0.34150862039E+02  0.51100000000E-03 0. -1.
        -11    1    3    3    0    0 -0.45191496311E+01  0.78998630165E+01 -0.49198931794E+01  0.10345815493E+02  0.51100000000E-03 0.  1.
         12    1    3    3    0    0  0.65062441242E+01 -0.36282741126E+01  0.26954362830E+02  0.27964857611E+02  0.00000000000E+00 0. -1.
</event>
<event>
 7    1  0.1788006E-013  0.7246154E+02  0.7816164E-02  0.1226708E+00
        -11   -1    0    0    0    0  0.00000000000E+00  0.00000000000E+00  0.45593999997E+02  0.45594000000E+02  0.51100000000E-03 0. -1.
         11   -1    0    0    0    0 -0.00000000000E+00 -0.00000000000E+00 -0.45593999997E+02  0.45594000000E+02  0.51100000000E-03 0.  1.
    9900012    2    1    2    0    0  0.12685828619E+02  0.12401368940E+02 -0.59963505336E+01  0.72461536932E+02  0.69999956539E+02 0.  0.
        -12    1    1    2    0    0 -0.12685828619E+02 -0.12401368940E+02  0.59963505336E+01  0.18726463068E+02  0.00000000000E+00 0.  1.
         11    1    3    3    0    0 -0.58673496364E+01 -0.58601782567E+01 -0.13702716236E+02  0.16016613670E+02  0.51100000000E-03 0. -1.
        -11    1    3    3    0    0  0.15447415093E+02  0.35003296607E+01 -0.19629780203E+02  0.25223069042E+02  0.51100000000E-03 0.  1.
         12    1    3    3    0    0  0.31057631627E+01  0.14761217536E+02  0.27336145906E+02  0.31221854220E+02  0.00000000000E+00 0. -1.
</event>
<event>
 7    1  0.1788006E-013  0.7246151E+02  0.7816164E-02  0.1226708E+00
        -11   -1    0    0    0    0  0.00000000000E+00  0.00000000000E+00  0.45593999997E+02  0.45594000000E+02  0.51100000000E-03 0.  1.
         11   -1    0    0    0    0 -0.00000000000E+00 -0.00000000000E+00 -0.45593999997E+02  0.45594000000E+02  0.51100000000E-03 0. -1.
    9900012    2    1    2    0    0  0.48821398184E+01  0.14775039822E+01 -0.18018409493E+02  0.72461511063E+02  0.69999922840E+02 0.  0.
        -12    1    1    2    0    0 -0.48821398184E+01 -0.14775039822E+01  0.18018409493E+02  0.18726488937E+02  0.00000000000E+00 0.  1.
         11    1    3    3    0    0  0.72752852781E+01  0.17651420984E+01 -0.13076008997E+01  0.75996922885E+01  0.51100000000E-03 0. -1.
        -11    1    3    3    0    0  0.28694922056E+02 -0.56816968400E+01 -0.20495012286E+00  0.29252730395E+02  0.51100000000E-03 0.  1.
         12    1    3    3    0    0 -0.31088067515E+02  0.53940587238E+01 -0.16505858471E+02  0.35609088380E+02  0.00000000000E+00 0. -1.
</event>
<event>
 7    1  0.1788006E-013  0.7246201E+02  0.7816164E-02  0.1226707E+00
        -11   -1    0    0    0    0  0.00000000000E+00  0.00000000000E+00  0.45593999997E+02  0.45594000000E+02  0.51100000000E-03 0.  1.
         11   -1    0    0    0    0 -0.00000000000E+00 -0.00000000000E+00 -0.45593999997E+02  0.45594000000E+02  0.51100000000E-03 0. -1.
    9900012    2    1    2    0    0 -0.57385610214E+01 -0.14556036917E+02  0.10288502900E+02  0.72462013103E+02  0.70000576839E+02 0.  0.
        -12    1    1    2    0    0  0.57385610214E+01  0.14556036917E+02 -0.10288502900E+02  0.18725986897E+02  0.00000000000E+00 0.  1.
         11    1    3    3    0    0 -0.58982890239E+01  0.72330665982E+01 -0.17396867279E+01  0.94938704434E+01  0.51100000000E-03 0. -1.
        -11    1    3    3    0    0 -0.88681332604E+01 -0.11536479646E+02 -0.21956549291E+02  0.26340543031E+02  0.51100000000E-03 0.  1.
        -12    1    3    3    0    0  0.90278612629E+01 -0.10252623870E+02  0.33984738919E+02  0.36627599629E+02  0.00000000000E+00 0.  1.
</event>
<event>
 7    1  0.1788006E-013  0.7246161E+02  0.7816164E-02  0.1226708E+00
        -11   -1    0    0    0    0  0.00000000000E+00  0.00000000000E+00  0.45593999997E+02  0.45594000000E+02  0.51100000000E-03 0. -1.
         11   -1    0    0    0    0 -0.00000000000E+00 -0.00000000000E+00 -0.45593999997E+02  0.45594000000E+02  0.51100000000E-03 0.  1.
    9900012    2    1    2    0    0 -0.16618634616E+02 -0.28828468975E+01  0.81355831478E+01  0.72461613912E+02  0.70000056821E+02 0.  0.
        -12    1    1    2    0    0  0.16618634616E+02  0.28828468975E+01 -0.81355831478E+01  0.18726386088E+02  0.00000000000E+00 0.  1.
         11    1    3    3    0    0 -0.81836196743E+01  0.13046551581E+01  0.97621171586E+01  0.12805182066E+02  0.51100000000E-03 0. -1.
        -11    1    3    3    0    0  0.67023784449E+01  0.13379628423E+02  0.21963705248E+02  0.26577070606E+02  0.51100000000E-03 0.  1.
         12    1    3    3    0    0 -0.15137393387E+02 -0.17567130478E+02 -0.23590239258E+02  0.33079361240E+02  0.00000000000E+00 0. -1.
</event>
<event>
 7    1  0.1788006E-013  0.7246165E+02  0.7816164E-02  0.1226708E+00
        -11   -1    0    0    0    0  0.00000000000E+00  0.00000000000E+00  0.45593999997E+02  0.45594000000E+02  0.51100000000E-03 0. -1.
         11   -1    0    0    0    0 -0.00000000000E+00 -0.00000000000E+00 -0.45593999997E+02  0.45594000000E+02  0.51100000000E-03 0.  1.
    9900012    2    1    2    0    0  0.10384967760E+02 -0.14906222476E+02  0.45423927624E+01  0.72461645419E+02  0.70000097864E+02 0.  0.
        -12    1    1    2    0    0 -0.10384967760E+02  0.14906222476E+02 -0.45423927624E+01  0.18726354581E+02  0.00000000000E+00 0.  1.
         11    1    3    3    0    0  0.16272364780E+02 -0.19330095538E+02  0.12669256269E+02  0.28265747888E+02  0.51100000000E-03 0. -1.
        -11    1    3    3    0    0 -0.54664316182E+01  0.14137540478E+02 -0.22327043155E+02  0.26986084964E+02  0.51100000000E-03 0.  1.
         12    1    3    3    0    0 -0.42096540174E+00 -0.97136674160E+01  0.14200179648E+02  0.17209812567E+02  0.00000000000E+00 0. -1.
</event>
<event>
 7    1  0.1788006E-013  0.7246170E+02  0.7816164E-02  0.1226708E+00
        -11   -1    0    0    0    0  0.00000000000E+00  0.00000000000E+00  0.45593999997E+02  0.45594000000E+02  0.51100000000E-03 0.  1.
         11   -1    0    0    0    0 -0.00000000000E+00 -0.00000000000E+00 -0.45593999997E+02  0.45594000000E+02  0.51100000000E-03 0. -1.
    9900012    2    1    2    0    0 -0.36035925162E+01 -0.18355536179E+02 -0.87339455017E+00  0.72461697496E+02  0.70000165703E+02 0.  0.
        -12    1    1    2    0    0  0.36035925162E+01  0.18355536179E+02  0.87339455017E+00  0.18726302504E+02  0.00000000000E+00 0.  1.
         11    1    3    3    0    0 -0.41306293640E+01 -0.23265283907E+02 -0.10389752729E+02  0.25812448475E+02  0.51100000000E-03 0. -1.
        -11    1    3    3    0    0 -0.43083036042E+01  0.23120308670E+02  0.13880380570E+02  0.27308883499E+02  0.51100000000E-03 0.  1.
         12    1    3    3    0    0  0.48353404520E+01 -0.18210560942E+02 -0.43640223909E+01  0.19340365522E+02  0.00000000000E+00 0. -1.
</event>
<event>
 7    1  0.1788006E-013  0.7246157E+02  0.7816164E-02  0.1226708E+00
        -11   -1    0    0    0    0  0.00000000000E+00  0.00000000000E+00  0.45593999997E+02  0.45594000000E+02  0.51100000000E-03 0.  1.
         11   -1    0    0    0    0 -0.00000000000E+00 -0.00000000000E+00 -0.45593999997E+02  0.45594000000E+02  0.51100000000E-03 0. -1.
    9900012    2    1    2    0    0  0.10397399551E+02  0.15561620304E+02  0.63974877113E+00  0.72461568882E+02  0.69999998161E+02 0.  0.
        -12    1    1    2    0    0 -0.10397399551E+02 -0.15561620304E+02 -0.63974877113E+00  0.18726431118E+02  0.00000000000E+00 0.  1.
         11    1    3    3    0    0  0.50768521516E+01 -0.27206006583E+01  0.11403220408E+02  0.12775348592E+02  0.51100000000E-03 0. -1.
        -11    1    3    3    0    0  0.10052956242E+02 -0.18780867729E+02 -0.28311549302E+01  0.21489494186E+02  0.51100000000E-03 0.  1.
         12    1    3    3    0    0 -0.47324088427E+01  0.37063088691E+02 -0.79323167069E+01  0.38196726105E+02  0.00000000000E+00 0. -1.
</event>
<event>
 7    1  0.1788006E-013  0.7246155E+02  0.7816164E-02  0.1226708E+00
        -11   -1    0    0    0    0  0.00000000000E+00  0.00000000000E+00  0.45593999997E+02  0.45594000000E+02  0.51100000000E-03 0.  1.
         11   -1    0    0    0    0 -0.00000000000E+00 -0.00000000000E+00 -0.45593999997E+02  0.45594000000E+02  0.51100000000E-03 0. -1.
    9900012    2    1    2    0    0  0.58272877644E+01  0.91854202274E+00 -0.17772978264E+02  0.72461554568E+02  0.69999979514E+02 0.  0.
        -12    1    1    2    0    0 -0.58272877644E+01 -0.91854202274E+00  0.17772978264E+02  0.18726445432E+02  0.00000000000E+00 0.  1.
         11    1    3    3    0    0 -0.66202618831E+01  0.36455295351E+01  0.13825019287E+02  0.15755916716E+02  0.51100000000E-03 0. -1.
        -11    1    3    3    0    0  0.13923985675E+02 -0.28948831184E+01  0.85078292529E+01  0.16572292666E+02  0.51100000000E-03 0.  1.
         12    1    3    3    0    0 -0.14764360271E+01  0.16789560596E+00 -0.40105826804E+02  0.40133345187E+02  0.00000000000E+00 0. -1.
</event>
<event>
 7    1  0.1788006E-013  0.7246160E+02  0.7816164E-02  0.1226708E+00
        -11   -1    0    0    0    0  0.00000000000E+00  0.00000000000E+00  0.45593999997E+02  0.45594000000E+02  0.51100000000E-03 0.  1.
         11   -1    0    0    0    0 -0.00000000000E+00 -0.00000000000E+00 -0.45593999997E+02  0.45594000000E+02  0.51100000000E-03 0. -1.
    9900012    2    1    2    0    0  0.11749080405E+02 -0.17306295004E+00 -0.14581058668E+02  0.72461598503E+02  0.70000036747E+02 0.  0.
        -12    1    1    2    0    0 -0.11749080405E+02  0.17306295004E+00  0.14581058668E+02  0.18726401497E+02  0.00000000000E+00 0.  1.
         11    1    3    3    0    0  0.91356961321E+01  0.19910534835E+01  0.23605385874E+02  0.25389751482E+02  0.51100000000E-03 0. -1.
        -11    1    3    3    0    0  0.45847910991E+01 -0.51367467899E+01  0.16466220899E+01  0.70793955656E+01  0.51100000000E-03 0.  1.
         12    1    3    3    0    0 -0.19714068264E+01  0.29726303563E+01 -0.39833066632E+02  0.39992451455E+02  0.00000000000E+00 0. -1.
</event>
<event>
 7    1  0.1788006E-013  0.7246157E+02  0.7816164E-02  0.1226708E+00
        -11   -1    0    0    0    0  0.00000000000E+00  0.00000000000E+00  0.45593999997E+02  0.45594000000E+02  0.51100000000E-03 0.  1.
         11   -1    0    0    0    0 -0.00000000000E+00 -0.00000000000E+00 -0.45593999997E+02  0.45594000000E+02  0.51100000000E-03 0. -1.
    9900012    2    1    2    0    0 -0.13431751025E+02  0.13010219012E+02  0.10007969424E+01  0.72461566040E+02  0.69999994459E+02 0.  0.
        -12    1    1    2    0    0  0.13431751025E+02 -0.13010219012E+02 -0.10007969424E+01  0.18726433960E+02  0.00000000000E+00 0.  1.
         11    1    3    3    0    0 -0.79453429442E+01  0.30074063272E+01 -0.57847675062E+01  0.10277961991E+02  0.51100000000E-03 0. -1.
        -11    1    3    3    0    0  0.18254784840E+02  0.73891668527E+01 -0.18768911597E+02  0.27204944387E+02  0.51100000000E-03 0.  1.
        -12    1    3    3    0    0 -0.23741192920E+02  0.26136458316E+01  0.25554476046E+02  0.34978659662E+02  0.00000000000E+00 0.  1.
</event>
<event>
 7    1  0.1788006E-013  0.7246156E+02  0.7816164E-02  0.1226708E+00
        -11   -1    0    0    0    0  0.00000000000E+00  0.00000000000E+00  0.45593999997E+02  0.45594000000E+02  0.51100000000E-03 0.  1.
         11   -1    0    0    0    0 -0.00000000000E+00 -0.00000000000E+00 -0.45593999997E+02  0.45594000000E+02  0.51100000000E-03 0. -1.
    9900012    2    1    2    0    0 -0.44784325702E+01  0.69382770027E+01 -0.16807245734E+02  0.72461559997E+02  0.69999986585E+02 0.  0.
        -12    1    1    2    0    0  0.44784325702E+01 -0.69382770027E+01  0.16807245734E+02  0.18726440003E+02  0.00000000000E+00 0.  1.
         11    1    3    3    0    0  0.20909445242E+02 -0.44238351896E+01 -0.16016475534E+02  0.26707727475E+02  0.51100000000E-03 0.  1.
        -11    1    3    3    0    0 -0.56557049888E+01  0.59797761264E+01 -0.17502706464E+02  0.19341392279E+02  0.51100000000E-03 0. -1.
        -12    1    3    3    0    0 -0.19732172823E+02  0.53823360659E+01  0.16711936265E+02  0.26412440243E+02  0.00000000000E+00 0.  1.
</event>
<event>
 7    1  0.1788006E-013  0.7246156E+02  0.7816164E-02  0.1226708E+00
        -11   -1    0    0    0    0  0.00000000000E+00  0.00000000000E+00  0.45593999997E+02  0.45594000000E+02  0.51100000000E-03 0.  1.
         11   -1    0    0    0    0 -0.00000000000E+00 -0.00000000000E+00 -0.45593999997E+02  0.45594000000E+02  0.51100000000E-03 0. -1.
    9900012    2    1    2    0    0  0.16563001201E+02 -0.24825420075E+01 -0.83775624654E+01  0.72461559429E+02  0.69999985846E+02 0.  0.
        -12    1    1    2    0    0 -0.16563001201E+02  0.24825420075E+01  0.83775624654E+01  0.18726440571E+02  0.00000000000E+00 0.  1.
         11    1    3    3    0    0  0.20869392647E+02 -0.27521059526E+02 -0.12626093524E+02  0.36774427322E+02  0.51100000000E-03 0. -1.
        -11    1    3    3    0    0 -0.44957166577E+01 -0.10136021188E+01 -0.61077897076E+01  0.76514020215E+01  0.51100000000E-03 0.  1.
        -12    1    3    3    0    0  0.18932521169E+00  0.26052119638E+02  0.10356320766E+02  0.28035730086E+02  0.00000000000E+00 0.  1.
</event>
<event>
 7    1  0.1788006E-013  0.7246153E+02  0.7816164E-02  0.1226708E+00
        -11   -1    0    0    0    0  0.00000000000E+00  0.00000000000E+00  0.45593999997E+02  0.45594000000E+02  0.51100000000E-03 0.  1.
         11   -1    0    0    0    0 -0.00000000000E+00 -0.00000000000E+00 -0.45593999997E+02  0.45594000000E+02  0.51100000000E-03 0. -1.
    9900012    2    1    2    0    0  0.12670805813E+02  0.81832916999E+01 -0.11097981134E+02  0.72461527608E+02  0.69999944393E+02 0.  0.
        -12    1    1    2    0    0 -0.12670805813E+02 -0.81832916999E+01  0.11097981134E+02  0.18726472392E+02  0.00000000000E+00 0.  1.
         11    1    3    3    0    0  0.14232266962E+01  0.16191535237E+02 -0.20057083729E+02  0.25816235116E+02  0.51100000000E-03 0. -1.
        -11    1    3    3    0    0 -0.61766222402E+01  0.18118493428E+01 -0.14471780256E+02  0.15838746301E+02  0.51100000000E-03 0.  1.
        -12    1    3    3    0    0  0.17424201357E+02 -0.98200928799E+01  0.23430882851E+02  0.30806546192E+02  0.00000000000E+00 0.  1.
</event>
<event>
 7    1  0.1788006E-013  0.7246159E+02  0.7816164E-02  0.1226708E+00
        -11   -1    0    0    0    0  0.00000000000E+00  0.00000000000E+00  0.45593999997E+02  0.45594000000E+02  0.51100000000E-03 0.  1.
         11   -1    0    0    0    0 -0.00000000000E+00 -0.00000000000E+00 -0.45593999997E+02  0.45594000000E+02  0.51100000000E-03 0. -1.
    9900012    2    1    2    0    0 -0.52737731608E+01 -0.14777142837E+02 -0.10222603488E+02  0.72461594690E+02  0.70000031779E+02 0.  0.
        -12    1    1    2    0    0  0.52737731608E+01  0.14777142837E+02  0.10222603488E+02  0.18726405310E+02  0.00000000000E+00 0.  1.
         11    1    3    3    0    0  0.20869515879E+01 -0.81452510124E+01 -0.18589359036E+01  0.86113950054E+01  0.51100000000E-03 0. -1.
        -11    1    3    3    0    0 -0.17858829375E+02 -0.25794629736E+02  0.12374306471E+02  0.33725719722E+02  0.51100000000E-03 0.  1.
         12    1    3    3    0    0  0.10498104626E+02  0.19162737912E+02 -0.20737974056E+02  0.30124479962E+02  0.00000000000E+00 0. -1.
</event>
<event>
 7    1  0.1788006E-013  0.7246155E+02  0.7816164E-02  0.1226708E+00
        -11   -1    0    0    0    0  0.00000000000E+00  0.00000000000E+00  0.45593999997E+02  0.45594000000E+02  0.51100000000E-03 0.  1.
         11   -1    0    0    0    0 -0.00000000000E+00 -0.00000000000E+00 -0.45593999997E+02  0.45594000000E+02  0.51100000000E-03 0. -1.
    9900012    2    1    2    0    0  0.17991220139E+02  0.47410297047E+01 -0.21257252704E+01  0.72461546180E+02  0.69999968587E+02 0.  0.
        -12    1    1    2    0    0 -0.17991220139E+02 -0.47410297047E+01  0.21257252704E+01  0.18726453820E+02  0.00000000000E+00 0.  1.
         11    1    3    3    0    0  0.23612753752E+01  0.60027080148E+01 -0.27088478097E+01  0.69961404807E+01  0.51100000000E-03 0. -1.
        -11    1    3    3    0    0 -0.19020671164E+02  0.26228187733E+01  0.18151000095E+02  0.26422034641E+02  0.51100000000E-03 0.  1.
         12    1    3    3    0    0  0.34650615928E+02 -0.38844970834E+01 -0.17567877556E+02  0.39043371058E+02  0.00000000000E+00 0. -1.
</event>
<event>
 7    1  0.1788006E-013  0.7246157E+02  0.7816164E-02  0.1226708E+00
        -11   -1    0    0    0    0  0.00000000000E+00  0.00000000000E+00  0.45593999997E+02  0.45594000000E+02  0.51100000000E-03 0. -1.
         11   -1    0    0    0    0 -0.00000000000E+00 -0.00000000000E+00 -0.45593999997E+02  0.45594000000E+02  0.51100000000E-03 0.  1.
    9900012    2    1    2    0    0  0.10881700301E+02  0.11258363969E+02  0.10272139427E+02  0.72461574578E+02  0.70000005580E+02 0.  0.
        -12    1    1    2    0    0 -0.10881700301E+02 -0.11258363969E+02 -0.10272139427E+02  0.18726425422E+02  0.00000000000E+00 0.  1.
         11    1    3    3    0    0  0.11849878910E+02  0.50107246668E+01 -0.10338370486E+02  0.16504814341E+02  0.51100000000E-03 0. -1.
        -11    1    3    3    0    0  0.22434999035E+02 -0.18406084833E+01 -0.17700400066E+01  0.22579859680E+02  0.51100000000E-03 0.  1.
         12    1    3    3    0    0 -0.23403177644E+02  0.80882477854E+01  0.22380549920E+02  0.33376900557E+02  0.00000000000E+00 0. -1.
</event>
<event>
 7    1  0.1788006E-013  0.7246155E+02  0.7816164E-02  0.1226708E+00
        -11   -1    0    0    0    0  0.00000000000E+00  0.00000000000E+00  0.45593999997E+02  0.45594000000E+02  0.51100000000E-03 0.  1.
         11   -1    0    0    0    0 -0.00000000000E+00 -0.00000000000E+00 -0.45593999997E+02  0.45594000000E+02  0.51100000000E-03 0. -1.
    9900012    2    1    2    0    0  0.14819727267E+00  0.16899335176E+01 -0.18649454886E+02  0.72461547980E+02  0.69999970931E+02 0.  0.
        -12    1    1    2    0    0 -0.14819727267E+00 -0.16899335176E+01  0.18649454886E+02  0.18726452020E+02  0.00000000000E+00 0.  1.
         11    1    3    3    0    0 -0.12761217694E+02 -0.10060435913E+02  0.73950814976E+01  0.17853522857E+02  0.51100000000E-03 0.  1.
        -11    1    3    3    0    0 -0.58331815409E+01  0.24573772990E+02 -0.12734857657E+02  0.28285560373E+02  0.51100000000E-03 0. -1.
         12    1    3    3    0    0  0.18742596508E+02 -0.12823403559E+02 -0.13309678727E+02  0.26322464749E+02  0.00000000000E+00 0. -1.
</event>
<event>
 7    1  0.1788006E-013  0.7246163E+02  0.7816164E-02  0.1226708E+00
        -11   -1    0    0    0    0  0.00000000000E+00  0.00000000000E+00  0.45593999997E+02  0.45594000000E+02  0.51100000000E-03 0. -1.
         11   -1    0    0    0    0 -0.00000000000E+00 -0.00000000000E+00 -0.45593999997E+02  0.45594000000E+02  0.51100000000E-03 0.  1.
    9900012    2    1    2    0    0  0.20941151053E+01  0.18394937066E+02 -0.28138514000E+01  0.72461633896E+02  0.70000082853E+02 0.  0.
        -12    1    1    2    0    0 -0.20941151053E+01 -0.18394937066E+02  0.28138514000E+01  0.18726366104E+02  0.00000000000E+00 0.  1.
         11    1    3    3    0    0  0.26899189736E+01  0.52848374391E+01  0.20137253216E+02  0.20992239952E+02  0.51100000000E-03 0. -1.
        -11    1    3    3    0    0  0.18921354779E+02 -0.18618819982E+01 -0.18390654983E+02  0.26451851773E+02  0.51100000000E-03 0.  1.
         12    1    3    3    0    0 -0.19517158647E+02  0.14971981625E+02 -0.45604496337E+01  0.25017542172E+02  0.00000000000E+00 0. -1.
</event>
<event>
 7    1  0.1788006E-013  0.7246158E+02  0.7816164E-02  0.1226708E+00
        -11   -1    0    0    0    0  0.00000000000E+00  0.00000000000E+00  0.45593999997E+02  0.45594000000E+02  0.51100000000E-03 0.  1.
         11   -1    0    0    0    0 -0.00000000000E+00 -0.00000000000E+00 -0.45593999997E+02  0.45594000000E+02  0.51100000000E-03 0. -1.
    9900012    2    1    2    0    0  0.32672532879E+00 -0.48503483583E+01 -0.18084419155E+02  0.72461578965E+02  0.70000011295E+02 0.  0.
        -12    1    1    2    0    0 -0.32672532879E+00  0.48503483583E+01  0.18084419155E+02  0.18726421035E+02  0.00000000000E+00 0.  1.
         11    1    3    3    0    0  0.99905929036E+01  0.21936673702E+02 -0.14119112985E+02  0.27935263582E+02  0.51100000000E-03 0. -1.
        -11    1    3    3    0    0 -0.83981176153E+01  0.66401776099E+01 -0.27474383952E+01  0.11052997610E+02  0.51100000000E-03 0.  1.
        -12    1    3    3    0    0 -0.12657499595E+01 -0.33427199670E+02 -0.12178677745E+01  0.33473317772E+02  0.00000000000E+00 0.  1.
</event>
<event>
 7    1  0.1788006E-013  0.7246154E+02  0.7816164E-02  0.1226708E+00
        -11   -1    0    0    0    0  0.00000000000E+00  0.00000000000E+00  0.45593999997E+02  0.45594000000E+02  0.51100000000E-03 0.  1.
         11   -1    0    0    0    0 -0.00000000000E+00 -0.00000000000E+00 -0.45593999997E+02  0.45594000000E+02  0.51100000000E-03 0. -1.
    9900012    2    1    2    0    0  0.36493553837E+01  0.11402075051E+02  0.14399839142E+02  0.72461535371E+02  0.69999954505E+02 0.  0.
        -12    1    1    2    0    0 -0.36493553837E+01 -0.11402075051E+02 -0.14399839142E+02  0.18726464629E+02  0.00000000000E+00 0.  1.
         11    1    3    3    0    0 -0.30511941383E+00 -0.60357565498E+01  0.21269210045E+02  0.22111145407E+02  0.51100000000E-03 0. -1.
        -11    1    3    3    0    0 -0.11194404564E+02  0.50647873457E+01  0.16054035446E+02  0.20216300817E+02  0.51100000000E-03 0.  1.
         12    1    3    3    0    0  0.15148879361E+02  0.12373044255E+02 -0.22923406349E+02  0.30134089146E+02  0.00000000000E+00 0. -1.
</event>
<event>
 7    1  0.1788006E-013  0.7246158E+02  0.7816164E-02  0.1226708E+00
        -11   -1    0    0    0    0  0.00000000000E+00  0.00000000000E+00  0.45593999997E+02  0.45594000000E+02  0.51100000000E-03 0.  1.
         11   -1    0    0    0    0 -0.00000000000E+00 -0.00000000000E+00 -0.45593999997E+02  0.45594000000E+02  0.51100000000E-03 0. -1.
    9900012    2    1    2    0    0 -0.14983745282E+02  0.11221684532E+02 -0.48986425037E+00  0.72461580337E+02  0.70000013083E+02 0.  0.
        -12    1    1    2    0    0  0.14983745282E+02 -0.11221684532E+02  0.48986425037E+00  0.18726419663E+02  0.00000000000E+00 0.  1.
         11    1    3    3    0    0 -0.18543194625E+02 -0.12206767304E+02 -0.28431826398E+01  0.22381664878E+02  0.51100000000E-03 0. -1.
        -11    1    3    3    0    0 -0.58662113114E+01 -0.11664962034E+02  0.41436040727E+01  0.13698657941E+02  0.51100000000E-03 0.  1.
         12    1    3    3    0    0  0.94256606548E+01  0.35093413870E+02 -0.17902856833E+01  0.36381257519E+02  0.00000000000E+00 0. -1.
</event>
<event>
 7    1  0.1788006E-013  0.7246165E+02  0.7816164E-02  0.1226708E+00
        -11   -1    0    0    0    0  0.00000000000E+00  0.00000000000E+00  0.45593999997E+02  0.45594000000E+02  0.51100000000E-03 0. -1.
         11   -1    0    0    0    0 -0.00000000000E+00 -0.00000000000E+00 -0.45593999997E+02  0.45594000000E+02  0.51100000000E-03 0.  1.
    9900012    2    1    2    0    0 -0.42165754148E+01  0.13031053641E+02 -0.12770604402E+02  0.72461649475E+02  0.70000103147E+02 0.  0.
        -12    1    1    2    0    0  0.42165754148E+01 -0.13031053641E+02  0.12770604402E+02  0.18726350525E+02  0.00000000000E+00 0.  1.
         11    1    3    3    0    0 -0.17582618083E+02 -0.61038004258E+00  0.18872459257E+02  0.25800983336E+02  0.51100000000E-03 0. -1.
        -11    1    3    3    0    0 -0.49449700873E+01  0.51721112378E+00  0.26465380742E+01  0.56324417928E+01  0.51100000000E-03 0.  1.
        -12    1    3    3    0    0  0.18311012755E+02  0.13124222560E+02 -0.34289601733E+02  0.41028224345E+02  0.00000000000E+00 0.  1.
</event>
<event>
 7    1  0.1788006E-013  0.7246153E+02  0.7816164E-02  0.1226708E+00
        -11   -1    0    0    0    0  0.00000000000E+00  0.00000000000E+00  0.45593999997E+02  0.45594000000E+02  0.51100000000E-03 0.  1.
         11   -1    0    0    0    0 -0.00000000000E+00 -0.00000000000E+00 -0.45593999997E+02  0.45594000000E+02  0.51100000000E-03 0. -1.
    9900012    2    1    2    0    0 -0.65207830517E+01  0.67426224209E+01 -0.16207933339E+02  0.72461530182E+02  0.69999947747E+02 0.  0.
        -12    1    1    2    0    0  0.65207830517E+01 -0.67426224209E+01  0.16207933339E+02  0.18726469818E+02  0.00000000000E+00 0.  1.
         11    1    3    3    0    0  0.16452841161E+02 -0.71218507904E+00 -0.40752814086E+01  0.16964996572E+02  0.51100000000E-03 0. -1.
        -11    1    3    3    0    0  0.55040099062E+01 -0.10164238395E+02  0.10059515001E+02  0.15323175569E+02  0.51100000000E-03 0.  1.
         12    1    3    3    0    0 -0.28477634119E+02  0.17619045895E+02 -0.22192166931E+02  0.40173358042E+02  0.00000000000E+00 0. -1.
</event>
<event>
 7    1  0.1788006E-013  0.7246156E+02  0.7816164E-02  0.1226708E+00
        -11   -1    0    0    0    0  0.00000000000E+00  0.00000000000E+00  0.45593999997E+02  0.45594000000E+02  0.51100000000E-03 0.  1.
         11   -1    0    0    0    0 -0.00000000000E+00 -0.00000000000E+00 -0.45593999997E+02  0.45594000000E+02  0.51100000000E-03 0. -1.
    9900012    2    1    2    0    0 -0.41633683626E+01 -0.11529832835E+02 -0.14156578981E+02  0.72461563879E+02  0.69999991643E+02 0.  0.
        -12    1    1    2    0    0  0.41633683626E+01  0.11529832835E+02  0.14156578981E+02  0.18726436121E+02  0.00000000000E+00 0.  1.
         11    1    3    3    0    0 -0.19924341849E+02 -0.73013823565E+01  0.11659271540E+02  0.24212149750E+02  0.51100000000E-03 0. -1.
        -11    1    3    3    0    0  0.34240426041E+01  0.10859877970E+02  0.44712048284E+01  0.12233261632E+02  0.51100000000E-03 0.  1.
        -12    1    3    3    0    0  0.12336930882E+02 -0.15088328449E+02 -0.30287055349E+02  0.36016152497E+02  0.00000000000E+00 0.  1.
</event>
<event>
 7    1  0.1788006E-013  0.7246160E+02  0.7816164E-02  0.1226708E+00
        -11   -1    0    0    0    0  0.00000000000E+00  0.00000000000E+00  0.45593999997E+02  0.45594000000E+02  0.51100000000E-03 0.  1.
         11   -1    0    0    0    0 -0.00000000000E+00 -0.00000000000E+00 -0.45593999997E+02  0.45594000000E+02  0.51100000000E-03 0. -1.
    9900012    2    1    2    0    0  0.10197717666E+02 -0.15558484832E+02 -0.21490131936E+01  0.72461597421E+02  0.70000035337E+02 0.  0.
        -12    1    1    2    0    0 -0.10197717666E+02  0.15558484832E+02  0.21490131936E+01  0.18726402579E+02  0.00000000000E+00 0.  1.
         11    1    3    3    0    0 -0.18259345443E+02 -0.12912414609E+02  0.51136363038E+01  0.22940867977E+02  0.51100000000E-03 0. -1.
        -11    1    3    3    0    0 -0.70778596835E+01  0.67257515883E+01 -0.82125861286E+01  0.12758463987E+02  0.51100000000E-03 0.  1.
         12    1    3    3    0    0  0.35534922792E+02 -0.93718218114E+01  0.94993663123E+00  0.36762265457E+02  0.00000000000E+00 0. -1.
</event>
<event>
 7    1  0.1788006E-013  0.7246158E+02  0.7816164E-02  0.1226708E+00
        -11   -1    0    0    0    0  0.00000000000E+00  0.00000000000E+00  0.45593999997E+02  0.45594000000E+02  0.51100000000E-03 0.  1.
         11   -1    0    0    0    0 -0.00000000000E+00 -0.00000000000E+00 -0.45593999997E+02  0.45594000000E+02  0.51100000000E-03 0. -1.
    9900012    2    1    2    0    0 -0.73943668797E+01 -0.91022703685E+01 -0.14599691966E+02  0.72461575010E+02  0.70000006143E+02 0.  0.
        -12    1    1    2    0    0  0.73943668797E+01  0.91022703685E+01  0.14599691966E+02  0.18726424990E+02  0.00000000000E+00 0.  1.
         11    1    3    3    0    0  0.13284346876E+02  0.43513250694E+01 -0.97740764871E+01  0.17056977259E+02  0.51100000000E-03 0. -1.
        -11    1    3    3    0    0  0.12297777964E+02 -0.14042579288E+02 -0.11262254090E+02  0.21800636307E+02  0.51100000000E-03 0.  1.
         12    1    3    3    0    0 -0.32976491720E+02  0.58898385052E+00  0.64366386111E+01  0.33603961444E+02  0.00000000000E+00 0. -1.
</event>
<event>
 7    1  0.1788006E-013  0.7246165E+02  0.7816164E-02  0.1226708E+00
        -11   -1    0    0    0    0  0.00000000000E+00  0.00000000000E+00  0.45593999997E+02  0.45594000000E+02  0.51100000000E-03 0.  1.
         11   -1    0    0    0    0 -0.00000000000E+00 -0.00000000000E+00 -0.45593999997E+02  0.45594000000E+02  0.51100000000E-03 0. -1.
    9900012    2    1    2    0    0 -0.12302800099E+02 -0.12778345358E+02 -0.60026064874E+01  0.72461647312E+02  0.70000100329E+02 0.  0.
        -12    1    1    2    0    0  0.12302800099E+02  0.12778345358E+02  0.60026064874E+01  0.18726352688E+02  0.00000000000E+00 0.  1.
         11    1    3    3    0    0 -0.31473203531E+02  0.16032343357E+01  0.45848566378E+01  0.31845781690E+02  0.51100000000E-03 0. -1.
        -11    1    3    3    0    0  0.71711052157E+00  0.63212958003E+01  0.56245633862E+01  0.84916866194E+01  0.51100000000E-03 0.  1.
         12    1    3    3    0    0  0.18453292910E+02 -0.20702875494E+02 -0.16212026511E+02  0.32124179002E+02  0.00000000000E+00 0. -1.
</event>
<event>
 7    1  0.1788006E-013  0.7246159E+02  0.7816164E-02  0.1226708E+00
        -11   -1    0    0    0    0  0.00000000000E+00  0.00000000000E+00  0.45593999997E+02  0.45594000000E+02  0.51100000000E-03 0.  1.
         11   -1    0    0    0    0 -0.00000000000E+00 -0.00000000000E+00 -0.45593999997E+02  0.45594000000E+02  0.51100000000E-03 0. -1.
    9900012    2    1    2    0    0 -0.11433139557E+02  0.47113301148E+01 -0.14062899552E+02  0.72461589362E+02  0.70000024839E+02 0.  0.
        -12    1    1    2    0    0  0.11433139557E+02 -0.47113301148E+01  0.14062899552E+02  0.18726410638E+02  0.00000000000E+00 0.  1.
         11    1    3    3    0    0 -0.66048572338E+01  0.16151501152E+02  0.25996438098E+01  0.17642371630E+02  0.51100000000E-03 0. -1.
        -11    1    3    3    0    0  0.22298101977E+02 -0.55970772516E+01 -0.14061123030E+02  0.26948985262E+02  0.51100000000E-03 0.  1.
         12    1    3    3    0    0 -0.27126384300E+02 -0.58430937852E+01 -0.26014203317E+01  0.27870232470E+02  0.00000000000E+00 0. -1.
</event>
<event>
 7    1  0.1788006E-013  0.7246163E+02  0.7816164E-02  0.1226708E+00
        -11   -1    0    0    0    0  0.00000000000E+00  0.00000000000E+00  0.45593999997E+02  0.45594000000E+02  0.51100000000E-03 0.  1.
         11   -1    0    0    0    0 -0.00000000000E+00 -0.00000000000E+00 -0.45593999997E+02  0.45594000000E+02  0.51100000000E-03 0. -1.
    9900012    2    1    2    0    0 -0.18546812236E+02 -0.94425740623E+00  0.24085327111E+01  0.72461630999E+02  0.70000079079E+02 0.  0.
        -12    1    1    2    0    0  0.18546812236E+02  0.94425740623E+00 -0.24085327111E+01  0.18726369001E+02  0.00000000000E+00 0.  1.
         11    1    3    3    0    0  0.10062703847E+02 -0.16161681335E+02 -0.20643079743E+00  0.19039447634E+02  0.51100000000E-03 0. -1.
        -11    1    3    3    0    0  0.73850980855E+01 -0.10821648814E+01 -0.95111733284E+01  0.12090209796E+02  0.51100000000E-03 0.  1.
        -12    1    3    3    0    0 -0.35994614168E+02  0.16299588810E+02  0.12126136837E+02  0.41331973569E+02  0.00000000000E+00 0.  1.
</event>
<event>
 7    1  0.1788006E-013  0.7246157E+02  0.7816164E-02  0.1226708E+00
        -11   -1    0    0    0    0  0.00000000000E+00  0.00000000000E+00  0.45593999997E+02  0.45594000000E+02  0.51100000000E-03 0.  1.
         11   -1    0    0    0    0 -0.00000000000E+00 -0.00000000000E+00 -0.45593999997E+02  0.45594000000E+02  0.51100000000E-03 0. -1.
    9900012    2    1    2    0    0  0.11390106259E+02 -0.94426526061E+01  0.11479583051E+02  0.72461573864E+02  0.70000004650E+02 0.  0.
        -12    1    1    2    0    0 -0.11390106259E+02  0.94426526061E+01 -0.11479583051E+02  0.18726426136E+02  0.00000000000E+00 0.  1.
         11    1    3    3    0    0  0.18403232098E+02  0.77049912733E+00  0.17886908314E+02  0.25675165235E+02  0.51100000000E-03 0. -1.
        -11    1    3    3    0    0  0.91712857539E+01  0.13592166844E+02 -0.73864462053E+01  0.17983855807E+02  0.51100000000E-03 0.  1.
         12    1    3    3    0    0 -0.16184411593E+02 -0.23805318577E+02  0.97912094198E+00  0.28802552821E+02  0.00000000000E+00 0. -1.
</event>
<event>
 7    1  0.1788006E-013  0.7246151E+02  0.7816164E-02  0.1226708E+00
        -11   -1    0    0    0    0  0.00000000000E+00  0.00000000000E+00  0.45593999997E+02  0.45594000000E+02  0.51100000000E-03 0.  1.
         11   -1    0    0    0    0 -0.00000000000E+00 -0.00000000000E+00 -0.45593999997E+02  0.45594000000E+02  0.51100000000E-03 0. -1.
    9900012    2    1    2    0    0  0.69710542136E+01  0.14374850587E+02  0.97698328319E+01  0.72461506473E+02  0.69999916861E+02 0.  0.
        -12    1    1    2    0    0 -0.69710542136E+01 -0.14374850587E+02 -0.97698328319E+01  0.18726493527E+02  0.00000000000E+00 0.  1.
         11    1    3    3    0    0  0.31192166279E+02  0.23055573222E+02  0.14510939818E+02  0.41413501041E+02  0.51100000000E-03 0. -1.
        -11    1    3    3    0    0  0.13557985165E+01  0.18917931054E+01 -0.22877382950E+01  0.32635590295E+01  0.51100000000E-03 0.  1.
        -12    1    3    3    0    0 -0.25576910582E+02 -0.10572515740E+02 -0.24533686909E+01  0.27784446403E+02  0.00000000000E+00 0.  1.
</event>
<event>
 7    1  0.1788006E-013  0.7246162E+02  0.7816164E-02  0.1226708E+00
        -11   -1    0    0    0    0  0.00000000000E+00  0.00000000000E+00  0.45593999997E+02  0.45594000000E+02  0.51100000000E-03 0.  1.
         11   -1    0    0    0    0 -0.00000000000E+00 -0.00000000000E+00 -0.45593999997E+02  0.45594000000E+02  0.51100000000E-03 0. -1.
    9900012    2    1    2    0    0 -0.15685346349E+02  0.33376115478E+01 -0.96699270464E+01  0.72461622080E+02  0.70000067460E+02 0.  0.
        -12    1    1    2    0    0  0.15685346349E+02 -0.33376115478E+01  0.96699270464E+01  0.18726377920E+02  0.00000000000E+00 0.  1.
         11    1    3    3    0    0 -0.13283065055E+01 -0.17412016164E+02  0.56453995633E+00  0.17471731760E+02  0.51100000000E-03 0.  1.
        -11    1    3    3    0    0 -0.16165800473E+02  0.22428493120E+02 -0.26643739170E+02  0.38396083730E+02  0.51100000000E-03 0. -1.
         12    1    3    3    0    0  0.18087606291E+01 -0.16788654076E+01  0.16409272167E+02  0.16593806590E+02  0.00000000000E+00 0. -1.
</event>
<event>
 7    1  0.1788006E-013  0.7246158E+02  0.7816164E-02  0.1226708E+00
        -11   -1    0    0    0    0  0.00000000000E+00  0.00000000000E+00  0.45593999997E+02  0.45594000000E+02  0.51100000000E-03 0.  1.
         11   -1    0    0    0    0 -0.00000000000E+00 -0.00000000000E+00 -0.45593999997E+02  0.45594000000E+02  0.51100000000E-03 0. -1.
    9900012    2    1    2    0    0 -0.34704268900E+01 -0.36115284880E+01 -0.18044157713E+02  0.72461584742E+02  0.70000018821E+02 0.  0.
        -12    1    1    2    0    0  0.34704268900E+01  0.36115284880E+01  0.18044157713E+02  0.18726415258E+02  0.00000000000E+00 0.  1.
         11    1    3    3    0    0 -0.64283086507E+01  0.22269189380E+02 -0.87747566042E+01  0.24783791104E+02  0.51100000000E-03 0. -1.
        -11    1    3    3    0    0 -0.16521303722E+02 -0.35987257753E+01 -0.58157671275E+01  0.17880924233E+02  0.51100000000E-03 0.  1.
        -12    1    3    3    0    0  0.19479185482E+02 -0.22281992093E+02 -0.34536339818E+01  0.29796869406E+02  0.00000000000E+00 0.  1.
</event>
<event>
 7    1  0.1788006E-013  0.7246158E+02  0.7816164E-02  0.1226708E+00
        -11   -1    0    0    0    0  0.00000000000E+00  0.00000000000E+00  0.45593999997E+02  0.45594000000E+02  0.51100000000E-03 0.  1.
         11   -1    0    0    0    0 -0.00000000000E+00 -0.00000000000E+00 -0.45593999997E+02  0.45594000000E+02  0.51100000000E-03 0. -1.
    9900012    2    1    2    0    0 -0.49806319248E+01  0.53528222863E+01 -0.17240048540E+02  0.72461583513E+02  0.70000017219E+02 0.  0.
        -12    1    1    2    0    0  0.49806319248E+01 -0.53528222863E+01  0.17240048540E+02  0.18726416487E+02  0.00000000000E+00 0.  1.
         11    1    3    3    0    0 -0.22848052313E+01  0.13218888143E+00 -0.26114028641E+02  0.26214124074E+02  0.51100000000E-03 0. -1.
        -11    1    3    3    0    0  0.10477852287E+02  0.39415879109E+01 -0.15138963736E+02  0.18828428694E+02  0.51100000000E-03 0.  1.
        -12    1    3    3    0    0 -0.13173678981E+02  0.12790454939E+01  0.24012943837E+02  0.27419030745E+02  0.00000000000E+00 0.  1.
</event>
<event>
 7    1  0.1788006E-013  0.7246163E+02  0.7816164E-02  0.1226708E+00
        -11   -1    0    0    0    0  0.00000000000E+00  0.00000000000E+00  0.45593999997E+02  0.45594000000E+02  0.51100000000E-03 0. -1.
         11   -1    0    0    0    0 -0.00000000000E+00 -0.00000000000E+00 -0.45593999997E+02  0.45594000000E+02  0.51100000000E-03 0.  1.
    9900012    2    1    2    0    0 -0.17970545446E+02 -0.38440106023E+01  0.36000202675E+01  0.72461626430E+02  0.70000073128E+02 0.  0.
        -12    1    1    2    0    0  0.17970545446E+02  0.38440106023E+01 -0.36000202675E+01  0.18726373570E+02  0.00000000000E+00 0.  1.
         11    1    3    3    0    0  0.37567789234E+01 -0.31843528130E+01  0.76548616689E+01  0.91022194078E+01  0.51100000000E-03 0. -1.
        -11    1    3    3    0    0 -0.79967329851E+00 -0.18243076374E+02 -0.23539308096E+02  0.29791749510E+02  0.51100000000E-03 0.  1.
         12    1    3    3    0    0 -0.20927651071E+02  0.17583418585E+02  0.19484466694E+02  0.33567657512E+02  0.00000000000E+00 0. -1.
</event>
<event>
 7    1  0.1788006E-013  0.7246152E+02  0.7816164E-02  0.1226708E+00
        -11   -1    0    0    0    0  0.00000000000E+00  0.00000000000E+00  0.45593999997E+02  0.45594000000E+02  0.51100000000E-03 0.  1.
         11   -1    0    0    0    0 -0.00000000000E+00 -0.00000000000E+00 -0.45593999997E+02  0.45594000000E+02  0.51100000000E-03 0. -1.
    9900012    2    1    2    0    0 -0.79108102912E+01  0.66853618931E+01 -0.15601478523E+02  0.72461518344E+02  0.69999932325E+02 0.  0.
        -12    1    1    2    0    0  0.79108102912E+01 -0.66853618931E+01  0.15601478523E+02  0.18726481656E+02  0.00000000000E+00 0.  1.
         11    1    3    3    0    0 -0.28471603556E+02 -0.12770718142E+01 -0.58640873417E+01  0.29097261763E+02  0.51100000000E-03 0. -1.
        -11    1    3    3    0    0 -0.46171171051E+01 -0.15868708685E+01  0.92197769798E+01  0.10432651501E+02  0.51100000000E-03 0.  1.
        -12    1    3    3    0    0  0.25177910370E+02  0.95493045758E+01 -0.18957168162E+02  0.32931605081E+02  0.00000000000E+00 0.  1.
</event>
<event>
 7    1  0.1788006E-013  0.7246155E+02  0.7816164E-02  0.1226708E+00
        -11   -1    0    0    0    0  0.00000000000E+00  0.00000000000E+00  0.45593999997E+02  0.45594000000E+02  0.51100000000E-03 0. -1.
         11   -1    0    0    0    0 -0.00000000000E+00 -0.00000000000E+00 -0.45593999997E+02  0.45594000000E+02  0.51100000000E-03 0.  1.
    9900012    2    1    2    0    0 -0.63985057003E+01  0.17182076045E+02 -0.38098728077E+01  0.72461554976E+02  0.69999980046E+02 0.  0.
        -12    1    1    2    0    0  0.63985057003E+01 -0.17182076045E+02  0.38098728077E+01  0.18726445024E+02  0.00000000000E+00 0.  1.
         11    1    3    3    0    0 -0.14485327330E+02  0.98570122303E+01  0.24215166384E+02  0.29889123126E+02  0.51100000000E-03 0. -1.
        -11    1    3    3    0    0  0.41240951397E+00  0.84169731885E+01  0.42087862447E+01  0.94196285052E+01  0.51100000000E-03 0.  1.
        -12    1    3    3    0    0  0.76744121153E+01 -0.10919093739E+01 -0.32233825436E+02  0.33152803346E+02  0.00000000000E+00 0.  1.
</event>
<event>
 7    1  0.1788006E-013  0.7246159E+02  0.7816164E-02  0.1226708E+00
        -11   -1    0    0    0    0  0.00000000000E+00  0.00000000000E+00  0.45593999997E+02  0.45594000000E+02  0.51100000000E-03 0.  1.
         11   -1    0    0    0    0 -0.00000000000E+00 -0.00000000000E+00 -0.45593999997E+02  0.45594000000E+02  0.51100000000E-03 0. -1.
    9900012    2    1    2    0    0  0.15643560828E+02 -0.16002360209E+01 -0.10168419196E+02  0.72461588181E+02  0.70000023300E+02 0.  0.
        -12    1    1    2    0    0 -0.15643560828E+02  0.16002360209E+01  0.10168419196E+02  0.18726411819E+02  0.00000000000E+00 0.  1.
         11    1    3    3    0    0 -0.88446779274E+01  0.16952647467E+02 -0.13981913773E+02  0.23687855471E+02  0.51100000000E-03 0. -1.
        -11    1    3    3    0    0  0.53916333116E+01 -0.27731006866E+01  0.18845740150E+02  0.19797012887E+02  0.51100000000E-03 0.  1.
         12    1    3    3    0    0  0.19096605443E+02 -0.15779782801E+02 -0.15032245573E+02  0.28976719823E+02  0.00000000000E+00 0. -1.
</event>
<event>
 7    1  0.1788006E-013  0.7246155E+02  0.7816164E-02  0.1226708E+00
        -11   -1    0    0    0    0  0.00000000000E+00  0.00000000000E+00  0.45593999997E+02  0.45594000000E+02  0.51100000000E-03 0.  1.
         11   -1    0    0    0    0 -0.00000000000E+00 -0.00000000000E+00 -0.45593999997E+02  0.45594000000E+02  0.51100000000E-03 0. -1.
    9900012    2    1    2    0    0  0.38495488116E+01 -0.94992690456E+01 -0.15672418000E+02  0.72461552808E+02  0.69999977221E+02 0.  0.
        -12    1    1    2    0    0 -0.38495488116E+01  0.94992690456E+01  0.15672418000E+02  0.18726447192E+02  0.00000000000E+00 0.  1.
         11    1    3    3    0    0 -0.82294748127E-01  0.14418615436E+02 -0.12287525776E+02  0.18944300818E+02  0.51100000000E-03 0. -1.
        -11    1    3    3    0    0  0.23214818233E+02 -0.70057773439E+00 -0.11480480633E+01  0.23253743986E+02  0.51100000000E-03 0.  1.
        -12    1    3    3    0    0 -0.19282974674E+02 -0.23217306748E+02 -0.22368441603E+01  0.30263508004E+02  0.00000000000E+00 0.  1.
</event>
<event>
 7    1  0.1788006E-013  0.7246164E+02  0.7816164E-02  0.1226708E+00
        -11   -1    0    0    0    0  0.00000000000E+00  0.00000000000E+00  0.45593999997E+02  0.45594000000E+02  0.51100000000E-03 0.  1.
         11   -1    0    0    0    0 -0.00000000000E+00 -0.00000000000E+00 -0.45593999997E+02  0.45594000000E+02  0.51100000000E-03 0. -1.
    9900012    2    1    2    0    0  0.52405081468E+00 -0.17800679897E+02 -0.57911907964E+01  0.72461635567E+02  0.70000085029E+02 0.  0.
        -12    1    1    2    0    0 -0.52405081468E+00  0.17800679897E+02  0.57911907964E+01  0.18726364433E+02  0.00000000000E+00 0.  1.
         11    1    3    3    0    0 -0.10893788794E+02 -0.14387710914E+02 -0.11136871855E+01  0.18080961231E+02  0.51100000000E-03 0. -1.
        -11    1    3    3    0    0 -0.12040010459E+02  0.16898348028E+02  0.59444696251E+01  0.21583621969E+02  0.51100000000E-03 0.  1.
         12    1    3    3    0    0  0.23457850068E+02 -0.20311317011E+02 -0.10621973236E+02  0.32797052366E+02  0.00000000000E+00 0. -1.
</event>
<event>
 7    1  0.1788006E-013  0.7246161E+02  0.7816164E-02  0.1226708E+00
        -11   -1    0    0    0    0  0.00000000000E+00  0.00000000000E+00  0.45593999997E+02  0.45594000000E+02  0.51100000000E-03 0.  1.
         11   -1    0    0    0    0 -0.00000000000E+00 -0.00000000000E+00 -0.45593999997E+02  0.45594000000E+02  0.51100000000E-03 0. -1.
    9900012    2    1    2    0    0  0.10194679657E+02  0.46767529154E+00 -0.15701196556E+02  0.72461607214E+02  0.70000048095E+02 0.  0.
        -12    1    1    2    0    0 -0.10194679657E+02 -0.46767529154E+00  0.15701196556E+02  0.18726392786E+02  0.00000000000E+00 0.  1.
         11    1    3    3    0    0  0.29313391641E+01  0.11735734726E+02 -0.12106971614E+02  0.17114291711E+02  0.51100000000E-03 0. -1.
        -11    1    3    3    0    0  0.10020529254E+02  0.19463508187E+02  0.65785164592E+01  0.22858609681E+02  0.51100000000E-03 0.  1.
         12    1    3    3    0    0 -0.27571887609E+01 -0.30731567622E+02 -0.10172741401E+02  0.32488705822E+02  0.00000000000E+00 0. -1.
</event>
<event>
 7    1  0.1788006E-013  0.7246156E+02  0.7816164E-02  0.1226708E+00
        -11   -1    0    0    0    0  0.00000000000E+00  0.00000000000E+00  0.45593999997E+02  0.45594000000E+02  0.51100000000E-03 0.  1.
         11   -1    0    0    0    0 -0.00000000000E+00 -0.00000000000E+00 -0.45593999997E+02  0.45594000000E+02  0.51100000000E-03 0. -1.
    9900012    2    1    2    0    0 -0.10703497994E+02 -0.14704834611E+02  0.44589888137E+01  0.72461558494E+02  0.69999984627E+02 0.  0.
        -12    1    1    2    0    0  0.10703497994E+02  0.14704834611E+02 -0.44589888137E+01  0.18726441506E+02  0.00000000000E+00 0.  1.
         11    1    3    3    0    0  0.33938938930E+01  0.17584143693E+02  0.16225455256E+02  0.24165802773E+02  0.51100000000E-03 0. -1.
        -11    1    3    3    0    0 -0.13193363536E+02 -0.62373865658E+01  0.69906058449E+01  0.16181421536E+02  0.51100000000E-03 0.  1.
        -12    1    3    3    0    0 -0.90402835023E+00 -0.26051591738E+02 -0.18757072287E+02  0.32114334185E+02  0.00000000000E+00 0.  1.
</event>
<event>
 7    1  0.1788006E-013  0.7246171E+02  0.7816164E-02  0.1226708E+00
        -11   -1    0    0    0    0  0.00000000000E+00  0.00000000000E+00  0.45593999997E+02  0.45594000000E+02  0.51100000000E-03 0.  1.
         11   -1    0    0    0    0 -0.00000000000E+00 -0.00000000000E+00 -0.45593999997E+02  0.45594000000E+02  0.51100000000E-03 0. -1.
    9900012    2    1    2    0    0 -0.11673073691E+02  0.11107286975E+02 -0.95415663860E+01  0.72461709325E+02  0.70000181113E+02 0.  0.
        -12    1    1    2    0    0  0.11673073691E+02 -0.11107286975E+02  0.95415663860E+01  0.18726290675E+02  0.00000000000E+00 0.  1.
         11    1    3    3    0    0  0.24168639671E+01 -0.62731780552E+01 -0.11197180363E+01  0.68152595761E+01  0.51100000000E-03 0. -1.
        -11    1    3    3    0    0  0.79598332991E+01 -0.47626454979E+01  0.20855348779E+02  0.22825146467E+02  0.51100000000E-03 0.  1.
         12    1    3    3    0    0 -0.22049770957E+02  0.22143110528E+02 -0.29277197128E+02  0.42821303282E+02  0.00000000000E+00 0. -1.
</event>
<event>
 7    1  0.1788006E-013  0.7246149E+02  0.7816164E-02  0.1226708E+00
        -11   -1    0    0    0    0  0.00000000000E+00  0.00000000000E+00  0.45593999997E+02  0.45594000000E+02  0.51100000000E-03 0. -1.
         11   -1    0    0    0    0 -0.00000000000E+00 -0.00000000000E+00 -0.45593999997E+02  0.45594000000E+02  0.51100000000E-03 0.  1.
    9900012    2    1    2    0    0  0.27378994489E+01  0.10773499405E+02  0.15070423017E+02  0.72461493846E+02  0.69999900411E+02 0.  0.
        -12    1    1    2    0    0 -0.27378994489E+01 -0.10773499405E+02 -0.15070423017E+02  0.18726506154E+02  0.00000000000E+00 0.  1.
         11    1    3    3    0    0 -0.15541441642E+02  0.62127965001E+00  0.31510870171E+02  0.35140536933E+02  0.51100000000E-03 0. -1.
        -11    1    3    3    0    0  0.75768731465E+01  0.93808157232E+01  0.52265613009E+01  0.13142513215E+02  0.51100000000E-03 0.  1.
         12    1    3    3    0    0  0.10702467944E+02  0.77140403196E+00 -0.21667008455E+02  0.24178443698E+02  0.00000000000E+00 0. -1.
</event>
<event>
 7    1  0.1788006E-013  0.7246214E+02  0.7816164E-02  0.1226707E+00
        -11   -1    0    0    0    0  0.00000000000E+00  0.00000000000E+00  0.45593999997E+02  0.45594000000E+02  0.51100000000E-03 0.  1.
         11   -1    0    0    0    0 -0.00000000000E+00 -0.00000000000E+00 -0.45593999997E+02  0.45594000000E+02  0.51100000000E-03 0. -1.
    9900012    2    1    2    0    0 -0.14182301003E+02  0.57168388179E+01 -0.10809164964E+02  0.72462136735E+02  0.70000737890E+02 0.  0.
        -12    1    1    2    0    0  0.14182301003E+02 -0.57168388179E+01  0.10809164964E+02  0.18725863265E+02  0.00000000000E+00 0.  1.
         11    1    3    3    0    0  0.18690487622E+02  0.22115131585E+02 -0.19879917919E+01  0.29023533282E+02  0.51100000000E-03 0. -1.
        -11    1    3    3    0    0 -0.12388844607E+01 -0.33339277079E+01 -0.84972952538E+01  0.92116195948E+01  0.51100000000E-03 0.  1.
        -12    1    3    3    0    0 -0.31633904165E+02 -0.13064365059E+02 -0.32387791817E+00  0.34226983858E+02  0.00000000000E+00 0.  1.
</event>
<event>
 7    1  0.1788006E-013  0.7246117E+02  0.7816164E-02  0.1226709E+00
        -11   -1    0    0    0    0  0.00000000000E+00  0.00000000000E+00  0.45593999997E+02  0.45594000000E+02  0.51100000000E-03 0.  1.
         11   -1    0    0    0    0 -0.00000000000E+00 -0.00000000000E+00 -0.45593999997E+02  0.45594000000E+02  0.51100000000E-03 0. -1.
    9900012    2    1    2    0    0  0.12652009686E+02 -0.42526989099E+01 -0.13135270272E+02  0.72461171057E+02  0.69999479918E+02 0.  0.
        -12    1    1    2    0    0 -0.12652009686E+02  0.42526989099E+01  0.13135270272E+02  0.18726828943E+02  0.00000000000E+00 0.  1.
         11    1    3    3    0    0  0.26442443195E+01  0.31814357377E+01 -0.27739647943E+01  0.49808073960E+01  0.51100000000E-03 0. -1.
        -11    1    3    3    0    0  0.31254657729E+02  0.14198059950E+02 -0.13730380325E+02  0.36972447582E+02  0.51100000000E-03 0.  1.
         12    1    3    3    0    0 -0.21246892362E+02 -0.21632194598E+02  0.33690748468E+01  0.30507916079E+02  0.00000000000E+00 0. -1.
</event>
<event>
 7    1  0.1788006E-013  0.7246155E+02  0.7816164E-02  0.1226708E+00
        -11   -1    0    0    0    0  0.00000000000E+00  0.00000000000E+00  0.45593999997E+02  0.45594000000E+02  0.51100000000E-03 0.  1.
         11   -1    0    0    0    0 -0.00000000000E+00 -0.00000000000E+00 -0.45593999997E+02  0.45594000000E+02  0.51100000000E-03 0. -1.
    9900012    2    1    2    0    0  0.14824217642E+01 -0.17853990294E+02  0.54513738375E+01  0.72461547575E+02  0.69999970404E+02 0.  0.
        -12    1    1    2    0    0 -0.14824217642E+01  0.17853990294E+02 -0.54513738375E+01  0.18726452425E+02  0.00000000000E+00 0.  1.
         11    1    3    3    0    0  0.11973133763E+02 -0.72228164422E+01  0.15267568616E+02  0.20703228279E+02  0.51100000000E-03 0. -1.
        -11    1    3    3    0    0 -0.13640061300E+02 -0.65414592129E+01  0.17974065989E+02  0.23492743759E+02  0.51100000000E-03 0.  1.
         12    1    3    3    0    0  0.31493493016E+01 -0.40897146391E+01 -0.27790260768E+02  0.28265575536E+02  0.00000000000E+00 0. -1.
</event>
<event>
 7    1  0.1788006E-013  0.7246178E+02  0.7816164E-02  0.1226707E+00
        -11   -1    0    0    0    0  0.00000000000E+00  0.00000000000E+00  0.45593999997E+02  0.45594000000E+02  0.51100000000E-03 0.  1.
         11   -1    0    0    0    0 -0.00000000000E+00 -0.00000000000E+00 -0.45593999997E+02  0.45594000000E+02  0.51100000000E-03 0. -1.
    9900012    2    1    2    0    0 -0.37129960132E+01  0.18303517005E+02  0.13661643733E+01  0.72461775628E+02  0.70000267484E+02 0.  0.
        -12    1    1    2    0    0  0.37129960132E+01 -0.18303517005E+02 -0.13661643733E+01  0.18726224372E+02  0.00000000000E+00 0.  1.
         11    1    3    3    0    0  0.75090913180E+01  0.22164913153E+02  0.68491506159E+01  0.24384025343E+02  0.51100000000E-03 0.  1.
        -11    1    3    3    0    0  0.77856662062E+01  0.17057529963E+02  0.19513973368E+01  0.18851628008E+02  0.51100000000E-03 0. -1.
         12    1    3    3    0    0 -0.19007753537E+02 -0.20918926111E+02 -0.74343835794E+01  0.29226122277E+02  0.00000000000E+00 0. -1.
</event>
<event>
 7    1  0.1788006E-013  0.7246157E+02  0.7816164E-02  0.1226708E+00
        -11   -1    0    0    0    0  0.00000000000E+00  0.00000000000E+00  0.45593999997E+02  0.45594000000E+02  0.51100000000E-03 0. -1.
         11   -1    0    0    0    0 -0.00000000000E+00 -0.00000000000E+00 -0.45593999997E+02  0.45594000000E+02  0.51100000000E-03 0.  1.
    9900012    2    1    2    0    0 -0.83945936449E+01 -0.15581132098E+02 -0.61186908400E+01  0.72461567945E+02  0.69999996940E+02 0.  0.
        -12    1    1    2    0    0  0.83945936449E+01  0.15581132098E+02  0.61186908400E+01  0.18726432055E+02  0.00000000000E+00 0.  1.
         11    1    3    3    0    0 -0.18756466827E+02  0.38640694374E+01  0.14766139666E+02  0.24182120696E+02  0.51100000000E-03 0. -1.
        -11    1    3    3    0    0  0.62201197587E+01 -0.25479595427E+02 -0.83401855051E-01  0.26227974170E+02  0.51100000000E-03 0.  1.
         12    1    3    3    0    0  0.41417534233E+01  0.60343938916E+01 -0.20801428651E+02  0.22051473079E+02  0.00000000000E+00 0. -1.
</event>
<event>
 7    1  0.1788006E-013  0.7246131E+02  0.7816164E-02  0.1226709E+00
        -11   -1    0    0    0    0  0.00000000000E+00  0.00000000000E+00  0.45593999997E+02  0.45594000000E+02  0.51100000000E-03 0.  1.
         11   -1    0    0    0    0 -0.00000000000E+00 -0.00000000000E+00 -0.45593999997E+02  0.45594000000E+02  0.51100000000E-03 0. -1.
    9900012    2    1    2    0    0  0.32083552903E+01  0.50635708769E+00 -0.18442861898E+02  0.72461305252E+02  0.69999654733E+02 0.  0.
        -12    1    1    2    0    0 -0.32083552903E+01 -0.50635708769E+00  0.18442861898E+02  0.18726694748E+02  0.00000000000E+00 0.  1.
         11    1    3    3    0    0  0.16695605054E+02  0.10379176763E+02 -0.17175991596E+02  0.26105271995E+02  0.51100000000E-03 0. -1.
        -11    1    3    3    0    0  0.46731200790E+01 -0.23169964695E+02 -0.27675346993E+01  0.23797994953E+02  0.51100000000E-03 0.  1.
        -12    1    3    3    0    0 -0.18160369842E+02  0.13297145020E+02  0.15006643971E+01  0.22558038304E+02  0.00000000000E+00 0.  1.
</event>
<event>
 7    1  0.1788006E-013  0.7246178E+02  0.7816164E-02  0.1226707E+00
        -11   -1    0    0    0    0  0.00000000000E+00  0.00000000000E+00  0.45593999997E+02  0.45594000000E+02  0.51100000000E-03 0.  1.
         11   -1    0    0    0    0 -0.00000000000E+00 -0.00000000000E+00 -0.45593999997E+02  0.45594000000E+02  0.51100000000E-03 0. -1.
    9900012    2    1    2    0    0 -0.55494881658E+01 -0.17766904232E+02 -0.20522332713E+01  0.72461778643E+02  0.70000271413E+02 0.  0.
        -12    1    1    2    0    0  0.55494881658E+01  0.17766904232E+02  0.20522332713E+01  0.18726221357E+02  0.00000000000E+00 0.  1.
         11    1    3    3    0    0 -0.98505005804E+01 -0.13722071354E+02 -0.17390094108E+02  0.24243411007E+02  0.51100000000E-03 0. -1.
        -11    1    3    3    0    0 -0.10749059196E+02 -0.17432302209E+02 -0.33376741564E+01  0.20750120553E+02  0.51100000000E-03 0.  1.
        -12    1    3    3    0    0  0.15050071611E+02  0.13387469330E+02  0.18675534993E+02  0.27468247083E+02  0.00000000000E+00 0.  1.
</event>
<event>
 7    1  0.1788006E-013  0.7246159E+02  0.7816164E-02  0.1226708E+00
        -11   -1    0    0    0    0  0.00000000000E+00  0.00000000000E+00  0.45593999997E+02  0.45594000000E+02  0.51100000000E-03 0.  1.
         11   -1    0    0    0    0 -0.00000000000E+00 -0.00000000000E+00 -0.45593999997E+02  0.45594000000E+02  0.51100000000E-03 0. -1.
    9900012    2    1    2    0    0 -0.74071054909E+01 -0.12499210318E+02  0.11814526209E+02  0.72461588174E+02  0.70000023292E+02 0.  0.
        -12    1    1    2    0    0  0.74071054909E+01  0.12499210318E+02 -0.11814526209E+02  0.18726411826E+02  0.00000000000E+00 0.  1.
         11    1    3    3    0    0 -0.15257121874E+02  0.93450557992E+01 -0.11467987295E+02  0.21251460388E+02  0.51100000000E-03 0. -1.
        -11    1    3    3    0    0  0.14411456068E+02  0.57572237674E+01  0.15171542116E+02  0.21702796639E+02  0.51100000000E-03 0.  1.
         12    1    3    3    0    0 -0.65614396840E+01 -0.27601489885E+02  0.81109713871E+01  0.29507331147E+02  0.00000000000E+00 0. -1.
</event>
<event>
 7    1  0.1788006E-013  0.7246156E+02  0.7816164E-02  0.1226708E+00
        -11   -1    0    0    0    0  0.00000000000E+00  0.00000000000E+00  0.45593999997E+02  0.45594000000E+02  0.51100000000E-03 0. -1.
         11   -1    0    0    0    0 -0.00000000000E+00 -0.00000000000E+00 -0.45593999997E+02  0.45594000000E+02  0.51100000000E-03 0.  1.
    9900012    2    1    2    0    0 -0.89298934294E+01  0.14434247615E+02  0.79113234140E+01  0.72461560428E+02  0.69999987148E+02 0.  0.
        -12    1    1    2    0    0  0.89298934294E+01 -0.14434247615E+02 -0.79113234140E+01  0.18726439572E+02  0.00000000000E+00 0.  1.
         11    1    3    3    0    0  0.40216659309E+01  0.15240304855E+02  0.27566216919E+02  0.31754322610E+02  0.51100000000E-03 0. -1.
        -11    1    3    3    0    0  0.64996741636E+01  0.44914685787E+01  0.46204143069E+01  0.91524468234E+01  0.51100000000E-03 0.  1.
        -12    1    3    3    0    0 -0.19451233524E+02 -0.52975258192E+01 -0.24275307812E+02  0.31554790995E+02  0.00000000000E+00 0.  1.
</event>
<event>
 7    1  0.1788006E-013  0.7246148E+02  0.7816164E-02  0.1226708E+00
        -11   -1    0    0    0    0  0.00000000000E+00  0.00000000000E+00  0.45593999997E+02  0.45594000000E+02  0.51100000000E-03 0.  1.
         11   -1    0    0    0    0 -0.00000000000E+00 -0.00000000000E+00 -0.45593999997E+02  0.45594000000E+02  0.51100000000E-03 0. -1.
    9900012    2    1    2    0    0 -0.37836875732E+01 -0.17092405208E+02 -0.66495161791E+01  0.72461476754E+02  0.69999878147E+02 0.  0.
        -12    1    1    2    0    0  0.37836875732E+01  0.17092405208E+02  0.66495161791E+01  0.18726523246E+02  0.00000000000E+00 0.  1.
         11    1    3    3    0    0 -0.11981026993E+02  0.16047099857E+02  0.14410911622E+00  0.20026861694E+02  0.51100000000E-03 0. -1.
        -11    1    3    3    0    0  0.42883418115E+00  0.26995983582E+01  0.11240956041E+02  0.11568527263E+02  0.51100000000E-03 0.  1.
        -12    1    3    3    0    0  0.77685052382E+01 -0.35839103424E+02 -0.18034581337E+02  0.40866087797E+02  0.00000000000E+00 0.  1.
</event>
<event>
 7    1  0.1788006E-013  0.7246155E+02  0.7816164E-02  0.1226708E+00
        -11   -1    0    0    0    0  0.00000000000E+00  0.00000000000E+00  0.45593999997E+02  0.45594000000E+02  0.51100000000E-03 0. -1.
         11   -1    0    0    0    0 -0.00000000000E+00 -0.00000000000E+00 -0.45593999997E+02  0.45594000000E+02  0.51100000000E-03 0.  1.
    9900012    2    1    2    0    0 -0.14309375130E+02 -0.41019285324E+00  0.12072844043E+02  0.72461547104E+02  0.69999969790E+02 0.  0.
        -12    1    1    2    0    0  0.14309375130E+02  0.41019285324E+00 -0.12072844043E+02  0.18726452896E+02  0.00000000000E+00 0.  1.
         11    1    3    3    0    0 -0.11145133435E+02 -0.35685010851E+00  0.19028182957E+02  0.22054774726E+02  0.51100000000E-03 0. -1.
        -11    1    3    3    0    0 -0.15738676908E+00 -0.22881692253E+02 -0.13373187699E+02  0.26503561279E+02  0.51100000000E-03 0.  1.
         12    1    3    3    0    0 -0.30068549259E+01  0.22828349508E+02  0.64178487851E+01  0.23903211099E+02  0.00000000000E+00 0. -1.
</event>
<event>
 7    1  0.1788006E-013  0.7246157E+02  0.7816164E-02  0.1226708E+00
        -11   -1    0    0    0    0  0.00000000000E+00  0.00000000000E+00  0.45593999997E+02  0.45594000000E+02  0.51100000000E-03 0. -1.
         11   -1    0    0    0    0 -0.00000000000E+00 -0.00000000000E+00 -0.45593999997E+02  0.45594000000E+02  0.51100000000E-03 0.  1.
    9900012    2    1    2    0    0 -0.26077989821E+00 -0.99613934809E+01  0.15855030030E+02  0.72461565650E+02  0.69999993949E+02 0.  0.
        -12    1    1    2    0    0  0.26077989821E+00  0.99613934809E+01 -0.15855030030E+02  0.18726434350E+02  0.00000000000E+00 0.  1.
         11    1    3    3    0    0  0.63225584896E+01 -0.24000935438E+02  0.13744435706E+02  0.28371273515E+02  0.51100000000E-03 0. -1.
        -11    1    3    3    0    0 -0.24131462292E+02  0.92953930512E+01  0.10436911035E+01  0.25880902142E+02  0.51100000000E-03 0.  1.
         12    1    3    3    0    0  0.17548123904E+02  0.47441489059E+01  0.10669032203E+01  0.18209389992E+02  0.00000000000E+00 0. -1.
</event>
<event>
 7    1  0.1788006E-013  0.7246165E+02  0.7816164E-02  0.1226708E+00
        -11   -1    0    0    0    0  0.00000000000E+00  0.00000000000E+00  0.45593999997E+02  0.45594000000E+02  0.51100000000E-03 0.  1.
         11   -1    0    0    0    0 -0.00000000000E+00 -0.00000000000E+00 -0.45593999997E+02  0.45594000000E+02  0.51100000000E-03 0. -1.
    9900012    2    1    2    0    0 -0.10918748180E+02 -0.13496160409E+02 -0.70221764878E+01  0.72461645036E+02  0.70000097365E+02 0.  0.
        -12    1    1    2    0    0  0.10918748180E+02  0.13496160409E+02  0.70221764878E+01  0.18726354964E+02  0.00000000000E+00 0.  1.
         11    1    3    3    0    0 -0.92076796708E+01 -0.23550150796E+02  0.15551615863E+01  0.25333959328E+02  0.51100000000E-03 0. -1.
        -11    1    3    3    0    0 -0.22407945556E+02 -0.12490116675E+01 -0.14390421312E+01  0.22488817148E+02  0.51100000000E-03 0.  1.
        -12    1    3    3    0    0  0.20696877047E+02  0.11303002054E+02 -0.71382959430E+01  0.24638868560E+02  0.00000000000E+00 0.  1.
</event>
<event>
 7    1  0.1788006E-013  0.7246155E+02  0.7816164E-02  0.1226708E+00
        -11   -1    0    0    0    0  0.00000000000E+00  0.00000000000E+00  0.45593999997E+02  0.45594000000E+02  0.51100000000E-03 0. -1.
         11   -1    0    0    0    0 -0.00000000000E+00 -0.00000000000E+00 -0.45593999997E+02  0.45594000000E+02  0.51100000000E-03 0.  1.
    9900012    2    1    2    0    0 -0.13574570810E+02 -0.66416283468E+01  0.11058913373E+02  0.72461554401E+02  0.69999979296E+02 0.  0.
        -12    1    1    2    0    0  0.13574570810E+02  0.66416283468E+01 -0.11058913373E+02  0.18726445599E+02  0.00000000000E+00 0.  1.
         11    1    3    3    0    0 -0.16111791053E+00  0.70521232573E+00 -0.80963590033E+01  0.81286107532E+01  0.51100000000E-03 0. -1.
        -11    1    3    3    0    0 -0.50116028850E+01  0.18609010063E+02 -0.12169980593E+02  0.22792978017E+02  0.51100000000E-03 0.  1.
         12    1    3    3    0    0 -0.84018500148E+01 -0.25955850735E+02  0.31325252969E+02  0.41539965631E+02  0.00000000000E+00 0. -1.
</event>
<event>
 7    1  0.1788006E-013  0.7246150E+02  0.7816164E-02  0.1226708E+00
        -11   -1    0    0    0    0  0.00000000000E+00  0.00000000000E+00  0.45593999997E+02  0.45594000000E+02  0.51100000000E-03 0.  1.
         11   -1    0    0    0    0 -0.00000000000E+00 -0.00000000000E+00 -0.45593999997E+02  0.45594000000E+02  0.51100000000E-03 0. -1.
    9900012    2    1    2    0    0  0.11495853146E+02 -0.80901429015E+01 -0.12372420983E+02  0.72461498653E+02  0.69999906674E+02 0.  0.
        -12    1    1    2    0    0 -0.11495853146E+02  0.80901429015E+01  0.12372420983E+02  0.18726501347E+02  0.00000000000E+00 0.  1.
         11    1    3    3    0    0  0.61079608457E+01 -0.14727474295E+02  0.29020532045E+00  0.15946469960E+02  0.51100000000E-03 0. -1.
        -11    1    3    3    0    0 -0.20758569726E+02  0.11714889591E+02  0.52625028149E+01  0.24410055127E+02  0.51100000000E-03 0.  1.
         12    1    3    3    0    0  0.26146462026E+02 -0.50775581970E+01 -0.17925129119E+02  0.32104973565E+02  0.00000000000E+00 0. -1.
</event>
<event>
 7    1  0.1788006E-013  0.7246159E+02  0.7816164E-02  0.1226708E+00
        -11   -1    0    0    0    0  0.00000000000E+00  0.00000000000E+00  0.45593999997E+02  0.45594000000E+02  0.51100000000E-03 0.  1.
         11   -1    0    0    0    0 -0.00000000000E+00 -0.00000000000E+00 -0.45593999997E+02  0.45594000000E+02  0.51100000000E-03 0. -1.
    9900012    2    1    2    0    0  0.24322059566E+01  0.11867793269E+02 -0.14279989558E+02  0.72461594988E+02  0.70000032169E+02 0.  0.
        -12    1    1    2    0    0 -0.24322059566E+01 -0.11867793269E+02  0.14279989558E+02  0.18726405012E+02  0.00000000000E+00 0.  1.
         11    1    3    3    0    0 -0.92489768687E+01 -0.66256916048E+00 -0.25978474894E+02  0.27583758429E+02  0.51100000000E-03 0. -1.
        -11    1    3    3    0    0  0.16375489704E+02  0.13109659266E+01 -0.10548914501E+02  0.19523188574E+02  0.51100000000E-03 0.  1.
        -12    1    3    3    0    0 -0.46943068782E+01  0.11219396503E+02  0.22247399837E+02  0.25354647985E+02  0.00000000000E+00 0.  1.
</event>
<event>
 7    1  0.1788006E-013  0.7246157E+02  0.7816164E-02  0.1226708E+00
        -11   -1    0    0    0    0  0.00000000000E+00  0.00000000000E+00  0.45593999997E+02  0.45594000000E+02  0.51100000000E-03 0.  1.
         11   -1    0    0    0    0 -0.00000000000E+00 -0.00000000000E+00 -0.45593999997E+02  0.45594000000E+02  0.51100000000E-03 0. -1.
    9900012    2    1    2    0    0 -0.17538230257E+02  0.37626852727E+01 -0.53788408365E+01  0.72461568152E+02  0.69999997209E+02 0.  0.
        -12    1    1    2    0    0  0.17538230257E+02 -0.37626852727E+01  0.53788408365E+01  0.18726431848E+02  0.00000000000E+00 0.  1.
         11    1    3    3    0    0 -0.30154829359E+02  0.41823160215E+01 -0.16431944337E+02  0.34595003916E+02  0.51100000000E-03 0. -1.
        -11    1    3    3    0    0  0.25206809293E+01 -0.23723979281E+00 -0.12229386983E+02  0.12488715759E+02  0.51100000000E-03 0.  1.
        -12    1    3    3    0    0  0.10095918173E+02 -0.18239095603E+00  0.23282490484E+02  0.25377848477E+02  0.00000000000E+00 0.  1.
</event>
<event>
 7    1  0.1788006E-013  0.7246167E+02  0.7816164E-02  0.1226708E+00
        -11   -1    0    0    0    0  0.00000000000E+00  0.00000000000E+00  0.45593999997E+02  0.45594000000E+02  0.51100000000E-03 0.  1.
         11   -1    0    0    0    0 -0.00000000000E+00 -0.00000000000E+00 -0.45593999997E+02  0.45594000000E+02  0.51100000000E-03 0. -1.
    9900012    2    1    2    0    0 -0.17365510633E+02 -0.53531302310E+01 -0.45230975480E+01  0.72461671630E+02  0.70000132008E+02 0.  0.
        -12    1    1    2    0    0  0.17365510633E+02  0.53531302310E+01  0.45230975480E+01  0.18726328370E+02  0.00000000000E+00 0.  1.
         11    1    3    3    0    0 -0.91881536905E+01  0.90046808098E+01 -0.92907189371E+01  0.15868960374E+02  0.51100000000E-03 0. -1.
        -11    1    3    3    0    0 -0.71855405831E+01  0.19659222534E+02 -0.43120750211E+01  0.21370798192E+02  0.51100000000E-03 0.  1.
        -12    1    3    3    0    0 -0.99181635919E+00 -0.34017033575E+02  0.90796964102E+01  0.35221913063E+02  0.00000000000E+00 0.  1.
</event>
<event>
 7    1  0.1788006E-013  0.7246156E+02  0.7816164E-02  0.1226708E+00
        -11   -1    0    0    0    0  0.00000000000E+00  0.00000000000E+00  0.45593999997E+02  0.45594000000E+02  0.51100000000E-03 0. -1.
         11   -1    0    0    0    0 -0.00000000000E+00 -0.00000000000E+00 -0.45593999997E+02  0.45594000000E+02  0.51100000000E-03 0.  1.
    9900012    2    1    2    0    0 -0.14426396469E+02  0.33419486260E+01  0.11462548267E+02  0.72461560176E+02  0.69999986820E+02 0.  0.
        -12    1    1    2    0    0  0.14426396469E+02 -0.33419486260E+01 -0.11462548267E+02  0.18726439824E+02  0.00000000000E+00 0.  1.
         11    1    3    3    0    0  0.77948595598E+01 -0.70679487331E+01 -0.12361130549E+02  0.16233092237E+02  0.51100000000E-03 0. -1.
        -11    1    3    3    0    0 -0.10467351454E+02  0.27888398019E+02  0.12388295014E+02  0.32261401770E+02  0.51100000000E-03 0.  1.
         12    1    3    3    0    0 -0.11753904574E+02 -0.17478500660E+02  0.11435383802E+02  0.23967066170E+02  0.00000000000E+00 0. -1.
</event>
<event>
 7    1  0.1788006E-013  0.7246162E+02  0.7816164E-02  0.1226708E+00
        -11   -1    0    0    0    0  0.00000000000E+00  0.00000000000E+00  0.45593999997E+02  0.45594000000E+02  0.51100000000E-03 0. -1.
         11   -1    0    0    0    0 -0.00000000000E+00 -0.00000000000E+00 -0.45593999997E+02  0.45594000000E+02  0.51100000000E-03 0.  1.
    9900012    2    1    2    0    0 -0.12248131564E+01 -0.17516999678E+02  0.65063071138E+01  0.72461615478E+02  0.70000058860E+02 0.  0.
        -12    1    1    2    0    0  0.12248131564E+01  0.17516999678E+02 -0.65063071138E+01  0.18726384522E+02  0.00000000000E+00 0.  1.
         11    1    3    3    0    0  0.29167339631E+01 -0.20514693472E+02 -0.52552328971E+01  0.21377031093E+02  0.51100000000E-03 0.  1.
        -11    1    3    3    0    0 -0.22654882861E+02  0.14542653644E+02  0.11475386873E+02  0.29264603134E+02  0.51100000000E-03 0. -1.
         12    1    3    3    0    0  0.18513335741E+02 -0.11544959850E+02  0.28615313790E+00  0.21819981252E+02  0.00000000000E+00 0. -1.
</event>
<event>
 7    1  0.1788006E-013  0.7246146E+02  0.7816164E-02  0.1226708E+00
        -11   -1    0    0    0    0  0.00000000000E+00  0.00000000000E+00  0.45593999997E+02  0.45594000000E+02  0.51100000000E-03 0.  1.
         11   -1    0    0    0    0 -0.00000000000E+00 -0.00000000000E+00 -0.45593999997E+02  0.45594000000E+02  0.51100000000E-03 0. -1.
    9900012    2    1    2    0    0  0.12465241623E+02 -0.13164097694E+02 -0.46912379137E+01  0.72461456539E+02  0.69999851813E+02 0.  0.
        -12    1    1    2    0    0 -0.12465241623E+02  0.13164097694E+02  0.46912379137E+01  0.18726543461E+02  0.00000000000E+00 0.  1.
         11    1    3    3    0    0 -0.92968735868E-01  0.53352845009E+01 -0.16983027725E+01  0.55998336100E+01  0.51100000000E-03 0. -1.
        -11    1    3    3    0    0  0.24090325528E+02  0.16466043497E+02 -0.64409720151E+01  0.29882444566E+02  0.51100000000E-03 0.  1.
         12    1    3    3    0    0 -0.11532115169E+02 -0.34965425692E+02  0.34480368739E+01  0.36979178363E+02  0.00000000000E+00 0. -1.
</event>
<event>
 7    1  0.1788006E-013  0.7246103E+02  0.7816164E-02  0.1226709E+00
        -11   -1    0    0    0    0  0.00000000000E+00  0.00000000000E+00  0.45593999997E+02  0.45594000000E+02  0.51100000000E-03 0.  1.
         11   -1    0    0    0    0 -0.00000000000E+00 -0.00000000000E+00 -0.45593999997E+02  0.45594000000E+02  0.51100000000E-03 0. -1.
    9900012    2    1    2    0    0  0.16892143209E+02 -0.76004439368E+01 -0.27546521720E+01  0.72461031243E+02  0.69999297782E+02 0.  0.
        -12    1    1    2    0    0 -0.16892143209E+02  0.76004439368E+01  0.27546521720E+01  0.18726968757E+02  0.00000000000E+00 0.  1.
         11    1    3    3    0    0  0.19526564325E+02 -0.20643867265E+02  0.20201133042E+01  0.28487485463E+02  0.51100000000E-03 0. -1.
        -11    1    3    3    0    0  0.56022568160E+01 -0.82116471611E+00  0.16404070803E+02  0.17353764205E+02  0.51100000000E-03 0.  1.
        -12    1    3    3    0    0 -0.82366779325E+01  0.13864588044E+02 -0.21178836279E+02  0.26619781575E+02  0.00000000000E+00 0.  1.
</event>
<event>
 7    1  0.1788006E-013  0.7246150E+02  0.7816164E-02  0.1226708E+00
        -11   -1    0    0    0    0  0.00000000000E+00  0.00000000000E+00  0.45593999997E+02  0.45594000000E+02  0.51100000000E-03 0.  1.
         11   -1    0    0    0    0 -0.00000000000E+00 -0.00000000000E+00 -0.45593999997E+02  0.45594000000E+02  0.51100000000E-03 0. -1.
    9900012    2    1    2    0    0  0.82041764615E+01 -0.89613063846E+01 -0.14250197445E+02  0.72461504045E+02  0.69999913698E+02 0.  0.
        -12    1    1    2    0    0 -0.82041764615E+01  0.89613063846E+01  0.14250197445E+02  0.18726495955E+02  0.00000000000E+00 0.  1.
         11    1    3    3    0    0  0.17806291297E+02 -0.79100923006E+01 -0.28126918930E+01  0.19686157723E+02  0.51100000000E-03 0. -1.
        -11    1    3    3    0    0  0.17520176817E+02 -0.29997635543E+01  0.78560755691E+01  0.19433813334E+02  0.51100000000E-03 0.  1.
         12    1    3    3    0    0 -0.27122291652E+02  0.19485494703E+01 -0.19293581121E+02  0.33341532988E+02  0.00000000000E+00 0. -1.
</event>
<event>
 7    1  0.1788006E-013  0.7246168E+02  0.7816164E-02  0.1226708E+00
        -11   -1    0    0    0    0  0.00000000000E+00  0.00000000000E+00  0.45593999997E+02  0.45594000000E+02  0.51100000000E-03 0. -1.
         11   -1    0    0    0    0 -0.00000000000E+00 -0.00000000000E+00 -0.45593999997E+02  0.45594000000E+02  0.51100000000E-03 0.  1.
    9900012    2    1    2    0    0  0.10204620959E+02 -0.14934040559E+02  0.48492670831E+01  0.72461675012E+02  0.70000136414E+02 0.  0.
        -12    1    1    2    0    0 -0.10204620959E+02  0.14934040559E+02 -0.48492670831E+01  0.18726324988E+02  0.00000000000E+00 0.  1.
         11    1    3    3    0    0  0.12161227548E+02 -0.16711320000E+01  0.25973610015E+02  0.28728323221E+02  0.51100000000E-03 0. -1.
        -11    1    3    3    0    0 -0.11246736615E+01  0.75484179439E+01  0.58770075965E+01  0.96323788781E+01  0.51100000000E-03 0.  1.
        -12    1    3    3    0    0 -0.83193292738E+00 -0.20811326503E+02 -0.27001350529E+02  0.34100972912E+02  0.00000000000E+00 0.  1.
</event>
<event>
 7    1  0.1788006E-013  0.7246153E+02  0.7816164E-02  0.1226708E+00
        -11   -1    0    0    0    0  0.00000000000E+00  0.00000000000E+00  0.45593999997E+02  0.45594000000E+02  0.51100000000E-03 0. -1.
         11   -1    0    0    0    0 -0.00000000000E+00 -0.00000000000E+00 -0.45593999997E+02  0.45594000000E+02  0.51100000000E-03 0.  1.
    9900012    2    1    2    0    0 -0.94167088599E+00  0.92779408089E+01  0.16239261318E+02  0.72461533759E+02  0.69999952406E+02 0.  0.
        -12    1    1    2    0    0  0.94167088599E+00 -0.92779408089E+01 -0.16239261318E+02  0.18726466241E+02  0.00000000000E+00 0.  1.
         11    1    3    3    0    0 -0.11393014488E+02 -0.13204904607E+02  0.15024004133E+02  0.23019361095E+02  0.51100000000E-03 0. -1.
        -11    1    3    3    0    0  0.99320704007E+01 -0.40061157604E+01  0.15884952751E+02  0.19157941176E+02  0.51100000000E-03 0.  1.
         12    1    3    3    0    0  0.51927320133E+00  0.26488961176E+02 -0.14669695565E+02  0.30284231488E+02  0.00000000000E+00 0. -1.
</event>
<event>
 7    1  0.1788006E-013  0.7246156E+02  0.7816164E-02  0.1226708E+00
        -11   -1    0    0    0    0  0.00000000000E+00  0.00000000000E+00  0.45593999997E+02  0.45594000000E+02  0.51100000000E-03 0.  1.
         11   -1    0    0    0    0 -0.00000000000E+00 -0.00000000000E+00 -0.45593999997E+02  0.45594000000E+02  0.51100000000E-03 0. -1.
    9900012    2    1    2    0    0 -0.17821935698E+01 -0.15767192338E+02 -0.99448006838E+01  0.72461558032E+02  0.69999984026E+02 0.  0.
        -12    1    1    2    0    0  0.17821935698E+01  0.15767192338E+02  0.99448006838E+01  0.18726441968E+02  0.00000000000E+00 0.  1.
         11    1    3    3    0    0  0.17352473943E+01  0.93983332541E+01  0.38556218890E+01  0.10305608759E+02  0.51100000000E-03 0. -1.
        -11    1    3    3    0    0 -0.19244418396E+02 -0.11682839390E+02  0.14725976791E+02  0.26901501228E+02  0.51100000000E-03 0.  1.
         12    1    3    3    0    0  0.15726977431E+02 -0.13482686202E+02 -0.28526399363E+02  0.35254448045E+02  0.00000000000E+00 0. -1.
</event>
<event>
 7    1  0.1788006E-013  0.7246159E+02  0.7816164E-02  0.1226708E+00
        -11   -1    0    0    0    0  0.00000000000E+00  0.00000000000E+00  0.45593999997E+02  0.45594000000E+02  0.51100000000E-03 0.  1.
         11   -1    0    0    0    0 -0.00000000000E+00 -0.00000000000E+00 -0.45593999997E+02  0.45594000000E+02  0.51100000000E-03 0. -1.
    9900012    2    1    2    0    0 -0.11577026416E+02 -0.76028077847E+01 -0.12603494855E+02  0.72461593260E+02  0.70000029917E+02 0.  0.
        -12    1    1    2    0    0  0.11577026416E+02  0.76028077847E+01  0.12603494855E+02  0.18726406740E+02  0.00000000000E+00 0.  1.
         11    1    3    3    0    0  0.84031504451E+01  0.58815167205E+00 -0.54505923862E+01  0.10033335308E+02  0.51100000000E-03 0. -1.
        -11    1    3    3    0    0  0.19277167399E+02 -0.16860317757E+01  0.64146108045E+01  0.20386248260E+02  0.51100000000E-03 0.  1.
         12    1    3    3    0    0 -0.39257344260E+02 -0.65049276811E+01 -0.13567513273E+02  0.42042009691E+02  0.00000000000E+00 0. -1.
</event>
<event>
 7    1  0.1788006E-013  0.7246150E+02  0.7816164E-02  0.1226708E+00
        -11   -1    0    0    0    0  0.00000000000E+00  0.00000000000E+00  0.45593999997E+02  0.45594000000E+02  0.51100000000E-03 0.  1.
         11   -1    0    0    0    0 -0.00000000000E+00 -0.00000000000E+00 -0.45593999997E+02  0.45594000000E+02  0.51100000000E-03 0. -1.
    9900012    2    1    2    0    0  0.21119001989E+01  0.81960668360E+01 -0.16704672121E+02  0.72461502604E+02  0.69999911821E+02 0.  0.
        -12    1    1    2    0    0 -0.21119001989E+01 -0.81960668360E+01  0.16704672121E+02  0.18726497396E+02  0.00000000000E+00 0.  1.
         11    1    3    3    0    0 -0.21571196975E+02 -0.32607652160E+01 -0.16064251710E+02  0.27092606224E+02  0.51100000000E-03 0. -1.
        -11    1    3    3    0    0 -0.57467763014E+00 -0.93544442549E+01 -0.82812422516E+01  0.12506592469E+02  0.51100000000E-03 0.  1.
        -12    1    3    3    0    0  0.24257774804E+02  0.20811276307E+02  0.76408218404E+01  0.32862303911E+02  0.00000000000E+00 0.  1.
</event>
<event>
 7    1  0.1788006E-013  0.7246147E+02  0.7816164E-02  0.1226708E+00
        -11   -1    0    0    0    0  0.00000000000E+00  0.00000000000E+00  0.45593999997E+02  0.45594000000E+02  0.51100000000E-03 0.  1.
         11   -1    0    0    0    0 -0.00000000000E+00 -0.00000000000E+00 -0.45593999997E+02  0.45594000000E+02  0.51100000000E-03 0. -1.
    9900012    2    1    2    0    0  0.58130657635E+01  0.31169967715E+01 -0.17526419872E+02  0.72461473467E+02  0.69999873864E+02 0.  0.
        -12    1    1    2    0    0 -0.58130657635E+01 -0.31169967715E+01  0.17526419872E+02  0.18726526533E+02  0.00000000000E+00 0.  1.
         11    1    3    3    0    0  0.27694298678E+01 -0.70401782405E+00 -0.27487358080E+02  0.27635488731E+02  0.51100000000E-03 0. -1.
        -11    1    3    3    0    0 -0.43116783595E+01  0.73293008039E+01 -0.15725760040E+02  0.17877604696E+02  0.51100000000E-03 0.  1.
        -12    1    3    3    0    0  0.73553142553E+01 -0.35082862084E+01  0.25686698248E+02  0.26948380041E+02  0.00000000000E+00 0.  1.
</event>
<event>
 7    1  0.1788006E-013  0.7246156E+02  0.7816164E-02  0.1226708E+00
        -11   -1    0    0    0    0  0.00000000000E+00  0.00000000000E+00  0.45593999997E+02  0.45594000000E+02  0.51100000000E-03 0.  1.
         11   -1    0    0    0    0 -0.00000000000E+00 -0.00000000000E+00 -0.45593999997E+02  0.45594000000E+02  0.51100000000E-03 0. -1.
    9900012    2    1    2    0    0 -0.87642967373E+01  0.16104135070E+02 -0.38109707339E+01  0.72461559826E+02  0.69999986363E+02 0.  0.
        -12    1    1    2    0    0  0.87642967373E+01 -0.16104135070E+02  0.38109707339E+01  0.18726440174E+02  0.00000000000E+00 0.  1.
         11    1    3    3    0    0  0.70056921838E+00 -0.18781605319E+02 -0.95100097883E+00  0.18818711399E+02  0.51100000000E-03 0. -1.
        -11    1    3    3    0    0 -0.18670251104E+02  0.61963253500E+01 -0.10858016292E+02  0.22469295543E+02  0.51100000000E-03 0.  1.
        -12    1    3    3    0    0  0.92053851482E+01  0.28689415039E+02  0.79980465371E+01  0.31173552884E+02  0.00000000000E+00 0.  1.
</event>
<event>
 7    1  0.1788006E-013  0.7246173E+02  0.7816164E-02  0.1226708E+00
        -11   -1    0    0    0    0  0.00000000000E+00  0.00000000000E+00  0.45593999997E+02  0.45594000000E+02  0.51100000000E-03 0.  1.
         11   -1    0    0    0    0 -0.00000000000E+00 -0.00000000000E+00 -0.45593999997E+02  0.45594000000E+02  0.51100000000E-03 0. -1.
    9900012    2    1    2    0    0 -0.15195313410E+02  0.32589433453E+01 -0.10447722919E+02  0.72461730335E+02  0.70000208483E+02 0.  0.
        -12    1    1    2    0    0  0.15195313410E+02 -0.32589433453E+01  0.10447722919E+02  0.18726269665E+02  0.00000000000E+00 0.  1.
         11    1    3    3    0    0  0.14384949664E+02 -0.13778060461E+02  0.64002240693E+01  0.20921868829E+02  0.51100000000E-03 0. -1.
        -11    1    3    3    0    0  0.15341197960E+01  0.16808532230E+02 -0.17915001976E+01  0.16973206901E+02  0.51100000000E-03 0.  1.
        -12    1    3    3    0    0 -0.31114382870E+02  0.22847157638E+00 -0.15056446790E+02  0.34566654606E+02  0.00000000000E+00 0.  1.
</event>
<event>
 7    1  0.1788006E-013  0.7246145E+02  0.7816164E-02  0.1226708E+00
        -11   -1    0    0    0    0  0.00000000000E+00  0.00000000000E+00  0.45593999997E+02  0.45594000000E+02  0.51100000000E-03 0. -1.
         11   -1    0    0    0    0 -0.00000000000E+00 -0.00000000000E+00 -0.45593999997E+02  0.45594000000E+02  0.51100000000E-03 0.  1.
    9900012    2    1    2    0    0  0.12670782391E+02 -0.13088401113E+02 -0.43392123977E+01  0.72461448414E+02  0.69999841228E+02 0.  0.
        -12    1    1    2    0    0 -0.12670782391E+02  0.13088401113E+02  0.43392123977E+01  0.18726551586E+02  0.00000000000E+00 0.  1.
         11    1    3    3    0    0  0.67250234339E+01  0.11784128556E+02  0.62712731301E+01  0.14947257037E+02  0.51100000000E-03 0. -1.
        -11    1    3    3    0    0  0.64416957301E+01 -0.29721091855E+02  0.13241818533E+02  0.33169029278E+02  0.51100000000E-03 0.  1.
         12    1    3    3    0    0 -0.49593677324E+00  0.48485621859E+01 -0.23852304061E+02  0.24345162098E+02  0.00000000000E+00 0. -1.
</event>
<event>
 7    1  0.1788006E-013  0.7246163E+02  0.7816164E-02  0.1226708E+00
        -11   -1    0    0    0    0  0.00000000000E+00  0.00000000000E+00  0.45593999997E+02  0.45594000000E+02  0.51100000000E-03 0. -1.
         11   -1    0    0    0    0 -0.00000000000E+00 -0.00000000000E+00 -0.45593999997E+02  0.45594000000E+02  0.51100000000E-03 0.  1.
    9900012    2    1    2    0    0  0.16805140186E+02  0.40015516604E+01  0.72285275728E+01  0.72461634543E+02  0.70000083695E+02 0.  0.
        -12    1    1    2    0    0 -0.16805140186E+02 -0.40015516604E+01 -0.72285275728E+01  0.18726365457E+02  0.00000000000E+00 0.  1.
         11    1    3    3    0    0  0.18391795460E+01 -0.18578238883E+02 -0.20955048211E+01  0.18786289737E+02  0.51100000000E-03 0. -1.
        -11    1    3    3    0    0  0.18434300718E+02 -0.87500639098E+01 -0.12075817583E+01  0.20441265014E+02  0.51100000000E-03 0.  1.
         12    1    3    3    0    0 -0.34683400777E+01  0.31329854453E+02  0.10531614152E+02  0.33234079791E+02  0.00000000000E+00 0. -1.
</event>
<event>
 7    1  0.1788006E-013  0.7246156E+02  0.7816164E-02  0.1226708E+00
        -11   -1    0    0    0    0  0.00000000000E+00  0.00000000000E+00  0.45593999997E+02  0.45594000000E+02  0.51100000000E-03 0. -1.
         11   -1    0    0    0    0 -0.00000000000E+00 -0.00000000000E+00 -0.45593999997E+02  0.45594000000E+02  0.51100000000E-03 0.  1.
    9900012    2    1    2    0    0 -0.86601120353E+01  0.16592273125E+02  0.61507539147E+00  0.72461564524E+02  0.69999992483E+02 0.  0.
        -12    1    1    2    0    0  0.86601120353E+01 -0.16592273125E+02 -0.61507539147E+00  0.18726435476E+02  0.00000000000E+00 0.  1.
         11    1    3    3    0    0 -0.16510661650E+01  0.52475956324E+01  0.36693027552E+01  0.66126441286E+01  0.51100000000E-03 0. -1.
        -11    1    3    3    0    0  0.11388136491E+02  0.34293552534E+02  0.10560044963E+01  0.36150415543E+02  0.51100000000E-03 0.  1.
         12    1    3    3    0    0 -0.18397182361E+02 -0.22948875042E+02 -0.41102318600E+01  0.29698504852E+02  0.00000000000E+00 0. -1.
</event>
<event>
 7    1  0.1788006E-013  0.7246157E+02  0.7816164E-02  0.1226708E+00
        -11   -1    0    0    0    0  0.00000000000E+00  0.00000000000E+00  0.45593999997E+02  0.45594000000E+02  0.51100000000E-03 0. -1.
         11   -1    0    0    0    0 -0.00000000000E+00 -0.00000000000E+00 -0.45593999997E+02  0.45594000000E+02  0.51100000000E-03 0.  1.
    9900012    2    1    2    0    0  0.88427046786E+01  0.60353615962E+01  0.15364245569E+02  0.72461573284E+02  0.70000003895E+02 0.  0.
        -12    1    1    2    0    0 -0.88427046786E+01 -0.60353615962E+01 -0.15364245569E+02  0.18726426716E+02  0.00000000000E+00 0.  1.
         11    1    3    3    0    0 -0.45777399503E+00 -0.21025228950E+02 -0.71695939497E+01  0.22218750800E+02  0.51100000000E-03 0. -1.
        -11    1    3    3    0    0 -0.77933695623E+01  0.31365792657E+00 -0.40954627047E+01  0.88095292415E+01  0.51100000000E-03 0.  1.
        -12    1    3    3    0    0  0.17093848236E+02  0.26746932620E+02  0.26629302223E+02  0.41433293243E+02  0.00000000000E+00 0.  1.
</event>
<event>
 7    1  0.1788006E-013  0.7246193E+02  0.7816164E-02  0.1226707E+00
        -11   -1    0    0    0    0  0.00000000000E+00  0.00000000000E+00  0.45593999997E+02  0.45594000000E+02  0.51100000000E-03 0.  1.
         11   -1    0    0    0    0 -0.00000000000E+00 -0.00000000000E+00 -0.45593999997E+02  0.45594000000E+02  0.51100000000E-03 0. -1.
    9900012    2    1    2    0    0  0.86346162523E+01 -0.16473436527E+02 -0.21759970271E+01  0.72461930687E+02  0.70000469477E+02 0.  0.
        -12    1    1    2    0    0 -0.86346162523E+01  0.16473436527E+02  0.21759970271E+01  0.18726069313E+02  0.00000000000E+00 0.  1.
         11    1    3    3    0    0 -0.77806419875E+01 -0.87409697620E+01  0.13095216197E+01  0.11775304211E+02  0.51100000000E-03 0. -1.
        -11    1    3    3    0    0 -0.12334228557E+02 -0.59394111107E+01  0.19506135267E+02  0.23830633893E+02  0.51100000000E-03 0.  1.
        -12    1    3    3    0    0  0.28749486797E+02 -0.17930556547E+01 -0.22991653914E+02  0.36855992584E+02  0.00000000000E+00 0.  1.
</event>
<event>
 7    1  0.1788006E-013  0.7246152E+02  0.7816164E-02  0.1226708E+00
        -11   -1    0    0    0    0  0.00000000000E+00  0.00000000000E+00  0.45593999997E+02  0.45594000000E+02  0.51100000000E-03 0. -1.
         11   -1    0    0    0    0 -0.00000000000E+00 -0.00000000000E+00 -0.45593999997E+02  0.45594000000E+02  0.51100000000E-03 0.  1.
    9900012    2    1    2    0    0 -0.17438440578E+02  0.64175895469E+01  0.23230178223E+01  0.72461519359E+02  0.69999933647E+02 0.  0.
        -12    1    1    2    0    0  0.17438440578E+02 -0.64175895469E+01 -0.23230178223E+01  0.18726480641E+02  0.00000000000E+00 0.  1.
         11    1    3    3    0    0 -0.20501561756E+02  0.23485369991E+02  0.11584406425E+02  0.33257707536E+02  0.51100000000E-03 0. -1.
        -11    1    3    3    0    0 -0.72751456114E+00  0.10365764862E+02 -0.29012660524E+01  0.10788684052E+02  0.51100000000E-03 0.  1.
        -12    1    3    3    0    0  0.37906357387E+01 -0.27433545306E+02 -0.63601225505E+01  0.28415127771E+02  0.00000000000E+00 0.  1.
</event>
<event>
 7    1  0.1788006E-013  0.7246102E+02  0.7816164E-02  0.1226709E+00
        -11   -1    0    0    0    0  0.00000000000E+00  0.00000000000E+00  0.45593999997E+02  0.45594000000E+02  0.51100000000E-03 0.  1.
         11   -1    0    0    0    0 -0.00000000000E+00 -0.00000000000E+00 -0.45593999997E+02  0.45594000000E+02  0.51100000000E-03 0. -1.
    9900012    2    1    2    0    0  0.28015962341E+01  0.95464916737E+01 -0.15865543961E+02  0.72461015995E+02  0.69999277919E+02 0.  0.
        -12    1    1    2    0    0 -0.28015962341E+01 -0.95464916737E+01  0.15865543961E+02  0.18726984005E+02  0.00000000000E+00 0.  1.
         11    1    3    3    0    0 -0.13825250727E+02  0.96230580984E+01 -0.23041117991E+02  0.28541792575E+02  0.51100000000E-03 0. -1.
        -11    1    3    3    0    0 -0.69432304116E+01 -0.12832862364E+02 -0.36084396078E+01  0.15030357337E+02  0.51100000000E-03 0.  1.
        -12    1    3    3    0    0  0.23570077373E+02  0.12756295940E+02  0.10784013638E+02  0.28888866084E+02  0.00000000000E+00 0.  1.
</event>
<event>
 7    1  0.1788006E-013  0.7246150E+02  0.7816164E-02  0.1226708E+00
        -11   -1    0    0    0    0  0.00000000000E+00  0.00000000000E+00  0.45593999997E+02  0.45594000000E+02  0.51100000000E-03 0. -1.
         11   -1    0    0    0    0 -0.00000000000E+00 -0.00000000000E+00 -0.45593999997E+02  0.45594000000E+02  0.51100000000E-03 0.  1.
    9900012    2    1    2    0    0  0.11824236839E+02  0.13897068487E+02 -0.42119942293E+01  0.72461495127E+02  0.69999902081E+02 0.  0.
        -12    1    1    2    0    0 -0.11824236839E+02 -0.13897068487E+02  0.42119942293E+01  0.18726504873E+02  0.00000000000E+00 0.  1.
         11    1    3    3    0    0  0.18479465020E+02  0.31611372463E+02  0.62312484982E+01  0.37142939497E+02  0.51100000000E-03 0. -1.
        -11    1    3    3    0    0  0.70102399209E+01  0.31265170279E+01 -0.65582222368E+01  0.10095981955E+02  0.51100000000E-03 0.  1.
         12    1    3    3    0    0 -0.13665468102E+02 -0.20840821003E+02 -0.38850204907E+01  0.25222573674E+02  0.00000000000E+00 0. -1.
</event>
<event>
 7    1  0.1788006E-013  0.7246152E+02  0.7816164E-02  0.1226708E+00
        -11   -1    0    0    0    0  0.00000000000E+00  0.00000000000E+00  0.45593999997E+02  0.45594000000E+02  0.51100000000E-03 0.  1.
         11   -1    0    0    0    0 -0.00000000000E+00 -0.00000000000E+00 -0.45593999997E+02  0.45594000000E+02  0.51100000000E-03 0. -1.
    9900012    2    1    2    0    0  0.58663392814E+01 -0.71301402669E+01 -0.16291965323E+02  0.72461522197E+02  0.69999937345E+02 0.  0.
        -12    1    1    2    0    0 -0.58663392814E+01  0.71301402669E+01  0.16291965323E+02  0.18726477803E+02  0.00000000000E+00 0.  1.
         11    1    3    3    0    0  0.82771017492E+01  0.14504033350E+02 -0.13182249447E+02  0.21275551639E+02  0.51100000000E-03 0. -1.
        -11    1    3    3    0    0  0.15399594513E+02  0.64747079436E+01  0.39567185848E+01  0.17167555922E+02  0.51100000000E-03 0.  1.
         12    1    3    3    0    0 -0.17810356981E+02 -0.28108881561E+02 -0.70664344615E+01  0.34018414637E+02  0.00000000000E+00 0. -1.
</event>
<event>
 7    1  0.1788006E-013  0.7246152E+02  0.7816164E-02  0.1226708E+00
        -11   -1    0    0    0    0  0.00000000000E+00  0.00000000000E+00  0.45593999997E+02  0.45594000000E+02  0.51100000000E-03 0.  1.
         11   -1    0    0    0    0 -0.00000000000E+00 -0.00000000000E+00 -0.45593999997E+02  0.45594000000E+02  0.51100000000E-03 0. -1.
    9900012    2    1    2    0    0 -0.33677389323E+00 -0.18692020066E+02  0.10844262688E+01  0.72461521123E+02  0.69999935945E+02 0.  0.
        -12    1    1    2    0    0  0.33677389323E+00  0.18692020066E+02 -0.10844262688E+01  0.18726478877E+02  0.00000000000E+00 0.  1.
         11    1    3    3    0    0 -0.32779445815E+01  0.11773575391E+02  0.86395594790E+01  0.14966762723E+02  0.51100000000E-03 0. -1.
        -11    1    3    3    0    0 -0.19877260674E+02 -0.17096155081E+02 -0.14756115212E+02  0.30085327767E+02  0.51100000000E-03 0.  1.
         12    1    3    3    0    0  0.22818431362E+02 -0.13369440376E+02  0.72009820022E+01  0.27409430632E+02  0.00000000000E+00 0. -1.
</event>
<event>
 7    1  0.1788006E-013  0.7246157E+02  0.7816164E-02  0.1226708E+00
        -11   -1    0    0    0    0  0.00000000000E+00  0.00000000000E+00  0.45593999997E+02  0.45594000000E+02  0.51100000000E-03 0.  1.
         11   -1    0    0    0    0 -0.00000000000E+00 -0.00000000000E+00 -0.45593999997E+02  0.45594000000E+02  0.51100000000E-03 0. -1.
    9900012    2    1    2    0    0 -0.13306048009E+02 -0.10946110474E+02 -0.73355998512E+01  0.72461567523E+02  0.69999996390E+02 0.  0.
        -12    1    1    2    0    0  0.13306048009E+02  0.10946110474E+02  0.73355998512E+01  0.18726432477E+02  0.00000000000E+00 0.  1.
         11    1    3    3    0    0  0.70789242996E+01  0.14357874658E+02  0.30784954928E+01  0.16301437627E+02  0.51100000000E-03 0. -1.
        -11    1    3    3    0    0  0.58622734857E+01 -0.26948957007E+02  0.75107580003E+00  0.27589430029E+02  0.51100000000E-03 0.  1.
         12    1    3    3    0    0 -0.26247245795E+02  0.16449718753E+01 -0.11165171144E+02  0.28570699868E+02  0.00000000000E+00 0. -1.
</event>
<event>
 7    1  0.1788006E-013  0.7246186E+02  0.7816164E-02  0.1226707E+00
        -11   -1    0    0    0    0  0.00000000000E+00  0.00000000000E+00  0.45593999997E+02  0.45594000000E+02  0.51100000000E-03 0.  1.
         11   -1    0    0    0    0 -0.00000000000E+00 -0.00000000000E+00 -0.45593999997E+02  0.45594000000E+02  0.51100000000E-03 0. -1.
    9900012    2    1    2    0    0 -0.18053552069E+02  0.39788975299E+01 -0.29842543356E+01  0.72461864740E+02  0.70000383569E+02 0.  0.
        -12    1    1    2    0    0  0.18053552069E+02 -0.39788975299E+01  0.29842543356E+01  0.18726135260E+02  0.00000000000E+00 0.  1.
         11    1    3    3    0    0 -0.14422225187E+02  0.22503918816E+02 -0.27349427365E+00  0.26730165372E+02  0.51100000000E-03 0. -1.
        -11    1    3    3    0    0 -0.20452774595E+02 -0.20199279831E+02 -0.18395475596E+01  0.28804701522E+02  0.51100000000E-03 0.  1.
         12    1    3    3    0    0  0.16821447713E+02  0.16742585447E+01 -0.87121250226E+00  0.16926997845E+02  0.00000000000E+00 0. -1.
</event>
<event>
 7    1  0.1788006E-013  0.7246161E+02  0.7816164E-02  0.1226708E+00
        -11   -1    0    0    0    0  0.00000000000E+00  0.00000000000E+00  0.45593999997E+02  0.45594000000E+02  0.51100000000E-03 0.  1.
         11   -1    0    0    0    0 -0.00000000000E+00 -0.00000000000E+00 -0.45593999997E+02  0.45594000000E+02  0.51100000000E-03 0. -1.
    9900012    2    1    2    0    0 -0.16947658623E+02 -0.79550361437E+01  0.41471205591E+00  0.72461609025E+02  0.70000050454E+02 0.  0.
        -12    1    1    2    0    0  0.16947658623E+02  0.79550361437E+01 -0.41471205591E+00  0.18726390975E+02  0.00000000000E+00 0.  1.
         11    1    3    3    0    0  0.16928139894E+01 -0.43122264589E+01 -0.22808541538E+02  0.23274245070E+02  0.51100000000E-03 0. -1.
        -11    1    3    3    0    0 -0.64632825539E+01 -0.50728879982E+01 -0.10483673716E+02  0.13319745825E+02  0.51100000000E-03 0.  1.
        -12    1    3    3    0    0 -0.12177190058E+02  0.14300783135E+01  0.33706927309E+02  0.35867618130E+02  0.00000000000E+00 0.  1.
</event>
<event>
 7    1  0.1788006E-013  0.7246156E+02  0.7816164E-02  0.1226708E+00
        -11   -1    0    0    0    0  0.00000000000E+00  0.00000000000E+00  0.45593999997E+02  0.45594000000E+02  0.51100000000E-03 0.  1.
         11   -1    0    0    0    0 -0.00000000000E+00 -0.00000000000E+00 -0.45593999997E+02  0.45594000000E+02  0.51100000000E-03 0. -1.
    9900012    2    1    2    0    0  0.25583589021E+01 -0.16494150641E+02 -0.84898421696E+01  0.72461558114E+02  0.69999984133E+02 0.  0.
        -12    1    1    2    0    0 -0.25583589021E+01  0.16494150641E+02  0.84898421696E+01  0.18726441886E+02  0.00000000000E+00 0.  1.
         11    1    3    3    0    0  0.82876834861E+01  0.61544665702E+00 -0.26832460866E+02  0.28089952448E+02  0.51100000000E-03 0. -1.
        -11    1    3    3    0    0  0.33950389251E+01 -0.20247198684E+02 -0.31897984733E+01  0.20776192106E+02  0.51100000000E-03 0.  1.
        -12    1    3    3    0    0 -0.91243635092E+01  0.31376013863E+01  0.21532417170E+02  0.23595413560E+02  0.00000000000E+00 0.  1.
</event>
<event>
 7    1  0.1788006E-013  0.7246163E+02  0.7816164E-02  0.1226708E+00
        -11   -1    0    0    0    0  0.00000000000E+00  0.00000000000E+00  0.45593999997E+02  0.45594000000E+02  0.51100000000E-03 0. -1.
         11   -1    0    0    0    0 -0.00000000000E+00 -0.00000000000E+00 -0.45593999997E+02  0.45594000000E+02  0.51100000000E-03 0.  1.
    9900012    2    1    2    0    0  0.55555354388E+01  0.13381193432E+02  0.11864088588E+02  0.72461630632E+02  0.70000078601E+02 0.  0.
        -12    1    1    2    0    0 -0.55555354388E+01 -0.13381193432E+02 -0.11864088588E+02  0.18726369368E+02  0.00000000000E+00 0.  1.
         11    1    3    3    0    0  0.18393332927E+02 -0.50939163672E+01  0.20628123700E+02  0.28103063317E+02  0.51100000000E-03 0. -1.
        -11    1    3    3    0    0  0.13385613713E+01  0.22919935555E+02  0.56655894395E+01  0.23647708057E+02  0.51100000000E-03 0.  1.
        -12    1    3    3    0    0 -0.14176358860E+02 -0.44448257554E+01 -0.14429624551E+02  0.20710859258E+02  0.00000000000E+00 0.  1.
</event>
<event>
 7    1  0.1788006E-013  0.7246155E+02  0.7816164E-02  0.1226708E+00
        -11   -1    0    0    0    0  0.00000000000E+00  0.00000000000E+00  0.45593999997E+02  0.45594000000E+02  0.51100000000E-03 0. -1.
         11   -1    0    0    0    0 -0.00000000000E+00 -0.00000000000E+00 -0.45593999997E+02  0.45594000000E+02  0.51100000000E-03 0.  1.
    9900012    2    1    2    0    0  0.17105117606E+02  0.14934834654E+01 -0.74742489117E+01  0.72461549776E+02  0.69999973272E+02 0.  0.
        -12    1    1    2    0    0 -0.17105117606E+02 -0.14934834654E+01  0.74742489117E+01  0.18726450224E+02  0.00000000000E+00 0.  1.
         11    1    3    3    0    0  0.18645557290E+02 -0.72657941976E+01 -0.21449044278E+02  0.29334451975E+02  0.51100000000E-03 0. -1.
        -11    1    3    3    0    0 -0.10769131103E+02  0.18613649790E+02 -0.26984243637E+01  0.21673108626E+02  0.51100000000E-03 0.  1.
         12    1    3    3    0    0  0.92286914194E+01 -0.98543721268E+01  0.16673219730E+02  0.21453989175E+02  0.00000000000E+00 0. -1.
</event>
<event>
 7    1  0.1788006E-013  0.7246157E+02  0.7816164E-02  0.1226708E+00
        -11   -1    0    0    0    0  0.00000000000E+00  0.00000000000E+00  0.45593999997E+02  0.45594000000E+02  0.51100000000E-03 0.  1.
         11   -1    0    0    0    0 -0.00000000000E+00 -0.00000000000E+00 -0.45593999997E+02  0.45594000000E+02  0.51100000000E-03 0. -1.
    9900012    2    1    2    0    0  0.18008905322E+02 -0.34347434952E+01 -0.38158740756E+01  0.72461574053E+02  0.70000004896E+02 0.  0.
        -12    1    1    2    0    0 -0.18008905322E+02  0.34347434952E+01  0.38158740756E+01  0.18726425947E+02  0.00000000000E+00 0.  1.
         11    1    3    3    0    0 -0.10537818701E+02  0.18373381792E+01  0.16960954864E+01  0.10830428188E+02  0.51100000000E-03 0. -1.
        -11    1    3    3    0    0  0.12302164536E+02 -0.79198672419E+01  0.23844540997E+02  0.27975519388E+02  0.51100000000E-03 0.  1.
         12    1    3    3    0    0  0.16244559488E+02  0.26477855675E+01 -0.29356510559E+02  0.33655626477E+02  0.00000000000E+00 0. -1.
</event>
<event>
 7    1  0.1788006E-013  0.7246162E+02  0.7816164E-02  0.1226708E+00
        -11   -1    0    0    0    0  0.00000000000E+00  0.00000000000E+00  0.45593999997E+02  0.45594000000E+02  0.51100000000E-03 0. -1.
         11   -1    0    0    0    0 -0.00000000000E+00 -0.00000000000E+00 -0.45593999997E+02  0.45594000000E+02  0.51100000000E-03 0.  1.
    9900012    2    1    2    0    0  0.16173553430E+02  0.68262028323E+01 -0.65189145027E+01  0.72461624965E+02  0.70000071219E+02 0.  0.
        -12    1    1    2    0    0 -0.16173553430E+02 -0.68262028323E+01  0.65189145027E+01  0.18726375035E+02  0.00000000000E+00 0.  1.
         11    1    3    3    0    0  0.58729222836E+01 -0.64845451022E+01  0.13718144366E+02  0.16270464850E+02  0.51100000000E-03 0. -1.
        -11    1    3    3    0    0 -0.38612580799E+01  0.19575653474E+01  0.15508435167E+02  0.16101333411E+02  0.51100000000E-03 0.  1.
        -12    1    3    3    0    0  0.14161889226E+02  0.11353182587E+02 -0.35745494035E+02  0.40089826704E+02  0.00000000000E+00 0.  1.
</event>
<event>
 7    1  0.1788006E-013  0.7246165E+02  0.7816164E-02  0.1226708E+00
        -11   -1    0    0    0    0  0.00000000000E+00  0.00000000000E+00  0.45593999997E+02  0.45594000000E+02  0.51100000000E-03 0.  1.
         11   -1    0    0    0    0 -0.00000000000E+00 -0.00000000000E+00 -0.45593999997E+02  0.45594000000E+02  0.51100000000E-03 0. -1.
    9900012    2    1    2    0    0  0.43210367334E+01 -0.17900171633E+02 -0.34041914900E+01  0.72461654317E+02  0.70000109455E+02 0.  0.
        -12    1    1    2    0    0 -0.43210367334E+01  0.17900171633E+02  0.34041914900E+01  0.18726345683E+02  0.00000000000E+00 0.  1.
         11    1    3    3    0    0  0.49897110385E+01 -0.17203079666E+02  0.14685113938E+02  0.23162377639E+02  0.51100000000E-03 0. -1.
        -11    1    3    3    0    0  0.20590962487E+02  0.33973057745E+01  0.33280320822E+00  0.20871995134E+02  0.51100000000E-03 0.  1.
        -12    1    3    3    0    0 -0.21259636792E+02 -0.40943977409E+01 -0.18422108636E+02  0.28427281544E+02  0.00000000000E+00 0.  1.
</event>
<event>
 7    1  0.1788006E-013  0.7246152E+02  0.7816164E-02  0.1226708E+00
        -11   -1    0    0    0    0  0.00000000000E+00  0.00000000000E+00  0.45593999997E+02  0.45594000000E+02  0.51100000000E-03 0. -1.
         11   -1    0    0    0    0 -0.00000000000E+00 -0.00000000000E+00 -0.45593999997E+02  0.45594000000E+02  0.51100000000E-03 0.  1.
    9900012    2    1    2    0    0 -0.82532864297E+01 -0.15035910690E+02  0.75157066801E+01  0.72461516239E+02  0.69999929582E+02 0.  0.
        -12    1    1    2    0    0  0.82532864297E+01  0.15035910690E+02 -0.75157066801E+01  0.18726483761E+02  0.00000000000E+00 0.  1.
         11    1    3    3    0    0 -0.65375248283E+01 -0.15852140977E+02  0.23060355931E+01  0.17301659020E+02  0.51100000000E-03 0.  1.
        -11    1    3    3    0    0 -0.59776438882E+01 -0.18945622922E+02  0.21444030722E+02  0.29232093805E+02  0.51100000000E-03 0. -1.
        -12    1    3    3    0    0  0.42618822868E+01  0.19761853209E+02 -0.16234359635E+02  0.25927763414E+02  0.00000000000E+00 0.  1.
</event>
<event>
 7    1  0.1788006E-013  0.7246159E+02  0.7816164E-02  0.1226708E+00
        -11   -1    0    0    0    0  0.00000000000E+00  0.00000000000E+00  0.45593999997E+02  0.45594000000E+02  0.51100000000E-03 0.  1.
         11   -1    0    0    0    0 -0.00000000000E+00 -0.00000000000E+00 -0.45593999997E+02  0.45594000000E+02  0.51100000000E-03 0. -1.
    9900012    2    1    2    0    0  0.13959350848E+02  0.88748657483E+01 -0.87779061745E+01  0.72461592044E+02  0.70000028333E+02 0.  0.
        -12    1    1    2    0    0 -0.13959350848E+02 -0.88748657483E+01  0.87779061745E+01  0.18726407956E+02  0.00000000000E+00 0.  1.
         11    1    3    3    0    0  0.16119424252E+02  0.94847855814E+01  0.38061705660E+01  0.19086223576E+02  0.51100000000E-03 0. -1.
        -11    1    3    3    0    0  0.19199117288E+02 -0.10927109795E+01 -0.22688557761E+02  0.29741734574E+02  0.51100000000E-03 0.  1.
        -12    1    3    3    0    0 -0.21359190693E+02  0.48279114645E+00  0.10104481020E+02  0.23633633894E+02  0.00000000000E+00 0.  1.
</event>
<event>
 7    1  0.1788006E-013  0.7246156E+02  0.7816164E-02  0.1226708E+00
        -11   -1    0    0    0    0  0.00000000000E+00  0.00000000000E+00  0.45593999997E+02  0.45594000000E+02  0.51100000000E-03 0.  1.
         11   -1    0    0    0    0 -0.00000000000E+00 -0.00000000000E+00 -0.45593999997E+02  0.45594000000E+02  0.51100000000E-03 0. -1.
    9900012    2    1    2    0    0 -0.36934533483E+01 -0.17082538166E+02 -0.67249307380E+01  0.72461564107E+02  0.69999991940E+02 0.  0.
        -12    1    1    2    0    0  0.36934533483E+01  0.17082538166E+02  0.67249307380E+01  0.18726435893E+02  0.00000000000E+00 0.  1.
         11    1    3    3    0    0  0.85401923872E+01 -0.93948810126E+01  0.12783655314E+01  0.12760599278E+02  0.51100000000E-03 0.  1.
        -11    1    3    3    0    0  0.21435678461E+02 -0.97377009112E-01 -0.12626794851E+02  0.24878379003E+02  0.51100000000E-03 0. -1.
        -12    1    3    3    0    0 -0.33669324196E+02 -0.75902801440E+01  0.46234985813E+01  0.34822585826E+02  0.00000000000E+00 0.  1.
</event>
<event>
 7    1  0.1788006E-013  0.7246165E+02  0.7816164E-02  0.1226708E+00
        -11   -1    0    0    0    0  0.00000000000E+00  0.00000000000E+00  0.45593999997E+02  0.45594000000E+02  0.51100000000E-03 0.  1.
         11   -1    0    0    0    0 -0.00000000000E+00 -0.00000000000E+00 -0.45593999997E+02  0.45594000000E+02  0.51100000000E-03 0. -1.
    9900012    2    1    2    0    0 -0.78790098786E+01  0.69559317920E+01 -0.15498791994E+02  0.72461645923E+02  0.70000098520E+02 0.  0.
        -12    1    1    2    0    0  0.78790098786E+01 -0.69559317920E+01  0.15498791994E+02  0.18726354077E+02  0.00000000000E+00 0.  1.
         11    1    3    3    0    0 -0.17885260694E+02  0.16384076100E+02 -0.15290475288E+02  0.28672619946E+02  0.51100000000E-03 0. -1.
        -11    1    3    3    0    0 -0.13824627435E+02  0.84731115439E+00 -0.88496263501E+01  0.16436366591E+02  0.51100000000E-03 0.  1.
         12    1    3    3    0    0  0.23830878251E+02 -0.10275455462E+02  0.86413096441E+01  0.27352659387E+02  0.00000000000E+00 0. -1.
</event>
<event>
 7    1  0.1788006E-013  0.7246155E+02  0.7816164E-02  0.1226708E+00
        -11   -1    0    0    0    0  0.00000000000E+00  0.00000000000E+00  0.45593999997E+02  0.45594000000E+02  0.51100000000E-03 0.  1.
         11   -1    0    0    0    0 -0.00000000000E+00 -0.00000000000E+00 -0.45593999997E+02  0.45594000000E+02  0.51100000000E-03 0. -1.
    9900012    2    1    2    0    0 -0.60366461813E+01  0.27567663159E+01 -0.17511115264E+02  0.72461547709E+02  0.69999970578E+02 0.  0.
        -12    1    1    2    0    0  0.60366461813E+01 -0.27567663159E+01  0.17511115264E+02  0.18726452291E+02  0.00000000000E+00 0.  1.
         11    1    3    3    0    0 -0.37493640979E+01 -0.17811087295E+02 -0.13918762178E+02  0.22913413159E+02  0.51100000000E-03 0. -1.
        -11    1    3    3    0    0  0.37831840990E+00 -0.80688355587E+01  0.13761909531E+02  0.15957424174E+02  0.51100000000E-03 0.  1.
         12    1    3    3    0    0 -0.26656004933E+01  0.28636689169E+02 -0.17354262616E+02  0.33590710375E+02  0.00000000000E+00 0. -1.
</event>
<event>
 7    1  0.1788006E-013  0.7246158E+02  0.7816164E-02  0.1226708E+00
        -11   -1    0    0    0    0  0.00000000000E+00  0.00000000000E+00  0.45593999997E+02  0.45594000000E+02  0.51100000000E-03 0.  1.
         11   -1    0    0    0    0 -0.00000000000E+00 -0.00000000000E+00 -0.45593999997E+02  0.45594000000E+02  0.51100000000E-03 0. -1.
    9900012    2    1    2    0    0 -0.15701542618E+02 -0.30273223686E+01 -0.97455409672E+01  0.72461583096E+02  0.70000016677E+02 0.  0.
        -12    1    1    2    0    0  0.15701542618E+02  0.30273223686E+01  0.97455409672E+01  0.18726416904E+02  0.00000000000E+00 0.  1.
         11    1    3    3    0    0  0.24654906403E+01  0.13673432701E+02  0.10982309702E+02  0.17710238072E+02  0.51100000000E-03 0. -1.
        -11    1    3    3    0    0  0.84005305855E+00  0.70812555608E+01  0.94806241635E+01  0.11863056278E+02  0.51100000000E-03 0.  1.
         12    1    3    3    0    0 -0.19007086317E+02 -0.23782010631E+02 -0.30208474832E+02  0.42888288746E+02  0.00000000000E+00 0. -1.
</event>
<event>
 7    1  0.1788006E-013  0.7246154E+02  0.7816164E-02  0.1226708E+00
        -11   -1    0    0    0    0  0.00000000000E+00  0.00000000000E+00  0.45593999997E+02  0.45594000000E+02  0.51100000000E-03 0. -1.
         11   -1    0    0    0    0 -0.00000000000E+00 -0.00000000000E+00 -0.45593999997E+02  0.45594000000E+02  0.51100000000E-03 0.  1.
    9900012    2    1    2    0    0 -0.14879631916E+02 -0.11046231030E+02  0.26940152172E+01  0.72461537870E+02  0.69999957762E+02 0.  0.
        -12    1    1    2    0    0  0.14879631916E+02  0.11046231030E+02 -0.26940152172E+01  0.18726462130E+02  0.00000000000E+00 0.  1.
         11    1    3    3    0    0 -0.61375842941E+01 -0.14557529402E+02  0.21895696802E+02  0.27000243369E+02  0.51100000000E-03 0. -1.
        -11    1    3    3    0    0 -0.13106952755E+02  0.10949457579E+02  0.65593062477E+01  0.18295008350E+02  0.51100000000E-03 0.  1.
        -12    1    3    3    0    0  0.43649051334E+01 -0.74381592062E+01 -0.25760987832E+02  0.27166286152E+02  0.00000000000E+00 0.  1.
</event>
<event>
 7    1  0.1788006E-013  0.7246155E+02  0.7816164E-02  0.1226708E+00
        -11   -1    0    0    0    0  0.00000000000E+00  0.00000000000E+00  0.45593999997E+02  0.45594000000E+02  0.51100000000E-03 0.  1.
         11   -1    0    0    0    0 -0.00000000000E+00 -0.00000000000E+00 -0.45593999997E+02  0.45594000000E+02  0.51100000000E-03 0. -1.
    9900012    2    1    2    0    0 -0.69800572116E+01 -0.24058247474E+01 -0.17209613258E+02  0.72461548657E+02  0.69999971813E+02 0.  0.
        -12    1    1    2    0    0  0.69800572116E+01  0.24058247474E+01  0.17209613258E+02  0.18726451343E+02  0.00000000000E+00 0.  1.
         11    1    3    3    0    0 -0.31031492770E+01 -0.10131174706E+02  0.48072757935E+01  0.11635297038E+02  0.51100000000E-03 0. -1.
        -11    1    3    3    0    0 -0.24764995817E+02  0.20162694746E+02 -0.16292618049E+02  0.35850923007E+02  0.51100000000E-03 0.  1.
         12    1    3    3    0    0  0.20888087883E+02 -0.12437344788E+02 -0.57242710029E+01  0.24975328612E+02  0.00000000000E+00 0. -1.
</event>
<event>
 7    1  0.1788006E-013  0.7246156E+02  0.7816164E-02  0.1226708E+00
        -11   -1    0    0    0    0  0.00000000000E+00  0.00000000000E+00  0.45593999997E+02  0.45594000000E+02  0.51100000000E-03 0. -1.
         11   -1    0    0    0    0 -0.00000000000E+00 -0.00000000000E+00 -0.45593999997E+02  0.45594000000E+02  0.51100000000E-03 0.  1.
    9900012    2    1    2    0    0 -0.16230989476E+02 -0.63516735231E+01  0.68476879346E+01  0.72461558641E+02  0.69999984819E+02 0.  0.
        -12    1    1    2    0    0  0.16230989476E+02  0.63516735231E+01 -0.68476879346E+01  0.18726441359E+02  0.00000000000E+00 0.  1.
         11    1    3    3    0    0 -0.17608378421E+02 -0.20838470920E+02  0.32774968219E+01  0.27477970205E+02  0.51100000000E-03 0. -1.
        -11    1    3    3    0    0 -0.75788971994E+01 -0.44228052688E+01 -0.14756819461E+02  0.17168710204E+02  0.51100000000E-03 0.  1.
        -12    1    3    3    0    0  0.89562861441E+01  0.18909602666E+02  0.18327010574E+02  0.27814878232E+02  0.00000000000E+00 0.  1.
</event>
<event>
 7    1  0.1788006E-013  0.7246156E+02  0.7816164E-02  0.1226708E+00
        -11   -1    0    0    0    0  0.00000000000E+00  0.00000000000E+00  0.45593999997E+02  0.45594000000E+02  0.51100000000E-03 0.  1.
         11   -1    0    0    0    0 -0.00000000000E+00 -0.00000000000E+00 -0.45593999997E+02  0.45594000000E+02  0.51100000000E-03 0. -1.
    9900012    2    1    2    0    0  0.72558304945E+01 -0.11517923701E+02 -0.12859625479E+02  0.72461558533E+02  0.69999984679E+02 0.  0.
        -12    1    1    2    0    0 -0.72558304945E+01  0.11517923701E+02  0.12859625479E+02  0.18726441467E+02  0.00000000000E+00 0.  1.
         11    1    3    3    0    0  0.20479887015E+02 -0.15809537822E+02 -0.26070849821E+02  0.36729504066E+02  0.51100000000E-03 0. -1.
        -11    1    3    3    0    0 -0.60382003135E+01 -0.10570463295E+02 -0.30607808644E+01  0.12552407620E+02  0.51100000000E-03 0.  1.
        -12    1    3    3    0    0 -0.71858562067E+01  0.14862077416E+02  0.16272005206E+02  0.23179646847E+02  0.00000000000E+00 0.  1.
</event>
<event>
 7    1  0.1788006E-013  0.7246168E+02  0.7816164E-02  0.1226708E+00
        -11   -1    0    0    0    0  0.00000000000E+00  0.00000000000E+00  0.45593999997E+02  0.45594000000E+02  0.51100000000E-03 0.  1.
         11   -1    0    0    0    0 -0.00000000000E+00 -0.00000000000E+00 -0.45593999997E+02  0.45594000000E+02  0.51100000000E-03 0. -1.
    9900012    2    1    2    0    0 -0.10089267759E+01  0.16805404440E+02 -0.81997306448E+01  0.72461678037E+02  0.70000140354E+02 0.  0.
        -12    1    1    2    0    0  0.10089267759E+01 -0.16805404440E+02  0.81997306448E+01  0.18726321963E+02  0.00000000000E+00 0.  1.
         11    1    3    3    0    0  0.21505563079E+02  0.53386363594E+01 -0.43329349791E+01  0.22577967298E+02  0.51100000000E-03 0. -1.
        -11    1    3    3    0    0  0.13246593506E+00  0.29906559067E+00  0.17075418361E+02  0.17078550873E+02  0.51100000000E-03 0.  1.
         12    1    3    3    0    0 -0.22646955790E+02  0.11167702490E+02 -0.20942214027E+02  0.32805159866E+02  0.00000000000E+00 0. -1.
</event>
<event>
 7    1  0.1788006E-013  0.7246159E+02  0.7816164E-02  0.1226708E+00
        -11   -1    0    0    0    0  0.00000000000E+00  0.00000000000E+00  0.45593999997E+02  0.45594000000E+02  0.51100000000E-03 0. -1.
         11   -1    0    0    0    0 -0.00000000000E+00 -0.00000000000E+00 -0.45593999997E+02  0.45594000000E+02  0.51100000000E-03 0.  1.
    9900012    2    1    2    0    0  0.17741959440E+02 -0.19896262104E+01 -0.56517983565E+01  0.72461586518E+02  0.70000021134E+02 0.  0.
        -12    1    1    2    0    0 -0.17741959440E+02  0.19896262104E+01  0.56517983565E+01  0.18726413482E+02  0.00000000000E+00 0.  1.
         11    1    3    3    0    0  0.89147820706E+01 -0.98657629536E+01 -0.39817708221E+01  0.13880241971E+02  0.51100000000E-03 0. -1.
        -11    1    3    3    0    0  0.19778850681E+02 -0.18245360871E+02 -0.10541444198E+02  0.28900141412E+02  0.51100000000E-03 0.  1.
        -12    1    3    3    0    0 -0.10951673312E+02  0.26121497615E+02  0.88714166636E+01  0.29681203135E+02  0.00000000000E+00 0.  1.
</event>
<event>
 7    1  0.1788006E-013  0.7246189E+02  0.7816164E-02  0.1226707E+00
        -11   -1    0    0    0    0  0.00000000000E+00  0.00000000000E+00  0.45593999997E+02  0.45594000000E+02  0.51100000000E-03 0.  1.
         11   -1    0    0    0    0 -0.00000000000E+00 -0.00000000000E+00 -0.45593999997E+02  0.45594000000E+02  0.51100000000E-03 0. -1.
    9900012    2    1    2    0    0  0.17889374925E+02 -0.45146884329E+01  0.32023619878E+01  0.72461888040E+02  0.70000413921E+02 0.  0.
        -12    1    1    2    0    0 -0.17889374925E+02  0.45146884329E+01 -0.32023619878E+01  0.18726111960E+02  0.00000000000E+00 0.  1.
         11    1    3    3    0    0 -0.16342442052E+02  0.42417257944E+00  0.12664291932E+02  0.20679449340E+02  0.51100000000E-03 0. -1.
        -11    1    3    3    0    0 -0.53251268609E+01  0.65502754308E+01 -0.61763889983E+01  0.10459964896E+02  0.51100000000E-03 0.  1.
         12    1    3    3    0    0  0.39556943838E+02 -0.11489136443E+02 -0.32855409458E+01  0.41322473804E+02  0.00000000000E+00 0. -1.
</event>
<event>
 7    1  0.1788006E-013  0.7246154E+02  0.7816164E-02  0.1226708E+00
        -11   -1    0    0    0    0  0.00000000000E+00  0.00000000000E+00  0.45593999997E+02  0.45594000000E+02  0.51100000000E-03 0.  1.
         11   -1    0    0    0    0 -0.00000000000E+00 -0.00000000000E+00 -0.45593999997E+02  0.45594000000E+02  0.51100000000E-03 0. -1.
    9900012    2    1    2    0    0  0.16465546768E+02  0.30784420726E+01 -0.83719232907E+01  0.72461544501E+02  0.69999966399E+02 0.  0.
        -12    1    1    2    0    0 -0.16465546768E+02 -0.30784420726E+01  0.83719232907E+01  0.18726455499E+02  0.00000000000E+00 0.  1.
         11    1    3    3    0    0  0.27411464384E+02  0.12384515421E+02 -0.24243135240E+02  0.38632812587E+02  0.51100000000E-03 0. -1.
        -11    1    3    3    0    0  0.51845574391E+01  0.12866614339E+01  0.13335020357E+02  0.14365162779E+02  0.51100000000E-03 0.  1.
        -12    1    3    3    0    0 -0.16130475055E+02 -0.10592734782E+02  0.25361915919E+01  0.19463569135E+02  0.00000000000E+00 0.  1.
</event>
<event>
 7    1  0.1788006E-013  0.7246142E+02  0.7816164E-02  0.1226708E+00
        -11   -1    0    0    0    0  0.00000000000E+00  0.00000000000E+00  0.45593999997E+02  0.45594000000E+02  0.51100000000E-03 0. -1.
         11   -1    0    0    0    0 -0.00000000000E+00 -0.00000000000E+00 -0.45593999997E+02  0.45594000000E+02  0.51100000000E-03 0.  1.
    9900012    2    1    2    0    0  0.76210795020E+00  0.10283185189E+02  0.15632017662E+02  0.72461423101E+02  0.69999808253E+02 0.  0.
        -12    1    1    2    0    0 -0.76210795020E+00 -0.10283185189E+02 -0.15632017662E+02  0.18726576899E+02  0.00000000000E+00 0.  1.
         11    1    3    3    0    0  0.78870166509E+01 -0.56763587715E+00 -0.35200230206E+01  0.86555071756E+01  0.51100000000E-03 0. -1.
        -11    1    3    3    0    0 -0.57808276516E+01 -0.12766279125E+02 -0.16104870111E+02  0.21348599312E+02  0.51100000000E-03 0.  1.
         12    1    3    3    0    0 -0.13440810492E+01  0.23617100192E+02  0.35256910793E+02  0.42457316613E+02  0.00000000000E+00 0. -1.
</event>
<event>
 7    1  0.1788006E-013  0.7246156E+02  0.7816164E-02  0.1226708E+00
        -11   -1    0    0    0    0  0.00000000000E+00  0.00000000000E+00  0.45593999997E+02  0.45594000000E+02  0.51100000000E-03 0. -1.
         11   -1    0    0    0    0 -0.00000000000E+00 -0.00000000000E+00 -0.45593999997E+02  0.45594000000E+02  0.51100000000E-03 0.  1.
    9900012    2    1    2    0    0 -0.81192233465E+01  0.16614479600E+02 -0.29524109808E+01  0.72461562786E+02  0.69999990219E+02 0.  0.
        -12    1    1    2    0    0  0.81192233465E+01 -0.16614479600E+02  0.29524109808E+01  0.18726437214E+02  0.00000000000E+00 0.  1.
         11    1    3    3    0    0 -0.10105223345E+02  0.28188436329E+02 -0.10316899543E+02  0.31672415411E+02  0.51100000000E-03 0.  1.
        -11    1    3    3    0    0 -0.12717395923E+02  0.54948665067E+01  0.11351674324E+02  0.17910506057E+02  0.51100000000E-03 0. -1.
         12    1    3    3    0    0  0.14703395921E+02 -0.17068823236E+02 -0.39871857617E+01  0.22878641318E+02  0.00000000000E+00 0. -1.
</event>
<event>
 7    1  0.1788006E-013  0.7246153E+02  0.7816164E-02  0.1226708E+00
        -11   -1    0    0    0    0  0.00000000000E+00  0.00000000000E+00  0.45593999997E+02  0.45594000000E+02  0.51100000000E-03 0.  1.
         11   -1    0    0    0    0 -0.00000000000E+00 -0.00000000000E+00 -0.45593999997E+02  0.45594000000E+02  0.51100000000E-03 0. -1.
    9900012    2    1    2    0    0  0.17498712920E+02 -0.55443046414E+01 -0.37062543463E+01  0.72461532392E+02  0.69999950625E+02 0.  0.
        -12    1    1    2    0    0 -0.17498712920E+02  0.55443046414E+01  0.37062543463E+01  0.18726467608E+02  0.00000000000E+00 0.  1.
         11    1    3    3    0    0 -0.88874030987E+01  0.13770207487E+02 -0.45470282566E+01  0.17008233720E+02  0.51100000000E-03 0. -1.
        -11    1    3    3    0    0  0.61398569748E+01 -0.13451502574E+02  0.21398312497E+02  0.26010162306E+02  0.51100000000E-03 0.  1.
         12    1    3    3    0    0  0.20246259044E+02 -0.58630095537E+01 -0.20557538587E+02  0.29443136366E+02  0.00000000000E+00 0. -1.
</event>
<event>
 7    1  0.1788006E-013  0.7246153E+02  0.7816164E-02  0.1226708E+00
        -11   -1    0    0    0    0  0.00000000000E+00  0.00000000000E+00  0.45593999997E+02  0.45594000000E+02  0.51100000000E-03 0.  1.
         11   -1    0    0    0    0 -0.00000000000E+00 -0.00000000000E+00 -0.45593999997E+02  0.45594000000E+02  0.51100000000E-03 0. -1.
    9900012    2    1    2    0    0 -0.12244387345E+02 -0.88547906616E+01 -0.11061126617E+02  0.72461525127E+02  0.69999941161E+02 0.  0.
        -12    1    1    2    0    0  0.12244387345E+02  0.88547906616E+01  0.11061126617E+02  0.18726474873E+02  0.00000000000E+00 0.  1.
         11    1    3    3    0    0 -0.48582911974E+01  0.15771372459E+01 -0.32860689256E+02  0.33255304147E+02  0.51100000000E-03 0. -1.
        -11    1    3    3    0    0  0.22133548462E+01 -0.76918373425E+01 -0.57818006448E+01  0.98738300743E+01  0.51100000000E-03 0.  1.
        -12    1    3    3    0    0 -0.95994509940E+01 -0.27400905650E+01  0.27581363283E+02  0.29332390906E+02  0.00000000000E+00 0.  1.
</event>
<event>
 7    1  0.1788006E-013  0.7246160E+02  0.7816164E-02  0.1226708E+00
        -11   -1    0    0    0    0  0.00000000000E+00  0.00000000000E+00  0.45593999997E+02  0.45594000000E+02  0.51100000000E-03 0.  1.
         11   -1    0    0    0    0 -0.00000000000E+00 -0.00000000000E+00 -0.45593999997E+02  0.45594000000E+02  0.51100000000E-03 0. -1.
    9900012    2    1    2    0    0  0.29867907136E+01  0.13053094580E+02 -0.13090977263E+02  0.72461604656E+02  0.70000044763E+02 0.  0.
        -12    1    1    2    0    0 -0.29867907136E+01 -0.13053094580E+02  0.13090977263E+02  0.18726395344E+02  0.00000000000E+00 0.  1.
         11    1    3    3    0    0  0.18281692387E+02  0.55608862645E+01  0.11634793033E+02  0.22372128682E+02  0.51100000000E-03 0. -1.
        -11    1    3    3    0    0  0.89797446114E+01  0.14844629560E+02 -0.14967345710E+02  0.22913320970E+02  0.51100000000E-03 0.  1.
         12    1    3    3    0    0 -0.24274646285E+02 -0.73524212442E+01 -0.97584245861E+01  0.27176155004E+02  0.00000000000E+00 0. -1.
</event>
<event>
 7    1  0.1788006E-013  0.7246170E+02  0.7816164E-02  0.1226708E+00
        -11   -1    0    0    0    0  0.00000000000E+00  0.00000000000E+00  0.45593999997E+02  0.45594000000E+02  0.51100000000E-03 0. -1.
         11   -1    0    0    0    0 -0.00000000000E+00 -0.00000000000E+00 -0.45593999997E+02  0.45594000000E+02  0.51100000000E-03 0.  1.
    9900012    2    1    2    0    0 -0.18087516471E+02 -0.22588651249E+01 -0.42910917687E+01  0.72461703187E+02  0.70000173118E+02 0.  0.
        -12    1    1    2    0    0  0.18087516471E+02  0.22588651249E+01  0.42910917687E+01  0.18726296813E+02  0.00000000000E+00 0.  1.
         11    1    3    3    0    0  0.41121839345E+01 -0.12395156599E+02 -0.50491500276E+01  0.14001567059E+02  0.51100000000E-03 0. -1.
        -11    1    3    3    0    0  0.91466516141E+00  0.24529359751E+02 -0.13190552773E+02  0.27866050758E+02  0.51100000000E-03 0.  1.
         12    1    3    3    0    0 -0.23114365567E+02 -0.14393068276E+02  0.13948611032E+02  0.30594085371E+02  0.00000000000E+00 0. -1.
</event>
<event>
 7    1  0.1788006E-013  0.7246159E+02  0.7816164E-02  0.1226708E+00
        -11   -1    0    0    0    0  0.00000000000E+00  0.00000000000E+00  0.45593999997E+02  0.45594000000E+02  0.51100000000E-03 0. -1.
         11   -1    0    0    0    0 -0.00000000000E+00 -0.00000000000E+00 -0.45593999997E+02  0.45594000000E+02  0.51100000000E-03 0.  1.
    9900012    2    1    2    0    0  0.10485600751E+02 -0.11076019304E+02  0.10865199382E+02  0.72461585919E+02  0.70000020353E+02 0.  0.
        -12    1    1    2    0    0 -0.10485600751E+02  0.11076019304E+02 -0.10865199382E+02  0.18726414081E+02  0.00000000000E+00 0.  1.
         11    1    3    3    0    0 -0.10397477577E+01 -0.65148140278E+01  0.62585830110E+01  0.90936097774E+01  0.51100000000E-03 0. -1.
        -11    1    3    3    0    0 -0.21940828064E+02 -0.13435918706E+02 -0.73191682522E+01  0.26748720937E+02  0.51100000000E-03 0.  1.
         12    1    3    3    0    0  0.33466176573E+02  0.88747134293E+01  0.11925784623E+02  0.36619255204E+02  0.00000000000E+00 0. -1.
</event>
<event>
 7    1  0.1788006E-013  0.7246153E+02  0.7816164E-02  0.1226708E+00
        -11   -1    0    0    0    0  0.00000000000E+00  0.00000000000E+00  0.45593999997E+02  0.45594000000E+02  0.51100000000E-03 0. -1.
         11   -1    0    0    0    0 -0.00000000000E+00 -0.00000000000E+00 -0.45593999997E+02  0.45594000000E+02  0.51100000000E-03 0.  1.
    9900012    2    1    2    0    0  0.17764658470E+02  0.45717052442E+01  0.37679021262E+01  0.72461530343E+02  0.69999947956E+02 0.  0.
        -12    1    1    2    0    0 -0.17764658470E+02 -0.45717052442E+01 -0.37679021262E+01  0.18726469657E+02  0.00000000000E+00 0.  1.
         11    1    3    3    0    0  0.16535975424E+02 -0.23425214188E+02 -0.16332599942E+02  0.32998984289E+02  0.51100000000E-03 0.  1.
        -11    1    3    3    0    0  0.18599248045E+01  0.79494115491E+00  0.10370402330E+02  0.10565817359E+02  0.51100000000E-03 0. -1.
        -12    1    3    3    0    0 -0.63124175881E+00  0.27201978277E+02  0.97300997384E+01  0.28896728695E+02  0.00000000000E+00 0.  1.
</event>
<event>
 7    1  0.1788006E-013  0.7246161E+02  0.7816164E-02  0.1226708E+00
        -11   -1    0    0    0    0  0.00000000000E+00  0.00000000000E+00  0.45593999997E+02  0.45594000000E+02  0.51100000000E-03 0.  1.
         11   -1    0    0    0    0 -0.00000000000E+00 -0.00000000000E+00 -0.45593999997E+02  0.45594000000E+02  0.51100000000E-03 0. -1.
    9900012    2    1    2    0    0 -0.99773558530E+01  0.94740211795E+01 -0.12703268437E+02  0.72461608567E+02  0.70000049857E+02 0.  0.
        -12    1    1    2    0    0  0.99773558530E+01 -0.94740211795E+01  0.12703268437E+02  0.18726391433E+02  0.00000000000E+00 0.  1.
         11    1    3    3    0    0  0.93821420137E+01 -0.21453607935E+01 -0.14849562125E+02  0.17695667754E+02  0.51100000000E-03 0. -1.
        -11    1    3    3    0    0  0.13116392698E+01  0.18984786410E+02 -0.17094937620E+02  0.25580840586E+02  0.51100000000E-03 0.  1.
        -12    1    3    3    0    0 -0.20671137137E+02 -0.73654044369E+01  0.19241231307E+02  0.29185100227E+02  0.00000000000E+00 0.  1.
</event>
<event>
 7    1  0.1788006E-013  0.7246158E+02  0.7816164E-02  0.1226708E+00
        -11   -1    0    0    0    0  0.00000000000E+00  0.00000000000E+00  0.45593999997E+02  0.45594000000E+02  0.51100000000E-03 0. -1.
         11   -1    0    0    0    0 -0.00000000000E+00 -0.00000000000E+00 -0.45593999997E+02  0.45594000000E+02  0.51100000000E-03 0.  1.
    9900012    2    1    2    0    0 -0.15477682887E+02 -0.87148716737E+01  0.59305388356E+01  0.72461576244E+02  0.70000007750E+02 0.  0.
        -12    1    1    2    0    0  0.15477682887E+02  0.87148716737E+01 -0.59305388356E+01  0.18726423756E+02  0.00000000000E+00 0.  1.
         11    1    3    3    0    0 -0.14801291207E+02  0.31086905710E+01  0.30429290428E+02  0.33980639997E+02  0.51100000000E-03 0. -1.
        -11    1    3    3    0    0 -0.10889006909E+01 -0.10276846025E+02  0.31361152356E+01  0.10799744810E+02  0.51100000000E-03 0.  1.
        -12    1    3    3    0    0  0.41250901085E+00 -0.15467162200E+01 -0.27634866828E+02  0.27681191436E+02  0.00000000000E+00 0.  1.
</event>
<event>
 7    1  0.1788006E-013  0.7246166E+02  0.7816164E-02  0.1226708E+00
        -11   -1    0    0    0    0  0.00000000000E+00  0.00000000000E+00  0.45593999997E+02  0.45594000000E+02  0.51100000000E-03 0. -1.
         11   -1    0    0    0    0 -0.00000000000E+00 -0.00000000000E+00 -0.45593999997E+02  0.45594000000E+02  0.51100000000E-03 0.  1.
    9900012    2    1    2    0    0 -0.12152251437E+02  0.14233981760E+02  0.62634034729E+00  0.72461661491E+02  0.70000118800E+02 0.  0.
        -12    1    1    2    0    0  0.12152251437E+02 -0.14233981760E+02 -0.62634034729E+00  0.18726338509E+02  0.00000000000E+00 0.  1.
         11    1    3    3    0    0  0.10308929287E+02  0.49512122616E+01  0.13851239897E+02  0.17962332055E+02  0.51100000000E-03 0. -1.
        -11    1    3    3    0    0 -0.11436834126E+02  0.26558497065E+02  0.19756730350E+01  0.28983757958E+02  0.51100000000E-03 0.  1.
         12    1    3    3    0    0 -0.11024346599E+02 -0.17275727567E+02 -0.15200572585E+02  0.25515571477E+02  0.00000000000E+00 0. -1.
</event>
<event>
 7    1  0.1788006E-013  0.7246142E+02  0.7816164E-02  0.1226708E+00
        -11   -1    0    0    0    0  0.00000000000E+00  0.00000000000E+00  0.45593999997E+02  0.45594000000E+02  0.51100000000E-03 0. -1.
         11   -1    0    0    0    0 -0.00000000000E+00 -0.00000000000E+00 -0.45593999997E+02  0.45594000000E+02  0.51100000000E-03 0.  1.
    9900012    2    1    2    0    0 -0.17759951936E+02  0.30573023330E+01 -0.50913361391E+01  0.72461422790E+02  0.69999807848E+02 0.  0.
        -12    1    1    2    0    0  0.17759951936E+02 -0.30573023330E+01  0.50913361391E+01  0.18726577210E+02  0.00000000000E+00 0.  1.
         11    1    3    3    0    0  0.36486457621E+01 -0.18265405882E+02  0.79815226457E+01  0.20264312767E+02  0.51100000000E-03 0. -1.
        -11    1    3    3    0    0  0.82799340113E+01 -0.42877436884E+01  0.30394079806E+01  0.98071430244E+01  0.51100000000E-03 0.  1.
         12    1    3    3    0    0 -0.29688531709E+02  0.25610451903E+02 -0.16112266765E+02  0.42389966998E+02  0.00000000000E+00 0. -1.
</event>
<event>
 7    1  0.1788006E-013  0.7246161E+02  0.7816164E-02  0.1226708E+00
        -11   -1    0    0    0    0  0.00000000000E+00  0.00000000000E+00  0.45593999997E+02  0.45594000000E+02  0.51100000000E-03 0. -1.
         11   -1    0    0    0    0 -0.00000000000E+00 -0.00000000000E+00 -0.45593999997E+02  0.45594000000E+02  0.51100000000E-03 0.  1.
    9900012    2    1    2    0    0 -0.71492493021E+00  0.87219007255E+01  0.16555816606E+02  0.72461608639E+02  0.70000049951E+02 0.  0.
        -12    1    1    2    0    0  0.71492493021E+00 -0.87219007255E+01 -0.16555816606E+02  0.18726391361E+02  0.00000000000E+00 0.  1.
         11    1    3    3    0    0  0.13423121752E+02  0.17493937003E+02  0.25452556289E+01  0.22196764537E+02  0.51100000000E-03 0. -1.
        -11    1    3    3    0    0  0.11510337435E+02 -0.17379271906E+02  0.30174456780E+01  0.21062571983E+02  0.51100000000E-03 0.  1.
        -12    1    3    3    0    0 -0.25648384117E+02  0.86072356283E+01  0.10993115299E+02  0.29202272119E+02  0.00000000000E+00 0.  1.
</event>
<event>
 7    1  0.1788006E-013  0.7246147E+02  0.7816164E-02  0.1226708E+00
        -11   -1    0    0    0    0  0.00000000000E+00  0.00000000000E+00  0.45593999997E+02  0.45594000000E+02  0.51100000000E-03 0. -1.
         11   -1    0    0    0    0 -0.00000000000E+00 -0.00000000000E+00 -0.45593999997E+02  0.45594000000E+02  0.51100000000E-03 0.  1.
    9900012    2    1    2    0    0  0.14624252260E+02 -0.72958546989E+01 -0.91424678157E+01  0.72461468882E+02  0.69999867892E+02 0.  0.
        -12    1    1    2    0    0 -0.14624252260E+02  0.72958546989E+01  0.91424678157E+01  0.18726531118E+02  0.00000000000E+00 0.  1.
         11    1    3    3    0    0  0.99826967038E+01 -0.11453312608E+02 -0.47434277516E+01  0.15916428942E+02  0.51100000000E-03 0. -1.
        -11    1    3    3    0    0 -0.43945329481E+01 -0.62238075808E+01 -0.28112695887E+02  0.29126815324E+02  0.51100000000E-03 0.  1.
         12    1    3    3    0    0  0.90360885039E+01  0.10381265490E+02  0.23713655823E+02  0.27418224616E+02  0.00000000000E+00 0. -1.
</event>
<event>
 7    1  0.1788006E-013  0.7246155E+02  0.7816164E-02  0.1226708E+00
        -11   -1    0    0    0    0  0.00000000000E+00  0.00000000000E+00  0.45593999997E+02  0.45594000000E+02  0.51100000000E-03 0.  1.
         11   -1    0    0    0    0 -0.00000000000E+00 -0.00000000000E+00 -0.45593999997E+02  0.45594000000E+02  0.51100000000E-03 0. -1.
    9900012    2    1    2    0    0 -0.11608994548E+02  0.13509531028E+02 -0.57795986020E+01  0.72461549642E+02  0.69999973096E+02 0.  0.
        -12    1    1    2    0    0  0.11608994548E+02 -0.13509531028E+02  0.57795986020E+01  0.18726450358E+02  0.00000000000E+00 0.  1.
         11    1    3    3    0    0 -0.19731756940E+01 -0.24981655083E+02 -0.18407842828E+01  0.25126977534E+02  0.51100000000E-03 0. -1.
        -11    1    3    3    0    0  0.94282904866E+00  0.10667064423E+01 -0.80977681563E+01  0.82219607530E+01  0.51100000000E-03 0.  1.
        -12    1    3    3    0    0 -0.10578647903E+02  0.37424479668E+02  0.41589538371E+01  0.39112611354E+02  0.00000000000E+00 0.  1.
</event>
<event>
 7    1  0.1788006E-013  0.7246161E+02  0.7816164E-02  0.1226708E+00
        -11   -1    0    0    0    0  0.00000000000E+00  0.00000000000E+00  0.45593999997E+02  0.45594000000E+02  0.51100000000E-03 0. -1.
         11   -1    0    0    0    0 -0.00000000000E+00 -0.00000000000E+00 -0.45593999997E+02  0.45594000000E+02  0.51100000000E-03 0.  1.
    9900012    2    1    2    0    0 -0.55291313884E+01  0.14137178079E+02  0.10965697534E+02  0.72461611658E+02  0.70000053884E+02 0.  0.
        -12    1    1    2    0    0  0.55291313884E+01 -0.14137178079E+02 -0.10965697534E+02  0.18726388342E+02  0.00000000000E+00 0.  1.
         11    1    3    3    0    0  0.38258244999E+00  0.88617213221E+01 -0.88175544902E+01  0.12507027687E+02  0.51100000000E-03 0. -1.
        -11    1    3    3    0    0 -0.13738721064E+02 -0.23416828232E+00 -0.17050143219E+02  0.21897823529E+02  0.51100000000E-03 0.  1.
         12    1    3    3    0    0  0.78270072257E+01  0.55096250388E+01  0.36833395243E+02  0.38056760442E+02  0.00000000000E+00 0. -1.
</event>
<event>
 7    1  0.1788006E-013  0.7246158E+02  0.7816164E-02  0.1226708E+00
        -11   -1    0    0    0    0  0.00000000000E+00  0.00000000000E+00  0.45593999997E+02  0.45594000000E+02  0.51100000000E-03 0. -1.
         11   -1    0    0    0    0 -0.00000000000E+00 -0.00000000000E+00 -0.45593999997E+02  0.45594000000E+02  0.51100000000E-03 0.  1.
    9900012    2    1    2    0    0 -0.14620968066E+02 -0.33084901048E+01 -0.11223191915E+02  0.72461578807E+02  0.70000011089E+02 0.  0.
        -12    1    1    2    0    0  0.14620968066E+02  0.33084901048E+01  0.11223191915E+02  0.18726421193E+02  0.00000000000E+00 0.  1.
         11    1    3    3    0    0  0.10028591363E+02  0.18338862511E+01  0.11189262885E+02  0.15137218624E+02  0.51100000000E-03 0. -1.
        -11    1    3    3    0    0  0.28932645903E+01  0.75714253342E+01 -0.25570918608E+02  0.26824789660E+02  0.51100000000E-03 0.  1.
         12    1    3    3    0    0 -0.27542824019E+02 -0.12713801690E+02  0.31584638087E+01  0.30499570522E+02  0.00000000000E+00 0. -1.
</event>
<event>
 7    1  0.1788006E-013  0.7246156E+02  0.7816164E-02  0.1226708E+00
        -11   -1    0    0    0    0  0.00000000000E+00  0.00000000000E+00  0.45593999997E+02  0.45594000000E+02  0.51100000000E-03 0.  1.
         11   -1    0    0    0    0 -0.00000000000E+00 -0.00000000000E+00 -0.45593999997E+02  0.45594000000E+02  0.51100000000E-03 0. -1.
    9900012    2    1    2    0    0 -0.93407696409E+00 -0.11681120702E+02 -0.14606798983E+02  0.72461557274E+02  0.69999983039E+02 0.  0.
        -12    1    1    2    0    0  0.93407696409E+00  0.11681120702E+02  0.14606798983E+02  0.18726442726E+02  0.00000000000E+00 0.  1.
         11    1    3    3    0    0 -0.85588377141E+01  0.94388664000E+01  0.61528232556E+01  0.14149315751E+02  0.51100000000E-03 0. -1.
        -11    1    3    3    0    0 -0.83447088997E+01 -0.65908278833E+01  0.13886221181E+02  0.17490006225E+02  0.51100000000E-03 0.  1.
         12    1    3    3    0    0  0.15969469650E+02 -0.14529159219E+02 -0.34645843420E+02  0.40822235298E+02  0.00000000000E+00 0. -1.
</event>
<event>
 7    1  0.1788006E-013  0.7246117E+02  0.7816164E-02  0.1226709E+00
        -11   -1    0    0    0    0  0.00000000000E+00  0.00000000000E+00  0.45593999997E+02  0.45594000000E+02  0.51100000000E-03 0.  1.
         11   -1    0    0    0    0 -0.00000000000E+00 -0.00000000000E+00 -0.45593999997E+02  0.45594000000E+02  0.51100000000E-03 0. -1.
    9900012    2    1    2    0    0  0.96717374536E+01  0.13807127339E+02 -0.81556563671E+01  0.72461174281E+02  0.69999484117E+02 0.  0.
        -12    1    1    2    0    0 -0.96717374536E+01 -0.13807127339E+02  0.81556563671E+01  0.18726825719E+02  0.00000000000E+00 0.  1.
         11    1    3    3    0    0  0.27972144890E+01  0.18457051147E+02 -0.28144406180E+02  0.33772692304E+02  0.51100000000E-03 0. -1.
        -11    1    3    3    0    0  0.14426792186E+02  0.90926601077E+01  0.74442015571E+01  0.18607120618E+02  0.51100000000E-03 0.  1.
        -12    1    3    3    0    0 -0.75522692214E+01 -0.13742583916E+02  0.12544548256E+02  0.20081361359E+02  0.00000000000E+00 0.  1.
</event>
<event>
 7    1  0.1788006E-013  0.7246157E+02  0.7816164E-02  0.1226708E+00
        -11   -1    0    0    0    0  0.00000000000E+00  0.00000000000E+00  0.45593999997E+02  0.45594000000E+02  0.51100000000E-03 0. -1.
         11   -1    0    0    0    0 -0.00000000000E+00 -0.00000000000E+00 -0.45593999997E+02  0.45594000000E+02  0.51100000000E-03 0.  1.
    9900012    2    1    2    0    0  0.67197386149E+01  0.59854519521E+01  0.16422499448E+02  0.72461574547E+02  0.70000005540E+02 0.  0.
        -12    1    1    2    0    0 -0.67197386149E+01 -0.59854519521E+01 -0.16422499448E+02  0.18726425453E+02  0.00000000000E+00 0.  1.
         11    1    3    3    0    0  0.21347485388E+02 -0.16226969483E+02  0.65491395744E+01  0.27602914709E+02  0.51100000000E-03 0. -1.
        -11    1    3    3    0    0  0.43870629495E+00  0.93135853553E+01  0.20381667370E+02  0.22413114474E+02  0.51100000000E-03 0.  1.
        -12    1    3    3    0    0 -0.15066453068E+02  0.12898836080E+02 -0.10508307497E+02  0.22445545364E+02  0.00000000000E+00 0.  1.
</event>
<event>
 7    1  0.1788006E-013  0.7246159E+02  0.7816164E-02  0.1226708E+00
        -11   -1    0    0    0    0  0.00000000000E+00  0.00000000000E+00  0.45593999997E+02  0.45594000000E+02  0.51100000000E-03 0.  1.
         11   -1    0    0    0    0 -0.00000000000E+00 -0.00000000000E+00 -0.45593999997E+02  0.45594000000E+02  0.51100000000E-03 0. -1.
    9900012    2    1    2    0    0 -0.17446526572E+01  0.18532560824E+02 -0.20441792155E+01  0.72461593717E+02  0.70000030513E+02 0.  0.
        -12    1    1    2    0    0  0.17446526572E+01 -0.18532560824E+02  0.20441792155E+01  0.18726406283E+02  0.00000000000E+00 0.  1.
         11    1    3    3    0    0 -0.47806643901E+01 -0.65851514989E+01 -0.15697909342E+01  0.82875337774E+01  0.51100000000E-03 0. -1.
        -11    1    3    3    0    0 -0.26390642456E+02  0.19244636398E+02 -0.71448413459E+01  0.33434574881E+02  0.51100000000E-03 0.  1.
         12    1    3    3    0    0  0.29426654189E+02  0.58730759247E+01  0.66704530645E+01  0.30739485059E+02  0.00000000000E+00 0. -1.
</event>
<event>
 7    1  0.1788006E-013  0.7246158E+02  0.7816164E-02  0.1226708E+00
        -11   -1    0    0    0    0  0.00000000000E+00  0.00000000000E+00  0.45593999997E+02  0.45594000000E+02  0.51100000000E-03 0.  1.
         11   -1    0    0    0    0 -0.00000000000E+00 -0.00000000000E+00 -0.45593999997E+02  0.45594000000E+02  0.51100000000E-03 0. -1.
    9900012    2    1    2    0    0 -0.83566823149E+01  0.23958511633E+01  0.16586272092E+02  0.72461583791E+02  0.70000017582E+02 0.  0.
        -12    1    1    2    0    0  0.83566823149E+01 -0.23958511633E+01 -0.16586272092E+02  0.18726416209E+02  0.00000000000E+00 0.  1.
         11    1    3    3    0    0 -0.11872148078E+02  0.41694746605E+01 -0.17479092814E+01  0.12703842177E+02  0.51100000000E-03 0. -1.
        -11    1    3    3    0    0 -0.18795835652E+02 -0.81444547155E+01  0.27940143818E+02  0.34644872886E+02  0.51100000000E-03 0.  1.
         12    1    3    3    0    0  0.22311301415E+02  0.63708312183E+01 -0.96059624442E+01  0.25112868728E+02  0.00000000000E+00 0. -1.
</event>
<event>
 7    1  0.1788006E-013  0.7246156E+02  0.7816164E-02  0.1226708E+00
        -11   -1    0    0    0    0  0.00000000000E+00  0.00000000000E+00  0.45593999997E+02  0.45594000000E+02  0.51100000000E-03 0.  1.
         11   -1    0    0    0    0 -0.00000000000E+00 -0.00000000000E+00 -0.45593999997E+02  0.45594000000E+02  0.51100000000E-03 0. -1.
    9900012    2    1    2    0    0 -0.27356100082E+01 -0.40850783775E+01 -0.18069533281E+02  0.72461562526E+02  0.69999989880E+02 0.  0.
        -12    1    1    2    0    0  0.27356100082E+01  0.40850783775E+01  0.18069533281E+02  0.18726437474E+02  0.00000000000E+00 0.  1.
         11    1    3    3    0    0 -0.11352550507E+02 -0.25864347632E+01 -0.63489927627E+01  0.13261966565E+02  0.51100000000E-03 0. -1.
        -11    1    3    3    0    0 -0.12345048819E+02 -0.23723967836E+02 -0.80106153348E+00  0.26755720511E+02  0.51100000000E-03 0.  1.
         12    1    3    3    0    0  0.20961989318E+02  0.22225324222E+02 -0.10919478985E+02  0.32443875450E+02  0.00000000000E+00 0. -1.
</event>
<event>
 7    1  0.1788006E-013  0.7246168E+02  0.7816164E-02  0.1226708E+00
        -11   -1    0    0    0    0  0.00000000000E+00  0.00000000000E+00  0.45593999997E+02  0.45594000000E+02  0.51100000000E-03 0. -1.
         11   -1    0    0    0    0 -0.00000000000E+00 -0.00000000000E+00 -0.45593999997E+02  0.45594000000E+02  0.51100000000E-03 0.  1.
    9900012    2    1    2    0    0 -0.54563637654E+01  0.17688387835E+02  0.28326638617E+01  0.72461682842E+02  0.70000146614E+02 0.  0.
        -12    1    1    2    0    0  0.54563637654E+01 -0.17688387835E+02 -0.28326638617E+01  0.18726317158E+02  0.00000000000E+00 0.  1.
         11    1    3    3    0    0 -0.14724384143E+02  0.26876459079E+01 -0.72472158457E+01  0.16629884747E+02  0.51100000000E-03 0. -1.
        -11    1    3    3    0    0 -0.74325341768E+01 -0.44276406518E+01 -0.16676843426E+02  0.18787327456E+02  0.51100000000E-03 0.  1.
         12    1    3    3    0    0  0.16700554554E+02  0.19428382579E+02  0.26756723134E+02  0.37044470639E+02  0.00000000000E+00 0. -1.
</event>
<event>
 7    1  0.1788006E-013  0.7246155E+02  0.7816164E-02  0.1226708E+00
        -11   -1    0    0    0    0  0.00000000000E+00  0.00000000000E+00  0.45593999997E+02  0.45594000000E+02  0.51100000000E-03 0.  1.
         11   -1    0    0    0    0 -0.00000000000E+00 -0.00000000000E+00 -0.45593999997E+02  0.45594000000E+02  0.51100000000E-03 0. -1.
    9900012    2    1    2    0    0 -0.56373927762E+01 -0.40434115492E+01 -0.17393978405E+02  0.72461551885E+02  0.69999976018E+02 0.  0.
        -12    1    1    2    0    0  0.56373927762E+01  0.40434115492E+01  0.17393978405E+02  0.18726448115E+02  0.00000000000E+00 0.  1.
         11    1    3    3    0    0 -0.21581147913E+01 -0.54384169931E+00  0.87390218888E+01  0.90179669039E+01  0.51100000000E-03 0. -1.
        -11    1    3    3    0    0  0.12073312777E+02 -0.69240309244E+01  0.14319760807E+02  0.19969041927E+02  0.51100000000E-03 0.  1.
         12    1    3    3    0    0 -0.15552590762E+02  0.34244610745E+01 -0.40452761101E+02  0.43474543054E+02  0.00000000000E+00 0. -1.
</event>
<event>
 7    1  0.1788006E-013  0.7246159E+02  0.7816164E-02  0.1226708E+00
        -11   -1    0    0    0    0  0.00000000000E+00  0.00000000000E+00  0.45593999997E+02  0.45594000000E+02  0.51100000000E-03 0.  1.
         11   -1    0    0    0    0 -0.00000000000E+00 -0.00000000000E+00 -0.45593999997E+02  0.45594000000E+02  0.51100000000E-03 0. -1.
    9900012    2    1    2    0    0  0.15616569264E+02  0.77508362464E+01  0.68356099767E+01  0.72461594529E+02  0.70000031571E+02 0.  0.
        -12    1    1    2    0    0 -0.15616569264E+02 -0.77508362464E+01 -0.68356099767E+01  0.18726405471E+02  0.00000000000E+00 0.  1.
         11    1    3    3    0    0  0.29847547516E+01  0.31868007189E+02  0.18987922706E+01  0.32063749866E+02  0.51100000000E-03 0. -1.
        -11    1    3    3    0    0  0.13867824669E+01 -0.21391148500E+01 -0.10816021332E+02  0.11112393787E+02  0.51100000000E-03 0.  1.
        -12    1    3    3    0    0  0.11245032045E+02 -0.21978056092E+02  0.15752839038E+02  0.29285450877E+02  0.00000000000E+00 0.  1.
</event>
<event>
 7    1  0.1788006E-013  0.7246159E+02  0.7816164E-02  0.1226708E+00
        -11   -1    0    0    0    0  0.00000000000E+00  0.00000000000E+00  0.45593999997E+02  0.45594000000E+02  0.51100000000E-03 0.  1.
         11   -1    0    0    0    0 -0.00000000000E+00 -0.00000000000E+00 -0.45593999997E+02  0.45594000000E+02  0.51100000000E-03 0. -1.
    9900012    2    1    2    0    0  0.17304668392E+02  0.59865149358E+01  0.39228387445E+01  0.72461586220E+02  0.70000020747E+02 0.  0.
        -12    1    1    2    0    0 -0.17304668392E+02 -0.59865149358E+01 -0.39228387445E+01  0.18726413780E+02  0.00000000000E+00 0.  1.
         11    1    3    3    0    0 -0.13635799815E+01  0.10453958375E+01 -0.62739697846E+00  0.18291610243E+01  0.51100000000E-03 0. -1.
        -11    1    3    3    0    0  0.10453642697E+02  0.20534762870E+02  0.31135970801E+02  0.38735046273E+02  0.51100000000E-03 0.  1.
         12    1    3    3    0    0  0.82146056765E+01 -0.15593643772E+02 -0.26585735078E+02  0.31897378923E+02  0.00000000000E+00 0. -1.
</event>
<event>
 7    1  0.1788006E-013  0.7246150E+02  0.7816164E-02  0.1226708E+00
        -11   -1    0    0    0    0  0.00000000000E+00  0.00000000000E+00  0.45593999997E+02  0.45594000000E+02  0.51100000000E-03 0. -1.
         11   -1    0    0    0    0 -0.00000000000E+00 -0.00000000000E+00 -0.45593999997E+02  0.45594000000E+02  0.51100000000E-03 0.  1.
    9900012    2    1    2    0    0  0.14447733245E+02 -0.72818428414E+01 -0.94297224801E+01  0.72461497467E+02  0.69999905128E+02 0.  0.
        -12    1    1    2    0    0 -0.14447733245E+02  0.72818428414E+01  0.94297224801E+01  0.18726502533E+02  0.00000000000E+00 0.  1.
         11    1    3    3    0    0 -0.92094673653E+01 -0.22711209936E+01 -0.49935234879E+01  0.10719494242E+02  0.51100000000E-03 0. -1.
        -11    1    3    3    0    0  0.63275125588E+01 -0.26937933317E+02 -0.15461089564E+02  0.31697554438E+02  0.51100000000E-03 0.  1.
         12    1    3    3    0    0  0.17329688051E+02  0.21927211469E+02  0.11024890572E+02  0.30044448787E+02  0.00000000000E+00 0. -1.
</event>
<event>
 7    1  0.1788006E-013  0.7246160E+02  0.7816164E-02  0.1226708E+00
        -11   -1    0    0    0    0  0.00000000000E+00  0.00000000000E+00  0.45593999997E+02  0.45594000000E+02  0.51100000000E-03 0. -1.
         11   -1    0    0    0    0 -0.00000000000E+00 -0.00000000000E+00 -0.45593999997E+02  0.45594000000E+02  0.51100000000E-03 0.  1.
    9900012    2    1    2    0    0 -0.75614185977E+01 -0.74538191579E+01  0.15425417184E+02  0.72461602414E+02  0.70000041842E+02 0.  0.
        -12    1    1    2    0    0  0.75614185977E+01  0.74538191579E+01 -0.15425417184E+02  0.18726397586E+02  0.00000000000E+00 0.  1.
         11    1    3    3    0    0  0.95533527795E+01  0.62400223240E+01  0.38780935339E+01  0.12051723431E+02  0.51100000000E-03 0. -1.
        -11    1    3    3    0    0  0.18652736083E+02 -0.13086239704E+02  0.91598550776E+01  0.24557629736E+02  0.51100000000E-03 0.  1.
         12    1    3    3    0    0 -0.35767507460E+02 -0.60760177824E+00  0.23874685728E+01  0.35852249247E+02  0.00000000000E+00 0. -1.
</event>
<event>
 7    1  0.1788006E-013  0.7246143E+02  0.7816164E-02  0.1226708E+00
        -11   -1    0    0    0    0  0.00000000000E+00  0.00000000000E+00  0.45593999997E+02  0.45594000000E+02  0.51100000000E-03 0.  1.
         11   -1    0    0    0    0 -0.00000000000E+00 -0.00000000000E+00 -0.45593999997E+02  0.45594000000E+02  0.51100000000E-03 0. -1.
    9900012    2    1    2    0    0 -0.96647813511E+01  0.15669643377E+02 -0.34261548198E+01  0.72461434405E+02  0.69999822979E+02 0.  0.
        -12    1    1    2    0    0  0.96647813511E+01 -0.15669643377E+02  0.34261548198E+01  0.18726565595E+02  0.00000000000E+00 0.  1.
         11    1    3    3    0    0 -0.30235735408E+00  0.82491843615E+01  0.19228154224E+02  0.20925161355E+02  0.51100000000E-03 0. -1.
        -11    1    3    3    0    0 -0.41685591191E+01 -0.15627776181E+02  0.32269098620E+01  0.16492944582E+02  0.51100000000E-03 0.  1.
         12    1    3    3    0    0 -0.51938648779E+01  0.23048235196E+02 -0.25881218906E+02  0.35043328468E+02  0.00000000000E+00 0. -1.
</event>
<event>
 7    1  0.1788006E-013  0.7246157E+02  0.7816164E-02  0.1226708E+00
        -11   -1    0    0    0    0  0.00000000000E+00  0.00000000000E+00  0.45593999997E+02  0.45594000000E+02  0.51100000000E-03 0.  1.
         11   -1    0    0    0    0 -0.00000000000E+00 -0.00000000000E+00 -0.45593999997E+02  0.45594000000E+02  0.51100000000E-03 0. -1.
    9900012    2    1    2    0    0 -0.16146883660E+02  0.37878800952E+01  0.86953504112E+01  0.72461574652E+02  0.70000005676E+02 0.  0.
        -12    1    1    2    0    0  0.16146883660E+02 -0.37878800952E+01 -0.86953504112E+01  0.18726425348E+02  0.00000000000E+00 0.  1.
         11    1    3    3    0    0  0.34313405586E+01  0.11772876605E+02  0.80371834807E+01  0.14661890743E+02  0.51100000000E-03 0.  1.
        -11    1    3    3    0    0 -0.10060801542E+02  0.50574853960E+01 -0.25037110528E+02  0.27452773813E+02  0.51100000000E-03 0. -1.
        -12    1    3    3    0    0 -0.95174226770E+01 -0.13042481906E+02  0.25695277459E+02  0.30346910096E+02  0.00000000000E+00 0.  1.
</event>
<event>
 7    1  0.1788006E-013  0.7246159E+02  0.7816164E-02  0.1226708E+00
        -11   -1    0    0    0    0  0.00000000000E+00  0.00000000000E+00  0.45593999997E+02  0.45594000000E+02  0.51100000000E-03 0. -1.
         11   -1    0    0    0    0 -0.00000000000E+00 -0.00000000000E+00 -0.45593999997E+02  0.45594000000E+02  0.51100000000E-03 0.  1.
    9900012    2    1    2    0    0  0.61529409956E+01 -0.91430919417E+00  0.17663066314E+02  0.72461586681E+02  0.70000021347E+02 0.  0.
        -12    1    1    2    0    0 -0.61529409956E+01  0.91430919417E+00 -0.17663066314E+02  0.18726413319E+02  0.00000000000E+00 0.  1.
         11    1    3    3    0    0  0.16933589984E+01  0.17842989051E+01 -0.23749011411E+01  0.34192605884E+01  0.51100000000E-03 0. -1.
        -11    1    3    3    0    0 -0.13245815861E+01 -0.33498656279E+02  0.16910011422E+02  0.37548142103E+02  0.51100000000E-03 0.  1.
         12    1    3    3    0    0  0.57841635832E+01  0.30800048179E+02  0.31279560323E+01  0.31494183989E+02  0.00000000000E+00 0. -1.
</event>
<event>
 7    1  0.1788006E-013  0.7246164E+02  0.7816164E-02  0.1226708E+00
        -11   -1    0    0    0    0  0.00000000000E+00  0.00000000000E+00  0.45593999997E+02  0.45594000000E+02  0.51100000000E-03 0.  1.
         11   -1    0    0    0    0 -0.00000000000E+00 -0.00000000000E+00 -0.45593999997E+02  0.45594000000E+02  0.51100000000E-03 0. -1.
    9900012    2    1    2    0    0  0.22323929031E+01 -0.15723028103E+02 -0.99236847769E+01  0.72461635955E+02  0.70000085535E+02 0.  0.
        -12    1    1    2    0    0 -0.22323929031E+01  0.15723028103E+02  0.99236847769E+01  0.18726364045E+02  0.00000000000E+00 0.  1.
         11    1    3    3    0    0 -0.12928397255E+02  0.13770291825E+02 -0.45632066679E+01  0.19431604357E+02  0.51100000000E-03 0. -1.
        -11    1    3    3    0    0 -0.11309032323E+02 -0.15714101505E+02  0.71957816531E+01  0.20654454048E+02  0.51100000000E-03 0.  1.
         12    1    3    3    0    0  0.26469822481E+02 -0.13779218423E+02 -0.12556259762E+02  0.32375577550E+02  0.00000000000E+00 0. -1.
</event>
<event>
 7    1  0.1788006E-013  0.7246156E+02  0.7816164E-02  0.1226708E+00
        -11   -1    0    0    0    0  0.00000000000E+00  0.00000000000E+00  0.45593999997E+02  0.45594000000E+02  0.51100000000E-03 0.  1.
         11   -1    0    0    0    0 -0.00000000000E+00 -0.00000000000E+00 -0.45593999997E+02  0.45594000000E+02  0.51100000000E-03 0. -1.
    9900012    2    1    2    0    0 -0.13075450738E+02 -0.20575730352E+01 -0.13246837501E+02  0.72461555527E+02  0.69999980763E+02 0.  0.
        -12    1    1    2    0    0  0.13075450738E+02  0.20575730352E+01  0.13246837501E+02  0.18726444473E+02  0.00000000000E+00 0.  1.
         11    1    3    3    0    0 -0.11777631600E+02 -0.25020087926E+02 -0.27279294582E+02  0.38844270093E+02  0.51100000000E-03 0.  1.
        -11    1    3    3    0    0  0.59755676585E+00  0.20134276247E+01 -0.48912285659E+01  0.53230707335E+01  0.51100000000E-03 0. -1.
        -12    1    3    3    0    0 -0.18953759036E+01  0.20949087266E+02  0.18923685646E+02  0.28294214701E+02  0.00000000000E+00 0.  1.
</event>
<event>
 7    1  0.1788006E-013  0.7246157E+02  0.7816164E-02  0.1226708E+00
        -11   -1    0    0    0    0  0.00000000000E+00  0.00000000000E+00  0.45593999997E+02  0.45594000000E+02  0.51100000000E-03 0.  1.
         11   -1    0    0    0    0 -0.00000000000E+00 -0.00000000000E+00 -0.45593999997E+02  0.45594000000E+02  0.51100000000E-03 0. -1.
    9900012    2    1    2    0    0 -0.85990267568E+01  0.15233201523E+02 -0.66847140556E+01  0.72461572369E+02  0.70000002703E+02 0.  0.
        -12    1    1    2    0    0  0.85990267568E+01 -0.15233201523E+02  0.66847140556E+01  0.18726427631E+02  0.00000000000E+00 0.  1.
         11    1    3    3    0    0  0.13961771905E+02 -0.41327544286E+01 -0.16435249895E+02  0.21957417272E+02  0.51100000000E-03 0. -1.
        -11    1    3    3    0    0 -0.29869026343E+01 -0.11688132512E+02  0.63656007465E+01  0.13640194356E+02  0.51100000000E-03 0.  1.
         12    1    3    3    0    0 -0.19573896027E+02  0.31054088463E+02  0.33849350929E+01  0.36863960741E+02  0.00000000000E+00 0. -1.
</event>
<event>
 7    1  0.1788006E-013  0.7246152E+02  0.7816164E-02  0.1226708E+00
        -11   -1    0    0    0    0  0.00000000000E+00  0.00000000000E+00  0.45593999997E+02  0.45594000000E+02  0.51100000000E-03 0. -1.
         11   -1    0    0    0    0 -0.00000000000E+00 -0.00000000000E+00 -0.45593999997E+02  0.45594000000E+02  0.51100000000E-03 0.  1.
    9900012    2    1    2    0    0 -0.13032149050E+02 -0.10539765275E+02  0.83521016586E+01  0.72461517067E+02  0.69999930662E+02 0.  0.
        -12    1    1    2    0    0  0.13032149050E+02  0.10539765275E+02 -0.83521016586E+01  0.18726482933E+02  0.00000000000E+00 0.  1.
         11    1    3    3    0    0  0.14560522169E+01 -0.61951433149E+01  0.12929871173E+02  0.14411157398E+02  0.51100000000E-03 0. -1.
        -11    1    3    3    0    0 -0.22378903462E+02 -0.26272702090E+02 -0.39514046755E+01  0.34737354453E+02  0.51100000000E-03 0.  1.
         12    1    3    3    0    0  0.78907021952E+01  0.21928080129E+02 -0.62636483870E+00  0.23313005216E+02  0.00000000000E+00 0. -1.
</event>
<event>
 7    1  0.1788006E-013  0.7246164E+02  0.7816164E-02  0.1226708E+00
        -11   -1    0    0    0    0  0.00000000000E+00  0.00000000000E+00  0.45593999997E+02  0.45594000000E+02  0.51100000000E-03 0.  1.
         11   -1    0    0    0    0 -0.00000000000E+00 -0.00000000000E+00 -0.45593999997E+02  0.45594000000E+02  0.51100000000E-03 0. -1.
    9900012    2    1    2    0    0  0.98175252173E+01 -0.12862090806E+02 -0.94265216493E+01  0.72461641793E+02  0.70000093140E+02 0.  0.
        -12    1    1    2    0    0 -0.98175252173E+01  0.12862090806E+02  0.94265216493E+01  0.18726358207E+02  0.00000000000E+00 0.  1.
         11    1    3    3    0    0  0.17937312114E+01 -0.71083157076E+00  0.24088398599E+01  0.30863024661E+01  0.51100000000E-03 0. -1.
        -11    1    3    3    0    0 -0.46122890219E+01  0.26831519666E+02 -0.70067489567E+01  0.28112242686E+02  0.51100000000E-03 0.  1.
         12    1    3    3    0    0  0.12636083028E+02 -0.38982778902E+02 -0.48286125525E+01  0.41263096641E+02  0.00000000000E+00 0. -1.
</event>
<event>
 7    1  0.1788006E-013  0.7246167E+02  0.7816164E-02  0.1226708E+00
        -11   -1    0    0    0    0  0.00000000000E+00  0.00000000000E+00  0.45593999997E+02  0.45594000000E+02  0.51100000000E-03 0. -1.
         11   -1    0    0    0    0 -0.00000000000E+00 -0.00000000000E+00 -0.45593999997E+02  0.45594000000E+02  0.51100000000E-03 0.  1.
    9900012    2    1    2    0    0  0.44449520868E+01  0.18177559153E+02  0.70285576671E+00  0.72461674625E+02  0.70000135910E+02 0.  0.
        -12    1    1    2    0    0 -0.44449520868E+01 -0.18177559153E+02 -0.70285576671E+00  0.18726325375E+02  0.00000000000E+00 0.  1.
         11    1    3    3    0    0 -0.57170059498E+01  0.26473944063E+02  0.94643456490E+01  0.28690202336E+02  0.51100000000E-03 0. -1.
        -11    1    3    3    0    0  0.16740428111E+02  0.35412965598E+01  0.10611502902E+02  0.20134217362E+02  0.51100000000E-03 0.  1.
        -12    1    3    3    0    0 -0.65784700746E+01 -0.11837681470E+02 -0.19372992784E+02  0.23637254928E+02  0.00000000000E+00 0.  1.
</event>
<event>
 7    1  0.1788006E-013  0.7246164E+02  0.7816164E-02  0.1226708E+00
        -11   -1    0    0    0    0  0.00000000000E+00  0.00000000000E+00  0.45593999997E+02  0.45594000000E+02  0.51100000000E-03 0.  1.
         11   -1    0    0    0    0 -0.00000000000E+00 -0.00000000000E+00 -0.45593999997E+02  0.45594000000E+02  0.51100000000E-03 0. -1.
    9900012    2    1    2    0    0  0.62005361907E+01  0.34759204057E+01 -0.17324778339E+02  0.72461638468E+02  0.70000088809E+02 0.  0.
        -12    1    1    2    0    0 -0.62005361907E+01 -0.34759204057E+01  0.17324778339E+02  0.18726361532E+02  0.00000000000E+00 0.  1.
         11    1    3    3    0    0  0.81776619184E+01 -0.21874320260E+01 -0.29844288575E+01  0.89758469899E+01  0.51100000000E-03 0. -1.
        -11    1    3    3    0    0  0.17861395609E+02 -0.32339986471E+01  0.17313008144E+02  0.25084426476E+02  0.51100000000E-03 0.  1.
         12    1    3    3    0    0 -0.19838521337E+02  0.88973510788E+01 -0.31653357626E+02  0.38401365002E+02  0.00000000000E+00 0. -1.
</event>
<event>
 7    1  0.1788006E-013  0.7246137E+02  0.7816164E-02  0.1226709E+00
        -11   -1    0    0    0    0  0.00000000000E+00  0.00000000000E+00  0.45593999997E+02  0.45594000000E+02  0.51100000000E-03 0. -1.
         11   -1    0    0    0    0 -0.00000000000E+00 -0.00000000000E+00 -0.45593999997E+02  0.45594000000E+02  0.51100000000E-03 0.  1.
    9900012    2    1    2    0    0  0.83406361885E+01  0.90998296908E+01  0.14082383651E+02  0.72461370786E+02  0.69999740103E+02 0.  0.
        -12    1    1    2    0    0 -0.83406361885E+01 -0.90998296908E+01 -0.14082383651E+02  0.18726629214E+02  0.00000000000E+00 0.  1.
         11    1    3    3    0    0 -0.87300002547E+01 -0.58297047039E+01 -0.10281524345E+02  0.14693811776E+02  0.51100000000E-03 0. -1.
        -11    1    3    3    0    0  0.26070763709E+02  0.10981372515E+02 -0.32326006865E+01  0.28473232520E+02  0.51100000000E-03 0.  1.
         12    1    3    3    0    0 -0.90001272660E+01  0.39481618795E+01  0.27596508682E+02  0.29294326490E+02  0.00000000000E+00 0. -1.
</event>
<event>
 7    1  0.1788006E-013  0.7246149E+02  0.7816164E-02  0.1226708E+00
        -11   -1    0    0    0    0  0.00000000000E+00  0.00000000000E+00  0.45593999997E+02  0.45594000000E+02  0.51100000000E-03 0. -1.
         11   -1    0    0    0    0 -0.00000000000E+00 -0.00000000000E+00 -0.45593999997E+02  0.45594000000E+02  0.51100000000E-03 0.  1.
    9900012    2    1    2    0    0 -0.10857970181E+02 -0.71898709894E+01  0.13457061409E+02  0.72461487696E+02  0.69999892401E+02 0.  0.
        -12    1    1    2    0    0  0.10857970181E+02  0.71898709894E+01 -0.13457061409E+02  0.18726512304E+02  0.00000000000E+00 0.  1.
         11    1    3    3    0    0 -0.10353033161E+02 -0.16095028385E+02  0.27657402187E+02  0.33632828164E+02  0.51100000000E-03 0. -1.
        -11    1    3    3    0    0  0.13803292062E+02  0.23314439055E+01  0.41955809191E+01  0.14614013889E+02  0.51100000000E-03 0.  1.
        -12    1    3    3    0    0 -0.14308229082E+02  0.65737134904E+01 -0.18395921697E+02  0.24214645643E+02  0.00000000000E+00 0.  1.
</event>
<event>
 7    1  0.1788006E-013  0.7246154E+02  0.7816164E-02  0.1226708E+00
        -11   -1    0    0    0    0  0.00000000000E+00  0.00000000000E+00  0.45593999997E+02  0.45594000000E+02  0.51100000000E-03 0.  1.
         11   -1    0    0    0    0 -0.00000000000E+00 -0.00000000000E+00 -0.45593999997E+02  0.45594000000E+02  0.51100000000E-03 0. -1.
    9900012    2    1    2    0    0  0.34235088713E+01  0.48133134232E+01 -0.17770533447E+02  0.72461541229E+02  0.69999962137E+02 0.  0.
        -12    1    1    2    0    0 -0.34235088713E+01 -0.48133134232E+01  0.17770533447E+02  0.18726458771E+02  0.00000000000E+00 0.  1.
         11    1    3    3    0    0 -0.21044752831E+02 -0.45410825832E+01 -0.15042805739E+02  0.26263835545E+02  0.51100000000E-03 0. -1.
        -11    1    3    3    0    0 -0.91779240253E+01  0.84065340295E+01 -0.11951459740E+01  0.12503298683E+02  0.51100000000E-03 0.  1.
         12    1    3    3    0    0  0.33646185728E+02  0.94786197687E+00 -0.15325817343E+01  0.33694407001E+02  0.00000000000E+00 0. -1.
</event>
<event>
 7    1  0.1788006E-013  0.7246157E+02  0.7816164E-02  0.1226708E+00
        -11   -1    0    0    0    0  0.00000000000E+00  0.00000000000E+00  0.45593999997E+02  0.45594000000E+02  0.51100000000E-03 0.  1.
         11   -1    0    0    0    0 -0.00000000000E+00 -0.00000000000E+00 -0.45593999997E+02  0.45594000000E+02  0.51100000000E-03 0. -1.
    9900012    2    1    2    0    0  0.18718494075E+02 -0.54312147210E+00 -0.45978358914E-01  0.72461571740E+02  0.70000001883E+02 0.  0.
        -12    1    1    2    0    0 -0.18718494075E+02  0.54312147210E+00  0.45978358914E-01  0.18726428260E+02  0.00000000000E+00 0.  1.
         11    1    3    3    0    0  0.72774996062E+01  0.10181252288E+02 -0.63176323782E+01  0.14019000599E+02  0.51100000000E-03 0. -1.
        -11    1    3    3    0    0  0.27850000516E+02  0.67354370692E+01 -0.89952209044E+01  0.30031693935E+02  0.51100000000E-03 0.  1.
         12    1    3    3    0    0 -0.16409006047E+02 -0.17459810829E+02  0.15266874924E+02  0.28410877205E+02  0.00000000000E+00 0. -1.
</event>
<event>
 7    1  0.1788006E-013  0.7246158E+02  0.7816164E-02  0.1226708E+00
        -11   -1    0    0    0    0  0.00000000000E+00  0.00000000000E+00  0.45593999997E+02  0.45594000000E+02  0.51100000000E-03 0. -1.
         11   -1    0    0    0    0 -0.00000000000E+00 -0.00000000000E+00 -0.45593999997E+02  0.45594000000E+02  0.51100000000E-03 0.  1.
    9900012    2    1    2    0    0  0.35480357384E+01  0.98195969192E+01  0.15545604927E+02  0.72461578190E+02  0.70000010286E+02 0.  0.
        -12    1    1    2    0    0 -0.35480357384E+01 -0.98195969192E+01 -0.15545604927E+02  0.18726421810E+02  0.00000000000E+00 0.  1.
         11    1    3    3    0    0 -0.55464095314E+01 -0.11718182135E+01  0.83943864429E+01  0.10129241859E+02  0.51100000000E-03 0. -1.
        -11    1    3    3    0    0 -0.15709848926E+01  0.32215095790E+02 -0.91473198474E+01  0.33525420966E+02  0.51100000000E-03 0.  1.
         12    1    3    3    0    0  0.10665430162E+02 -0.21223680657E+02  0.16298538331E+02  0.28806915366E+02  0.00000000000E+00 0. -1.
</event>
<event>
 7    1  0.1788006E-013  0.7246155E+02  0.7816164E-02  0.1226708E+00
        -11   -1    0    0    0    0  0.00000000000E+00  0.00000000000E+00  0.45593999997E+02  0.45594000000E+02  0.51100000000E-03 0.  1.
         11   -1    0    0    0    0 -0.00000000000E+00 -0.00000000000E+00 -0.45593999997E+02  0.45594000000E+02  0.51100000000E-03 0. -1.
    9900012    2    1    2    0    0 -0.51993715188E+01  0.35838342332E+01 -0.17629594027E+02  0.72461550322E+02  0.69999973982E+02 0.  0.
        -12    1    1    2    0    0  0.51993715188E+01 -0.35838342332E+01  0.17629594027E+02  0.18726449678E+02  0.00000000000E+00 0.  1.
         11    1    3    3    0    0 -0.28890870510E+01 -0.11324713695E+02 -0.82843252473E+01  0.14325711477E+02  0.51100000000E-03 0. -1.
        -11    1    3    3    0    0  0.15721409289E+02 -0.59418617305E+01 -0.22097853845E+02  0.27762989315E+02  0.51100000000E-03 0.  1.
         12    1    3    3    0    0 -0.18031693757E+02  0.20850409659E+02  0.12752585066E+02  0.30372849530E+02  0.00000000000E+00 0. -1.
</event>
<event>
 7    1  0.1804912E-013  0.7246159E+02  0.7816164E-02  0.1226708E+00
        -11   -1    0    0    0    0  0.00000000000E+00  0.00000000000E+00  0.45593999997E+02  0.45594000000E+02  0.51100000000E-03 0. -1.
         11   -1    0    0    0    0 -0.00000000000E+00 -0.00000000000E+00 -0.45593999997E+02  0.45594000000E+02  0.51100000000E-03 0.  1.
    9900012    2    1    2    0    0  0.47321473687E+01  0.17843407721E+02 -0.31461010804E+01  0.72461591646E+02  0.70000027815E+02 0.  0.
        -12    1    1    2    0    0 -0.47321473687E+01 -0.17843407721E+02  0.31461010804E+01  0.18726408354E+02  0.00000000000E+00 0.  1.
         11    1    3    3    0    0  0.99354642732E+01 -0.20884471708E+01  0.54532956124E+01  0.11524473750E+02  0.51100000000E-03 0. -1.
        -11    1    3    3    0    0 -0.39101135862E+01 -0.51072419831E+01  0.21106386304E+02  0.22064733218E+02  0.51100000000E-03 0.  1.
         12    1    3    3    0    0 -0.12932033183E+01  0.25039096875E+02 -0.29705782997E+02  0.38872384678E+02  0.00000000000E+00 0. -1.
</event>
<event>
 7    1  0.1788006E-013  0.7246184E+02  0.7816164E-02  0.1226707E+00
        -11   -1    0    0    0    0  0.00000000000E+00  0.00000000000E+00  0.45593999997E+02  0.45594000000E+02  0.51100000000E-03 0.  1.
         11   -1    0    0    0    0 -0.00000000000E+00 -0.00000000000E+00 -0.45593999997E+02  0.45594000000E+02  0.51100000000E-03 0. -1.
    9900012    2    1    2    0    0 -0.99056196114E+01  0.45968532625E+01 -0.15212386999E+02  0.72461839742E+02  0.70000351005E+02 0.  0.
        -12    1    1    2    0    0  0.99056196114E+01 -0.45968532625E+01  0.15212386999E+02  0.18726160258E+02  0.00000000000E+00 0.  1.
         11    1    3    3    0    0 -0.11081937119E+02  0.15487882798E+02  0.10695690213E+02  0.21842198453E+02  0.51100000000E-03 0. -1.
        -11    1    3    3    0    0  0.19573468737E+02 -0.10993949937E+02 -0.54415373075E+01  0.23099739006E+02  0.51100000000E-03 0.  1.
         12    1    3    3    0    0 -0.18397151230E+02  0.10292040120E+00 -0.20466539905E+02  0.27519902283E+02  0.00000000000E+00 0. -1.
</event>
<event>
 7    1  0.1788006E-013  0.7246156E+02  0.7816164E-02  0.1226708E+00
        -11   -1    0    0    0    0  0.00000000000E+00  0.00000000000E+00  0.45593999997E+02  0.45594000000E+02  0.51100000000E-03 0.  1.
         11   -1    0    0    0    0 -0.00000000000E+00 -0.00000000000E+00 -0.45593999997E+02  0.45594000000E+02  0.51100000000E-03 0. -1.
    9900012    2    1    2    0    0  0.12851968932E+02  0.10408164912E+02 -0.87850250178E+01  0.72461557017E+02  0.69999982703E+02 0.  0.
        -12    1    1    2    0    0 -0.12851968932E+02 -0.10408164912E+02  0.87850250178E+01  0.18726442983E+02  0.00000000000E+00 0.  1.
         11    1    3    3    0    0  0.11328674254E+02  0.17626828391E+02 -0.86905920322E+01  0.22684142691E+02  0.51100000000E-03 0. -1.
        -11    1    3    3    0    0 -0.48170046562E+01 -0.60573097851E+01 -0.23896259685E+02  0.25118235664E+02  0.51100000000E-03 0.  1.
        -12    1    3    3    0    0  0.63402993334E+01 -0.11613536941E+01  0.23801826699E+02  0.24659178662E+02  0.00000000000E+00 0.  1.
</event>
<event>
 7    1  0.1788006E-013  0.7246167E+02  0.7816164E-02  0.1226708E+00
        -11   -1    0    0    0    0  0.00000000000E+00  0.00000000000E+00  0.45593999997E+02  0.45594000000E+02  0.51100000000E-03 0. -1.
         11   -1    0    0    0    0 -0.00000000000E+00 -0.00000000000E+00 -0.45593999997E+02  0.45594000000E+02  0.51100000000E-03 0.  1.
    9900012    2    1    2    0    0  0.30615076346E+01 -0.60381697131E+01  0.17459752032E+02  0.72461674586E+02  0.70000135859E+02 0.  0.
        -12    1    1    2    0    0 -0.30615076346E+01  0.60381697131E+01 -0.17459752032E+02  0.18726325414E+02  0.00000000000E+00 0.  1.
         11    1    3    3    0    0  0.99220801707E+01  0.64595173572E+01 -0.14759294081E+02  0.18921146938E+02  0.51100000000E-03 0. -1.
        -11    1    3    3    0    0  0.56623648593E+01  0.60681146657E+01 -0.52990484731E+01  0.98470455659E+01  0.51100000000E-03 0.  1.
         12    1    3    3    0    0 -0.12522937395E+02 -0.18565801736E+02  0.37518094586E+02  0.43693482083E+02  0.00000000000E+00 0. -1.
</event>
<event>
 7    1  0.1788006E-013  0.7246153E+02  0.7816164E-02  0.1226708E+00
        -11   -1    0    0    0    0  0.00000000000E+00  0.00000000000E+00  0.45593999997E+02  0.45594000000E+02  0.51100000000E-03 0. -1.
         11   -1    0    0    0    0 -0.00000000000E+00 -0.00000000000E+00 -0.45593999997E+02  0.45594000000E+02  0.51100000000E-03 0.  1.
    9900012    2    1    2    0    0 -0.12603259284E+02 -0.10771808300E+02  0.87067104202E+01  0.72461526628E+02  0.69999943116E+02 0.  0.
        -12    1    1    2    0    0  0.12603259284E+02  0.10771808300E+02 -0.87067104202E+01  0.18726473372E+02  0.00000000000E+00 0.  1.
         11    1    3    3    0    0  0.13337299291E+02 -0.18564431735E+02  0.12370724300E+02  0.25991469716E+02  0.51100000000E-03 0. -1.
        -11    1    3    3    0    0 -0.50750687878E+01 -0.11577916510E+02  0.87874159950E+01  0.15395556308E+02  0.51100000000E-03 0.  1.
        -12    1    3    3    0    0 -0.20865489787E+02  0.19370539945E+02 -0.12451429875E+02  0.31074500603E+02  0.00000000000E+00 0.  1.
</event>
<event>
 7    1  0.1788006E-013  0.7246156E+02  0.7816164E-02  0.1226708E+00
        -11   -1    0    0    0    0  0.00000000000E+00  0.00000000000E+00  0.45593999997E+02  0.45594000000E+02  0.51100000000E-03 0. -1.
         11   -1    0    0    0    0 -0.00000000000E+00 -0.00000000000E+00 -0.45593999997E+02  0.45594000000E+02  0.51100000000E-03 0.  1.
    9900012    2    1    2    0    0 -0.99101060455E+01 -0.12516093385E+02  0.97886011072E+01  0.72461561281E+02  0.69999988258E+02 0.  0.
        -12    1    1    2    0    0  0.99101060455E+01  0.12516093385E+02 -0.97886011072E+01  0.18726438719E+02  0.00000000000E+00 0.  1.
         11    1    3    3    0    0 -0.16553917552E+02 -0.21006282880E+02  0.21872488313E+02  0.34549990622E+02  0.51100000000E-03 0. -1.
        -11    1    3    3    0    0 -0.13505382338E+02  0.29141650340E+00 -0.11294068033E+01  0.13555656962E+02  0.51100000000E-03 0.  1.
        -12    1    3    3    0    0  0.20149193844E+02  0.81987729915E+01 -0.10954480402E+02  0.24355913697E+02  0.00000000000E+00 0.  1.
</event>
<event>
 7    1  0.1788006E-013  0.7246158E+02  0.7816164E-02  0.1226708E+00
        -11   -1    0    0    0    0  0.00000000000E+00  0.00000000000E+00  0.45593999997E+02  0.45594000000E+02  0.51100000000E-03 0. -1.
         11   -1    0    0    0    0 -0.00000000000E+00 -0.00000000000E+00 -0.45593999997E+02  0.45594000000E+02  0.51100000000E-03 0.  1.
    9900012    2    1    2    0    0  0.16844655336E+02  0.41030581673E+01  0.70782278264E+01  0.72461579923E+02  0.70000012543E+02 0.  0.
        -12    1    1    2    0    0 -0.16844655336E+02 -0.41030581673E+01 -0.70782278264E+01  0.18726420077E+02  0.00000000000E+00 0.  1.
         11    1    3    3    0    0 -0.15085164698E+02  0.10692049265E+02 -0.76500921927E+00  0.18505873415E+02  0.51100000000E-03 0. -1.
        -11    1    3    3    0    0 -0.51326010167E+01 -0.14566536050E+02  0.14938329558E+01  0.15516413982E+02  0.51100000000E-03 0.  1.
        -12    1    3    3    0    0  0.37062421051E+02  0.79775449523E+01  0.63494040898E+01  0.38439292527E+02  0.00000000000E+00 0.  1.
</event>
<event>
 7    1  0.1788006E-013  0.7246156E+02  0.7816164E-02  0.1226708E+00
        -11   -1    0    0    0    0  0.00000000000E+00  0.00000000000E+00  0.45593999997E+02  0.45594000000E+02  0.51100000000E-03 0. -1.
         11   -1    0    0    0    0 -0.00000000000E+00 -0.00000000000E+00 -0.45593999997E+02  0.45594000000E+02  0.51100000000E-03 0.  1.
    9900012    2    1    2    0    0  0.16186227285E+02  0.79330353905E+01 -0.50746857828E+01  0.72461563072E+02  0.69999990592E+02 0.  0.
        -12    1    1    2    0    0 -0.16186227285E+02 -0.79330353905E+01  0.50746857828E+01  0.18726436928E+02  0.00000000000E+00 0.  1.
         11    1    3    3    0    0 -0.16448490127E+02 -0.17400853139E+02 -0.15567513125E+02  0.28560286808E+02  0.51100000000E-03 0.  1.
        -11    1    3    3    0    0  0.14637850150E+02  0.77104129768E+01  0.85880393160E+01  0.18640588640E+02  0.51100000000E-03 0. -1.
        -12    1    3    3    0    0  0.17996867261E+02  0.17623475553E+02  0.19047880262E+01  0.25260687623E+02  0.00000000000E+00 0.  1.
</event>
<event>
 7    1  0.1788006E-013  0.7246165E+02  0.7816164E-02  0.1226708E+00
        -11   -1    0    0    0    0  0.00000000000E+00  0.00000000000E+00  0.45593999997E+02  0.45594000000E+02  0.51100000000E-03 0.  1.
         11   -1    0    0    0    0 -0.00000000000E+00 -0.00000000000E+00 -0.45593999997E+02  0.45594000000E+02  0.51100000000E-03 0. -1.
    9900012    2    1    2    0    0 -0.73194961676E+01 -0.90206154691E+01 -0.14687732117E+02  0.72461654860E+02  0.70000110162E+02 0.  0.
        -12    1    1    2    0    0  0.73194961676E+01  0.90206154691E+01  0.14687732117E+02  0.18726345140E+02  0.00000000000E+00 0.  1.
         11    1    3    3    0    0 -0.14978720875E+02  0.87653281596E+01 -0.17881472830E+02  0.24918670262E+02  0.51100000000E-03 0. -1.
        -11    1    3    3    0    0 -0.11880799746E+02  0.72736878557E+01  0.69080870825E+01  0.15549328122E+02  0.51100000000E-03 0.  1.
         12    1    3    3    0    0  0.19540024453E+02 -0.25059631484E+02 -0.37143463690E+01  0.31993656476E+02  0.00000000000E+00 0. -1.
</event>
<event>
 7    1  0.1788006E-013  0.7246158E+02  0.7816164E-02  0.1226708E+00
        -11   -1    0    0    0    0  0.00000000000E+00  0.00000000000E+00  0.45593999997E+02  0.45594000000E+02  0.51100000000E-03 0.  1.
         11   -1    0    0    0    0 -0.00000000000E+00 -0.00000000000E+00 -0.45593999997E+02  0.45594000000E+02  0.51100000000E-03 0. -1.
    9900012    2    1    2    0    0  0.87330172439E+01 -0.12568497854E+02  0.10791024981E+02  0.72461576192E+02  0.70000007683E+02 0.  0.
        -12    1    1    2    0    0 -0.87330172439E+01  0.12568497854E+02 -0.10791024981E+02  0.18726423808E+02  0.00000000000E+00 0.  1.
         11    1    3    3    0    0 -0.92629952672E+01 -0.55565687652E+01 -0.21513098836E+02  0.24072639231E+02  0.51100000000E-03 0. -1.
        -11    1    3    3    0    0 -0.28131887109E+01 -0.10326477805E+02  0.11313075210E+01  0.10762436134E+02  0.51100000000E-03 0.  1.
        -12    1    3    3    0    0  0.20809201222E+02  0.33145487160E+01  0.31172816296E+02  0.37626500827E+02  0.00000000000E+00 0.  1.
</event>
<event>
 7    1  0.1788006E-013  0.7246141E+02  0.7816164E-02  0.1226708E+00
        -11   -1    0    0    0    0  0.00000000000E+00  0.00000000000E+00  0.45593999997E+02  0.45594000000E+02  0.51100000000E-03 0.  1.
         11   -1    0    0    0    0 -0.00000000000E+00 -0.00000000000E+00 -0.45593999997E+02  0.45594000000E+02  0.51100000000E-03 0. -1.
    9900012    2    1    2    0    0 -0.38776411571E+01  0.17251825082E+02  0.61663284871E+01  0.72461409904E+02  0.69999791062E+02 0.  0.
        -12    1    1    2    0    0  0.38776411571E+01 -0.17251825082E+02 -0.61663284871E+01  0.18726590096E+02  0.00000000000E+00 0.  1.
         11    1    3    3    0    0  0.18645653976E+02  0.23190356461E+02  0.14719316262E+02  0.33198061938E+02  0.51100000000E-03 0. -1.
        -11    1    3    3    0    0 -0.91520572742E+01  0.43990786720E+01  0.99405326332E+01  0.14210075116E+02  0.51100000000E-03 0.  1.
        -12    1    3    3    0    0 -0.13371237858E+02 -0.10337610051E+02 -0.18493520408E+02  0.25053272850E+02  0.00000000000E+00 0.  1.
</event>
<event>
 7    1  0.1788006E-013  0.7246158E+02  0.7816164E-02  0.1226708E+00
        -11   -1    0    0    0    0  0.00000000000E+00  0.00000000000E+00  0.45593999997E+02  0.45594000000E+02  0.51100000000E-03 0. -1.
         11   -1    0    0    0    0 -0.00000000000E+00 -0.00000000000E+00 -0.45593999997E+02  0.45594000000E+02  0.51100000000E-03 0.  1.
    9900012    2    1    2    0    0 -0.12867583126E+02  0.30292911704E+01  0.13263761443E+02  0.72461583681E+02  0.70000017439E+02 0.  0.
        -12    1    1    2    0    0  0.12867583126E+02 -0.30292911704E+01 -0.13263761443E+02  0.18726416319E+02  0.00000000000E+00 0.  1.
         11    1    3    3    0    0  0.73353966835E+01 -0.15635213851E+02  0.24072015483E+02  0.29626506482E+02  0.51100000000E-03 0. -1.
        -11    1    3    3    0    0  0.13087711992E+01  0.16924664144E+02  0.29656282141E+01  0.17232297856E+02  0.51100000000E-03 0.  1.
        -12    1    3    3    0    0 -0.21511751009E+02  0.17398408773E+01 -0.13773882254E+02  0.25602779343E+02  0.00000000000E+00 0.  1.
</event>
<event>
 7    1  0.1788006E-013  0.7246170E+02  0.7816164E-02  0.1226708E+00
        -11   -1    0    0    0    0  0.00000000000E+00  0.00000000000E+00  0.45593999997E+02  0.45594000000E+02  0.51100000000E-03 0.  1.
         11   -1    0    0    0    0 -0.00000000000E+00 -0.00000000000E+00 -0.45593999997E+02  0.45594000000E+02  0.51100000000E-03 0. -1.
    9900012    2    1    2    0    0  0.16150190736E+02 -0.62102533695E+01 -0.71609021128E+01  0.72461696927E+02  0.70000164962E+02 0.  0.
        -12    1    1    2    0    0 -0.16150190736E+02  0.62102533695E+01  0.71609021128E+01  0.18726303073E+02  0.00000000000E+00 0.  1.
         11    1    3    3    0    0  0.42023633307E+01  0.14131776700E+01 -0.27717638978E+02  0.28069991796E+02  0.51100000000E-03 0. -1.
        -11    1    3    3    0    0  0.11939264346E+02 -0.13785675965E+02 -0.43377656750E+01  0.18745855709E+02  0.51100000000E-03 0.  1.
         12    1    3    3    0    0  0.85630588417E-02  0.61622449259E+01  0.24894502540E+02  0.25645849422E+02  0.00000000000E+00 0. -1.
</event>
<event>
 7    1  0.1788006E-013  0.7246156E+02  0.7816164E-02  0.1226708E+00
        -11   -1    0    0    0    0  0.00000000000E+00  0.00000000000E+00  0.45593999997E+02  0.45594000000E+02  0.51100000000E-03 0. -1.
         11   -1    0    0    0    0 -0.00000000000E+00 -0.00000000000E+00 -0.45593999997E+02  0.45594000000E+02  0.51100000000E-03 0.  1.
    9900012    2    1    2    0    0  0.70766241630E+01 -0.69712856703E+01  0.15874579931E+02  0.72461555558E+02  0.69999980803E+02 0.  0.
        -12    1    1    2    0    0 -0.70766241630E+01  0.69712856703E+01 -0.15874579931E+02  0.18726444442E+02  0.00000000000E+00 0.  1.
         11    1    3    3    0    0 -0.14898298916E+02 -0.83532099026E+00 -0.23096344905E+01  0.15099386858E+02  0.51100000000E-03 0. -1.
        -11    1    3    3    0    0  0.12061787558E+02  0.21572688103E+02  0.55217199636E+01  0.25325026805E+02  0.51100000000E-03 0.  1.
        -12    1    3    3    0    0  0.99131355209E+01 -0.27708652783E+02  0.12662494458E+02  0.32037141895E+02  0.00000000000E+00 0.  1.
</event>
<event>
 7    1  0.1788006E-013  0.7246161E+02  0.7816164E-02  0.1226708E+00
        -11   -1    0    0    0    0  0.00000000000E+00  0.00000000000E+00  0.45593999997E+02  0.45594000000E+02  0.51100000000E-03 0. -1.
         11   -1    0    0    0    0 -0.00000000000E+00 -0.00000000000E+00 -0.45593999997E+02  0.45594000000E+02  0.51100000000E-03 0.  1.
    9900012    2    1    2    0    0  0.78313398472E+01 -0.76139160049E+01  0.15211047884E+02  0.72461612776E+02  0.70000055340E+02 0.  0.
        -12    1    1    2    0    0 -0.78313398472E+01  0.76139160049E+01 -0.15211047884E+02  0.18726387224E+02  0.00000000000E+00 0.  1.
         11    1    3    3    0    0 -0.76430586779E+01 -0.14580496290E+02  0.24414382512E+02  0.29446040340E+02  0.51100000000E-03 0. -1.
        -11    1    3    3    0    0  0.74650960171E+01 -0.15638268481E+02 -0.70440791993E-03  0.17328678552E+02  0.51100000000E-03 0.  1.
        -12    1    3    3    0    0  0.80093025079E+01  0.22604848766E+02 -0.92026302197E+01  0.25686893883E+02  0.00000000000E+00 0.  1.
</event>
<event>
 7    1  0.1788006E-013  0.7246164E+02  0.7816164E-02  0.1226708E+00
        -11   -1    0    0    0    0  0.00000000000E+00  0.00000000000E+00  0.45593999997E+02  0.45594000000E+02  0.51100000000E-03 0.  1.
         11   -1    0    0    0    0 -0.00000000000E+00 -0.00000000000E+00 -0.45593999997E+02  0.45594000000E+02  0.51100000000E-03 0. -1.
    9900012    2    1    2    0    0 -0.16853166643E+02  0.39470809913E+01 -0.71461671312E+01  0.72461644805E+02  0.70000097064E+02 0.  0.
        -12    1    1    2    0    0  0.16853166643E+02 -0.39470809913E+01  0.71461671312E+01  0.18726355195E+02  0.00000000000E+00 0.  1.
         11    1    3    3    0    0 -0.11248542327E+02 -0.44782929853E+01  0.11611774475E+02  0.16775521431E+02  0.51100000000E-03 0. -1.
        -11    1    3    3    0    0  0.75986115964E+01 -0.17594700610E+02  0.28526318532E+01  0.19376529527E+02  0.51100000000E-03 0.  1.
         12    1    3    3    0    0 -0.13203235912E+02  0.26020074587E+02 -0.21610573460E+02  0.36309593847E+02  0.00000000000E+00 0. -1.
</event>
<event>
 7    1  0.1788006E-013  0.7246164E+02  0.7816164E-02  0.1226708E+00
        -11   -1    0    0    0    0  0.00000000000E+00  0.00000000000E+00  0.45593999997E+02  0.45594000000E+02  0.51100000000E-03 0. -1.
         11   -1    0    0    0    0 -0.00000000000E+00 -0.00000000000E+00 -0.45593999997E+02  0.45594000000E+02  0.51100000000E-03 0.  1.
    9900012    2    1    2    0    0  0.11481915885E+02  0.88757027094E+01  0.11834871474E+02  0.72461636931E+02  0.70000086807E+02 0.  0.
        -12    1    1    2    0    0 -0.11481915885E+02 -0.88757027094E+01 -0.11834871474E+02  0.18726363069E+02  0.00000000000E+00 0.  1.
         11    1    3    3    0    0  0.35154710570E+01 -0.25873699722E+02  0.13699792479E+01  0.26147346279E+02  0.51100000000E-03 0. -1.
        -11    1    3    3    0    0  0.43409646454E+01  0.52843071006E+01  0.14808098768E+02  0.16310967629E+02  0.51100000000E-03 0.  1.
        -12    1    3    3    0    0  0.36254801826E+01  0.29465095330E+02 -0.43432065419E+01  0.30003323023E+02  0.00000000000E+00 0.  1.
</event>
<event>
 7    1  0.1788006E-013  0.7246155E+02  0.7816164E-02  0.1226708E+00
        -11   -1    0    0    0    0  0.00000000000E+00  0.00000000000E+00  0.45593999997E+02  0.45594000000E+02  0.51100000000E-03 0.  1.
         11   -1    0    0    0    0 -0.00000000000E+00 -0.00000000000E+00 -0.45593999997E+02  0.45594000000E+02  0.51100000000E-03 0. -1.
    9900012    2    1    2    0    0 -0.10277705573E+01 -0.98510917367E+01 -0.15892749413E+02  0.72461553337E+02  0.69999977910E+02 0.  0.
        -12    1    1    2    0    0  0.10277705573E+01  0.98510917367E+01  0.15892749413E+02  0.18726446663E+02  0.00000000000E+00 0.  1.
         11    1    3    3    0    0 -0.53566014490E+01 -0.30372275191E+02 -0.28073919628E+02  0.41705074547E+02  0.51100000000E-03 0.  1.
        -11    1    3    3    0    0  0.90505215723E+01  0.11689399460E+02 -0.25934112369E+00  0.14785846561E+02  0.51100000000E-03 0. -1.
        -12    1    3    3    0    0 -0.47216906805E+01  0.88317839949E+01  0.12440511339E+02  0.15970632229E+02  0.00000000000E+00 0.  1.
</event>
<event>
 7    1  0.1788006E-013  0.7246137E+02  0.7816164E-02  0.1226709E+00
        -11   -1    0    0    0    0  0.00000000000E+00  0.00000000000E+00  0.45593999997E+02  0.45594000000E+02  0.51100000000E-03 0.  1.
         11   -1    0    0    0    0 -0.00000000000E+00 -0.00000000000E+00 -0.45593999997E+02  0.45594000000E+02  0.51100000000E-03 0. -1.
    9900012    2    1    2    0    0 -0.11154224909E+02  0.12706317656E+02 -0.80510603809E+01  0.72461366161E+02  0.69999734077E+02 0.  0.
        -12    1    1    2    0    0  0.11154224909E+02 -0.12706317656E+02  0.80510603809E+01  0.18726633839E+02  0.00000000000E+00 0.  1.
         11    1    3    3    0    0  0.43547035238E+01  0.19561937927E+02 -0.40779892099E+01  0.20451475607E+02  0.51100000000E-03 0. -1.
        -11    1    3    3    0    0  0.43649874801E+01  0.17191604614E+02  0.68137710177E+01  0.19000838420E+02  0.51100000000E-03 0.  1.
         12    1    3    3    0    0 -0.19873915913E+02 -0.24047224885E+02 -0.10786842189E+02  0.33009052134E+02  0.00000000000E+00 0. -1.
</event>
<event>
 7    1  0.1788006E-013  0.7246152E+02  0.7816164E-02  0.1226708E+00
        -11   -1    0    0    0    0  0.00000000000E+00  0.00000000000E+00  0.45593999997E+02  0.45594000000E+02  0.51100000000E-03 0.  1.
         11   -1    0    0    0    0 -0.00000000000E+00 -0.00000000000E+00 -0.45593999997E+02  0.45594000000E+02  0.51100000000E-03 0. -1.
    9900012    2    1    2    0    0  0.11727084541E+02  0.13285743943E+02  0.60535505728E+01  0.72461521994E+02  0.69999937080E+02 0.  0.
        -12    1    1    2    0    0 -0.11727084541E+02 -0.13285743943E+02 -0.60535505728E+01  0.18726478006E+02  0.00000000000E+00 0.  1.
         11    1    3    3    0    0 -0.14204729704E+02 -0.97831355776E+00 -0.39196108117E+01  0.14768032792E+02  0.51100000000E-03 0. -1.
        -11    1    3    3    0    0 -0.52838743670E+01 -0.13837251887E+02  0.31204199571E+01  0.15136904871E+02  0.51100000000E-03 0.  1.
         12    1    3    3    0    0  0.31215688612E+02  0.28101309388E+02  0.68527414273E+01  0.42556584331E+02  0.00000000000E+00 0. -1.
</event>
<event>
 7    1  0.1788006E-013  0.7246166E+02  0.7816164E-02  0.1226708E+00
        -11   -1    0    0    0    0  0.00000000000E+00  0.00000000000E+00  0.45593999997E+02  0.45594000000E+02  0.51100000000E-03 0.  1.
         11   -1    0    0    0    0 -0.00000000000E+00 -0.00000000000E+00 -0.45593999997E+02  0.45594000000E+02  0.51100000000E-03 0. -1.
    9900012    2    1    2    0    0 -0.18603868259E+02  0.20511491679E+01 -0.60395439591E+00  0.72461657911E+02  0.70000114137E+02 0.  0.
        -12    1    1    2    0    0  0.18603868259E+02 -0.20511491679E+01  0.60395439591E+00  0.18726342089E+02  0.00000000000E+00 0.  1.
         11    1    3    3    0    0 -0.24773278998E+02 -0.70988962052E+01 -0.17563324910E+02  0.31186215894E+02  0.51100000000E-03 0. -1.
        -11    1    3    3    0    0 -0.32777681821E+01 -0.70562613400E+01 -0.72596122459E+01  0.10641266775E+02  0.51100000000E-03 0.  1.
        -12    1    3    3    0    0  0.94471789214E+01  0.16206306713E+02  0.24218982760E+02  0.30634175242E+02  0.00000000000E+00 0.  1.
</event>
<event>
 7    1  0.1788006E-013  0.7246155E+02  0.7816164E-02  0.1226708E+00
        -11   -1    0    0    0    0  0.00000000000E+00  0.00000000000E+00  0.45593999997E+02  0.45594000000E+02  0.51100000000E-03 0.  1.
         11   -1    0    0    0    0 -0.00000000000E+00 -0.00000000000E+00 -0.45593999997E+02  0.45594000000E+02  0.51100000000E-03 0. -1.
    9900012    2    1    2    0    0  0.47506505547E+01  0.15575852280E+02 -0.92468327634E+01  0.72461554232E+02  0.69999979076E+02 0.  0.
        -12    1    1    2    0    0 -0.47506505547E+01 -0.15575852280E+02  0.92468327634E+01  0.18726445768E+02  0.00000000000E+00 0.  1.
         11    1    3    3    0    0 -0.95193552339E+01  0.94417426735E+01  0.11089271052E+02  0.17399326467E+02  0.51100000000E-03 0. -1.
        -11    1    3    3    0    0  0.18706021777E+02  0.93348004935E+00  0.11846719498E+02  0.22161484581E+02  0.51100000000E-03 0.  1.
         12    1    3    3    0    0 -0.44360159883E+01  0.52006295570E+01 -0.32182823313E+02  0.32900743184E+02  0.00000000000E+00 0. -1.
</event>
<event>
 7    1  0.1788006E-013  0.7246156E+02  0.7816164E-02  0.1226708E+00
        -11   -1    0    0    0    0  0.00000000000E+00  0.00000000000E+00  0.45593999997E+02  0.45594000000E+02  0.51100000000E-03 0.  1.
         11   -1    0    0    0    0 -0.00000000000E+00 -0.00000000000E+00 -0.45593999997E+02  0.45594000000E+02  0.51100000000E-03 0. -1.
    9900012    2    1    2    0    0 -0.94215637101E+01  0.15532308249E+02 -0.45454484528E+01  0.72461559764E+02  0.69999986282E+02 0.  0.
        -12    1    1    2    0    0  0.94215637101E+01 -0.15532308249E+02  0.45454484528E+01  0.18726440236E+02  0.00000000000E+00 0.  1.
         11    1    3    3    0    0  0.26345816817E+01  0.53426813373E+01 -0.74315841652E+01  0.95243744139E+01  0.51100000000E-03 0.  1.
        -11    1    3    3    0    0  0.88506102798E+01  0.31656744572E+02  0.25555396653E+01  0.32969888724E+02  0.51100000000E-03 0. -1.
        -12    1    3    3    0    0 -0.20906755672E+02 -0.21467117660E+02  0.33059604702E+00  0.29967296627E+02  0.00000000000E+00 0.  1.
</event>
<event>
 7    1  0.1788006E-013  0.7246158E+02  0.7816164E-02  0.1226708E+00
        -11   -1    0    0    0    0  0.00000000000E+00  0.00000000000E+00  0.45593999997E+02  0.45594000000E+02  0.51100000000E-03 0. -1.
         11   -1    0    0    0    0 -0.00000000000E+00 -0.00000000000E+00 -0.45593999997E+02  0.45594000000E+02  0.51100000000E-03 0.  1.
    9900012    2    1    2    0    0 -0.16798922256E+02  0.74635312217E+01  0.35735896181E+01  0.72461584699E+02  0.70000018765E+02 0.  0.
        -12    1    1    2    0    0  0.16798922256E+02 -0.74635312217E+01 -0.35735896181E+01  0.18726415301E+02  0.00000000000E+00 0.  1.
         11    1    3    3    0    0 -0.92503344409E+01  0.19582131166E+02 -0.26162338318E+01  0.21814518744E+02  0.51100000000E-03 0. -1.
        -11    1    3    3    0    0  0.11322596669E+02 -0.24688695056E+01  0.21551984317E+02  0.24470074381E+02  0.51100000000E-03 0.  1.
         12    1    3    3    0    0 -0.18871184484E+02 -0.96497304391E+01 -0.15362160867E+02  0.26176991574E+02  0.00000000000E+00 0. -1.
</event>
<event>
 7    1  0.1788006E-013  0.7246157E+02  0.7816164E-02  0.1226708E+00
        -11   -1    0    0    0    0  0.00000000000E+00  0.00000000000E+00  0.45593999997E+02  0.45594000000E+02  0.51100000000E-03 0.  1.
         11   -1    0    0    0    0 -0.00000000000E+00 -0.00000000000E+00 -0.45593999997E+02  0.45594000000E+02  0.51100000000E-03 0. -1.
    9900012    2    1    2    0    0 -0.44330988099E+01  0.68515090134E+01 -0.16854776845E+02  0.72461573664E+02  0.70000004390E+02 0.  0.
        -12    1    1    2    0    0  0.44330988099E+01 -0.68515090134E+01  0.16854776845E+02  0.18726426336E+02  0.00000000000E+00 0.  1.
         11    1    3    3    0    0  0.65603869866E+01  0.66670667773E+01 -0.21495975642E+02  0.23442811817E+02  0.51100000000E-03 0. -1.
        -11    1    3    3    0    0  0.12448611397E+02 -0.13461571425E+02  0.10695373296E+02  0.21226701137E+02  0.51100000000E-03 0.  1.
         12    1    3    3    0    0 -0.23442097194E+02  0.13646013661E+02 -0.60541744990E+01  0.27792060711E+02  0.00000000000E+00 0. -1.
</event>
<event>
 7    1  0.1788006E-013  0.7246150E+02  0.7816164E-02  0.1226708E+00
        -11   -1    0    0    0    0  0.00000000000E+00  0.00000000000E+00  0.45593999997E+02  0.45594000000E+02  0.51100000000E-03 0.  1.
         11   -1    0    0    0    0 -0.00000000000E+00 -0.00000000000E+00 -0.45593999997E+02  0.45594000000E+02  0.51100000000E-03 0. -1.
    9900012    2    1    2    0    0 -0.89220313292E+01 -0.11700012509E+02 -0.11583988178E+02  0.72461502253E+02  0.69999911364E+02 0.  0.
        -12    1    1    2    0    0  0.89220313292E+01  0.11700012509E+02  0.11583988178E+02  0.18726497747E+02  0.00000000000E+00 0.  1.
         11    1    3    3    0    0  0.33608556998E+01  0.17966785477E+02 -0.58987326104E+01  0.19206659733E+02  0.51100000000E-03 0. -1.
        -11    1    3    3    0    0  0.96499471306E+01 -0.82181483866E+01  0.12326649135E+02  0.17680659538E+02  0.51100000000E-03 0.  1.
         12    1    3    3    0    0 -0.21932834160E+02 -0.21448649599E+02 -0.18011904703E+02  0.35574182983E+02  0.00000000000E+00 0. -1.
</event>
<event>
 7    1  0.1788006E-013  0.7246158E+02  0.7816164E-02  0.1226708E+00
        -11   -1    0    0    0    0  0.00000000000E+00  0.00000000000E+00  0.45593999997E+02  0.45594000000E+02  0.51100000000E-03 0. -1.
         11   -1    0    0    0    0 -0.00000000000E+00 -0.00000000000E+00 -0.45593999997E+02  0.45594000000E+02  0.51100000000E-03 0.  1.
    9900012    2    1    2    0    0 -0.14718844571E+02  0.91264350438E+01 -0.71233932759E+01  0.72461576586E+02  0.70000008196E+02 0.  0.
        -12    1    1    2    0    0  0.14718844571E+02 -0.91264350438E+01  0.71233932759E+01  0.18726423414E+02  0.00000000000E+00 0.  1.
         11    1    3    3    0    0 -0.45554485566E+01  0.54173877113E+01 -0.61995533502E+01  0.94092860074E+01  0.51100000000E-03 0. -1.
        -11    1    3    3    0    0  0.52728481710E+01  0.20395732799E+01 -0.29765173462E+02  0.30297332201E+02  0.51100000000E-03 0.  1.
         12    1    3    3    0    0 -0.15436244185E+02  0.16694740527E+01  0.28841333537E+02  0.32754958378E+02  0.00000000000E+00 0. -1.
</event>
<event>
 7    1  0.1788006E-013  0.7246158E+02  0.7816164E-02  0.1226708E+00
        -11   -1    0    0    0    0  0.00000000000E+00  0.00000000000E+00  0.45593999997E+02  0.45594000000E+02  0.51100000000E-03 0.  1.
         11   -1    0    0    0    0 -0.00000000000E+00 -0.00000000000E+00 -0.45593999997E+02  0.45594000000E+02  0.51100000000E-03 0. -1.
    9900012    2    1    2    0    0  0.59175493460E+01 -0.15301441540E+02 -0.90292457758E+01  0.72461580621E+02  0.70000013453E+02 0.  0.
        -12    1    1    2    0    0 -0.59175493460E+01  0.15301441540E+02  0.90292457758E+01  0.18726419379E+02  0.00000000000E+00 0.  1.
         11    1    3    3    0    0 -0.71479635249E+01 -0.67919439228E+01  0.61715089821E+01  0.11632343194E+02  0.51100000000E-03 0. -1.
        -11    1    3    3    0    0  0.35483426888E+01  0.97932996459E+00  0.21464871740E+02  0.21778212555E+02  0.51100000000E-03 0.  1.
        -12    1    3    3    0    0  0.95171701821E+01 -0.94888275817E+01 -0.36665626498E+02  0.39051024873E+02  0.00000000000E+00 0.  1.
</event>
<event>
 7    1  0.1788006E-013  0.7246153E+02  0.7816164E-02  0.1226708E+00
        -11   -1    0    0    0    0  0.00000000000E+00  0.00000000000E+00  0.45593999997E+02  0.45594000000E+02  0.51100000000E-03 0. -1.
         11   -1    0    0    0    0 -0.00000000000E+00 -0.00000000000E+00 -0.45593999997E+02  0.45594000000E+02  0.51100000000E-03 0.  1.
    9900012    2    1    2    0    0 -0.78497064206E+01 -0.15680803917E+02  0.65707770790E+01  0.72461531732E+02  0.69999949765E+02 0.  0.
        -12    1    1    2    0    0  0.78497064206E+01  0.15680803917E+02 -0.65707770790E+01  0.18726468268E+02  0.00000000000E+00 0.  1.
         11    1    3    3    0    0 -0.20194957511E+02 -0.24161814568E+01  0.21157920668E+02  0.29348455649E+02  0.51100000000E-03 0. -1.
        -11    1    3    3    0    0  0.12685928158E+02 -0.40128904797E+01  0.10127511395E+02  0.16721320239E+02  0.51100000000E-03 0.  1.
        -12    1    3    3    0    0 -0.34067706747E+00 -0.92517319809E+01 -0.24714654984E+02  0.26391755843E+02  0.00000000000E+00 0.  1.
</event>
<event>
 7    1  0.1788006E-013  0.7246159E+02  0.7816164E-02  0.1226708E+00
        -11   -1    0    0    0    0  0.00000000000E+00  0.00000000000E+00  0.45593999997E+02  0.45594000000E+02  0.51100000000E-03 0.  1.
         11   -1    0    0    0    0 -0.00000000000E+00 -0.00000000000E+00 -0.45593999997E+02  0.45594000000E+02  0.51100000000E-03 0. -1.
    9900012    2    1    2    0    0 -0.79102889409E+01 -0.15872319990E+02 -0.60145700673E+01  0.72461594416E+02  0.70000031423E+02 0.  0.
        -12    1    1    2    0    0  0.79102889409E+01  0.15872319990E+02  0.60145700673E+01  0.18726405584E+02  0.00000000000E+00 0.  1.
         11    1    3    3    0    0  0.81293372142E+00 -0.15764289542E+01  0.12440732012E+02  0.12566535033E+02  0.51100000000E-03 0. -1.
        -11    1    3    3    0    0 -0.68371359604E+00  0.24568939556E+01  0.18423595660E+02  0.18599265294E+02  0.51100000000E-03 0.  1.
         12    1    3    3    0    0 -0.80395090663E+01 -0.16752784992E+02 -0.36878897739E+02  0.41295794089E+02  0.00000000000E+00 0. -1.
</event>
<event>
 7    1  0.1788006E-013  0.7246153E+02  0.7816164E-02  0.1226708E+00
        -11   -1    0    0    0    0  0.00000000000E+00  0.00000000000E+00  0.45593999997E+02  0.45594000000E+02  0.51100000000E-03 0.  1.
         11   -1    0    0    0    0 -0.00000000000E+00 -0.00000000000E+00 -0.45593999997E+02  0.45594000000E+02  0.51100000000E-03 0. -1.
    9900012    2    1    2    0    0  0.18160996716E+02 -0.16200465245E+01 -0.42701717121E+01  0.72461528925E+02  0.69999946109E+02 0.  0.
        -12    1    1    2    0    0 -0.18160996716E+02  0.16200465245E+01  0.42701717121E+01  0.18726471075E+02  0.00000000000E+00 0.  1.
         11    1    3    3    0    0 -0.14287350653E+02 -0.73016877097E+00 -0.16462807531E+02  0.21810217037E+02  0.51100000000E-03 0. -1.
        -11    1    3    3    0    0  0.39673731786E+01 -0.16296132441E+02  0.37023537852E+01  0.17175896084E+02  0.51100000000E-03 0.  1.
        -12    1    3    3    0    0  0.28480974190E+02  0.15406254687E+02  0.84902820340E+01  0.33475415805E+02  0.00000000000E+00 0.  1.
</event>
<event>
 7    1  0.1788006E-013  0.7246156E+02  0.7816164E-02  0.1226708E+00
        -11   -1    0    0    0    0  0.00000000000E+00  0.00000000000E+00  0.45593999997E+02  0.45594000000E+02  0.51100000000E-03 0.  1.
         11   -1    0    0    0    0 -0.00000000000E+00 -0.00000000000E+00 -0.45593999997E+02  0.45594000000E+02  0.51100000000E-03 0. -1.
    9900012    2    1    2    0    0 -0.51533855460E+01  0.15649622095E+02 -0.89000843569E+01  0.72461559979E+02  0.69999986563E+02 0.  0.
        -12    1    1    2    0    0  0.51533855460E+01 -0.15649622095E+02  0.89000843569E+01  0.18726440021E+02  0.00000000000E+00 0.  1.
         11    1    3    3    0    0 -0.10266149149E+02  0.23619437084E+02  0.13354230209E+02  0.29010465202E+02  0.51100000000E-03 0. -1.
        -11    1    3    3    0    0 -0.15482198501E+02 -0.91666632221E+00 -0.82599043982E+01  0.17571703631E+02  0.51100000000E-03 0.  1.
        -12    1    3    3    0    0  0.20594962104E+02 -0.70531486670E+01 -0.13994410167E+02  0.25879391146E+02  0.00000000000E+00 0.  1.
</event>
<event>
 7    1  0.1788006E-013  0.7246157E+02  0.7816164E-02  0.1226708E+00
        -11   -1    0    0    0    0  0.00000000000E+00  0.00000000000E+00  0.45593999997E+02  0.45594000000E+02  0.51100000000E-03 0.  1.
         11   -1    0    0    0    0 -0.00000000000E+00 -0.00000000000E+00 -0.45593999997E+02  0.45594000000E+02  0.51100000000E-03 0. -1.
    9900012    2    1    2    0    0 -0.16101262884E+02  0.29561489652E+01 -0.90933940040E+01  0.72461566873E+02  0.69999995542E+02 0.  0.
        -12    1    1    2    0    0  0.16101262884E+02 -0.29561489652E+01  0.90933940040E+01  0.18726433127E+02  0.00000000000E+00 0.  1.
         11    1    3    3    0    0 -0.23341262375E+02  0.23957196914E+02 -0.15715731308E+02  0.36956001191E+02  0.51100000000E-03 0. -1.
        -11    1    3    3    0    0  0.98963013504E+01 -0.82679159069E+00 -0.59593329607E+01  0.11581623994E+02  0.51100000000E-03 0.  1.
         12    1    3    3    0    0 -0.26563018593E+01 -0.20174256358E+02  0.12581670265E+02  0.23923941687E+02  0.00000000000E+00 0. -1.
</event>
<event>
 7    1  0.1788006E-013  0.7246156E+02  0.7816164E-02  0.1226708E+00
        -11   -1    0    0    0    0  0.00000000000E+00  0.00000000000E+00  0.45593999997E+02  0.45594000000E+02  0.51100000000E-03 0.  1.
         11   -1    0    0    0    0 -0.00000000000E+00 -0.00000000000E+00 -0.45593999997E+02  0.45594000000E+02  0.51100000000E-03 0. -1.
    9900012    2    1    2    0    0 -0.13264812063E+02  0.12630488900E+02 -0.38981062417E+01  0.72461555565E+02  0.69999980812E+02 0.  0.
        -12    1    1    2    0    0  0.13264812063E+02 -0.12630488900E+02  0.38981062417E+01  0.18726444435E+02  0.00000000000E+00 0.  1.
         11    1    3    3    0    0 -0.10545459926E+02  0.34697947481E+02  0.99125849990E+01  0.37595393682E+02  0.51100000000E-03 0. -1.
        -11    1    3    3    0    0 -0.46898105005E+01  0.24617325439E+01  0.19492258752E+01  0.56439287222E+01  0.51100000000E-03 0.  1.
        -12    1    3    3    0    0  0.19704583641E+01 -0.24529191125E+02 -0.15759917116E+02  0.29222233161E+02  0.00000000000E+00 0.  1.
</event>
<event>
 7    1  0.1788006E-013  0.7246156E+02  0.7816164E-02  0.1226708E+00
        -11   -1    0    0    0    0  0.00000000000E+00  0.00000000000E+00  0.45593999997E+02  0.45594000000E+02  0.51100000000E-03 0. -1.
         11   -1    0    0    0    0 -0.00000000000E+00 -0.00000000000E+00 -0.45593999997E+02  0.45594000000E+02  0.51100000000E-03 0.  1.
    9900012    2    1    2    0    0  0.69454209008E+01 -0.56900864525E+01 -0.16433607924E+02  0.72461563481E+02  0.69999991124E+02 0.  0.
        -12    1    1    2    0    0 -0.69454209008E+01  0.56900864525E+01  0.16433607924E+02  0.18726436519E+02  0.00000000000E+00 0.  1.
         11    1    3    3    0    0  0.91518225863E+01  0.14539755125E+01 -0.99245984388E+01  0.13578201496E+02  0.51100000000E-03 0. -1.
        -11    1    3    3    0    0 -0.24457398086E+01 -0.32664486620E+02 -0.63258618444E+01  0.33361157919E+02  0.51100000000E-03 0.  1.
         12    1    3    3    0    0  0.23933812311E+00  0.25520424655E+02 -0.18314764045E+00  0.25522204066E+02  0.00000000000E+00 0. -1.
</event>
<event>
 7    1  0.1788006E-013  0.7246157E+02  0.7816164E-02  0.1226708E+00
        -11   -1    0    0    0    0  0.00000000000E+00  0.00000000000E+00  0.45593999997E+02  0.45594000000E+02  0.51100000000E-03 0.  1.
         11   -1    0    0    0    0 -0.00000000000E+00 -0.00000000000E+00 -0.45593999997E+02  0.45594000000E+02  0.51100000000E-03 0. -1.
    9900012    2    1    2    0    0  0.14943269428E+02  0.96913026339E+01 -0.57841542854E+01  0.72461572451E+02  0.70000002809E+02 0.  0.
        -12    1    1    2    0    0 -0.14943269428E+02 -0.96913026339E+01  0.57841542854E+01  0.18726427549E+02  0.00000000000E+00 0.  1.
         11    1    3    3    0    0  0.56199936204E+01  0.30105433555E+01  0.92777617421E+01  0.11257200486E+02  0.51100000000E-03 0. -1.
        -11    1    3    3    0    0 -0.11798758996E+02 -0.20145189121E+02 -0.13624252950E+02  0.27030716367E+02  0.51100000000E-03 0.  1.
         12    1    3    3    0    0  0.21122034804E+02  0.26825948399E+02 -0.14376630772E+01  0.34173655598E+02  0.00000000000E+00 0. -1.
</event>
<event>
 7    1  0.1788006E-013  0.7246167E+02  0.7816164E-02  0.1226708E+00
        -11   -1    0    0    0    0  0.00000000000E+00  0.00000000000E+00  0.45593999997E+02  0.45594000000E+02  0.51100000000E-03 0. -1.
         11   -1    0    0    0    0 -0.00000000000E+00 -0.00000000000E+00 -0.45593999997E+02  0.45594000000E+02  0.51100000000E-03 0.  1.
    9900012    2    1    2    0    0 -0.41603159688E+01  0.38281036637E+01  0.17852528397E+02  0.72461671562E+02  0.70000131920E+02 0.  0.
        -12    1    1    2    0    0  0.41603159688E+01 -0.38281036637E+01 -0.17852528397E+02  0.18726328438E+02  0.00000000000E+00 0.  1.
         11    1    3    3    0    0 -0.11498689762E+01  0.47651145502E+01  0.24192099572E+02  0.24683723327E+02  0.51100000000E-03 0. -1.
        -11    1    3    3    0    0 -0.40967039920E+01  0.13384771880E+02  0.15975372965E+02  0.21240236428E+02  0.51100000000E-03 0.  1.
        -12    1    3    3    0    0  0.10862569994E+01 -0.14321782767E+02 -0.22314944141E+02  0.26537711806E+02  0.00000000000E+00 0.  1.
</event>
<event>
 7    1  0.1788006E-013  0.7246161E+02  0.7816164E-02  0.1226708E+00
        -11   -1    0    0    0    0  0.00000000000E+00  0.00000000000E+00  0.45593999997E+02  0.45594000000E+02  0.51100000000E-03 0. -1.
         11   -1    0    0    0    0 -0.00000000000E+00 -0.00000000000E+00 -0.45593999997E+02  0.45594000000E+02  0.51100000000E-03 0.  1.
    9900012    2    1    2    0    0  0.30084293851E+01 -0.55225454980E+01  0.17638840083E+02  0.72461605910E+02  0.70000046395E+02 0.  0.
        -12    1    1    2    0    0 -0.30084293851E+01  0.55225454980E+01 -0.17638840083E+02  0.18726394090E+02  0.00000000000E+00 0.  1.
         11    1    3    3    0    0  0.49375855153E+01  0.18360405707E+02  0.47557853996E+01  0.19598513808E+02  0.51100000000E-03 0. -1.
        -11    1    3    3    0    0  0.22960451775E+01 -0.15860236606E+02 -0.15966696285E+02  0.22621987516E+02  0.51100000000E-03 0.  1.
         12    1    3    3    0    0 -0.42252013077E+01 -0.80227145985E+01  0.28849750969E+02  0.30241104586E+02  0.00000000000E+00 0. -1.
</event>
<event>
 7    1  0.1788006E-013  0.7246155E+02  0.7816164E-02  0.1226708E+00
        -11   -1    0    0    0    0  0.00000000000E+00  0.00000000000E+00  0.45593999997E+02  0.45594000000E+02  0.51100000000E-03 0. -1.
         11   -1    0    0    0    0 -0.00000000000E+00 -0.00000000000E+00 -0.45593999997E+02  0.45594000000E+02  0.51100000000E-03 0.  1.
    9900012    2    1    2    0    0  0.68724160189E+01  0.16725443459E+02  0.48692097372E+01  0.72461554413E+02  0.69999979312E+02 0.  0.
        -12    1    1    2    0    0 -0.68724160189E+01 -0.16725443459E+02 -0.48692097372E+01  0.18726445587E+02  0.00000000000E+00 0.  1.
         11    1    3    3    0    0  0.38868974936E+01 -0.15675511098E+02  0.13014507304E+02  0.20741432471E+02  0.51100000000E-03 0. -1.
        -11    1    3    3    0    0 -0.14224058890E+02  0.15072472768E+02  0.82486837284E+01  0.22305695913E+02  0.51100000000E-03 0.  1.
         12    1    3    3    0    0  0.17209577416E+02  0.17328481789E+02 -0.16393981295E+02  0.29414426030E+02  0.00000000000E+00 0. -1.
</event>
<event>
 7    1  0.1788006E-013  0.7246130E+02  0.7816164E-02  0.1226709E+00
        -11   -1    0    0    0    0  0.00000000000E+00  0.00000000000E+00  0.45593999997E+02  0.45594000000E+02  0.51100000000E-03 0.  1.
         11   -1    0    0    0    0 -0.00000000000E+00 -0.00000000000E+00 -0.45593999997E+02  0.45594000000E+02  0.51100000000E-03 0. -1.
    9900012    2    1    2    0    0  0.85787003723E+01 -0.16818377567E+01  0.16560997463E+02  0.72461299402E+02  0.69999647112E+02 0.  0.
        -12    1    1    2    0    0 -0.85787003723E+01  0.16818377567E+01 -0.16560997463E+02  0.18726700598E+02  0.00000000000E+00 0.  1.
         11    1    3    3    0    0 -0.24037501021E+02 -0.13176773406E+02  0.11326684624E+02  0.29660117963E+02  0.51100000000E-03 0. -1.
        -11    1    3    3    0    0  0.11197959633E+01  0.95366528206E+01  0.58390592633E+01  0.11238162811E+02  0.51100000000E-03 0.  1.
        -12    1    3    3    0    0  0.31496405430E+02  0.19582828290E+01 -0.60474642504E+00  0.31563018628E+02  0.00000000000E+00 0.  1.
</event>
<event>
 7    1  0.1788006E-013  0.7246158E+02  0.7816164E-02  0.1226708E+00
        -11   -1    0    0    0    0  0.00000000000E+00  0.00000000000E+00  0.45593999997E+02  0.45594000000E+02  0.51100000000E-03 0.  1.
         11   -1    0    0    0    0 -0.00000000000E+00 -0.00000000000E+00 -0.45593999997E+02  0.45594000000E+02  0.51100000000E-03 0. -1.
    9900012    2    1    2    0    0  0.36195482098E+01 -0.12753830913E+02 -0.13225643004E+02  0.72461575753E+02  0.70000007111E+02 0.  0.
        -12    1    1    2    0    0 -0.36195482098E+01  0.12753830913E+02  0.13225643004E+02  0.18726424247E+02  0.00000000000E+00 0.  1.
         11    1    3    3    0    0  0.28857800990E+01 -0.87433591474E+00  0.13976641808E+02  0.14298206411E+02  0.51100000000E-03 0. -1.
        -11    1    3    3    0    0  0.50199687320E+01  0.47322073002E+01  0.12853735383E+02  0.14588090539E+02  0.51100000000E-03 0.  1.
         12    1    3    3    0    0 -0.42862006213E+01 -0.16611702299E+02 -0.40056020195E+02  0.43575278804E+02  0.00000000000E+00 0. -1.
</event>
<event>
 7    1  0.1788006E-013  0.7246155E+02  0.7816164E-02  0.1226708E+00
        -11   -1    0    0    0    0  0.00000000000E+00  0.00000000000E+00  0.45593999997E+02  0.45594000000E+02  0.51100000000E-03 0.  1.
         11   -1    0    0    0    0 -0.00000000000E+00 -0.00000000000E+00 -0.45593999997E+02  0.45594000000E+02  0.51100000000E-03 0. -1.
    9900012    2    1    2    0    0  0.12346233383E+01 -0.60870038535E+01 -0.17666467147E+02  0.72461548864E+02  0.69999972083E+02 0.  0.
        -12    1    1    2    0    0 -0.12346233383E+01  0.60870038535E+01  0.17666467147E+02  0.18726451136E+02  0.00000000000E+00 0.  1.
         11    1    3    3    0    0  0.27941281989E+02 -0.57983564290E+01 -0.18875708935E+02  0.34214449645E+02  0.51100000000E-03 0. -1.
        -11    1    3    3    0    0  0.18333363093E+01 -0.82561531408E+01  0.16296787422E+01  0.86128415620E+01  0.51100000000E-03 0.  1.
        -12    1    3    3    0    0 -0.28539994960E+02  0.79675057163E+01 -0.42043695442E+00  0.29634257657E+02  0.00000000000E+00 0.  1.
</event>
<event>
 7    1  0.1788006E-013  0.7246160E+02  0.7816164E-02  0.1226708E+00
        -11   -1    0    0    0    0  0.00000000000E+00  0.00000000000E+00  0.45593999997E+02  0.45594000000E+02  0.51100000000E-03 0. -1.
         11   -1    0    0    0    0 -0.00000000000E+00 -0.00000000000E+00 -0.45593999997E+02  0.45594000000E+02  0.51100000000E-03 0.  1.
    9900012    2    1    2    0    0  0.96841474796E+01 -0.79949610959E+01  0.13891572109E+02  0.72461604431E+02  0.70000044470E+02 0.  0.
        -12    1    1    2    0    0 -0.96841474796E+01  0.79949610959E+01 -0.13891572109E+02  0.18726395569E+02  0.00000000000E+00 0.  1.
         11    1    3    3    0    0  0.55824028389E+01 -0.25996273666E+02  0.21482672843E+02  0.34182959186E+02  0.51100000000E-03 0. -1.
        -11    1    3    3    0    0  0.58158161778E+01 -0.18878786746E+01  0.99668216107E+01  0.11692961002E+02  0.51100000000E-03 0.  1.
        -12    1    3    3    0    0 -0.17140715372E+01  0.19889191245E+02 -0.17557922344E+02  0.26585684243E+02  0.00000000000E+00 0.  1.
</event>
<event>
 7    1  0.1788006E-013  0.7246155E+02  0.7816164E-02  0.1226708E+00
        -11   -1    0    0    0    0  0.00000000000E+00  0.00000000000E+00  0.45593999997E+02  0.45594000000E+02  0.51100000000E-03 0.  1.
         11   -1    0    0    0    0 -0.00000000000E+00 -0.00000000000E+00 -0.45593999997E+02  0.45594000000E+02  0.51100000000E-03 0. -1.
    9900012    2    1    2    0    0 -0.11990417230E+02 -0.72602113742E+01 -0.12417693857E+02  0.72461550916E+02  0.69999974757E+02 0.  0.
        -12    1    1    2    0    0  0.11990417230E+02  0.72602113742E+01  0.12417693857E+02  0.18726449084E+02  0.00000000000E+00 0.  1.
         11    1    3    3    0    0  0.46066815306E+01 -0.12856231554E+02  0.62334609594E+01  0.15012003207E+02  0.51100000000E-03 0. -1.
        -11    1    3    3    0    0  0.15558439335E+02 -0.84828638494E+01 -0.12805972799E+02  0.21863598817E+02  0.51100000000E-03 0.  1.
         12    1    3    3    0    0 -0.32155538096E+02  0.14078884029E+02 -0.58451820173E+01  0.35585948893E+02  0.00000000000E+00 0. -1.
</event>
<event>
 7    1  0.1788006E-013  0.7246155E+02  0.7816164E-02  0.1226708E+00
        -11   -1    0    0    0    0  0.00000000000E+00  0.00000000000E+00  0.45593999997E+02  0.45594000000E+02  0.51100000000E-03 0.  1.
         11   -1    0    0    0    0 -0.00000000000E+00 -0.00000000000E+00 -0.45593999997E+02  0.45594000000E+02  0.51100000000E-03 0. -1.
    9900012    2    1    2    0    0 -0.14937257832E+02  0.11011037242E+02 -0.25130578151E+01  0.72461546191E+02  0.69999968600E+02 0.  0.
        -12    1    1    2    0    0  0.14937257832E+02 -0.11011037242E+02  0.25130578151E+01  0.18726453809E+02  0.00000000000E+00 0.  1.
         11    1    3    3    0    0 -0.17157554420E+01 -0.34212196577E+01 -0.35054659096E+01  0.51900724646E+01  0.51100000000E-03 0. -1.
        -11    1    3    3    0    0 -0.17886450591E+02 -0.66583381820E+01  0.27251270948E+02  0.33269961687E+02  0.51100000000E-03 0.  1.
         12    1    3    3    0    0  0.46649482011E+01  0.21090595082E+02 -0.26258862853E+02  0.34001512039E+02  0.00000000000E+00 0. -1.
</event>
<event>
 7    1  0.1788006E-013  0.7246171E+02  0.7816164E-02  0.1226708E+00
        -11   -1    0    0    0    0  0.00000000000E+00  0.00000000000E+00  0.45593999997E+02  0.45594000000E+02  0.51100000000E-03 0.  1.
         11   -1    0    0    0    0 -0.00000000000E+00 -0.00000000000E+00 -0.45593999997E+02  0.45594000000E+02  0.51100000000E-03 0. -1.
    9900012    2    1    2    0    0  0.19063736565E+01  0.90045363858E+01 -0.16308213610E+02  0.72461714539E+02  0.70000187905E+02 0.  0.
        -12    1    1    2    0    0 -0.19063736565E+01 -0.90045363858E+01  0.16308213610E+02  0.18726285461E+02  0.00000000000E+00 0.  1.
         11    1    3    3    0    0 -0.32550279580E+01  0.74961385745E+00 -0.10654422147E+02  0.11165744019E+02  0.51100000000E-03 0. -1.
        -11    1    3    3    0    0 -0.20863602905E+02  0.19960314687E+02 -0.13245607585E+02  0.31767124659E+02  0.51100000000E-03 0.  1.
        -12    1    3    3    0    0  0.26025004519E+02 -0.11705392158E+02  0.75918161224E+01  0.29528845860E+02  0.00000000000E+00 0.  1.
</event>
<event>
 7    1  0.1788006E-013  0.7246153E+02  0.7816164E-02  0.1226708E+00
        -11   -1    0    0    0    0  0.00000000000E+00  0.00000000000E+00  0.45593999997E+02  0.45594000000E+02  0.51100000000E-03 0. -1.
         11   -1    0    0    0    0 -0.00000000000E+00 -0.00000000000E+00 -0.45593999997E+02  0.45594000000E+02  0.51100000000E-03 0.  1.
    9900012    2    1    2    0    0 -0.80910412457E+01 -0.16869067922E+02  0.80646384101E+00  0.72461527163E+02  0.69999943813E+02 0.  0.
        -12    1    1    2    0    0  0.80910412457E+01  0.16869067922E+02 -0.80646384101E+00  0.18726472837E+02  0.00000000000E+00 0.  1.
         11    1    3    3    0    0  0.12787907093E+02  0.62949247827E+01  0.68950671816E+01  0.15833464483E+02  0.51100000000E-03 0. -1.
        -11    1    3    3    0    0  0.85122546706E+01 -0.16045720834E+02  0.11640146147E+02  0.21573517081E+02  0.51100000000E-03 0.  1.
        -12    1    3    3    0    0 -0.29391203009E+02 -0.71182718702E+01 -0.17728749488E+02  0.35054545599E+02  0.00000000000E+00 0.  1.
</event>
<event>
 7    1  0.1788006E-013  0.7246156E+02  0.7816164E-02  0.1226708E+00
        -11   -1    0    0    0    0  0.00000000000E+00  0.00000000000E+00  0.45593999997E+02  0.45594000000E+02  0.51100000000E-03 0.  1.
         11   -1    0    0    0    0 -0.00000000000E+00 -0.00000000000E+00 -0.45593999997E+02  0.45594000000E+02  0.51100000000E-03 0. -1.
    9900012    2    1    2    0    0  0.13712494689E+02  0.11317977332E+02 -0.58779606909E+01  0.72461560312E+02  0.69999986997E+02 0.  0.
        -12    1    1    2    0    0 -0.13712494689E+02 -0.11317977332E+02  0.58779606909E+01  0.18726439688E+02  0.00000000000E+00 0.  1.
         11    1    3    3    0    0 -0.30183081986E+01 -0.61017974229E+01  0.71600807521E+01  0.98797202799E+01  0.51100000000E-03 0. -1.
        -11    1    3    3    0    0  0.12705930968E+02  0.48996119044E+01  0.21598203500E+02  0.25532905696E+02  0.51100000000E-03 0.  1.
         12    1    3    3    0    0  0.40248719195E+01  0.12520162850E+02 -0.34636244943E+02  0.37048934337E+02  0.00000000000E+00 0. -1.
</event>
<event>
 7    1  0.1788006E-013  0.7246169E+02  0.7816164E-02  0.1226708E+00
        -11   -1    0    0    0    0  0.00000000000E+00  0.00000000000E+00  0.45593999997E+02  0.45594000000E+02  0.51100000000E-03 0.  1.
         11   -1    0    0    0    0 -0.00000000000E+00 -0.00000000000E+00 -0.45593999997E+02  0.45594000000E+02  0.51100000000E-03 0. -1.
    9900012    2    1    2    0    0  0.13920470774E+02 -0.65627278689E+01 -0.10668919606E+02  0.72461688318E+02  0.70000153748E+02 0.  0.
        -12    1    1    2    0    0 -0.13920470774E+02  0.65627278689E+01  0.10668919606E+02  0.18726311682E+02  0.00000000000E+00 0.  1.
         11    1    3    3    0    0 -0.17052988364E+02  0.16071412816E+02 -0.18312319515E+02  0.29739464829E+02  0.51100000000E-03 0. -1.
        -11    1    3    3    0    0  0.23194895062E+01 -0.53107515858E+01 -0.42527463059E+01  0.71881823417E+01  0.51100000000E-03 0.  1.
        -12    1    3    3    0    0  0.28653969631E+02 -0.17323389099E+02  0.11896146215E+02  0.35534041147E+02  0.00000000000E+00 0.  1.
</event>
<event>
 7    1  0.1788006E-013  0.7246159E+02  0.7816164E-02  0.1226708E+00
        -11   -1    0    0    0    0  0.00000000000E+00  0.00000000000E+00  0.45593999997E+02  0.45594000000E+02  0.51100000000E-03 0.  1.
         11   -1    0    0    0    0 -0.00000000000E+00 -0.00000000000E+00 -0.45593999997E+02  0.45594000000E+02  0.51100000000E-03 0. -1.
    9900012    2    1    2    0    0 -0.16714984088E+02  0.73934770302E+01 -0.40772883654E+01  0.72461588809E+02  0.70000024119E+02 0.  0.
        -12    1    1    2    0    0  0.16714984088E+02 -0.73934770302E+01  0.40772883654E+01  0.18726411191E+02  0.00000000000E+00 0.  1.
         11    1    3    3    0    0  0.17908056138E+02 -0.29216196105E+01 -0.22240967643E+02  0.28703570819E+02  0.51100000000E-03 0. -1.
        -11    1    3    3    0    0 -0.11622634665E+02 -0.29371155105E+01  0.10983964011E+02  0.16259143573E+02  0.51100000000E-03 0.  1.
        -12    1    3    3    0    0 -0.23000405561E+02  0.13252212151E+02  0.71797152665E+01  0.27498874417E+02  0.00000000000E+00 0.  1.
</event>
<event>
 7    1  0.1788006E-013  0.7246152E+02  0.7816164E-02  0.1226708E+00
        -11   -1    0    0    0    0  0.00000000000E+00  0.00000000000E+00  0.45593999997E+02  0.45594000000E+02  0.51100000000E-03 0. -1.
         11   -1    0    0    0    0 -0.00000000000E+00 -0.00000000000E+00 -0.45593999997E+02  0.45594000000E+02  0.51100000000E-03 0.  1.
    9900012    2    1    2    0    0  0.56830279657E+01 -0.61208817850E+01  0.16760638986E+02  0.72461520889E+02  0.69999935640E+02 0.  0.
        -12    1    1    2    0    0 -0.56830279657E+01  0.61208817850E+01 -0.16760638986E+02  0.18726479111E+02  0.00000000000E+00 0.  1.
         11    1    3    3    0    0 -0.12826645191E+02  0.18699091304E+02  0.11843942865E+02  0.25582373332E+02  0.51100000000E-03 0. -1.
        -11    1    3    3    0    0 -0.98991455574E+01 -0.73468981161E+01 -0.28095673741E+01  0.12643720330E+02  0.51100000000E-03 0.  1.
        -12    1    3    3    0    0  0.28408818715E+02 -0.17473074973E+02  0.77262634952E+01  0.34235427226E+02  0.00000000000E+00 0.  1.
</event>
<event>
 7    1  0.1788006E-013  0.7246150E+02  0.7816164E-02  0.1226708E+00
        -11   -1    0    0    0    0  0.00000000000E+00  0.00000000000E+00  0.45593999997E+02  0.45594000000E+02  0.51100000000E-03 0.  1.
         11   -1    0    0    0    0 -0.00000000000E+00 -0.00000000000E+00 -0.45593999997E+02  0.45594000000E+02  0.51100000000E-03 0. -1.
    9900012    2    1    2    0    0  0.65104739868E+01 -0.16983373230E+02 -0.44565048181E+01  0.72461503451E+02  0.69999912924E+02 0.  0.
        -12    1    1    2    0    0 -0.65104739868E+01  0.16983373230E+02  0.44565048181E+01  0.18726496549E+02  0.00000000000E+00 0.  1.
         11    1    3    3    0    0 -0.83267332320E+01  0.14539109140E+02  0.20428382055E+02  0.26420427221E+02  0.51100000000E-03 0. -1.
        -11    1    3    3    0    0  0.10389063131E+02 -0.96981825859E+01 -0.24393147766E+01  0.14420042824E+02  0.51100000000E-03 0.  1.
        -12    1    3    3    0    0  0.44481440875E+01 -0.21824299785E+02 -0.22445572096E+02  0.31621033406E+02  0.00000000000E+00 0.  1.
</event>
<event>
 7    1  0.1788006E-013  0.7246148E+02  0.7816164E-02  0.1226708E+00
        -11   -1    0    0    0    0  0.00000000000E+00  0.00000000000E+00  0.45593999997E+02  0.45594000000E+02  0.51100000000E-03 0.  1.
         11   -1    0    0    0    0 -0.00000000000E+00 -0.00000000000E+00 -0.45593999997E+02  0.45594000000E+02  0.51100000000E-03 0. -1.
    9900012    2    1    2    0    0 -0.10169416774E+02 -0.15333765171E+02 -0.34844194977E+01  0.72461479473E+02  0.69999881688E+02 0.  0.
        -12    1    1    2    0    0  0.10169416774E+02  0.15333765171E+02  0.34844194977E+01  0.18726520527E+02  0.00000000000E+00 0.  1.
         11    1    3    3    0    0 -0.49284765183E+01  0.16182212659E+02  0.10212215883E+02  0.19759636657E+02  0.51100000000E-03 0. -1.
        -11    1    3    3    0    0  0.10985417485E+02 -0.11190802727E+02  0.90883850108E+01  0.18124905665E+02  0.51100000000E-03 0.  1.
        -12    1    3    3    0    0 -0.16226357740E+02 -0.20325175102E+02 -0.22785020391E+02  0.34576937150E+02  0.00000000000E+00 0.  1.
</event>
<event>
 7    1  0.1788006E-013  0.7246161E+02  0.7816164E-02  0.1226708E+00
        -11   -1    0    0    0    0  0.00000000000E+00  0.00000000000E+00  0.45593999997E+02  0.45594000000E+02  0.51100000000E-03 0.  1.
         11   -1    0    0    0    0 -0.00000000000E+00 -0.00000000000E+00 -0.45593999997E+02  0.45594000000E+02  0.51100000000E-03 0. -1.
    9900012    2    1    2    0    0  0.12587638886E+02  0.93160633854E+00 -0.13833339349E+02  0.72461606310E+02  0.70000046917E+02 0.  0.
        -12    1    1    2    0    0 -0.12587638886E+02 -0.93160633854E+00  0.13833339349E+02  0.18726393690E+02  0.00000000000E+00 0.  1.
         11    1    3    3    0    0  0.25235714439E+01 -0.14211667881E+02 -0.38775273405E+01  0.14945739705E+02  0.51100000000E-03 0. -1.
        -11    1    3    3    0    0 -0.79218458637E+01 -0.88319138664E+00  0.18552344715E+02  0.20192205516E+02  0.51100000000E-03 0.  1.
         12    1    3    3    0    0  0.17985913306E+02  0.16026465607E+02 -0.28508156724E+02  0.37323661089E+02  0.00000000000E+00 0. -1.
</event>
<event>
 7    1  0.1788006E-013  0.7246167E+02  0.7816164E-02  0.1226708E+00
        -11   -1    0    0    0    0  0.00000000000E+00  0.00000000000E+00  0.45593999997E+02  0.45594000000E+02  0.51100000000E-03 0.  1.
         11   -1    0    0    0    0 -0.00000000000E+00 -0.00000000000E+00 -0.45593999997E+02  0.45594000000E+02  0.51100000000E-03 0. -1.
    9900012    2    1    2    0    0  0.92466431113E+01  0.82869393965E+01 -0.14017903644E+02  0.72461671049E+02  0.70000131252E+02 0.  0.
        -12    1    1    2    0    0 -0.92466431113E+01 -0.82869393965E+01  0.14017903644E+02  0.18726328951E+02  0.00000000000E+00 0.  1.
         11    1    3    3    0    0  0.13980612029E+02  0.86458173869E+01 -0.17677312999E+02  0.24139077574E+02  0.51100000000E-03 0. -1.
        -11    1    3    3    0    0  0.20774969527E+02  0.63097280947E+00 -0.49788128938E+01  0.21372553980E+02  0.51100000000E-03 0.  1.
        -12    1    3    3    0    0 -0.25508938445E+02 -0.98985079987E+00  0.86382222487E+01  0.26950039495E+02  0.00000000000E+00 0.  1.
</event>
<event>
 7    1  0.1788006E-013  0.7246158E+02  0.7816164E-02  0.1226708E+00
        -11   -1    0    0    0    0  0.00000000000E+00  0.00000000000E+00  0.45593999997E+02  0.45594000000E+02  0.51100000000E-03 0. -1.
         11   -1    0    0    0    0 -0.00000000000E+00 -0.00000000000E+00 -0.45593999997E+02  0.45594000000E+02  0.51100000000E-03 0.  1.
    9900012    2    1    2    0    0 -0.11524631818E+02  0.10385911178E+02 -0.10487823682E+02  0.72461581893E+02  0.70000015109E+02 0.  0.
        -12    1    1    2    0    0  0.11524631818E+02 -0.10385911178E+02  0.10487823682E+02  0.18726418107E+02  0.00000000000E+00 0.  1.
         11    1    3    3    0    0 -0.16726719446E+01 -0.11360022186E+02  0.37735159871E+01  0.12086660360E+02  0.51100000000E-03 0. -1.
        -11    1    3    3    0    0  0.17514299375E+02  0.17189187007E+02 -0.20456963839E+02  0.31948492959E+02  0.51100000000E-03 0.  1.
         12    1    3    3    0    0 -0.27366259248E+02  0.45567463566E+01  0.61956241701E+01  0.28426428574E+02  0.00000000000E+00 0. -1.
</event>
<event>
 7    1  0.1788006E-013  0.7246161E+02  0.7816164E-02  0.1226708E+00
        -11   -1    0    0    0    0  0.00000000000E+00  0.00000000000E+00  0.45593999997E+02  0.45594000000E+02  0.51100000000E-03 0.  1.
         11   -1    0    0    0    0 -0.00000000000E+00 -0.00000000000E+00 -0.45593999997E+02  0.45594000000E+02  0.51100000000E-03 0. -1.
    9900012    2    1    2    0    0  0.28215119268E+01 -0.59233966137E+01 -0.17539388334E+02  0.72461609527E+02  0.70000051108E+02 0.  0.
        -12    1    1    2    0    0 -0.28215119268E+01  0.59233966137E+01  0.17539388334E+02  0.18726390473E+02  0.00000000000E+00 0.  1.
         11    1    3    3    0    0  0.84773016550E+01 -0.15516468382E+02 -0.23032254007E+02  0.29036359264E+02  0.51100000000E-03 0. -1.
        -11    1    3    3    0    0  0.34680604358E+01 -0.14158606881E+02 -0.56691817327E+01  0.15640754898E+02  0.51100000000E-03 0.  1.
        -12    1    3    3    0    0 -0.91238501640E+01  0.23751678649E+02  0.11162047406E+02  0.27784495366E+02  0.00000000000E+00 0.  1.
</event>
<event>
 7    1  0.1788006E-013  0.7246227E+02  0.7816164E-02  0.1226706E+00
        -11   -1    0    0    0    0  0.00000000000E+00  0.00000000000E+00  0.45593999997E+02  0.45594000000E+02  0.51100000000E-03 0. -1.
         11   -1    0    0    0    0 -0.00000000000E+00 -0.00000000000E+00 -0.45593999997E+02  0.45594000000E+02  0.51100000000E-03 0.  1.
    9900012    2    1    2    0    0  0.16295333340E+02 -0.68240736299E+01  0.62086323537E+01  0.72462269433E+02  0.70000910752E+02 0.  0.
        -12    1    1    2    0    0 -0.16295333340E+02  0.68240736299E+01 -0.62086323537E+01  0.18725730567E+02  0.00000000000E+00 0.  1.
         11    1    3    3    0    0 -0.50250205364E+01  0.90673340523E+01  0.11069437970E+02  0.15165745463E+02  0.51100000000E-03 0. -1.
        -11    1    3    3    0    0  0.33792760160E+02 -0.95357084183E+01  0.10368299472E+02  0.36611227902E+02  0.51100000000E-03 0.  1.
        -12    1    3    3    0    0 -0.12472406283E+02 -0.63556992639E+01 -0.15229105088E+02  0.20685296068E+02  0.00000000000E+00 0.  1.
</event>
<event>
 7    1  0.1788006E-013  0.7246178E+02  0.7816164E-02  0.1226707E+00
        -11   -1    0    0    0    0  0.00000000000E+00  0.00000000000E+00  0.45593999997E+02  0.45594000000E+02  0.51100000000E-03 0. -1.
         11   -1    0    0    0    0 -0.00000000000E+00 -0.00000000000E+00 -0.45593999997E+02  0.45594000000E+02  0.51100000000E-03 0.  1.
    9900012    2    1    2    0    0  0.16916212748E+02 -0.76394714529E+01  0.24802538766E+01  0.72461776753E+02  0.70000268950E+02 0.  0.
        -12    1    1    2    0    0 -0.16916212748E+02  0.76394714529E+01 -0.24802538766E+01  0.18726223247E+02  0.00000000000E+00 0.  1.
         11    1    3    3    0    0  0.27449543773E+02  0.27239547074E+01  0.21559846622E+00  0.27585210994E+02  0.51100000000E-03 0. -1.
        -11    1    3    3    0    0  0.83595637817E+01  0.69154014834E+01 -0.11498596454E+02  0.15808946991E+02  0.51100000000E-03 0.  1.
         12    1    3    3    0    0 -0.18892894807E+02 -0.17278827644E+02  0.13763251864E+02  0.29067618768E+02  0.00000000000E+00 0. -1.
</event>
<event>
 7    1  0.1788006E-013  0.7246155E+02  0.7816164E-02  0.1226708E+00
        -11   -1    0    0    0    0  0.00000000000E+00  0.00000000000E+00  0.45593999997E+02  0.45594000000E+02  0.51100000000E-03 0. -1.
         11   -1    0    0    0    0 -0.00000000000E+00 -0.00000000000E+00 -0.45593999997E+02  0.45594000000E+02  0.51100000000E-03 0.  1.
    9900012    2    1    2    0    0 -0.38694818088E+01 -0.22516186048E+01  0.18183429309E+02  0.72461554068E+02  0.69999978863E+02 0.  0.
        -12    1    1    2    0    0  0.38694818088E+01  0.22516186048E+01 -0.18183429309E+02  0.18726445932E+02  0.00000000000E+00 0.  1.
         11    1    3    3    0    0  0.67365915114E+01 -0.25475780463E+02  0.19368180163E+02  0.32703569507E+02  0.51100000000E-03 0. -1.
        -11    1    3    3    0    0 -0.52686758298E+01  0.14741085989E+01  0.12407819285E+02  0.13560454300E+02  0.51100000000E-03 0.  1.
        -12    1    3    3    0    0 -0.53373974904E+01  0.21750053260E+02 -0.13592570140E+02  0.26197530261E+02  0.00000000000E+00 0.  1.
</event>
<event>
 7    1  0.1788006E-013  0.7246154E+02  0.7816164E-02  0.1226708E+00
        -11   -1    0    0    0    0  0.00000000000E+00  0.00000000000E+00  0.45593999997E+02  0.45594000000E+02  0.51100000000E-03 0.  1.
         11   -1    0    0    0    0 -0.00000000000E+00 -0.00000000000E+00 -0.45593999997E+02  0.45594000000E+02  0.51100000000E-03 0. -1.
    9900012    2    1    2    0    0 -0.11194044518E+02  0.13615088011E+02 -0.63248104477E+01  0.72461535267E+02  0.69999954370E+02 0.  0.
        -12    1    1    2    0    0  0.11194044518E+02 -0.13615088011E+02  0.63248104477E+01  0.18726464733E+02  0.00000000000E+00 0.  1.
         11    1    3    3    0    0  0.82471518638E+01  0.33417574358E+02 -0.78200238270E+01  0.35297344981E+02  0.51100000000E-03 0. -1.
        -11    1    3    3    0    0  0.16921118339E+01  0.29463478698E+01  0.48622859362E+01  0.59317816054E+01  0.51100000000E-03 0.  1.
        -12    1    3    3    0    0 -0.21133308215E+02 -0.22748834217E+02 -0.33670725568E+01  0.31232408680E+02  0.00000000000E+00 0.  1.
</event>
<event>
 7    1  0.1788006E-013  0.7246157E+02  0.7816164E-02  0.1226708E+00
        -11   -1    0    0    0    0  0.00000000000E+00  0.00000000000E+00  0.45593999997E+02  0.45594000000E+02  0.51100000000E-03 0.  1.
         11   -1    0    0    0    0 -0.00000000000E+00 -0.00000000000E+00 -0.45593999997E+02  0.45594000000E+02  0.51100000000E-03 0. -1.
    9900012    2    1    2    0    0  0.94800819413E+01 -0.39294708943E+01 -0.15664175795E+02  0.72461572192E+02  0.70000002472E+02 0.  0.
        -12    1    1    2    0    0 -0.94800819413E+01  0.39294708943E+01  0.15664175795E+02  0.18726427808E+02  0.00000000000E+00 0.  1.
         11    1    3    3    0    0 -0.33854968337E+00  0.55375835621E+01  0.25546449896E+01  0.61078358589E+01  0.51100000000E-03 0. -1.
        -11    1    3    3    0    0 -0.17135699989E+02 -0.57505666377E+01  0.14947195654E+02  0.23454634701E+02  0.51100000000E-03 0.  1.
         12    1    3    3    0    0  0.26954331613E+02 -0.37164878187E+01 -0.33166016439E+02  0.42899101632E+02  0.00000000000E+00 0. -1.
</event>
<event>
 7    1  0.1788006E-013  0.7246151E+02  0.7816164E-02  0.1226708E+00
        -11   -1    0    0    0    0  0.00000000000E+00  0.00000000000E+00  0.45593999997E+02  0.45594000000E+02  0.51100000000E-03 0. -1.
         11   -1    0    0    0    0 -0.00000000000E+00 -0.00000000000E+00 -0.45593999997E+02  0.45594000000E+02  0.51100000000E-03 0.  1.
    9900012    2    1    2    0    0 -0.13701692174E+02 -0.58780958668E+00  0.12751449025E+02  0.72461512321E+02  0.69999924479E+02 0.  0.
        -12    1    1    2    0    0  0.13701692174E+02  0.58780958668E+00 -0.12751449025E+02  0.18726487679E+02  0.00000000000E+00 0.  1.
         11    1    3    3    0    0  0.30381093811E+01 -0.38553473907E+01 -0.10333652005E+01  0.50161395528E+01  0.51100000000E-03 0. -1.
        -11    1    3    3    0    0  0.16267666358E+01  0.16304647072E+02 -0.20611408147E+02  0.26330932986E+02  0.51100000000E-03 0.  1.
         12    1    3    3    0    0 -0.18366568190E+02 -0.13037109268E+02  0.34396222373E+02  0.41114439783E+02  0.00000000000E+00 0. -1.
</event>
<event>
 7    1  0.1788006E-013  0.7246157E+02  0.7816164E-02  0.1226708E+00
        -11   -1    0    0    0    0  0.00000000000E+00  0.00000000000E+00  0.45593999997E+02  0.45594000000E+02  0.51100000000E-03 0.  1.
         11   -1    0    0    0    0 -0.00000000000E+00 -0.00000000000E+00 -0.45593999997E+02  0.45594000000E+02  0.51100000000E-03 0. -1.
    9900012    2    1    2    0    0  0.10351042968E+02 -0.41043989017E+01 -0.15056193718E+02  0.72461570812E+02  0.70000000674E+02 0.  0.
        -12    1    1    2    0    0 -0.10351042968E+02  0.41043989017E+01  0.15056193718E+02  0.18726429188E+02  0.00000000000E+00 0.  1.
         11    1    3    3    0    0 -0.12343182914E+00  0.15324015963E+02 -0.32005325506E+02  0.35484948382E+02  0.51100000000E-03 0. -1.
        -11    1    3    3    0    0  0.31375269792E+01 -0.28738670290E+01 -0.62416549201E+01  0.75539025443E+01  0.51100000000E-03 0.  1.
        -12    1    3    3    0    0  0.73369478184E+01 -0.16554547836E+02  0.23190786708E+02  0.29422719886E+02  0.00000000000E+00 0.  1.
</event>
<event>
 7    1  0.1788006E-013  0.7246164E+02  0.7816164E-02  0.1226708E+00
        -11   -1    0    0    0    0  0.00000000000E+00  0.00000000000E+00  0.45593999997E+02  0.45594000000E+02  0.51100000000E-03 0.  1.
         11   -1    0    0    0    0 -0.00000000000E+00 -0.00000000000E+00 -0.45593999997E+02  0.45594000000E+02  0.51100000000E-03 0. -1.
    9900012    2    1    2    0    0  0.16853256194E+02  0.77300032036E+01 -0.26251613218E+01  0.72461637143E+02  0.70000087083E+02 0.  0.
        -12    1    1    2    0    0 -0.16853256194E+02 -0.77300032036E+01  0.26251613218E+01  0.18726362857E+02  0.00000000000E+00 0.  1.
         11    1    3    3    0    0  0.20769959685E+02  0.31593848576E+01 -0.16088725768E+02  0.26461671056E+02  0.51100000000E-03 0. -1.
        -11    1    3    3    0    0 -0.82295113645E+00 -0.14408729358E+02 -0.85463562307E+01  0.16772863064E+02  0.51100000000E-03 0.  1.
        -12    1    3    3    0    0 -0.30937523546E+01  0.18979347704E+02  0.22009920677E+02  0.29227103023E+02  0.00000000000E+00 0.  1.
</event>
<event>
 7    1  0.1788006E-013  0.7246153E+02  0.7816164E-02  0.1226708E+00
        -11   -1    0    0    0    0  0.00000000000E+00  0.00000000000E+00  0.45593999997E+02  0.45594000000E+02  0.51100000000E-03 0. -1.
         11   -1    0    0    0    0 -0.00000000000E+00 -0.00000000000E+00 -0.45593999997E+02  0.45594000000E+02  0.51100000000E-03 0.  1.
    9900012    2    1    2    0    0  0.11932827465E+02 -0.95123170484E+01  0.10853754599E+02  0.72461533814E+02  0.69999952477E+02 0.  0.
        -12    1    1    2    0    0 -0.11932827465E+02  0.95123170484E+01 -0.10853754599E+02  0.18726466186E+02  0.00000000000E+00 0.  1.
         11    1    3    3    0    0  0.20378642931E+01 -0.10519542210E+02  0.12903277087E+01  0.10792525425E+02  0.51100000000E-03 0. -1.
        -11    1    3    3    0    0  0.34417624326E+02 -0.49973033776E+01  0.31096896943E+00  0.34779916723E+02  0.51100000000E-03 0.  1.
         12    1    3    3    0    0 -0.24522661154E+02  0.60045285396E+01  0.92524579206E+01  0.26889091666E+02  0.00000000000E+00 0. -1.
</event>
<event>
 7    1  0.1788006E-013  0.7246157E+02  0.7816164E-02  0.1226708E+00
        -11   -1    0    0    0    0  0.00000000000E+00  0.00000000000E+00  0.45593999997E+02  0.45594000000E+02  0.51100000000E-03 0.  1.
         11   -1    0    0    0    0 -0.00000000000E+00 -0.00000000000E+00 -0.45593999997E+02  0.45594000000E+02  0.51100000000E-03 0. -1.
    9900012    2    1    2    0    0  0.12944110967E+02 -0.10418555199E+02  0.86361282598E+01  0.72461574487E+02  0.70000005462E+02 0.  0.
        -12    1    1    2    0    0 -0.12944110967E+02  0.10418555199E+02 -0.86361282598E+01  0.18726425513E+02  0.00000000000E+00 0.  1.
         11    1    3    3    0    0 -0.30686115238E+01 -0.98335892407E+01 -0.91544136724E+01  0.13781115484E+02  0.51100000000E-03 0. -1.
        -11    1    3    3    0    0  0.24671781135E+02 -0.16452797808E+02  0.25421093083E+02  0.39059228281E+02  0.51100000000E-03 0.  1.
         12    1    3    3    0    0 -0.86590586445E+01  0.15867831849E+02 -0.76305511505E+01  0.19621230722E+02  0.00000000000E+00 0. -1.
</event>
<event>
 7    1  0.1788006E-013  0.7246153E+02  0.7816164E-02  0.1226708E+00
        -11   -1    0    0    0    0  0.00000000000E+00  0.00000000000E+00  0.45593999997E+02  0.45594000000E+02  0.51100000000E-03 0. -1.
         11   -1    0    0    0    0 -0.00000000000E+00 -0.00000000000E+00 -0.45593999997E+02  0.45594000000E+02  0.51100000000E-03 0.  1.
    9900012    2    1    2    0    0  0.10427237833E+02  0.12666864031E+02  0.90279517094E+01  0.72461530891E+02  0.69999948670E+02 0.  0.
        -12    1    1    2    0    0 -0.10427237833E+02 -0.12666864031E+02 -0.90279517094E+01  0.18726469109E+02  0.00000000000E+00 0.  1.
         11    1    3    3    0    0  0.26561184837E+01  0.67049083911E+01  0.12871534650E+02  0.14754225376E+02  0.51100000000E-03 0. -1.
        -11    1    3    3    0    0  0.18452817934E+02  0.25198852636E+02 -0.13057553226E+02  0.33852449844E+02  0.51100000000E-03 0.  1.
         12    1    3    3    0    0 -0.10681698585E+02 -0.19236896996E+02  0.92139702852E+01  0.23854855672E+02  0.00000000000E+00 0. -1.
</event>
<event>
 7    1  0.1788006E-013  0.7246157E+02  0.7816164E-02  0.1226708E+00
        -11   -1    0    0    0    0  0.00000000000E+00  0.00000000000E+00  0.45593999997E+02  0.45594000000E+02  0.51100000000E-03 0. -1.
         11   -1    0    0    0    0 -0.00000000000E+00 -0.00000000000E+00 -0.45593999997E+02  0.45594000000E+02  0.51100000000E-03 0.  1.
    9900012    2    1    2    0    0 -0.20949183146E+01  0.18512873406E+02  0.18878621406E+01  0.72461569802E+02  0.69999999359E+02 0.  0.
        -12    1    1    2    0    0  0.20949183146E+01 -0.18512873406E+02 -0.18878621406E+01  0.18726430198E+02  0.00000000000E+00 0.  1.
         11    1    3    3    0    0 -0.14439145586E+02  0.13743390323E+02 -0.50750093918E+01  0.20570012723E+02  0.51100000000E-03 0. -1.
        -11    1    3    3    0    0 -0.14397262454E+02 -0.16274524814E+00 -0.11997371344E+02  0.18741519991E+02  0.51100000000E-03 0.  1.
        -12    1    3    3    0    0  0.26741489725E+02  0.49322283312E+01  0.18960242876E+02  0.33150037088E+02  0.00000000000E+00 0.  1.
</event>
<event>
 7    1  0.1788006E-013  0.7246157E+02  0.7816164E-02  0.1226708E+00
        -11   -1    0    0    0    0  0.00000000000E+00  0.00000000000E+00  0.45593999997E+02  0.45594000000E+02  0.51100000000E-03 0.  1.
         11   -1    0    0    0    0 -0.00000000000E+00 -0.00000000000E+00 -0.45593999997E+02  0.45594000000E+02  0.51100000000E-03 0. -1.
    9900012    2    1    2    0    0 -0.89561838898E+01 -0.21156850814E+00 -0.16444483170E+02  0.72461574345E+02  0.70000005277E+02 0.  0.
        -12    1    1    2    0    0  0.89561838898E+01  0.21156850814E+00  0.16444483170E+02  0.18726425655E+02  0.00000000000E+00 0.  1.
         11    1    3    3    0    0  0.59173251462E+01  0.95223725440E+01 -0.92000141292E+01  0.14502778216E+02  0.51100000000E-03 0. -1.
        -11    1    3    3    0    0  0.18029813142E+02 -0.97015850496E+01  0.76296967252E+01  0.21849649580E+02  0.51100000000E-03 0.  1.
        -12    1    3    3    0    0 -0.32903322178E+02 -0.32356002490E-01 -0.14874165766E+02  0.36109146548E+02  0.00000000000E+00 0.  1.
</event>
<event>
 7    1  0.1788006E-013  0.7246168E+02  0.7816164E-02  0.1226708E+00
        -11   -1    0    0    0    0  0.00000000000E+00  0.00000000000E+00  0.45593999997E+02  0.45594000000E+02  0.51100000000E-03 0.  1.
         11   -1    0    0    0    0 -0.00000000000E+00 -0.00000000000E+00 -0.45593999997E+02  0.45594000000E+02  0.51100000000E-03 0. -1.
    9900012    2    1    2    0    0  0.83570146906E+01  0.17971399923E+01 -0.16661501933E+02  0.72461680197E+02  0.70000143169E+02 0.  0.
        -12    1    1    2    0    0 -0.83570146906E+01 -0.17971399923E+01  0.16661501933E+02  0.18726319803E+02  0.00000000000E+00 0.  1.
         11    1    3    3    0    0 -0.21529562650E+00  0.12497002993E+02 -0.29343621957E+01  0.12838688320E+02  0.51100000000E-03 0. -1.
        -11    1    3    3    0    0 -0.67317440312E+01 -0.93867316941E+01  0.19699352311E+02  0.22836190386E+02  0.51100000000E-03 0.  1.
         12    1    3    3    0    0  0.15304054348E+02 -0.13131313064E+01 -0.33426492049E+02  0.36786801492E+02  0.00000000000E+00 0. -1.
</event>
<event>
 7    1  0.1788006E-013  0.7246157E+02  0.7816164E-02  0.1226708E+00
        -11   -1    0    0    0    0  0.00000000000E+00  0.00000000000E+00  0.45593999997E+02  0.45594000000E+02  0.51100000000E-03 0.  1.
         11   -1    0    0    0    0 -0.00000000000E+00 -0.00000000000E+00 -0.45593999997E+02  0.45594000000E+02  0.51100000000E-03 0. -1.
    9900012    2    1    2    0    0 -0.10175026618E+02 -0.70313651455E+01 -0.14060859132E+02  0.72461574233E+02  0.70000005131E+02 0.  0.
        -12    1    1    2    0    0  0.10175026618E+02  0.70313651455E+01  0.14060859132E+02  0.18726425767E+02  0.00000000000E+00 0.  1.
         11    1    3    3    0    0 -0.69497434710E+01 -0.19243107240E+02 -0.18929067624E+02  0.27873028395E+02  0.51100000000E-03 0. -1.
        -11    1    3    3    0    0 -0.24443428180E+01 -0.23235571851E+01 -0.17543433656E+02  0.17864652096E+02  0.51100000000E-03 0.  1.
        -12    1    3    3    0    0 -0.78094032859E+00  0.14535299280E+02  0.22411642148E+02  0.26723893742E+02  0.00000000000E+00 0.  1.
</event>
<event>
 7    1  0.1788006E-013  0.7246152E+02  0.7816164E-02  0.1226708E+00
        -11   -1    0    0    0    0  0.00000000000E+00  0.00000000000E+00  0.45593999997E+02  0.45594000000E+02  0.51100000000E-03 0. -1.
         11   -1    0    0    0    0 -0.00000000000E+00 -0.00000000000E+00 -0.45593999997E+02  0.45594000000E+02  0.51100000000E-03 0.  1.
    9900012    2    1    2    0    0  0.32186214021E+01 -0.53982609897E+01  0.17640303901E+02  0.72461519627E+02  0.69999933996E+02 0.  0.
        -12    1    1    2    0    0 -0.32186214021E+01  0.53982609897E+01 -0.17640303901E+02  0.18726480373E+02  0.00000000000E+00 0.  1.
         11    1    3    3    0    0 -0.79669668960E+01 -0.75080624847E+01  0.10852726146E+02  0.15415097432E+02  0.51100000000E-03 0. -1.
        -11    1    3    3    0    0 -0.16976600630E+02  0.74760038633E+00  0.19716011937E+02  0.26028542069E+02  0.51100000000E-03 0.  1.
         12    1    3    3    0    0  0.28162188928E+02  0.13622011087E+01 -0.12928434181E+02  0.31017880125E+02  0.00000000000E+00 0. -1.
</event>
<event>
 7    1  0.1788006E-013  0.7246160E+02  0.7816164E-02  0.1226708E+00
        -11   -1    0    0    0    0  0.00000000000E+00  0.00000000000E+00  0.45593999997E+02  0.45594000000E+02  0.51100000000E-03 0.  1.
         11   -1    0    0    0    0 -0.00000000000E+00 -0.00000000000E+00 -0.45593999997E+02  0.45594000000E+02  0.51100000000E-03 0. -1.
    9900012    2    1    2    0    0  0.12901646084E+01 -0.18590724490E+02  0.18435031072E+01  0.72461599772E+02  0.70000038400E+02 0.  0.
        -12    1    1    2    0    0 -0.12901646084E+01  0.18590724490E+02 -0.18435031072E+01  0.18726400228E+02  0.00000000000E+00 0.  1.
         11    1    3    3    0    0 -0.13571565168E+02 -0.11357480022E+02  0.17302538661E+02  0.24749900564E+02  0.51100000000E-03 0. -1.
        -11    1    3    3    0    0 -0.38269696488E+01  0.99913693467E+01  0.78151432508E+01  0.13249514044E+02  0.51100000000E-03 0.  1.
         12    1    3    3    0    0  0.18688699425E+02 -0.17224613814E+02 -0.23274178805E+02  0.34462185164E+02  0.00000000000E+00 0. -1.
</event>
<event>
 7    1  0.1788006E-013  0.7246159E+02  0.7816164E-02  0.1226708E+00
        -11   -1    0    0    0    0  0.00000000000E+00  0.00000000000E+00  0.45593999997E+02  0.45594000000E+02  0.51100000000E-03 0.  1.
         11   -1    0    0    0    0 -0.00000000000E+00 -0.00000000000E+00 -0.45593999997E+02  0.45594000000E+02  0.51100000000E-03 0. -1.
    9900012    2    1    2    0    0 -0.12384277738E+02  0.65208674777E+01 -0.12441312069E+02  0.72461593678E+02  0.70000030461E+02 0.  0.
        -12    1    1    2    0    0  0.12384277738E+02 -0.65208674777E+01  0.12441312069E+02  0.18726406322E+02  0.00000000000E+00 0.  1.
         11    1    3    3    0    0 -0.31045541446E+00  0.11515666472E+02 -0.55522080159E+01  0.12788040154E+02  0.51100000000E-03 0. -1.
        -11    1    3    3    0    0  0.17088239449E+02  0.15318486246E+02  0.20094425886E+01  0.23036966122E+02  0.51100000000E-03 0.  1.
        -12    1    3    3    0    0 -0.29162061773E+02 -0.20313285240E+02 -0.88985466412E+01  0.36636587402E+02  0.00000000000E+00 0.  1.
</event>
<event>
 7    1  0.1788006E-013  0.7246160E+02  0.7816164E-02  0.1226708E+00
        -11   -1    0    0    0    0  0.00000000000E+00  0.00000000000E+00  0.45593999997E+02  0.45594000000E+02  0.51100000000E-03 0.  1.
         11   -1    0    0    0    0 -0.00000000000E+00 -0.00000000000E+00 -0.45593999997E+02  0.45594000000E+02  0.51100000000E-03 0. -1.
    9900012    2    1    2    0    0  0.18043956853E+02  0.43602914620E+01  0.24660444303E+01  0.72461604307E+02  0.70000044307E+02 0.  0.
        -12    1    1    2    0    0 -0.18043956853E+02 -0.43602914620E+01 -0.24660444303E+01  0.18726395693E+02  0.00000000000E+00 0.  1.
         11    1    3    3    0    0  0.19103237262E+02 -0.44975780396E+01 -0.14672538569E+02  0.24503984787E+02  0.51100000000E-03 0. -1.
        -11    1    3    3    0    0  0.16373633107E+02  0.16692415631E+02  0.18003179932E+01  0.23451519052E+02  0.51100000000E-03 0.  1.
        -12    1    3    3    0    0 -0.17432913516E+02 -0.78345461297E+01  0.15338265006E+02  0.24506100467E+02  0.00000000000E+00 0.  1.
</event>
<event>
 7    1  0.1788006E-013  0.7246153E+02  0.7816164E-02  0.1226708E+00
        -11   -1    0    0    0    0  0.00000000000E+00  0.00000000000E+00  0.45593999997E+02  0.45594000000E+02  0.51100000000E-03 0. -1.
         11   -1    0    0    0    0 -0.00000000000E+00 -0.00000000000E+00 -0.45593999997E+02  0.45594000000E+02  0.51100000000E-03 0.  1.
    9900012    2    1    2    0    0  0.11233268954E+02 -0.62629634507E+01  0.13611382753E+02  0.72461527214E+02  0.69999943879E+02 0.  0.
        -12    1    1    2    0    0 -0.11233268954E+02  0.62629634507E+01 -0.13611382753E+02  0.18726472786E+02  0.00000000000E+00 0.  1.
         11    1    3    3    0    0 -0.10375884152E+02 -0.27005394610E+02  0.17414875393E+02  0.33767265142E+02  0.51100000000E-03 0. -1.
        -11    1    3    3    0    0  0.54707571883E+01 -0.42993152949E+01 -0.54781106665E+01  0.88556757480E+01  0.51100000000E-03 0.  1.
        -12    1    3    3    0    0  0.16138395918E+02  0.25041746454E+02  0.16746180262E+01  0.29838586324E+02  0.00000000000E+00 0.  1.
</event>
<event>
 7    1  0.1788006E-013  0.7246154E+02  0.7816164E-02  0.1226708E+00
        -11   -1    0    0    0    0  0.00000000000E+00  0.00000000000E+00  0.45593999997E+02  0.45594000000E+02  0.51100000000E-03 0.  1.
         11   -1    0    0    0    0 -0.00000000000E+00 -0.00000000000E+00 -0.45593999997E+02  0.45594000000E+02  0.51100000000E-03 0. -1.
    9900012    2    1    2    0    0 -0.65864538365E+01 -0.17529900196E+02 -0.37732999504E-01  0.72461542812E+02  0.69999964199E+02 0.  0.
        -12    1    1    2    0    0  0.65864538365E+01  0.17529900196E+02  0.37732999504E-01  0.18726457188E+02  0.00000000000E+00 0.  1.
         11    1    3    3    0    0  0.84229722372E+00  0.13756368890E+02  0.47590470331E+01  0.14580661116E+02  0.51100000000E-03 0. -1.
        -11    1    3    3    0    0  0.59747110517E+01  0.29055388574E+00  0.16468008102E+02  0.17520755829E+02  0.51100000000E-03 0.  1.
         12    1    3    3    0    0 -0.13403462112E+02 -0.31576822972E+02 -0.21264788134E+02  0.40360125867E+02  0.00000000000E+00 0. -1.
</event>
<event>
 7    1  0.1788006E-013  0.7246157E+02  0.7816164E-02  0.1226708E+00
        -11   -1    0    0    0    0  0.00000000000E+00  0.00000000000E+00  0.45593999997E+02  0.45594000000E+02  0.51100000000E-03 0. -1.
         11   -1    0    0    0    0 -0.00000000000E+00 -0.00000000000E+00 -0.45593999997E+02  0.45594000000E+02  0.51100000000E-03 0.  1.
    9900012    2    1    2    0    0 -0.17878253629E+02  0.51236958052E+01 -0.21897216399E+01  0.72461572353E+02  0.70000002682E+02 0.  0.
        -12    1    1    2    0    0  0.17878253629E+02 -0.51236958052E+01  0.21897216399E+01  0.18726427647E+02  0.00000000000E+00 0.  1.
         11    1    3    3    0    0 -0.25109056030E+02 -0.26295369208E+01  0.99837086676E+01  0.27148731059E+02  0.51100000000E-03 0. -1.
        -11    1    3    3    0    0  0.84414309472E+01  0.75875883705E+01  0.14610394300E+02  0.18501158763E+02  0.51100000000E-03 0.  1.
        -12    1    3    3    0    0 -0.12106285469E+01  0.16564435554E+00 -0.26783824607E+02  0.26811682531E+02  0.00000000000E+00 0.  1.
</event>
<event>
 7    1  0.1788006E-013  0.7246157E+02  0.7816164E-02  0.1226708E+00
        -11   -1    0    0    0    0  0.00000000000E+00  0.00000000000E+00  0.45593999997E+02  0.45594000000E+02  0.51100000000E-03 0. -1.
         11   -1    0    0    0    0 -0.00000000000E+00 -0.00000000000E+00 -0.45593999997E+02  0.45594000000E+02  0.51100000000E-03 0.  1.
    9900012    2    1    2    0    0  0.12853329646E+02  0.13600033322E+02  0.71435979085E+00  0.72461566830E+02  0.69999995488E+02 0.  0.
        -12    1    1    2    0    0 -0.12853329646E+02 -0.13600033322E+02 -0.71435979085E+00  0.18726433170E+02  0.00000000000E+00 0.  1.
         11    1    3    3    0    0  0.18544902350E+02  0.63323367879E+01 -0.64602950074E+01  0.20633644957E+02  0.51100000000E-03 0. -1.
        -11    1    3    3    0    0 -0.26996628935E+02 -0.14335319012E+01 -0.18739119614E+01  0.27099530141E+02  0.51100000000E-03 0.  1.
         12    1    3    3    0    0  0.21305056231E+02  0.87012284357E+01  0.90485667597E+01  0.24728391733E+02  0.00000000000E+00 0. -1.
</event>
<event>
 7    1  0.1788006E-013  0.7246151E+02  0.7816164E-02  0.1226708E+00
        -11   -1    0    0    0    0  0.00000000000E+00  0.00000000000E+00  0.45593999997E+02  0.45594000000E+02  0.51100000000E-03 0. -1.
         11   -1    0    0    0    0 -0.00000000000E+00 -0.00000000000E+00 -0.45593999997E+02  0.45594000000E+02  0.51100000000E-03 0.  1.
    9900012    2    1    2    0    0  0.66101312189E+01 -0.14930862226E+02  0.91682594881E+01  0.72461509043E+02  0.69999920208E+02 0.  0.
        -12    1    1    2    0    0 -0.66101312189E+01  0.14930862226E+02 -0.91682594881E+01  0.18726490957E+02  0.00000000000E+00 0.  1.
         11    1    3    3    0    0 -0.44823774830E+00 -0.23401655723E+02  0.34242895560E+02  0.41477877287E+02  0.51100000000E-03 0. -1.
        -11    1    3    3    0    0 -0.37482436629E+01  0.10201201817E+01 -0.11332975614E+02  0.11980246754E+02  0.51100000000E-03 0.  1.
        -12    1    3    3    0    0  0.10806612630E+02  0.74506733152E+01 -0.13741660458E+02  0.19003385002E+02  0.00000000000E+00 0.  1.
</event>
<event>
 7    1  0.1788006E-013  0.7246161E+02  0.7816164E-02  0.1226708E+00
        -11   -1    0    0    0    0  0.00000000000E+00  0.00000000000E+00  0.45593999997E+02  0.45594000000E+02  0.51100000000E-03 0.  1.
         11   -1    0    0    0    0 -0.00000000000E+00 -0.00000000000E+00 -0.45593999997E+02  0.45594000000E+02  0.51100000000E-03 0. -1.
    9900012    2    1    2    0    0  0.46818761779E+01 -0.10689247031E+02 -0.14645744615E+02  0.72461606808E+02  0.70000047566E+02 0.  0.
        -12    1    1    2    0    0 -0.46818761779E+01  0.10689247031E+02  0.14645744615E+02  0.18726393192E+02  0.00000000000E+00 0.  1.
         11    1    3    3    0    0  0.88155319834E+01  0.80885101951E+01  0.13404874414E+02  0.17967422176E+02  0.51100000000E-03 0. -1.
        -11    1    3    3    0    0 -0.73959475206E+00 -0.23691252906E+02  0.20646362189E+01  0.23792544791E+02  0.51100000000E-03 0.  1.
         12    1    3    3    0    0 -0.33940610534E+01  0.49134956800E+01 -0.30115255249E+02  0.30701639841E+02  0.00000000000E+00 0. -1.
</event>
<event>
 7    1  0.1788006E-013  0.7246160E+02  0.7816164E-02  0.1226708E+00
        -11   -1    0    0    0    0  0.00000000000E+00  0.00000000000E+00  0.45593999997E+02  0.45594000000E+02  0.51100000000E-03 0. -1.
         11   -1    0    0    0    0 -0.00000000000E+00 -0.00000000000E+00 -0.45593999997E+02  0.45594000000E+02  0.51100000000E-03 0.  1.
    9900012    2    1    2    0    0  0.45889719707E+01 -0.17060333962E+02 -0.62100367069E+01  0.72461595793E+02  0.70000033216E+02 0.  0.
        -12    1    1    2    0    0 -0.45889719707E+01  0.17060333962E+02  0.62100367069E+01  0.18726404207E+02  0.00000000000E+00 0.  1.
         11    1    3    3    0    0 -0.27022409088E+02 -0.36706854896E+00  0.42513597033E+01  0.27357254830E+02  0.51100000000E-03 0. -1.
        -11    1    3    3    0    0  0.56798474557E+01  0.66259249166E+01 -0.41488818494E+01  0.96631655777E+01  0.51100000000E-03 0.  1.
        -12    1    3    3    0    0  0.25931533603E+02 -0.23319190329E+02 -0.63125145608E+01  0.35441175385E+02  0.00000000000E+00 0.  1.
</event>
<event>
 7    1  0.1788006E-013  0.7246158E+02  0.7816164E-02  0.1226708E+00
        -11   -1    0    0    0    0  0.00000000000E+00  0.00000000000E+00  0.45593999997E+02  0.45594000000E+02  0.51100000000E-03 0.  1.
         11   -1    0    0    0    0 -0.00000000000E+00 -0.00000000000E+00 -0.45593999997E+02  0.45594000000E+02  0.51100000000E-03 0. -1.
    9900012    2    1    2    0    0  0.54181912856E+01  0.17204814758E+02  0.50315539173E+01  0.72461575288E+02  0.70000006505E+02 0.  0.
        -12    1    1    2    0    0 -0.54181912856E+01 -0.17204814758E+02 -0.50315539173E+01  0.18726424712E+02  0.00000000000E+00 0.  1.
         11    1    3    3    0    0  0.10100325281E+02  0.14084839713E+02  0.18013666096E+02  0.24997828846E+02  0.51100000000E-03 0.  1.
        -11    1    3    3    0    0 -0.20965714734E+02 -0.85942621834E+01 -0.15195944491E+02  0.27282581733E+02  0.51100000000E-03 0. -1.
         12    1    3    3    0    0  0.16283580738E+02  0.11714237228E+02  0.22138323125E+01  0.20181164709E+02  0.00000000000E+00 0. -1.
</event>
<event>
 7    1  0.1788006E-013  0.7246155E+02  0.7816164E-02  0.1226708E+00
        -11   -1    0    0    0    0  0.00000000000E+00  0.00000000000E+00  0.45593999997E+02  0.45594000000E+02  0.51100000000E-03 0.  1.
         11   -1    0    0    0    0 -0.00000000000E+00 -0.00000000000E+00 -0.45593999997E+02  0.45594000000E+02  0.51100000000E-03 0. -1.
    9900012    2    1    2    0    0 -0.17269856550E+02  0.21205294719E+01 -0.69235426411E+01  0.72461547234E+02  0.69999969960E+02 0.  0.
        -12    1    1    2    0    0  0.17269856550E+02 -0.21205294719E+01  0.69235426411E+01  0.18726452766E+02  0.00000000000E+00 0.  1.
         11    1    3    3    0    0  0.12708642770E+02  0.52601477217E+01 -0.13376913044E+02  0.19186468095E+02  0.51100000000E-03 0. -1.
        -11    1    3    3    0    0 -0.92912749631E+01  0.47600994593E+01 -0.17673442631E+02  0.20526492930E+02  0.51100000000E-03 0.  1.
        -12    1    3    3    0    0 -0.20687224357E+02 -0.78997177091E+01  0.24126813035E+02  0.32748586209E+02  0.00000000000E+00 0.  1.
</event>
<event>
 7    1  0.1788006E-013  0.7246156E+02  0.7816164E-02  0.1226708E+00
        -11   -1    0    0    0    0  0.00000000000E+00  0.00000000000E+00  0.45593999997E+02  0.45594000000E+02  0.51100000000E-03 0. -1.
         11   -1    0    0    0    0 -0.00000000000E+00 -0.00000000000E+00 -0.45593999997E+02  0.45594000000E+02  0.51100000000E-03 0.  1.
    9900012    2    1    2    0    0 -0.14284828927E+02 -0.11647912910E+02  0.33089615807E+01  0.72461563090E+02  0.69999990615E+02 0.  0.
        -12    1    1    2    0    0  0.14284828927E+02  0.11647912910E+02 -0.33089615807E+01  0.18726436910E+02  0.00000000000E+00 0.  1.
         11    1    3    3    0    0  0.24860567023E+01 -0.16032512043E+02  0.17509685395E+02  0.23870714342E+02  0.51100000000E-03 0. -1.
        -11    1    3    3    0    0  0.13364356494E+01  0.19462113249E+02  0.25596671492E+01  0.19675157142E+02  0.51100000000E-03 0.  1.
         12    1    3    3    0    0 -0.18107321278E+02 -0.15077514116E+02 -0.16760390963E+02  0.28915691606E+02  0.00000000000E+00 0. -1.
</event>
<event>
 7    1  0.1788006E-013  0.7246153E+02  0.7816164E-02  0.1226708E+00
        -11   -1    0    0    0    0  0.00000000000E+00  0.00000000000E+00  0.45593999997E+02  0.45594000000E+02  0.51100000000E-03 0.  1.
         11   -1    0    0    0    0 -0.00000000000E+00 -0.00000000000E+00 -0.45593999997E+02  0.45594000000E+02  0.51100000000E-03 0. -1.
    9900012    2    1    2    0    0 -0.32037585755E+01 -0.38072411952E+01 -0.18053292605E+02  0.72461534012E+02  0.69999952735E+02 0.  0.
        -12    1    1    2    0    0  0.32037585755E+01  0.38072411952E+01  0.18053292605E+02  0.18726465988E+02  0.00000000000E+00 0.  1.
         11    1    3    3    0    0  0.12186321807E+02  0.22164131965E+01  0.60377491765E+01  0.13779453619E+02  0.51100000000E-03 0. -1.
        -11    1    3    3    0    0 -0.18642323739E+02  0.49420789810E+01  0.10702440984E+02  0.22056804445E+02  0.51100000000E-03 0.  1.
         12    1    3    3    0    0  0.32522433566E+01 -0.10965733373E+02 -0.34793482766E+02  0.36625275948E+02  0.00000000000E+00 0. -1.
</event>
<event>
 7    1  0.1788006E-013  0.7246162E+02  0.7816164E-02  0.1226708E+00
        -11   -1    0    0    0    0  0.00000000000E+00  0.00000000000E+00  0.45593999997E+02  0.45594000000E+02  0.51100000000E-03 0. -1.
         11   -1    0    0    0    0 -0.00000000000E+00 -0.00000000000E+00 -0.45593999997E+02  0.45594000000E+02  0.51100000000E-03 0.  1.
    9900012    2    1    2    0    0 -0.63968503481E+01 -0.16824869453E+02  0.51654000975E+01  0.72461620620E+02  0.70000065559E+02 0.  0.
        -12    1    1    2    0    0  0.63968503481E+01  0.16824869453E+02 -0.51654000975E+01  0.18726379380E+02  0.00000000000E+00 0.  1.
         11    1    3    3    0    0 -0.14028716208E+02 -0.10563045723E+02 -0.18874108513E+01  0.17661968559E+02  0.51100000000E-03 0. -1.
        -11    1    3    3    0    0 -0.98090768836E+01  0.16307260486E+02 -0.10071767634E+02  0.21531029641E+02  0.51100000000E-03 0.  1.
         12    1    3    3    0    0  0.17440942743E+02 -0.22569084216E+02  0.17124578583E+02  0.33268622421E+02  0.00000000000E+00 0. -1.
</event>
<event>
 7    1  0.1788006E-013  0.7246149E+02  0.7816164E-02  0.1226708E+00
        -11   -1    0    0    0    0  0.00000000000E+00  0.00000000000E+00  0.45593999997E+02  0.45594000000E+02  0.51100000000E-03 0.  1.
         11   -1    0    0    0    0 -0.00000000000E+00 -0.00000000000E+00 -0.45593999997E+02  0.45594000000E+02  0.51100000000E-03 0. -1.
    9900012    2    1    2    0    0 -0.17679982261E+02 -0.55815632914E+01 -0.26356664296E+01  0.72461485133E+02  0.69999889062E+02 0.  0.
        -12    1    1    2    0    0  0.17679982261E+02  0.55815632914E+01  0.26356664296E+01  0.18726514867E+02  0.00000000000E+00 0.  1.
         11    1    3    3    0    0  0.13866148940E+01  0.17208797995E+01  0.17894288404E+02  0.18030243645E+02  0.51100000000E-03 0.  1.
        -11    1    3    3    0    0  0.11243909247E+01 -0.20470287951E+02  0.30308567754E+01  0.20723972515E+02  0.51100000000E-03 0. -1.
         12    1    3    3    0    0 -0.20190988080E+02  0.13167844860E+02 -0.23560811609E+02  0.33707268973E+02  0.00000000000E+00 0. -1.
</event>
<event>
 7    1  0.1788006E-013  0.7246173E+02  0.7816164E-02  0.1226708E+00
        -11   -1    0    0    0    0  0.00000000000E+00  0.00000000000E+00  0.45593999997E+02  0.45594000000E+02  0.51100000000E-03 0.  1.
         11   -1    0    0    0    0 -0.00000000000E+00 -0.00000000000E+00 -0.45593999997E+02  0.45594000000E+02  0.51100000000E-03 0. -1.
    9900012    2    1    2    0    0  0.67753736247E+01 -0.31168755783E+01 -0.17177090244E+02  0.72461734211E+02  0.70000213532E+02 0.  0.
        -12    1    1    2    0    0 -0.67753736247E+01  0.31168755783E+01  0.17177090244E+02  0.18726265789E+02  0.00000000000E+00 0.  1.
         11    1    3    3    0    0  0.72745277970E+01  0.36101640123E+00 -0.77700101885E+00  0.73248084177E+01  0.51100000000E-03 0. -1.
        -11    1    3    3    0    0  0.25323322911E+02 -0.23666437829E+01 -0.27097939918E+02  0.37164096035E+02  0.51100000000E-03 0.  1.
         12    1    3    3    0    0 -0.25822477083E+02 -0.11112481966E+01  0.10697850692E+02  0.27972829759E+02  0.00000000000E+00 0. -1.
</event>
<event>
 7    1  0.1788006E-013  0.7246158E+02  0.7816164E-02  0.1226708E+00
        -11   -1    0    0    0    0  0.00000000000E+00  0.00000000000E+00  0.45593999997E+02  0.45594000000E+02  0.51100000000E-03 0. -1.
         11   -1    0    0    0    0 -0.00000000000E+00 -0.00000000000E+00 -0.45593999997E+02  0.45594000000E+02  0.51100000000E-03 0.  1.
    9900012    2    1    2    0    0  0.35420526836E+01  0.47852750757E+01  0.17754825373E+02  0.72461579659E+02  0.70000012199E+02 0.  0.
        -12    1    1    2    0    0 -0.35420526836E+01 -0.47852750757E+01 -0.17754825373E+02  0.18726420341E+02  0.00000000000E+00 0.  1.
         11    1    3    3    0    0  0.25722168862E+02 -0.64046708713E+01  0.70186066445E+01  0.27420988666E+02  0.51100000000E-03 0. -1.
        -11    1    3    3    0    0  0.96821183720E+01  0.50908305884E+01  0.52713492496E+01  0.12142779559E+02  0.51100000000E-03 0.  1.
        -12    1    3    3    0    0 -0.31862234550E+02  0.60991153586E+01  0.54648694790E+01  0.32897811434E+02  0.00000000000E+00 0.  1.
</event>
<event>
 7    1  0.1788006E-013  0.7246161E+02  0.7816164E-02  0.1226708E+00
        -11   -1    0    0    0    0  0.00000000000E+00  0.00000000000E+00  0.45593999997E+02  0.45594000000E+02  0.51100000000E-03 0. -1.
         11   -1    0    0    0    0 -0.00000000000E+00 -0.00000000000E+00 -0.45593999997E+02  0.45594000000E+02  0.51100000000E-03 0.  1.
    9900012    2    1    2    0    0 -0.23509826101E+01  0.12024339926E+02  0.14162122461E+02  0.72461612669E+02  0.70000055201E+02 0.  0.
        -12    1    1    2    0    0  0.23509826101E+01 -0.12024339926E+02 -0.14162122461E+02  0.18726387331E+02  0.00000000000E+00 0.  1.
         11    1    3    3    0    0 -0.78149766138E+01  0.77364899135E+00  0.44912541698E+00  0.78660095434E+01  0.51100000000E-03 0. -1.
        -11    1    3    3    0    0  0.12549244149E+02 -0.47234702252E+01 -0.21469220383E+02  0.25312489483E+02  0.51100000000E-03 0.  1.
         12    1    3    3    0    0 -0.70852501455E+01  0.15974161160E+02  0.35182217427E+02  0.39283113643E+02  0.00000000000E+00 0. -1.
</event>
<event>
 7    1  0.1788006E-013  0.7246156E+02  0.7816164E-02  0.1226708E+00
        -11   -1    0    0    0    0  0.00000000000E+00  0.00000000000E+00  0.45593999997E+02  0.45594000000E+02  0.51100000000E-03 0.  1.
         11   -1    0    0    0    0 -0.00000000000E+00 -0.00000000000E+00 -0.45593999997E+02  0.45594000000E+02  0.51100000000E-03 0. -1.
    9900012    2    1    2    0    0 -0.13320256423E+01 -0.17053376102E+02 -0.76215236390E+01  0.72461560099E+02  0.69999986718E+02 0.  0.
        -12    1    1    2    0    0  0.13320256423E+01  0.17053376102E+02  0.76215236390E+01  0.18726439901E+02  0.00000000000E+00 0.  1.
         11    1    3    3    0    0  0.11976679272E+02 -0.43247083602E+01 -0.11481173642E+02  0.17145299567E+02  0.51100000000E-03 0. -1.
        -11    1    3    3    0    0  0.77241811619E+01 -0.27418866464E+02 -0.33110813095E+01  0.28677874267E+02  0.51100000000E-03 0.  1.
        -12    1    3    3    0    0 -0.21032886076E+02  0.14690198722E+02  0.71707313125E+01  0.26638386264E+02  0.00000000000E+00 0.  1.
</event>
<event>
 7    1  0.1788006E-013  0.7246158E+02  0.7816164E-02  0.1226708E+00
        -11   -1    0    0    0    0  0.00000000000E+00  0.00000000000E+00  0.45593999997E+02  0.45594000000E+02  0.51100000000E-03 0. -1.
         11   -1    0    0    0    0 -0.00000000000E+00 -0.00000000000E+00 -0.45593999997E+02  0.45594000000E+02  0.51100000000E-03 0.  1.
    9900012    2    1    2    0    0 -0.79212982729E+00  0.14459406401E+02  0.11873363436E+02  0.72461583834E+02  0.70000017638E+02 0.  0.
        -12    1    1    2    0    0  0.79212982729E+00 -0.14459406401E+02 -0.11873363436E+02  0.18726416166E+02  0.00000000000E+00 0.  1.
         11    1    3    3    0    0 -0.91383676622E+01  0.88532016192E+01 -0.62414239200E+00  0.12738857736E+02  0.51100000000E-03 0. -1.
        -11    1    3    3    0    0 -0.23880713200E+02  0.62529068588E+01 -0.11651641811E+01  0.24713253832E+02  0.51100000000E-03 0.  1.
         12    1    3    3    0    0  0.32226951035E+02 -0.64670207737E+00  0.13662670009E+02  0.35009472266E+02  0.00000000000E+00 0. -1.
</event>
<event>
 7    1  0.1788006E-013  0.7246158E+02  0.7816164E-02  0.1226708E+00
        -11   -1    0    0    0    0  0.00000000000E+00  0.00000000000E+00  0.45593999997E+02  0.45594000000E+02  0.51100000000E-03 0.  1.
         11   -1    0    0    0    0 -0.00000000000E+00 -0.00000000000E+00 -0.45593999997E+02  0.45594000000E+02  0.51100000000E-03 0. -1.
    9900012    2    1    2    0    0  0.82111560688E+01 -0.72358635464E+01 -0.15195329150E+02  0.72461579273E+02  0.70000011697E+02 0.  0.
        -12    1    1    2    0    0 -0.82111560688E+01  0.72358635464E+01  0.15195329150E+02  0.18726420727E+02  0.00000000000E+00 0.  1.
         11    1    3    3    0    0 -0.13824231690E+02 -0.44390354679E+01 -0.13695526970E+02  0.19959505929E+02  0.51100000000E-03 0. -1.
        -11    1    3    3    0    0 -0.34681760691E+01 -0.20417647888E+02  0.37932679886E+01  0.21054630674E+02  0.51100000000E-03 0.  1.
         12    1    3    3    0    0  0.25503563828E+02  0.17620819809E+02 -0.52930701694E+01  0.31447442670E+02  0.00000000000E+00 0. -1.
</event>
<event>
 7    1  0.1788006E-013  0.7246158E+02  0.7816164E-02  0.1226708E+00
        -11   -1    0    0    0    0  0.00000000000E+00  0.00000000000E+00  0.45593999997E+02  0.45594000000E+02  0.51100000000E-03 0. -1.
         11   -1    0    0    0    0 -0.00000000000E+00 -0.00000000000E+00 -0.45593999997E+02  0.45594000000E+02  0.51100000000E-03 0.  1.
    9900012    2    1    2    0    0  0.11286265970E+02  0.32026239106E+01  0.14595971088E+02  0.72461575583E+02  0.70000006889E+02 0.  0.
        -12    1    1    2    0    0 -0.11286265970E+02 -0.32026239106E+01 -0.14595971088E+02  0.18726424417E+02  0.00000000000E+00 0.  1.
         11    1    3    3    0    0  0.75997587841E+01  0.28619927221E+02  0.16538953395E+02  0.33917451959E+02  0.51100000000E-03 0. -1.
        -11    1    3    3    0    0 -0.42138632846E+01 -0.19052779955E+01  0.99979072108E+01  0.11015665067E+02  0.51100000000E-03 0.  1.
        -12    1    3    3    0    0  0.79003704705E+01 -0.23512025315E+02 -0.11940889518E+02  0.27528458556E+02  0.00000000000E+00 0.  1.
</event>
<event>
 7    1  0.1788006E-013  0.7246173E+02  0.7816164E-02  0.1226708E+00
        -11   -1    0    0    0    0  0.00000000000E+00  0.00000000000E+00  0.45593999997E+02  0.45594000000E+02  0.51100000000E-03 0.  1.
         11   -1    0    0    0    0 -0.00000000000E+00 -0.00000000000E+00 -0.45593999997E+02  0.45594000000E+02  0.51100000000E-03 0. -1.
    9900012    2    1    2    0    0  0.85268461854E+01 -0.13320044939E+01 -0.16619024182E+02  0.72461726836E+02  0.70000203924E+02 0.  0.
        -12    1    1    2    0    0 -0.85268461854E+01  0.13320044939E+01  0.16619024182E+02  0.18726273164E+02  0.00000000000E+00 0.  1.
         11    1    3    3    0    0  0.25507890740E+02 -0.11223978254E+02 -0.22157724930E+02  0.35603299737E+02  0.51100000000E-03 0. -1.
        -11    1    3    3    0    0  0.30309708312E+01 -0.74296075453E+01  0.65705577718E+01  0.10371021268E+02  0.51100000000E-03 0.  1.
        -12    1    3    3    0    0 -0.20012015386E+02  0.17321581305E+02 -0.10318570245E+01  0.26487405831E+02  0.00000000000E+00 0.  1.
</event>
<event>
 7    1  0.1788006E-013  0.7246159E+02  0.7816164E-02  0.1226708E+00
        -11   -1    0    0    0    0  0.00000000000E+00  0.00000000000E+00  0.45593999997E+02  0.45594000000E+02  0.51100000000E-03 0.  1.
         11   -1    0    0    0    0 -0.00000000000E+00 -0.00000000000E+00 -0.45593999997E+02  0.45594000000E+02  0.51100000000E-03 0. -1.
    9900012    2    1    2    0    0  0.12039455474E+02  0.11898195834E+02 -0.80101662322E+01  0.72461593103E+02  0.70000029713E+02 0.  0.
        -12    1    1    2    0    0 -0.12039455474E+02 -0.11898195834E+02  0.80101662322E+01  0.18726406897E+02  0.00000000000E+00 0.  1.
         11    1    3    3    0    0 -0.29868424042E+01 -0.68576863069E+01 -0.13732987247E+02  0.15637903569E+02  0.51100000000E-03 0. -1.
        -11    1    3    3    0    0  0.31559257083E+02  0.29794297151E+01  0.10660009371E+02  0.33443975677E+02  0.51100000000E-03 0.  1.
         12    1    3    3    0    0 -0.16532959205E+02  0.15776452425E+02 -0.49371883561E+01  0.23379713858E+02  0.00000000000E+00 0. -1.
</event>
<event>
 7    1  0.1788006E-013  0.7246178E+02  0.7816164E-02  0.1226707E+00
        -11   -1    0    0    0    0  0.00000000000E+00  0.00000000000E+00  0.45593999997E+02  0.45594000000E+02  0.51100000000E-03 0. -1.
         11   -1    0    0    0    0 -0.00000000000E+00 -0.00000000000E+00 -0.45593999997E+02  0.45594000000E+02  0.51100000000E-03 0.  1.
    9900012    2    1    2    0    0  0.17332345673E+02 -0.54943730961E+01 -0.44803009272E+01  0.72461776711E+02  0.70000268896E+02 0.  0.
        -12    1    1    2    0    0 -0.17332345673E+02  0.54943730961E+01  0.44803009272E+01  0.18726223289E+02  0.00000000000E+00 0.  1.
         11    1    3    3    0    0  0.18749276364E+02 -0.21347363032E+01  0.15450750079E+01  0.18933560688E+02  0.51100000000E-03 0. -1.
        -11    1    3    3    0    0  0.11992093163E+02  0.21143796821E+02 -0.78293460799E+01  0.25537601742E+02  0.51100000000E-03 0.  1.
         12    1    3    3    0    0 -0.13409023854E+02 -0.24503433614E+02  0.18039701448E+01  0.27990614282E+02  0.00000000000E+00 0. -1.
</event>
<event>
 7    1  0.1788006E-013  0.7246156E+02  0.7816164E-02  0.1226708E+00
        -11   -1    0    0    0    0  0.00000000000E+00  0.00000000000E+00  0.45593999997E+02  0.45594000000E+02  0.51100000000E-03 0.  1.
         11   -1    0    0    0    0 -0.00000000000E+00 -0.00000000000E+00 -0.45593999997E+02  0.45594000000E+02  0.51100000000E-03 0. -1.
    9900012    2    1    2    0    0  0.17533671873E+02  0.38398730128E+01  0.53390254654E+01  0.72461562351E+02  0.69999989652E+02 0.  0.
        -12    1    1    2    0    0 -0.17533671873E+02 -0.38398730128E+01 -0.53390254654E+01  0.18726437649E+02  0.00000000000E+00 0.  1.
         11    1    3    3    0    0 -0.43419704738E+01 -0.15143784844E+02  0.73110300167E+01  0.17367731204E+02  0.51100000000E-03 0. -1.
        -11    1    3    3    0    0  0.20696754197E+01  0.15692653708E+02  0.19884530872E+02  0.25415300608E+02  0.51100000000E-03 0.  1.
         12    1    3    3    0    0  0.19805966927E+02  0.32910041490E+01 -0.21856535423E+02  0.29678530539E+02  0.00000000000E+00 0. -1.
</event>
<event>
 7    1  0.1788006E-013  0.7246161E+02  0.7816164E-02  0.1226708E+00
        -11   -1    0    0    0    0  0.00000000000E+00  0.00000000000E+00  0.45593999997E+02  0.45594000000E+02  0.51100000000E-03 0.  1.
         11   -1    0    0    0    0 -0.00000000000E+00 -0.00000000000E+00 -0.45593999997E+02  0.45594000000E+02  0.51100000000E-03 0. -1.
    9900012    2    1    2    0    0 -0.15046580556E+02  0.68717848875E+01 -0.87781831413E+01  0.72461614518E+02  0.70000057609E+02 0.  0.
        -12    1    1    2    0    0  0.15046580556E+02 -0.68717848875E+01  0.87781831413E+01  0.18726385482E+02  0.00000000000E+00 0.  1.
         11    1    3    3    0    0 -0.25709292895E+01  0.18106040557E+01  0.20677724566E+02  0.20915455003E+02  0.51100000000E-03 0. -1.
        -11    1    3    3    0    0 -0.21091316859E+02 -0.21224625983E+01 -0.12997117917E+01  0.21237649242E+02  0.51100000000E-03 0.  1.
         12    1    3    3    0    0  0.86156655919E+01  0.71836434301E+01 -0.28156195916E+02  0.30308510273E+02  0.00000000000E+00 0. -1.
</event>
<event>
 7    1  0.1788006E-013  0.7246157E+02  0.7816164E-02  0.1226708E+00
        -11   -1    0    0    0    0  0.00000000000E+00  0.00000000000E+00  0.45593999997E+02  0.45594000000E+02  0.51100000000E-03 0. -1.
         11   -1    0    0    0    0 -0.00000000000E+00 -0.00000000000E+00 -0.45593999997E+02  0.45594000000E+02  0.51100000000E-03 0.  1.
    9900012    2    1    2    0    0  0.11908609451E+02  0.14451487116E+02  0.13710012959E+00  0.72461568002E+02  0.69999997014E+02 0.  0.
        -12    1    1    2    0    0 -0.11908609451E+02 -0.14451487116E+02 -0.13710012959E+00  0.18726431998E+02  0.00000000000E+00 0.  1.
         11    1    3    3    0    0 -0.29965077277E+01  0.11536457662E+02  0.12174354519E+02  0.17037717634E+02  0.51100000000E-03 0. -1.
        -11    1    3    3    0    0  0.33671075060E+01  0.24458262357E+02 -0.17650117981E+02  0.30349146207E+02  0.51100000000E-03 0.  1.
         12    1    3    3    0    0  0.11538009673E+02 -0.21543232903E+02  0.56128635913E+01  0.25074704162E+02  0.00000000000E+00 0. -1.
</event>
<event>
 7    1  0.1788006E-013  0.7246164E+02  0.7816164E-02  0.1226708E+00
        -11   -1    0    0    0    0  0.00000000000E+00  0.00000000000E+00  0.45593999997E+02  0.45594000000E+02  0.51100000000E-03 0.  1.
         11   -1    0    0    0    0 -0.00000000000E+00 -0.00000000000E+00 -0.45593999997E+02  0.45594000000E+02  0.51100000000E-03 0. -1.
    9900012    2    1    2    0    0  0.54702637895E+01  0.32110837835E+01 -0.17619351366E+02  0.72461644574E+02  0.70000096763E+02 0.  0.
        -12    1    1    2    0    0 -0.54702637895E+01 -0.32110837835E+01  0.17619351366E+02  0.18726355426E+02  0.00000000000E+00 0.  1.
         11    1    3    3    0    0  0.95136318143E+01 -0.98294137598E+01 -0.32967629422E+02  0.35693012693E+02  0.51100000000E-03 0. -1.
        -11    1    3    3    0    0  0.62606840553E+01  0.18466298388E+02  0.28841641621E+01  0.19710878828E+02  0.51100000000E-03 0.  1.
        -12    1    3    3    0    0 -0.10304052080E+02 -0.54258008443E+01  0.12464113894E+02  0.17057753053E+02  0.00000000000E+00 0.  1.
</event>
<event>
 7    1  0.1788006E-013  0.7246158E+02  0.7816164E-02  0.1226708E+00
        -11   -1    0    0    0    0  0.00000000000E+00  0.00000000000E+00  0.45593999997E+02  0.45594000000E+02  0.51100000000E-03 0.  1.
         11   -1    0    0    0    0 -0.00000000000E+00 -0.00000000000E+00 -0.45593999997E+02  0.45594000000E+02  0.51100000000E-03 0. -1.
    9900012    2    1    2    0    0 -0.73034646667E+01  0.16605151577E+02 -0.46483650450E+01  0.72461576085E+02  0.70000007544E+02 0.  0.
        -12    1    1    2    0    0  0.73034646667E+01 -0.16605151577E+02  0.46483650450E+01  0.18726423915E+02  0.00000000000E+00 0.  1.
         11    1    3    3    0    0 -0.18203229949E+02 -0.16142365689E+02 -0.26497448608E+01  0.24473551003E+02  0.51100000000E-03 0. -1.
        -11    1    3    3    0    0 -0.98805426822E+01  0.91181008889E+01 -0.84318991608E+01  0.15870154733E+02  0.51100000000E-03 0.  1.
        -12    1    3    3    0    0  0.20780307964E+02  0.23629416378E+02  0.64332789765E+01  0.32117870350E+02  0.00000000000E+00 0.  1.
</event>
<event>
 7    1  0.1788006E-013  0.7246180E+02  0.7816164E-02  0.1226707E+00
        -11   -1    0    0    0    0  0.00000000000E+00  0.00000000000E+00  0.45593999997E+02  0.45594000000E+02  0.51100000000E-03 0. -1.
         11   -1    0    0    0    0 -0.00000000000E+00 -0.00000000000E+00 -0.45593999997E+02  0.45594000000E+02  0.51100000000E-03 0.  1.
    9900012    2    1    2    0    0 -0.13432529452E+02 -0.98418458693E+01  0.85659608173E+01  0.72461802780E+02  0.70000302855E+02 0.  0.
        -12    1    1    2    0    0  0.13432529452E+02  0.98418458693E+01 -0.85659608173E+01  0.18726197220E+02  0.00000000000E+00 0.  1.
         11    1    3    3    0    0 -0.65826663863E+01 -0.18710985586E+02  0.21822261804E+02  0.29489720053E+02  0.51100000000E-03 0. -1.
        -11    1    3    3    0    0 -0.15224155983E+02 -0.28990446628E+01  0.78690640112E+01  0.17381068840E+02  0.51100000000E-03 0.  1.
        -12    1    3    3    0    0  0.83742929175E+01  0.11768184379E+02 -0.21125364998E+02  0.25591013886E+02  0.00000000000E+00 0.  1.
</event>
<event>
 7    1  0.2777239E-013  0.7246173E+02  0.7816164E-02  0.1226708E+00
        -11   -1    0    0    0    0  0.00000000000E+00  0.00000000000E+00  0.45593999997E+02  0.45594000000E+02  0.51100000000E-03 0. -1.
         11   -1    0    0    0    0 -0.00000000000E+00 -0.00000000000E+00 -0.45593999997E+02  0.45594000000E+02  0.51100000000E-03 0.  1.
    9900012    2    1    2    0    0 -0.82987680607E+01 -0.20531972239E+01  0.16660975839E+02  0.72461727385E+02  0.70000204639E+02 0.  0.
        -12    1    1    2    0    0  0.82987680607E+01  0.20531972239E+01 -0.16660975839E+02  0.18726272615E+02  0.00000000000E+00 0.  1.
         11    1    3    3    0    0 -0.13993940816E+01 -0.39561116961E+01 -0.30460078260E+01  0.51852953132E+01  0.51100000000E-03 0. -1.
        -11    1    3    3    0    0  0.13077321550E+02 -0.65665803268E+01 -0.18348861350E+02  0.23469491456E+02  0.51100000000E-03 0.  1.
         12    1    3    3    0    0 -0.19976695529E+02  0.84694947990E+01  0.38055845014E+02  0.43806940616E+02  0.00000000000E+00 0. -1.
</event>
<event>
 7    1  0.1788006E-013  0.7246154E+02  0.7816164E-02  0.1226708E+00
        -11   -1    0    0    0    0  0.00000000000E+00  0.00000000000E+00  0.45593999997E+02  0.45594000000E+02  0.51100000000E-03 0.  1.
         11   -1    0    0    0    0 -0.00000000000E+00 -0.00000000000E+00 -0.45593999997E+02  0.45594000000E+02  0.51100000000E-03 0. -1.
    9900012    2    1    2    0    0  0.62476217058E+01 -0.13776080061E+02 -0.11039348036E+02  0.72461538404E+02  0.69999958457E+02 0.  0.
        -12    1    1    2    0    0 -0.62476217058E+01  0.13776080061E+02  0.11039348036E+02  0.18726461596E+02  0.00000000000E+00 0.  1.
         11    1    3    3    0    0 -0.29184814159E+01  0.50777080927E+01 -0.20176480699E+02  0.21009308101E+02  0.51100000000E-03 0. -1.
        -11    1    3    3    0    0  0.11044350932E+02  0.94171215923E+01 -0.96742718766E+01  0.17442803765E+02  0.51100000000E-03 0.  1.
        -12    1    3    3    0    0 -0.18782478103E+01 -0.28270909746E+02  0.18811404539E+02  0.34009426538E+02  0.00000000000E+00 0.  1.
</event>
<event>
 7    1  0.1788006E-013  0.7246159E+02  0.7816164E-02  0.1226708E+00
        -11   -1    0    0    0    0  0.00000000000E+00  0.00000000000E+00  0.45593999997E+02  0.45594000000E+02  0.51100000000E-03 0.  1.
         11   -1    0    0    0    0 -0.00000000000E+00 -0.00000000000E+00 -0.45593999997E+02  0.45594000000E+02  0.51100000000E-03 0. -1.
    9900012    2    1    2    0    0 -0.75230573268E+01 -0.16913382495E+02 -0.28319056787E+01  0.72461585801E+02  0.70000020201E+02 0.  0.
        -12    1    1    2    0    0  0.75230573268E+01  0.16913382495E+02  0.28319056787E+01  0.18726414199E+02  0.00000000000E+00 0.  1.
         11    1    3    3    0    0 -0.13182819439E+01  0.97017058222E+01 -0.17337714550E+02  0.19911235753E+02  0.51100000000E-03 0. -1.
        -11    1    3    3    0    0 -0.14326611620E+02 -0.18773538317E+02 -0.99409937481E+01  0.25622663765E+02  0.51100000000E-03 0.  1.
        -12    1    3    3    0    0  0.81218362374E+01 -0.78415500004E+01  0.24446802619E+02  0.26927686283E+02  0.00000000000E+00 0.  1.
</event>
<event>
 7    1  0.1788006E-013  0.7246179E+02  0.7816164E-02  0.1226707E+00
        -11   -1    0    0    0    0  0.00000000000E+00  0.00000000000E+00  0.45593999997E+02  0.45594000000E+02  0.51100000000E-03 0. -1.
         11   -1    0    0    0    0 -0.00000000000E+00 -0.00000000000E+00 -0.45593999997E+02  0.45594000000E+02  0.51100000000E-03 0.  1.
    9900012    2    1    2    0    0 -0.12529189432E+02  0.12562389486E+02 -0.59897111821E+01  0.72461792229E+02  0.70000289111E+02 0.  0.
        -12    1    1    2    0    0  0.12529189432E+02 -0.12562389486E+02  0.59897111821E+01  0.18726207771E+02  0.00000000000E+00 0.  1.
         11    1    3    3    0    0 -0.16814099146E+02  0.58483378903E+01  0.86869975985E+01  0.19808607062E+02  0.51100000000E-03 0. -1.
        -11    1    3    3    0    0 -0.12272804065E+02 -0.13721637758E+02  0.58207852770E+01  0.19307682509E+02  0.51100000000E-03 0.  1.
        -12    1    3    3    0    0  0.16557713779E+02  0.20435689354E+02 -0.20497494058E+02  0.33345502659E+02  0.00000000000E+00 0.  1.
</event>
<event>
 7    1  0.1788006E-013  0.7246155E+02  0.7816164E-02  0.1226708E+00
        -11   -1    0    0    0    0  0.00000000000E+00  0.00000000000E+00  0.45593999997E+02  0.45594000000E+02  0.51100000000E-03 0. -1.
         11   -1    0    0    0    0 -0.00000000000E+00 -0.00000000000E+00 -0.45593999997E+02  0.45594000000E+02  0.51100000000E-03 0.  1.
    9900012    2    1    2    0    0  0.42627676172E+01 -0.17260955181E+02 -0.58794619839E+01  0.72461552533E+02  0.69999976863E+02 0.  0.
        -12    1    1    2    0    0 -0.42627676172E+01  0.17260955181E+02  0.58794619839E+01  0.18726447467E+02  0.00000000000E+00 0.  1.
         11    1    3    3    0    0 -0.11501714036E+02 -0.16732339245E+02  0.27276926407E+01  0.20486603178E+02  0.51100000000E-03 0. -1.
        -11    1    3    3    0    0  0.33200559584E+02 -0.31656189351E+01 -0.30721222870E+01  0.33492330996E+02  0.51100000000E-03 0.  1.
         12    1    3    3    0    0 -0.17436077931E+02  0.26370029989E+01 -0.55350323375E+01  0.18482618359E+02  0.00000000000E+00 0. -1.
</event>
<event>
 7    1  0.1788006E-013  0.7246157E+02  0.7816164E-02  0.1226708E+00
        -11   -1    0    0    0    0  0.00000000000E+00  0.00000000000E+00  0.45593999997E+02  0.45594000000E+02  0.51100000000E-03 0.  1.
         11   -1    0    0    0    0 -0.00000000000E+00 -0.00000000000E+00 -0.45593999997E+02  0.45594000000E+02  0.51100000000E-03 0. -1.
    9900012    2    1    2    0    0 -0.11010848425E+02 -0.13049603156E+02  0.76907907274E+01  0.72461569812E+02  0.69999999372E+02 0.  0.
        -12    1    1    2    0    0  0.11010848425E+02  0.13049603156E+02 -0.76907907274E+01  0.18726430188E+02  0.00000000000E+00 0.  1.
         11    1    3    3    0    0 -0.25803923905E+02 -0.57064357490E+01 -0.18800733558E+02  0.32432599039E+02  0.51100000000E-03 0. -1.
        -11    1    3    3    0    0 -0.64843685391E+01 -0.26397579580E+01  0.20740640466E+01  0.73018558845E+01  0.51100000000E-03 0.  1.
        -12    1    3    3    0    0  0.21277444019E+02 -0.47034094490E+01  0.24417460239E+02  0.32727114889E+02  0.00000000000E+00 0.  1.
</event>
<event>
 7    1  0.1788006E-013  0.7246156E+02  0.7816164E-02  0.1226708E+00
        -11   -1    0    0    0    0  0.00000000000E+00  0.00000000000E+00  0.45593999997E+02  0.45594000000E+02  0.51100000000E-03 0.  1.
         11   -1    0    0    0    0 -0.00000000000E+00 -0.00000000000E+00 -0.45593999997E+02  0.45594000000E+02  0.51100000000E-03 0. -1.
    9900012    2    1    2    0    0 -0.53706194713E+01 -0.36729603355E+01 -0.17559768255E+02  0.72461557404E+02  0.69999983208E+02 0.  0.
        -12    1    1    2    0    0  0.53706194713E+01  0.36729603355E+01  0.17559768255E+02  0.18726442596E+02  0.00000000000E+00 0.  1.
         11    1    3    3    0    0  0.88914095033E+01 -0.14427542460E+02 -0.37784843630E+02  0.41411418145E+02  0.51100000000E-03 0. -1.
        -11    1    3    3    0    0  0.85687695379E+00 -0.71190214282E+00  0.88639966360E+01  0.89337270721E+01  0.51100000000E-03 0.  1.
        -12    1    3    3    0    0 -0.15118905928E+02  0.11466484267E+02  0.11361078739E+02  0.22116412187E+02  0.00000000000E+00 0.  1.
</event>
<event>
 7    1  0.1788006E-013  0.7246156E+02  0.7816164E-02  0.1226708E+00
        -11   -1    0    0    0    0  0.00000000000E+00  0.00000000000E+00  0.45593999997E+02  0.45594000000E+02  0.51100000000E-03 0. -1.
         11   -1    0    0    0    0 -0.00000000000E+00 -0.00000000000E+00 -0.45593999997E+02  0.45594000000E+02  0.51100000000E-03 0.  1.
    9900012    2    1    2    0    0  0.44047457253E+01 -0.18185746350E+02  0.74587742954E+00  0.72461561781E+02  0.69999988910E+02 0.  0.
        -12    1    1    2    0    0 -0.44047457253E+01  0.18185746350E+02 -0.74587742954E+00  0.18726438219E+02  0.00000000000E+00 0.  1.
         11    1    3    3    0    0  0.46785206328E+01 -0.13237015779E+02  0.16039872121E+02  0.21316299866E+02  0.51100000000E-03 0. -1.
        -11    1    3    3    0    0  0.13316683337E+02 -0.21538196226E+02 -0.94121028611E+00  0.25339965052E+02  0.51100000000E-03 0.  1.
        -12    1    3    3    0    0 -0.13590458245E+02  0.16589465655E+02 -0.14352784405E+02  0.25805296863E+02  0.00000000000E+00 0.  1.
</event>
<event>
 7    1  0.1788006E-013  0.7246156E+02  0.7816164E-02  0.1226708E+00
        -11   -1    0    0    0    0  0.00000000000E+00  0.00000000000E+00  0.45593999997E+02  0.45594000000E+02  0.51100000000E-03 0.  1.
         11   -1    0    0    0    0 -0.00000000000E+00 -0.00000000000E+00 -0.45593999997E+02  0.45594000000E+02  0.51100000000E-03 0. -1.
    9900012    2    1    2    0    0 -0.21480015488E+00  0.72124026010E+01 -0.17280473891E+02  0.72461556978E+02  0.69999982653E+02 0.  0.
        -12    1    1    2    0    0  0.21480015488E+00 -0.72124026010E+01  0.17280473891E+02  0.18726443022E+02  0.00000000000E+00 0.  1.
         11    1    3    3    0    0  0.79443336271E+01 -0.95650187182E+01 -0.14428271569E+02  0.19046706817E+02  0.51100000000E-03 0. -1.
        -11    1    3    3    0    0 -0.18208709087E+02 -0.95962725757E+01 -0.11901805779E+02  0.23776007130E+02  0.51100000000E-03 0.  1.
        -12    1    3    3    0    0  0.10049575305E+02  0.26373693895E+02  0.90496034569E+01  0.29638843031E+02  0.00000000000E+00 0.  1.
</event>
<event>
 7    1  0.1788006E-013  0.7246160E+02  0.7816164E-02  0.1226708E+00
        -11   -1    0    0    0    0  0.00000000000E+00  0.00000000000E+00  0.45593999997E+02  0.45594000000E+02  0.51100000000E-03 0.  1.
         11   -1    0    0    0    0 -0.00000000000E+00 -0.00000000000E+00 -0.45593999997E+02  0.45594000000E+02  0.51100000000E-03 0. -1.
    9900012    2    1    2    0    0  0.76151967769E+01  0.15780926402E+02 -0.66067400893E+01  0.72461604867E+02  0.70000045037E+02 0.  0.
        -12    1    1    2    0    0 -0.76151967769E+01 -0.15780926402E+02  0.66067400893E+01  0.18726395133E+02  0.00000000000E+00 0.  1.
         11    1    3    3    0    0 -0.25003387791E+02  0.47862814437E+01 -0.21881291239E+01  0.25551238726E+02  0.51100000000E-03 0. -1.
        -11    1    3    3    0    0  0.60349088887E+01  0.16194986455E+02  0.53864767626E+01  0.18102813144E+02  0.51100000000E-03 0.  1.
        -12    1    3    3    0    0  0.26583675680E+02 -0.52003414961E+01 -0.98050877281E+01  0.28807552997E+02  0.00000000000E+00 0.  1.
</event>
<event>
 7    1  0.1788006E-013  0.7246158E+02  0.7816164E-02  0.1226708E+00
        -11   -1    0    0    0    0  0.00000000000E+00  0.00000000000E+00  0.45593999997E+02  0.45594000000E+02  0.51100000000E-03 0.  1.
         11   -1    0    0    0    0 -0.00000000000E+00 -0.00000000000E+00 -0.45593999997E+02  0.45594000000E+02  0.51100000000E-03 0. -1.
    9900012    2    1    2    0    0 -0.14922845979E+02  0.11242380022E+02 -0.12635385941E+01  0.72461575610E+02  0.70000006924E+02 0.  0.
        -12    1    1    2    0    0  0.14922845979E+02 -0.11242380022E+02  0.12635385941E+01  0.18726424390E+02  0.00000000000E+00 0.  1.
         11    1    3    3    0    0 -0.24575817113E+02  0.33177509065E+02 -0.14444963047E+02  0.43742140462E+02  0.51100000000E-03 0. -1.
        -11    1    3    3    0    0 -0.16067390845E+01 -0.15866199310E+01  0.10737240093E+01  0.25003713325E+01  0.51100000000E-03 0.  1.
        -12    1    3    3    0    0  0.11259710218E+02 -0.20348509112E+02  0.12107700444E+02  0.26219063815E+02  0.00000000000E+00 0.  1.
</event>
<event>
 7    1  0.1788006E-013  0.7246154E+02  0.7816164E-02  0.1226708E+00
        -11   -1    0    0    0    0  0.00000000000E+00  0.00000000000E+00  0.45593999997E+02  0.45594000000E+02  0.51100000000E-03 0.  1.
         11   -1    0    0    0    0 -0.00000000000E+00 -0.00000000000E+00 -0.45593999997E+02  0.45594000000E+02  0.51100000000E-03 0. -1.
    9900012    2    1    2    0    0  0.42330756945E+01  0.17076062344E+02 -0.64163391300E+01  0.72461541637E+02  0.69999962668E+02 0.  0.
        -12    1    1    2    0    0 -0.42330756945E+01 -0.17076062344E+02  0.64163391300E+01  0.18726458363E+02  0.00000000000E+00 0.  1.
         11    1    3    3    0    0  0.97738732906E+01  0.11016578455E+02  0.13624506768E+02  0.20062920647E+02  0.51100000000E-03 0. -1.
        -11    1    3    3    0    0  0.44548578056E+01 -0.11023559640E+01  0.14776981714E+02  0.15473207023E+02  0.51100000000E-03 0.  1.
         12    1    3    3    0    0 -0.99956554018E+01  0.71618398523E+01 -0.34817827612E+02  0.36925413966E+02  0.00000000000E+00 0. -1.
</event>
<event>
 7    1  0.1788006E-013  0.7246162E+02  0.7816164E-02  0.1226708E+00
        -11   -1    0    0    0    0  0.00000000000E+00  0.00000000000E+00  0.45593999997E+02  0.45594000000E+02  0.51100000000E-03 0.  1.
         11   -1    0    0    0    0 -0.00000000000E+00 -0.00000000000E+00 -0.45593999997E+02  0.45594000000E+02  0.51100000000E-03 0. -1.
    9900012    2    1    2    0    0 -0.78354217969E+00 -0.15549321916E+02  0.10405861184E+02  0.72461620281E+02  0.70000065117E+02 0.  0.
        -12    1    1    2    0    0  0.78354217969E+00  0.15549321916E+02 -0.10405861184E+02  0.18726379719E+02  0.00000000000E+00 0.  1.
         11    1    3    3    0    0 -0.17193421230E+01 -0.26839310089E+01  0.10965689179E+01  0.33707694447E+01  0.51100000000E-03 0. -1.
        -11    1    3    3    0    0  0.17573394848E+02 -0.30140260074E+02  0.22698085585E+02  0.41622861185E+02  0.51100000000E-03 0.  1.
         12    1    3    3    0    0 -0.16637594905E+02  0.17274869166E+02 -0.13388793319E+02  0.27467989651E+02  0.00000000000E+00 0. -1.
</event>
<event>
 7    1  0.1788006E-013  0.7246157E+02  0.7816164E-02  0.1226708E+00
        -11   -1    0    0    0    0  0.00000000000E+00  0.00000000000E+00  0.45593999997E+02  0.45594000000E+02  0.51100000000E-03 0. -1.
         11   -1    0    0    0    0 -0.00000000000E+00 -0.00000000000E+00 -0.45593999997E+02  0.45594000000E+02  0.51100000000E-03 0.  1.
    9900012    2    1    2    0    0  0.26301380435E+00  0.18632525394E+02 -0.18544843612E+01  0.72461567049E+02  0.69999995772E+02 0.  0.
        -12    1    1    2    0    0 -0.26301380435E+00 -0.18632525394E+02  0.18544843612E+01  0.18726432951E+02  0.00000000000E+00 0.  1.
         11    1    3    3    0    0  0.15812081845E+02  0.10690392942E+02  0.21581933370E+02  0.28811217985E+02  0.51100000000E-03 0. -1.
        -11    1    3    3    0    0  0.52786233064E+01  0.30825887240E+01 -0.21296545074E+02  0.22156467444E+02  0.51100000000E-03 0.  1.
        -12    1    3    3    0    0 -0.20827691347E+02  0.48595437288E+01 -0.21398726566E+01  0.21493881620E+02  0.00000000000E+00 0.  1.
</event>
<event>
 7    1  0.1788006E-013  0.7246157E+02  0.7816164E-02  0.1226708E+00
        -11   -1    0    0    0    0  0.00000000000E+00  0.00000000000E+00  0.45593999997E+02  0.45594000000E+02  0.51100000000E-03 0.  1.
         11   -1    0    0    0    0 -0.00000000000E+00 -0.00000000000E+00 -0.45593999997E+02  0.45594000000E+02  0.51100000000E-03 0. -1.
    9900012    2    1    2    0    0 -0.85319476028E+01 -0.97005051587E+00 -0.16641640799E+02  0.72461565839E+02  0.69999994196E+02 0.  0.
        -12    1    1    2    0    0  0.85319476028E+01  0.97005051587E+00  0.16641640799E+02  0.18726434161E+02  0.00000000000E+00 0.  1.
         11    1    3    3    0    0  0.71035190931E+01 -0.87649772419E+01 -0.11467452283E+02  0.16086866434E+02  0.51100000000E-03 0. -1.
        -11    1    3    3    0    0 -0.23992265797E+01 -0.11843636820E+02  0.19010067409E+02  0.22525778221E+02  0.51100000000E-03 0.  1.
         12    1    3    3    0    0 -0.13236240116E+02  0.19638563546E+02 -0.24184255926E+02  0.33848921183E+02  0.00000000000E+00 0. -1.
</event>
<event>
 7    1  0.1788006E-013  0.7246142E+02  0.7816164E-02  0.1226708E+00
        -11   -1    0    0    0    0  0.00000000000E+00  0.00000000000E+00  0.45593999997E+02  0.45594000000E+02  0.51100000000E-03 0.  1.
         11   -1    0    0    0    0 -0.00000000000E+00 -0.00000000000E+00 -0.45593999997E+02  0.45594000000E+02  0.51100000000E-03 0. -1.
    9900012    2    1    2    0    0  0.49822566923E+00 -0.23176299373E+01 -0.18575928660E+02  0.72461420950E+02  0.69999805451E+02 0.  0.
        -12    1    1    2    0    0 -0.49822566923E+00  0.23176299373E+01  0.18575928660E+02  0.18726579050E+02  0.00000000000E+00 0.  1.
         11    1    3    3    0    0 -0.22837014813E+01  0.45181175289E+01  0.52467079464E+01  0.72908588656E+01  0.51100000000E-03 0. -1.
        -11    1    3    3    0    0 -0.25592292369E+02 -0.79214335657E+01  0.18993447525E+01  0.26857439363E+02  0.51100000000E-03 0.  1.
         12    1    3    3    0    0  0.28374219519E+02  0.10856860994E+01 -0.25721981359E+02  0.38313122721E+02  0.00000000000E+00 0. -1.
</event>
<event>
 7    1  0.1788006E-013  0.7246153E+02  0.7816164E-02  0.1226708E+00
        -11   -1    0    0    0    0  0.00000000000E+00  0.00000000000E+00  0.45593999997E+02  0.45594000000E+02  0.51100000000E-03 0.  1.
         11   -1    0    0    0    0 -0.00000000000E+00 -0.00000000000E+00 -0.45593999997E+02  0.45594000000E+02  0.51100000000E-03 0. -1.
    9900012    2    1    2    0    0 -0.18244725730E+02 -0.40672684355E+01 -0.11260302988E+01  0.72461531199E+02  0.69999949072E+02 0.  0.
        -12    1    1    2    0    0  0.18244725730E+02  0.40672684355E+01  0.11260302988E+01  0.18726468801E+02  0.00000000000E+00 0.  1.
         11    1    3    3    0    0 -0.57041487127E+01  0.22553820874E+01  0.14157758984E+02  0.15429394046E+02  0.51100000000E-03 0. -1.
        -11    1    3    3    0    0 -0.20966230659E+01 -0.24557715012E+01  0.19883279645E+02  0.20143769549E+02  0.51100000000E-03 0.  1.
         12    1    3    3    0    0 -0.10443953952E+02 -0.38668790217E+01 -0.35167068928E+02  0.36888367604E+02  0.00000000000E+00 0. -1.
</event>
<event>
 7    1  0.1788006E-013  0.7246156E+02  0.7816164E-02  0.1226708E+00
        -11   -1    0    0    0    0  0.00000000000E+00  0.00000000000E+00  0.45593999997E+02  0.45594000000E+02  0.51100000000E-03 0. -1.
         11   -1    0    0    0    0 -0.00000000000E+00 -0.00000000000E+00 -0.45593999997E+02  0.45594000000E+02  0.51100000000E-03 0.  1.
    9900012    2    1    2    0    0  0.58057750653E+01 -0.11124895302E+02  0.13899973281E+02  0.72461559420E+02  0.69999985834E+02 0.  0.
        -12    1    1    2    0    0 -0.58057750653E+01  0.11124895302E+02 -0.13899973281E+02  0.18726440580E+02  0.00000000000E+00 0.  1.
         11    1    3    3    0    0 -0.33621407014E+01 -0.24227429055E+02  0.10410196860E+01  0.24481748936E+02  0.51100000000E-03 0. -1.
        -11    1    3    3    0    0 -0.15445695828E+02  0.14952970589E+02  0.70256000395E+01  0.22616805813E+02  0.51100000000E-03 0.  1.
         12    1    3    3    0    0  0.24613611594E+02 -0.18504368356E+01  0.58333535559E+01  0.25363004670E+02  0.00000000000E+00 0. -1.
</event>
<event>
 7    1  0.1788006E-013  0.7246156E+02  0.7816164E-02  0.1226708E+00
        -11   -1    0    0    0    0  0.00000000000E+00  0.00000000000E+00  0.45593999997E+02  0.45594000000E+02  0.51100000000E-03 0.  1.
         11   -1    0    0    0    0 -0.00000000000E+00 -0.00000000000E+00 -0.45593999997E+02  0.45594000000E+02  0.51100000000E-03 0. -1.
    9900012    2    1    2    0    0 -0.17360440180E+02  0.11624509093E+01 -0.69241292897E+01  0.72461555015E+02  0.69999980096E+02 0.  0.
        -12    1    1    2    0    0  0.17360440180E+02 -0.11624509093E+01  0.69241292897E+01  0.18726444985E+02  0.00000000000E+00 0.  1.
         11    1    3    3    0    0 -0.18159951028E+02  0.22919292433E+01  0.14032095553E+02  0.23063747893E+02  0.51100000000E-03 0. -1.
        -11    1    3    3    0    0  0.14339892466E+02 -0.91957919029E+01  0.60928254253E+01  0.18091921584E+02  0.51100000000E-03 0.  1.
         12    1    3    3    0    0 -0.13540381618E+02  0.80663135688E+01 -0.27049050268E+02  0.31305885539E+02  0.00000000000E+00 0. -1.
</event>
<event>
 7    1  0.1788006E-013  0.7246171E+02  0.7816164E-02  0.1226708E+00
        -11   -1    0    0    0    0  0.00000000000E+00  0.00000000000E+00  0.45593999997E+02  0.45594000000E+02  0.51100000000E-03 0.  1.
         11   -1    0    0    0    0 -0.00000000000E+00 -0.00000000000E+00 -0.45593999997E+02  0.45594000000E+02  0.51100000000E-03 0. -1.
    9900012    2    1    2    0    0  0.18143861377E+02  0.15401136655E+01 -0.43706223231E+01  0.72461708449E+02  0.70000179972E+02 0.  0.
        -12    1    1    2    0    0 -0.18143861377E+02 -0.15401136655E+01  0.43706223231E+01  0.18726291551E+02  0.00000000000E+00 0.  1.
         11    1    3    3    0    0  0.16044487726E+02  0.14207062238E+01 -0.11395204616E+02  0.19730551971E+02  0.51100000000E-03 0. -1.
        -11    1    3    3    0    0  0.12192735788E+02  0.17081845131E+02  0.20096166793E+02  0.29056981246E+02  0.51100000000E-03 0.  1.
         12    1    3    3    0    0 -0.10093362138E+02 -0.16962437689E+02 -0.13071584500E+02  0.23674175233E+02  0.00000000000E+00 0. -1.
</event>
<event>
 7    1  0.1788006E-013  0.7246166E+02  0.7816164E-02  0.1226708E+00
        -11   -1    0    0    0    0  0.00000000000E+00  0.00000000000E+00  0.45593999997E+02  0.45594000000E+02  0.51100000000E-03 0.  1.
         11   -1    0    0    0    0 -0.00000000000E+00 -0.00000000000E+00 -0.45593999997E+02  0.45594000000E+02  0.51100000000E-03 0. -1.
    9900012    2    1    2    0    0 -0.78272929229E+01 -0.12023300000E+02 -0.12035343630E+02  0.72461661499E+02  0.70000118811E+02 0.  0.
        -12    1    1    2    0    0  0.78272929229E+01  0.12023300000E+02  0.12035343630E+02  0.18726338501E+02  0.00000000000E+00 0.  1.
         11    1    3    3    0    0  0.16947820478E+02  0.14939686998E+01  0.16620235387E+01  0.17094527894E+02  0.51100000000E-03 0. -1.
        -11    1    3    3    0    0  0.13188079182E+02 -0.59711240207E+01 -0.70212387784E+01  0.16089672117E+02  0.51100000000E-03 0.  1.
         12    1    3    3    0    0 -0.37963192583E+02 -0.75461446787E+01 -0.66761283898E+01  0.39277461487E+02  0.00000000000E+00 0. -1.
</event>
<event>
 7    1  0.1788006E-013  0.7246162E+02  0.7816164E-02  0.1226708E+00
        -11   -1    0    0    0    0  0.00000000000E+00  0.00000000000E+00  0.45593999997E+02  0.45594000000E+02  0.51100000000E-03 0.  1.
         11   -1    0    0    0    0 -0.00000000000E+00 -0.00000000000E+00 -0.45593999997E+02  0.45594000000E+02  0.51100000000E-03 0. -1.
    9900012    2    1    2    0    0 -0.11423376690E+02 -0.14707506273E+02 -0.19680100872E+01  0.72461619157E+02  0.70000063653E+02 0.  0.
        -12    1    1    2    0    0  0.11423376690E+02  0.14707506273E+02  0.19680100872E+01  0.18726380843E+02  0.00000000000E+00 0.  1.
         11    1    3    3    0    0 -0.83313218739E+01 -0.88548745460E+01 -0.27597552127E+02  0.30156999371E+02  0.51100000000E-03 0. -1.
        -11    1    3    3    0    0 -0.21451242049E+01 -0.15129526693E+02  0.26815503714E+00  0.15283194797E+02  0.51100000000E-03 0.  1.
        -12    1    3    3    0    0 -0.94693061096E+00  0.92768949666E+01  0.25361387002E+02  0.27021424990E+02  0.00000000000E+00 0.  1.
</event>
<event>
 7    1  0.1788006E-013  0.7246158E+02  0.7816164E-02  0.1226708E+00
        -11   -1    0    0    0    0  0.00000000000E+00  0.00000000000E+00  0.45593999997E+02  0.45594000000E+02  0.51100000000E-03 0.  1.
         11   -1    0    0    0    0 -0.00000000000E+00 -0.00000000000E+00 -0.45593999997E+02  0.45594000000E+02  0.51100000000E-03 0. -1.
    9900012    2    1    2    0    0 -0.18304506185E+02 -0.84816280392E+00  0.38606408797E+01  0.72461578163E+02  0.70000010250E+02 0.  0.
        -12    1    1    2    0    0  0.18304506185E+02  0.84816280392E+00 -0.38606408797E+01  0.18726421837E+02  0.00000000000E+00 0.  1.
         11    1    3    3    0    0  0.20845449458E+01 -0.19257356153E+02  0.74566784954E+01  0.20755557041E+02  0.51100000000E-03 0. -1.
        -11    1    3    3    0    0 -0.13573150391E+02 -0.65292350458E+01 -0.16894037940E+02  0.22633378891E+02  0.51100000000E-03 0.  1.
        -12    1    3    3    0    0 -0.68159007399E+01  0.24938428395E+02  0.13298000325E+02  0.29072642232E+02  0.00000000000E+00 0.  1.
</event>
<event>
 7    1  0.1788006E-013  0.7246161E+02  0.7816164E-02  0.1226708E+00
        -11   -1    0    0    0    0  0.00000000000E+00  0.00000000000E+00  0.45593999997E+02  0.45594000000E+02  0.51100000000E-03 0.  1.
         11   -1    0    0    0    0 -0.00000000000E+00 -0.00000000000E+00 -0.45593999997E+02  0.45594000000E+02  0.51100000000E-03 0. -1.
    9900012    2    1    2    0    0  0.73259589127E+01 -0.16861866072E+02  0.35616798650E+01  0.72461607798E+02  0.70000048856E+02 0.  0.
        -12    1    1    2    0    0 -0.73259589127E+01  0.16861866072E+02 -0.35616798650E+01  0.18726392202E+02  0.00000000000E+00 0.  1.
         11    1    3    3    0    0  0.17931722311E+02 -0.95580671392E+01  0.26228747823E+02  0.33179067574E+02  0.51100000000E-03 0.  1.
        -11    1    3    3    0    0  0.81746752475E+01 -0.96087490447E+01 -0.56058082863E+01  0.13805015770E+02  0.51100000000E-03 0. -1.
         12    1    3    3    0    0 -0.18780438646E+02  0.23049501117E+01 -0.17061259671E+02  0.25477524454E+02  0.00000000000E+00 0. -1.
</event>
<event>
 7    1  0.1788006E-013  0.7246156E+02  0.7816164E-02  0.1226708E+00
        -11   -1    0    0    0    0  0.00000000000E+00  0.00000000000E+00  0.45593999997E+02  0.45594000000E+02  0.51100000000E-03 0.  1.
         11   -1    0    0    0    0 -0.00000000000E+00 -0.00000000000E+00 -0.45593999997E+02  0.45594000000E+02  0.51100000000E-03 0. -1.
    9900012    2    1    2    0    0 -0.46517782426E+01 -0.43707490951E+01 -0.17605033362E+02  0.72461556447E+02  0.69999981961E+02 0.  0.
        -12    1    1    2    0    0  0.46517782426E+01  0.43707490951E+01  0.17605033362E+02  0.18726443553E+02  0.00000000000E+00 0.  1.
         11    1    3    3    0    0  0.19719315945E+02  0.49767293901E+00  0.36886862052E+01  0.20067523661E+02  0.51100000000E-03 0. -1.
        -11    1    3    3    0    0  0.38659385438E+01  0.10164061710E+02  0.40273037722E+01  0.11596241081E+02  0.51100000000E-03 0.  1.
         12    1    3    3    0    0 -0.28237032732E+02 -0.15032483744E+02 -0.25321023340E+02  0.40797791705E+02  0.00000000000E+00 0. -1.
</event>
<event>
 7    1  0.1788006E-013  0.7246149E+02  0.7816164E-02  0.1226708E+00
        -11   -1    0    0    0    0  0.00000000000E+00  0.00000000000E+00  0.45593999997E+02  0.45594000000E+02  0.51100000000E-03 0. -1.
         11   -1    0    0    0    0 -0.00000000000E+00 -0.00000000000E+00 -0.45593999997E+02  0.45594000000E+02  0.51100000000E-03 0.  1.
    9900012    2    1    2    0    0 -0.15476738651E+02 -0.67396047092E+01 -0.81074300269E+01  0.72461491181E+02  0.69999896940E+02 0.  0.
        -12    1    1    2    0    0  0.15476738651E+02  0.67396047092E+01  0.81074300269E+01  0.18726508819E+02  0.00000000000E+00 0.  1.
         11    1    3    3    0    0 -0.27814250736E+01 -0.73697795416E+00 -0.73138754137E+01  0.78595315237E+01  0.51100000000E-03 0. -1.
        -11    1    3    3    0    0  0.10580524472E+02  0.51658010711E+01 -0.25986852581E+02  0.28529800317E+02  0.51100000000E-03 0.  1.
         12    1    3    3    0    0 -0.23275838049E+02 -0.11168427826E+02  0.25193297967E+02  0.36072159341E+02  0.00000000000E+00 0. -1.
</event>
<event>
 7    1  0.1788006E-013  0.7246160E+02  0.7816164E-02  0.1226708E+00
        -11   -1    0    0    0    0  0.00000000000E+00  0.00000000000E+00  0.45593999997E+02  0.45594000000E+02  0.51100000000E-03 0.  1.
         11   -1    0    0    0    0 -0.00000000000E+00 -0.00000000000E+00 -0.45593999997E+02  0.45594000000E+02  0.51100000000E-03 0. -1.
    9900012    2    1    2    0    0 -0.35903865140E+01  0.10658990242E+02  0.14972413161E+02  0.72461598740E+02  0.70000037056E+02 0.  0.
        -12    1    1    2    0    0  0.35903865140E+01 -0.10658990242E+02 -0.14972413161E+02  0.18726401260E+02  0.00000000000E+00 0.  1.
         11    1    3    3    0    0  0.74122011230E+01  0.33580135257E+01  0.12364965361E+02  0.14802342685E+02  0.51100000000E-03 0. -1.
        -11    1    3    3    0    0 -0.14510473888E+02 -0.15854567930E+02  0.19310638212E+02  0.28893285121E+02  0.51100000000E-03 0.  1.
         12    1    3    3    0    0  0.35078862505E+01  0.23155544645E+02 -0.16703190413E+02  0.28765970933E+02  0.00000000000E+00 0. -1.
</event>
<event>
 7    1  0.1788006E-013  0.7246141E+02  0.7816164E-02  0.1226708E+00
        -11   -1    0    0    0    0  0.00000000000E+00  0.00000000000E+00  0.45593999997E+02  0.45594000000E+02  0.51100000000E-03 0.  1.
         11   -1    0    0    0    0 -0.00000000000E+00 -0.00000000000E+00 -0.45593999997E+02  0.45594000000E+02  0.51100000000E-03 0. -1.
    9900012    2    1    2    0    0 -0.74897022087E+01 -0.98125658605E+01 -0.14082007177E+02  0.72461414244E+02  0.69999796715E+02 0.  0.
        -12    1    1    2    0    0  0.74897022087E+01  0.98125658605E+01  0.14082007177E+02  0.18726585756E+02  0.00000000000E+00 0.  1.
         11    1    3    3    0    0  0.11896416554E+02  0.13761632367E+02 -0.70187917400E+01  0.19497966303E+02  0.51100000000E-03 0. -1.
        -11    1    3    3    0    0 -0.26118672924E+02 -0.17807630496E+01 -0.13233463728E+02  0.29333952255E+02  0.51100000000E-03 0.  1.
         12    1    3    3    0    0  0.67325541619E+01 -0.21793435178E+02  0.61702482911E+01  0.23629495686E+02  0.00000000000E+00 0. -1.
</event>
<event>
 7    1  0.1788006E-013  0.7246173E+02  0.7816164E-02  0.1226708E+00
        -11   -1    0    0    0    0  0.00000000000E+00  0.00000000000E+00  0.45593999997E+02  0.45594000000E+02  0.51100000000E-03 0. -1.
         11   -1    0    0    0    0 -0.00000000000E+00 -0.00000000000E+00 -0.45593999997E+02  0.45594000000E+02  0.51100000000E-03 0.  1.
    9900012    2    1    2    0    0 -0.10811266734E+02 -0.13983976632E+02  0.61836922510E+01  0.72461731266E+02  0.70000209695E+02 0.  0.
        -12    1    1    2    0    0  0.10811266734E+02  0.13983976632E+02 -0.61836922510E+01  0.18726268734E+02  0.00000000000E+00 0.  1.
         11    1    3    3    0    0  0.16833260650E+02 -0.26608954203E+02 -0.69077170800E+00  0.31494003774E+02  0.51100000000E-03 0. -1.
        -11    1    3    3    0    0  0.44686530840E+01 -0.12467161027E+01  0.35250722393E+01  0.58266024387E+01  0.51100000000E-03 0.  1.
        -12    1    3    3    0    0 -0.32113180468E+02  0.13871693674E+02  0.33493917197E+01  0.35141125054E+02  0.00000000000E+00 0.  1.
</event>
<event>
 7    1  0.1788006E-013  0.7246156E+02  0.7816164E-02  0.1226708E+00
        -11   -1    0    0    0    0  0.00000000000E+00  0.00000000000E+00  0.45593999997E+02  0.45594000000E+02  0.51100000000E-03 0.  1.
         11   -1    0    0    0    0 -0.00000000000E+00 -0.00000000000E+00 -0.45593999997E+02  0.45594000000E+02  0.51100000000E-03 0. -1.
    9900012    2    1    2    0    0  0.89221616046E+01 -0.86490440595E+01 -0.14009589960E+02  0.72461560357E+02  0.69999987055E+02 0.  0.
        -12    1    1    2    0    0 -0.89221616046E+01  0.86490440595E+01  0.14009589960E+02  0.18726439643E+02  0.00000000000E+00 0.  1.
         11    1    3    3    0    0  0.12876399135E+02 -0.12358231202E+02 -0.19872992485E+02  0.26710734990E+02  0.51100000000E-03 0. -1.
        -11    1    3    3    0    0 -0.23399798614E+02  0.67719111112E+01 -0.22403075973E+01  0.24462794887E+02  0.51100000000E-03 0.  1.
         12    1    3    3    0    0  0.19445561084E+02 -0.30627239684E+01  0.81037101223E+01  0.21288030480E+02  0.00000000000E+00 0. -1.
</event>
<event>
 7    1  0.1788006E-013  0.7246159E+02  0.7816164E-02  0.1226708E+00
        -11   -1    0    0    0    0  0.00000000000E+00  0.00000000000E+00  0.45593999997E+02  0.45594000000E+02  0.51100000000E-03 0.  1.
         11   -1    0    0    0    0 -0.00000000000E+00 -0.00000000000E+00 -0.45593999997E+02  0.45594000000E+02  0.51100000000E-03 0. -1.
    9900012    2    1    2    0    0  0.12641042389E+02 -0.13260063711E+02 -0.38798330727E+01  0.72461592257E+02  0.70000028610E+02 0.  0.
        -12    1    1    2    0    0 -0.12641042389E+02  0.13260063711E+02  0.38798330727E+01  0.18726407743E+02  0.00000000000E+00 0.  1.
         11    1    3    3    0    0 -0.99044131849E+01  0.75856565926E+01  0.59092782455E+01  0.13804316576E+02  0.51100000000E-03 0. -1.
        -11    1    3    3    0    0  0.31567116131E+01  0.15889323662E+02 -0.42803857968E+01  0.16755809067E+02  0.51100000000E-03 0.  1.
         12    1    3    3    0    0  0.19388743961E+02 -0.36735043966E+02 -0.55087255213E+01  0.41901466614E+02  0.00000000000E+00 0. -1.
</event>
<event>
 7    1  0.1788006E-013  0.7246157E+02  0.7816164E-02  0.1226708E+00
        -11   -1    0    0    0    0  0.00000000000E+00  0.00000000000E+00  0.45593999997E+02  0.45594000000E+02  0.51100000000E-03 0. -1.
         11   -1    0    0    0    0 -0.00000000000E+00 -0.00000000000E+00 -0.45593999997E+02  0.45594000000E+02  0.51100000000E-03 0.  1.
    9900012    2    1    2    0    0 -0.15798097808E+02  0.70355944623E+01  0.71832942615E+01  0.72461569474E+02  0.69999998932E+02 0.  0.
        -12    1    1    2    0    0  0.15798097808E+02 -0.70355944623E+01 -0.71832942615E+01  0.18726430526E+02  0.00000000000E+00 0.  1.
         11    1    3    3    0    0  0.13271425023E+01  0.94027816977E+01 -0.13038827781E+01  0.95850780610E+01  0.51100000000E-03 0. -1.
        -11    1    3    3    0    0 -0.36049976914E+02  0.18230257263E+01 -0.85222285215E+01  0.37088443450E+02  0.51100000000E-03 0.  1.
         12    1    3    3    0    0  0.18924736604E+02 -0.41902129616E+01  0.17009405561E+02  0.25788047963E+02  0.00000000000E+00 0. -1.
</event>
<event>
 7    1  0.1788006E-013  0.7246160E+02  0.7816164E-02  0.1226708E+00
        -11   -1    0    0    0    0  0.00000000000E+00  0.00000000000E+00  0.45593999997E+02  0.45594000000E+02  0.51100000000E-03 0. -1.
         11   -1    0    0    0    0 -0.00000000000E+00 -0.00000000000E+00 -0.45593999997E+02  0.45594000000E+02  0.51100000000E-03 0.  1.
    9900012    2    1    2    0    0  0.19409560237E+01 -0.11440531041E+02  0.14697786477E+02  0.72461601838E+02  0.70000041091E+02 0.  0.
        -12    1    1    2    0    0 -0.19409560237E+01  0.11440531041E+02 -0.14697786477E+02  0.18726398162E+02  0.00000000000E+00 0.  1.
         11    1    3    3    0    0  0.12815316680E+02 -0.35428630928E+01  0.13785613176E+00  0.13296737385E+02  0.51100000000E-03 0. -1.
        -11    1    3    3    0    0  0.19668566837E+01 -0.25190961492E+02 -0.93879788486E+01  0.26955281731E+02  0.51100000000E-03 0.  1.
         12    1    3    3    0    0 -0.12841217340E+02  0.17293293543E+02  0.23947909194E+02  0.32209582722E+02  0.00000000000E+00 0. -1.
</event>
<event>
 7    1  0.1788006E-013  0.7246155E+02  0.7816164E-02  0.1226708E+00
        -11   -1    0    0    0    0  0.00000000000E+00  0.00000000000E+00  0.45593999997E+02  0.45594000000E+02  0.51100000000E-03 0. -1.
         11   -1    0    0    0    0 -0.00000000000E+00 -0.00000000000E+00 -0.45593999997E+02  0.45594000000E+02  0.51100000000E-03 0.  1.
    9900012    2    1    2    0    0  0.49069961506E+01  0.15960401326E+02  0.84774265371E+01  0.72461553931E+02  0.69999978683E+02 0.  0.
        -12    1    1    2    0    0 -0.49069961506E+01 -0.15960401326E+02 -0.84774265371E+01  0.18726446069E+02  0.00000000000E+00 0.  1.
         11    1    3    3    0    0 -0.99586478015E+01 -0.14021985179E+02 -0.11113506829E+01  0.17234437473E+02  0.51100000000E-03 0. -1.
        -11    1    3    3    0    0 -0.13489097029E+02  0.46886941390E+01 -0.40707298648E+01  0.14849593708E+02  0.51100000000E-03 0.  1.
         12    1    3    3    0    0  0.28354740981E+02  0.25293692366E+02  0.13659507085E+02  0.40377522750E+02  0.00000000000E+00 0. -1.
</event>
<event>
 7    1  0.1788006E-013  0.7246159E+02  0.7816164E-02  0.1226708E+00
        -11   -1    0    0    0    0  0.00000000000E+00  0.00000000000E+00  0.45593999997E+02  0.45594000000E+02  0.51100000000E-03 0.  1.
         11   -1    0    0    0    0 -0.00000000000E+00 -0.00000000000E+00 -0.45593999997E+02  0.45594000000E+02  0.51100000000E-03 0. -1.
    9900012    2    1    2    0    0  0.23820064773E+01 -0.70188963287E+01 -0.17197076806E+02  0.72461593211E+02  0.70000029854E+02 0.  0.
        -12    1    1    2    0    0 -0.23820064773E+01  0.70188963287E+01  0.17197076806E+02  0.18726406789E+02  0.00000000000E+00 0.  1.
         11    1    3    3    0    0 -0.47917919489E+01  0.35354013699E+01 -0.56173463448E+01  0.81862636865E+01  0.51100000000E-03 0. -1.
        -11    1    3    3    0    0 -0.13924126634E+02 -0.17484028963E+02 -0.28598812251E+02  0.36296895648E+02  0.51100000000E-03 0.  1.
        -12    1    3    3    0    0  0.21097925060E+02  0.69297312648E+01  0.17019081789E+02  0.27978433876E+02  0.00000000000E+00 0.  1.
</event>
<event>
 7    1  0.1788006E-013  0.7246161E+02  0.7816164E-02  0.1226708E+00
        -11   -1    0    0    0    0  0.00000000000E+00  0.00000000000E+00  0.45593999997E+02  0.45594000000E+02  0.51100000000E-03 0.  1.
         11   -1    0    0    0    0 -0.00000000000E+00 -0.00000000000E+00 -0.45593999997E+02  0.45594000000E+02  0.51100000000E-03 0. -1.
    9900012    2    1    2    0    0 -0.12771710054E+02  0.13183420452E+02 -0.37092715340E+01  0.72461605584E+02  0.70000045971E+02 0.  0.
        -12    1    1    2    0    0  0.12771710054E+02 -0.13183420452E+02  0.37092715340E+01  0.18726394416E+02  0.00000000000E+00 0.  1.
         11    1    3    3    0    0 -0.98729481058E+01 -0.92046484656E+01 -0.11536869601E+02  0.17756689391E+02  0.51100000000E-03 0. -1.
        -11    1    3    3    0    0 -0.19471002543E+02 -0.66446079224E+01  0.10848431481E+01  0.20602127059E+02  0.51100000000E-03 0.  1.
        -12    1    3    3    0    0  0.16572240594E+02  0.29032676840E+02  0.67427549186E+01  0.34102789134E+02  0.00000000000E+00 0.  1.
</event>
<event>
 7    1  0.1788006E-013  0.7246160E+02  0.7816164E-02  0.1226708E+00
        -11   -1    0    0    0    0  0.00000000000E+00  0.00000000000E+00  0.45593999997E+02  0.45594000000E+02  0.51100000000E-03 0. -1.
         11   -1    0    0    0    0 -0.00000000000E+00 -0.00000000000E+00 -0.45593999997E+02  0.45594000000E+02  0.51100000000E-03 0.  1.
    9900012    2    1    2    0    0  0.93361809437E+01  0.11636740503E+02  0.11318137023E+02  0.72461595385E+02  0.70000032685E+02 0.  0.
        -12    1    1    2    0    0 -0.93361809437E+01 -0.11636740503E+02 -0.11318137023E+02  0.18726404615E+02  0.00000000000E+00 0.  1.
         11    1    3    3    0    0  0.10850108195E+02  0.48028584789E+01  0.96420877623E+01  0.15289282328E+02  0.51100000000E-03 0. -1.
        -11    1    3    3    0    0  0.19939366766E+02  0.81524130286E+01 -0.17969933241E+02  0.28052783929E+02  0.51100000000E-03 0.  1.
         12    1    3    3    0    0 -0.21453294017E+02 -0.13185310047E+01  0.19645982502E+02  0.29119529128E+02  0.00000000000E+00 0. -1.
</event>
<event>
 7    1  0.1788006E-013  0.7246157E+02  0.7816164E-02  0.1226708E+00
        -11   -1    0    0    0    0  0.00000000000E+00  0.00000000000E+00  0.45593999997E+02  0.45594000000E+02  0.51100000000E-03 0.  1.
         11   -1    0    0    0    0 -0.00000000000E+00 -0.00000000000E+00 -0.45593999997E+02  0.45594000000E+02  0.51100000000E-03 0. -1.
    9900012    2    1    2    0    0  0.13511046397E+02 -0.53052776734E+01 -0.11831523846E+02  0.72461566745E+02  0.69999995376E+02 0.  0.
        -12    1    1    2    0    0 -0.13511046397E+02  0.53052776734E+01  0.11831523846E+02  0.18726433255E+02  0.00000000000E+00 0.  1.
         11    1    3    3    0    0 -0.17276650492E+02 -0.11415848986E+02  0.56884228577E+01  0.21474692435E+02  0.51100000000E-03 0. -1.
        -11    1    3    3    0    0  0.91693742504E+01  0.16360237225E+02 -0.19406079715E+02  0.26987603013E+02  0.51100000000E-03 0.  1.
         12    1    3    3    0    0  0.21618322639E+02 -0.10249665913E+02  0.18861330107E+01  0.23999271297E+02  0.00000000000E+00 0. -1.
</event>
<event>
 7    1  0.1788006E-013  0.7246154E+02  0.7816164E-02  0.1226708E+00
        -11   -1    0    0    0    0  0.00000000000E+00  0.00000000000E+00  0.45593999997E+02  0.45594000000E+02  0.51100000000E-03 0. -1.
         11   -1    0    0    0    0 -0.00000000000E+00 -0.00000000000E+00 -0.45593999997E+02  0.45594000000E+02  0.51100000000E-03 0.  1.
    9900012    2    1    2    0    0 -0.12165559436E+02  0.61838715224E+01  0.12823390987E+02  0.72461535844E+02  0.69999955122E+02 0.  0.
        -12    1    1    2    0    0  0.12165559436E+02 -0.61838715224E+01 -0.12823390987E+02  0.18726464156E+02  0.00000000000E+00 0.  1.
         11    1    3    3    0    0 -0.17254038592E+02 -0.19471645836E+02  0.30332193172E+02  0.39961090853E+02  0.51100000000E-03 0. -1.
        -11    1    3    3    0    0 -0.16430235620E+01  0.51961851400E+01 -0.59041391970E+01  0.80348445133E+01  0.51100000000E-03 0.  1.
        -12    1    3    3    0    0  0.67315027182E+01  0.20459332218E+02 -0.11604662988E+02  0.24465600477E+02  0.00000000000E+00 0.  1.
</event>
<event>
 7    1  0.1788006E-013  0.7246140E+02  0.7816164E-02  0.1226708E+00
        -11   -1    0    0    0    0  0.00000000000E+00  0.00000000000E+00  0.45593999997E+02  0.45594000000E+02  0.51100000000E-03 0.  1.
         11   -1    0    0    0    0 -0.00000000000E+00 -0.00000000000E+00 -0.45593999997E+02  0.45594000000E+02  0.51100000000E-03 0. -1.
    9900012    2    1    2    0    0 -0.14068657378E+02  0.15611480009E+01 -0.12260559062E+02  0.72461398279E+02  0.69999775918E+02 0.  0.
        -12    1    1    2    0    0  0.14068657378E+02 -0.15611480009E+01  0.12260559062E+02  0.18726601721E+02  0.00000000000E+00 0.  1.
         11    1    3    3    0    0 -0.64853634364E+01  0.93855952153E+01 -0.12043470204E+02  0.16588987651E+02  0.51100000000E-03 0. -1.
        -11    1    3    3    0    0 -0.22114958018E+02  0.83676150059E+01 -0.16383963004E+02  0.28766692423E+02  0.51100000000E-03 0.  1.
        -12    1    3    3    0    0  0.14531664076E+02 -0.16192062220E+02  0.16166874146E+02  0.27105718205E+02  0.00000000000E+00 0.  1.
</event>
<event>
 7    1  0.1788006E-013  0.7246180E+02  0.7816164E-02  0.1226707E+00
        -11   -1    0    0    0    0  0.00000000000E+00  0.00000000000E+00  0.45593999997E+02  0.45594000000E+02  0.51100000000E-03 0.  1.
         11   -1    0    0    0    0 -0.00000000000E+00 -0.00000000000E+00 -0.45593999997E+02  0.45594000000E+02  0.51100000000E-03 0. -1.
    9900012    2    1    2    0    0 -0.57331068028E+01  0.16632665515E+02 -0.64153449515E+01  0.72461795724E+02  0.70000293664E+02 0.  0.
        -12    1    1    2    0    0  0.57331068028E+01 -0.16632665515E+02  0.64153449515E+01  0.18726204276E+02  0.00000000000E+00 0.  1.
         11    1    3    3    0    0  0.60452809815E+01  0.53964665520E+01  0.61681210118E+01  0.10183957505E+02  0.51100000000E-03 0.  1.
        -11    1    3    3    0    0 -0.16416138607E+02 -0.14303374047E+01 -0.33532004647E+02  0.37362157429E+02  0.51100000000E-03 0. -1.
         12    1    3    3    0    0  0.46377508222E+01  0.12666536367E+02  0.20948538684E+02  0.24915680790E+02  0.00000000000E+00 0. -1.
</event>
<event>
 7    1  0.1788006E-013  0.7246157E+02  0.7816164E-02  0.1226708E+00
        -11   -1    0    0    0    0  0.00000000000E+00  0.00000000000E+00  0.45593999997E+02  0.45594000000E+02  0.51100000000E-03 0.  1.
         11   -1    0    0    0    0 -0.00000000000E+00 -0.00000000000E+00 -0.45593999997E+02  0.45594000000E+02  0.51100000000E-03 0. -1.
    9900012    2    1    2    0    0 -0.25264772766E+01  0.10525560373E+02 -0.15280991934E+02  0.72461568864E+02  0.69999998137E+02 0.  0.
        -12    1    1    2    0    0  0.25264772766E+01 -0.10525560373E+02  0.15280991934E+02  0.18726431136E+02  0.00000000000E+00 0.  1.
         11    1    3    3    0    0  0.17644663060E+02  0.48711912145E+01 -0.10955408253E+01  0.18337471154E+02  0.51100000000E-03 0. -1.
        -11    1    3    3    0    0  0.10115561845E+02 -0.38507721414E+01  0.95925509854E+01  0.14462713169E+02  0.51100000000E-03 0.  1.
        -12    1    3    3    0    0 -0.30286702182E+02  0.95051412999E+01 -0.23778002094E+02  0.39661384542E+02  0.00000000000E+00 0.  1.
</event>
<event>
 7    1  0.1788006E-013  0.7246159E+02  0.7816164E-02  0.1226708E+00
        -11   -1    0    0    0    0  0.00000000000E+00  0.00000000000E+00  0.45593999997E+02  0.45594000000E+02  0.51100000000E-03 0.  1.
         11   -1    0    0    0    0 -0.00000000000E+00 -0.00000000000E+00 -0.45593999997E+02  0.45594000000E+02  0.51100000000E-03 0. -1.
    9900012    2    1    2    0    0 -0.44079485823E+01 -0.18181979758E+02  0.81479484191E+00  0.72461593798E+02  0.70000030618E+02 0.  0.
        -12    1    1    2    0    0  0.44079485823E+01  0.18181979758E+02 -0.81479484191E+00  0.18726406202E+02  0.00000000000E+00 0.  1.
         11    1    3    3    0    0  0.92874413679E+00 -0.63497083186E+01 -0.78976837568E+01  0.10176186436E+02  0.51100000000E-03 0. -1.
        -11    1    3    3    0    0 -0.22268531455E+02  0.55236328704E+01 -0.15760320071E+02  0.27834972646E+02  0.51100000000E-03 0.  1.
        -12    1    3    3    0    0  0.16931838736E+02 -0.17355904309E+02  0.24472798669E+02  0.34450434715E+02  0.00000000000E+00 0.  1.
</event>
<event>
 7    1  0.1788006E-013  0.7246158E+02  0.7816164E-02  0.1226708E+00
        -11   -1    0    0    0    0  0.00000000000E+00  0.00000000000E+00  0.45593999997E+02  0.45594000000E+02  0.51100000000E-03 0.  1.
         11   -1    0    0    0    0 -0.00000000000E+00 -0.00000000000E+00 -0.45593999997E+02  0.45594000000E+02  0.51100000000E-03 0. -1.
    9900012    2    1    2    0    0  0.22343777012E+01  0.18553805273E+02 -0.12011528831E+01  0.72461577436E+02  0.70000009303E+02 0.  0.
        -12    1    1    2    0    0 -0.22343777012E+01 -0.18553805273E+02  0.12011528831E+01  0.18726422564E+02  0.00000000000E+00 0.  1.
         11    1    3    3    0    0 -0.75954010289E+01  0.29421352769E+01  0.32747821114E+01  0.87789791500E+01  0.51100000000E-03 0. -1.
        -11    1    3    3    0    0 -0.12234934749E+02 -0.47312588606E+01 -0.24369963916E+02  0.27676227709E+02  0.51100000000E-03 0.  1.
        -12    1    3    3    0    0  0.22064713479E+02  0.20342928856E+02  0.19894028921E+02  0.36006370576E+02  0.00000000000E+00 0.  1.
</event>
<event>
 7    1  0.1788006E-013  0.7246158E+02  0.7816164E-02  0.1226708E+00
        -11   -1    0    0    0    0  0.00000000000E+00  0.00000000000E+00  0.45593999997E+02  0.45594000000E+02  0.51100000000E-03 0.  1.
         11   -1    0    0    0    0 -0.00000000000E+00 -0.00000000000E+00 -0.45593999997E+02  0.45594000000E+02  0.51100000000E-03 0. -1.
    9900012    2    1    2    0    0 -0.27245304568E+01  0.12026591075E+02 -0.14093146020E+02  0.72461582194E+02  0.70000015502E+02 0.  0.
        -12    1    1    2    0    0  0.27245304568E+01 -0.12026591075E+02  0.14093146020E+02  0.18726417806E+02  0.00000000000E+00 0.  1.
         11    1    3    3    0    0  0.57677397893E+01  0.93871956924E+01 -0.24129498456E+02  0.26525816882E+02  0.51100000000E-03 0. -1.
        -11    1    3    3    0    0 -0.22104738340E+02  0.49415435995E+01 -0.72781756033E+01  0.23790967836E+02  0.51100000000E-03 0.  1.
         12    1    3    3    0    0  0.13612468094E+02 -0.23021482166E+01  0.17314528040E+02  0.22144797476E+02  0.00000000000E+00 0. -1.
</event>
<event>
 7    1  0.1788006E-013  0.7246157E+02  0.7816164E-02  0.1226708E+00
        -11   -1    0    0    0    0  0.00000000000E+00  0.00000000000E+00  0.45593999997E+02  0.45594000000E+02  0.51100000000E-03 0.  1.
         11   -1    0    0    0    0 -0.00000000000E+00 -0.00000000000E+00 -0.45593999997E+02  0.45594000000E+02  0.51100000000E-03 0. -1.
    9900012    2    1    2    0    0 -0.86435856303E+01  0.99132202868E+01 -0.13330256754E+02  0.72461568035E+02  0.69999997057E+02 0.  0.
        -12    1    1    2    0    0  0.86435856303E+01 -0.99132202868E+01  0.13330256754E+02  0.18726431965E+02  0.00000000000E+00 0.  1.
         11    1    3    3    0    0  0.91138724802E+01  0.47423298891E+01 -0.20290036054E+02  0.22742865424E+02  0.51100000000E-03 0. -1.
        -11    1    3    3    0    0 -0.16861953144E+01  0.22117763344E+02 -0.60392582812E+01  0.22989374738E+02  0.51100000000E-03 0.  1.
        -12    1    3    3    0    0 -0.16071262796E+02 -0.16946872946E+02  0.12999037581E+02  0.26729327873E+02  0.00000000000E+00 0.  1.
</event>
<event>
 7    1  0.1788006E-013  0.7246165E+02  0.7816164E-02  0.1226708E+00
        -11   -1    0    0    0    0  0.00000000000E+00  0.00000000000E+00  0.45593999997E+02  0.45594000000E+02  0.51100000000E-03 0. -1.
         11   -1    0    0    0    0 -0.00000000000E+00 -0.00000000000E+00 -0.45593999997E+02  0.45594000000E+02  0.51100000000E-03 0.  1.
    9900012    2    1    2    0    0 -0.18696792459E+02  0.14036805113E+00  0.10423038694E+01  0.72461650948E+02  0.70000105067E+02 0.  0.
        -12    1    1    2    0    0  0.18696792459E+02 -0.14036805113E+00 -0.10423038694E+01  0.18726349052E+02  0.00000000000E+00 0.  1.
         11    1    3    3    0    0  0.24988285103E+00 -0.32079993285E+02  0.67615087271E+01  0.32785765374E+02  0.51100000000E-03 0. -1.
        -11    1    3    3    0    0 -0.27553282530E+01 -0.11725308890E+00  0.91928888303E+00  0.29070043654E+01  0.51100000000E-03 0.  1.
        -12    1    3    3    0    0 -0.16191347057E+02  0.32337614425E+02 -0.66384937407E+01  0.36768881209E+02  0.00000000000E+00 0.  1.
</event>
<event>
 7    1  0.1788006E-013  0.7246153E+02  0.7816164E-02  0.1226708E+00
        -11   -1    0    0    0    0  0.00000000000E+00  0.00000000000E+00  0.45593999997E+02  0.45594000000E+02  0.51100000000E-03 0.  1.
         11   -1    0    0    0    0 -0.00000000000E+00 -0.00000000000E+00 -0.45593999997E+02  0.45594000000E+02  0.51100000000E-03 0. -1.
    9900012    2    1    2    0    0 -0.24846961622E+01 -0.13062708883E+02 -0.13186072950E+02  0.72461532147E+02  0.69999950306E+02 0.  0.
        -12    1    1    2    0    0  0.24846961622E+01  0.13062708883E+02  0.13186072950E+02  0.18726467853E+02  0.00000000000E+00 0.  1.
         11    1    3    3    0    0  0.38221867360E+01 -0.94386933908E+01 -0.44441603178E+01  0.11110742800E+02  0.51100000000E-03 0. -1.
        -11    1    3    3    0    0 -0.26071258606E+02  0.27295651241E+01 -0.24035755137E+02  0.35565131468E+02  0.51100000000E-03 0.  1.
         12    1    3    3    0    0  0.19764375707E+02 -0.63535806165E+01  0.15293842504E+02  0.25785657880E+02  0.00000000000E+00 0. -1.
</event>
<event>
 7    1  0.1788006E-013  0.7246151E+02  0.7816164E-02  0.1226708E+00
        -11   -1    0    0    0    0  0.00000000000E+00  0.00000000000E+00  0.45593999997E+02  0.45594000000E+02  0.51100000000E-03 0.  1.
         11   -1    0    0    0    0 -0.00000000000E+00 -0.00000000000E+00 -0.45593999997E+02  0.45594000000E+02  0.51100000000E-03 0. -1.
    9900012    2    1    2    0    0  0.16799712216E+02  0.31287811884E+00 -0.82675925040E+01  0.72461513168E+02  0.69999925582E+02 0.  0.
        -12    1    1    2    0    0 -0.16799712216E+02 -0.31287811884E+00  0.82675925040E+01  0.18726486832E+02  0.00000000000E+00 0.  1.
         11    1    3    3    0    0  0.23907193870E+02  0.12163699486E+02  0.35061086630E+01  0.27051844709E+02  0.51100000000E-03 0. -1.
        -11    1    3    3    0    0  0.11442083660E+02 -0.18635095808E+02  0.99557361522E+00  0.21890163118E+02  0.51100000000E-03 0.  1.
        -12    1    3    3    0    0 -0.18549565314E+02  0.67842744406E+01 -0.12769274782E+02  0.23519505341E+02  0.00000000000E+00 0.  1.
</event>
<event>
 7    1  0.1788006E-013  0.7246140E+02  0.7816164E-02  0.1226708E+00
        -11   -1    0    0    0    0  0.00000000000E+00  0.00000000000E+00  0.45593999997E+02  0.45594000000E+02  0.51100000000E-03 0.  1.
         11   -1    0    0    0    0 -0.00000000000E+00 -0.00000000000E+00 -0.45593999997E+02  0.45594000000E+02  0.51100000000E-03 0. -1.
    9900012    2    1    2    0    0 -0.18151346206E+02 -0.32321939158E+01 -0.32813315783E+01  0.72461399039E+02  0.69999776908E+02 0.  0.
        -12    1    1    2    0    0  0.18151346206E+02  0.32321939158E+01  0.32813315783E+01  0.18726600961E+02  0.00000000000E+00 0.  1.
         11    1    3    3    0    0 -0.99319635209E+01 -0.86608754389E+01 -0.11788399618E+02  0.17681092403E+02  0.51100000000E-03 0. -1.
        -11    1    3    3    0    0  0.12798598869E+02 -0.12767740817E+02 -0.10683992590E+02  0.20999215140E+02  0.51100000000E-03 0.  1.
        -12    1    3    3    0    0 -0.21017981555E+02  0.18196422340E+02  0.19191060629E+02  0.33781091496E+02  0.00000000000E+00 0.  1.
</event>
<event>
 7    1  0.1788006E-013  0.7246168E+02  0.7816164E-02  0.1226708E+00
        -11   -1    0    0    0    0  0.00000000000E+00  0.00000000000E+00  0.45593999997E+02  0.45594000000E+02  0.51100000000E-03 0. -1.
         11   -1    0    0    0    0 -0.00000000000E+00 -0.00000000000E+00 -0.45593999997E+02  0.45594000000E+02  0.51100000000E-03 0.  1.
    9900012    2    1    2    0    0  0.25941021342E+01 -0.11903036204E+02  0.14221938346E+02  0.72461677161E+02  0.70000139213E+02 0.  0.
        -12    1    1    2    0    0 -0.25941021342E+01  0.11903036204E+02 -0.14221938346E+02  0.18726322839E+02  0.00000000000E+00 0.  1.
         11    1    3    3    0    0 -0.15597925061E+00 -0.25567452254E+02  0.18360542795E+02  0.31477428044E+02  0.51100000000E-03 0. -1.
        -11    1    3    3    0    0  0.15496856777E+02 -0.21312836420E+01  0.77543391588E+01  0.17459230108E+02  0.51100000000E-03 0.  1.
        -12    1    3    3    0    0 -0.12746775392E+02  0.15795699693E+02 -0.11892943608E+02  0.23525019008E+02  0.00000000000E+00 0.  1.
</event>
<event>
 7    1  0.1788006E-013  0.7246164E+02  0.7816164E-02  0.1226708E+00
        -11   -1    0    0    0    0  0.00000000000E+00  0.00000000000E+00  0.45593999997E+02  0.45594000000E+02  0.51100000000E-03 0. -1.
         11   -1    0    0    0    0 -0.00000000000E+00 -0.00000000000E+00 -0.45593999997E+02  0.45594000000E+02  0.51100000000E-03 0.  1.
    9900012    2    1    2    0    0 -0.63797531783E+01  0.14351205312E+02  0.10198932954E+02  0.72461639491E+02  0.70000090141E+02 0.  0.
        -12    1    1    2    0    0  0.63797531783E+01 -0.14351205312E+02 -0.10198932954E+02  0.18726360509E+02  0.00000000000E+00 0.  1.
         11    1    3    3    0    0  0.29038822951E+01  0.12393932509E+02  0.15134163291E+01  0.12819224808E+02  0.51100000000E-03 0. -1.
        -11    1    3    3    0    0  0.40098371411E+01  0.14040494533E+02 -0.20621446360E+02  0.25267732998E+02  0.51100000000E-03 0.  1.
        -12    1    3    3    0    0 -0.13293472614E+02 -0.12083221730E+02  0.29306962985E+02  0.34374681685E+02  0.00000000000E+00 0.  1.
</event>
<event>
 7    1  0.1788006E-013  0.7246154E+02  0.7816164E-02  0.1226708E+00
        -11   -1    0    0    0    0  0.00000000000E+00  0.00000000000E+00  0.45593999997E+02  0.45594000000E+02  0.51100000000E-03 0. -1.
         11   -1    0    0    0    0 -0.00000000000E+00 -0.00000000000E+00 -0.45593999997E+02  0.45594000000E+02  0.51100000000E-03 0.  1.
    9900012    2    1    2    0    0 -0.65647179180E+01  0.79982239423E+01  0.15608112448E+02  0.72461540597E+02  0.69999961314E+02 0.  0.
        -12    1    1    2    0    0  0.65647179180E+01 -0.79982239423E+01 -0.15608112448E+02  0.18726459403E+02  0.00000000000E+00 0.  1.
         11    1    3    3    0    0  0.32191993085E+01 -0.17125060202E+02  0.12732546145E+02  0.21581210872E+02  0.51100000000E-03 0. -1.
        -11    1    3    3    0    0  0.14702298238E+02  0.37508310824E+00 -0.43232938488E+01  0.15329355198E+02  0.51100000000E-03 0.  1.
         12    1    3    3    0    0 -0.24486215465E+02  0.24748201036E+02  0.71988601522E+01  0.35550974527E+02  0.00000000000E+00 0. -1.
</event>
<event>
 7    1  0.1788006E-013  0.7246156E+02  0.7816164E-02  0.1226708E+00
        -11   -1    0    0    0    0  0.00000000000E+00  0.00000000000E+00  0.45593999997E+02  0.45594000000E+02  0.51100000000E-03 0.  1.
         11   -1    0    0    0    0 -0.00000000000E+00 -0.00000000000E+00 -0.45593999997E+02  0.45594000000E+02  0.51100000000E-03 0. -1.
    9900012    2    1    2    0    0 -0.15498272743E+02  0.98668793778E+01 -0.36232291139E+01  0.72461559978E+02  0.69999986561E+02 0.  0.
        -12    1    1    2    0    0  0.15498272743E+02 -0.98668793778E+01  0.36232291139E+01  0.18726440022E+02  0.00000000000E+00 0.  1.
         11    1    3    3    0    0 -0.15252298192E+02 -0.22120820012E+02 -0.97192023425E+01  0.28573172252E+02  0.51100000000E-03 0.  1.
        -11    1    3    3    0    0 -0.32740773224E+01  0.15711307699E+02 -0.11488246948E+02  0.19736884002E+02  0.51100000000E-03 0. -1.
        -12    1    3    3    0    0  0.30281027711E+01  0.16276391691E+02  0.17584220177E+02  0.24151503723E+02  0.00000000000E+00 0.  1.
</event>
<event>
 7    1  0.1788006E-013  0.7246151E+02  0.7816164E-02  0.1226708E+00
        -11   -1    0    0    0    0  0.00000000000E+00  0.00000000000E+00  0.45593999997E+02  0.45594000000E+02  0.51100000000E-03 0. -1.
         11   -1    0    0    0    0 -0.00000000000E+00 -0.00000000000E+00 -0.45593999997E+02  0.45594000000E+02  0.51100000000E-03 0.  1.
    9900012    2    1    2    0    0 -0.95565993964E+00  0.14121295425E+02  0.12262016009E+02  0.72461513223E+02  0.69999925654E+02 0.  0.
        -12    1    1    2    0    0  0.95565993964E+00 -0.14121295425E+02 -0.12262016009E+02  0.18726486777E+02  0.00000000000E+00 0.  1.
         11    1    3    3    0    0  0.15436664190E+01 -0.15397661869E+02  0.23358618522E+02  0.28019563818E+02  0.51100000000E-03 0. -1.
        -11    1    3    3    0    0 -0.10388388656E+02  0.74043980204E+01  0.72239990556E+01  0.14660487425E+02  0.51100000000E-03 0.  1.
        -12    1    3    3    0    0  0.78890622977E+01  0.22114559274E+02 -0.18320601568E+02  0.29781461979E+02  0.00000000000E+00 0.  1.
</event>
<event>
 7    1  0.1788006E-013  0.7246157E+02  0.7816164E-02  0.1226708E+00
        -11   -1    0    0    0    0  0.00000000000E+00  0.00000000000E+00  0.45593999997E+02  0.45594000000E+02  0.51100000000E-03 0. -1.
         11   -1    0    0    0    0 -0.00000000000E+00 -0.00000000000E+00 -0.45593999997E+02  0.45594000000E+02  0.51100000000E-03 0.  1.
    9900012    2    1    2    0    0  0.35821381471E+01  0.54659642136E+01  0.17549096098E+02  0.72461568083E+02  0.69999997119E+02 0.  0.
        -12    1    1    2    0    0 -0.35821381471E+01 -0.54659642136E+01 -0.17549096098E+02  0.18726431917E+02  0.00000000000E+00 0.  1.
         11    1    3    3    0    0  0.19604914351E+01  0.82229602243E+01 -0.68848946679E+01  0.10902402321E+02  0.51100000000E-03 0. -1.
        -11    1    3    3    0    0 -0.16690505105E+02 -0.26728662900E+01 -0.12035555413E+02  0.20750223354E+02  0.51100000000E-03 0.  1.
         12    1    3    3    0    0  0.18312151817E+02 -0.84129720683E-01  0.36469546179E+02  0.40808942408E+02  0.00000000000E+00 0. -1.
</event>
<event>
 7    1  0.1788006E-013  0.7246160E+02  0.7816164E-02  0.1226708E+00
        -11   -1    0    0    0    0  0.00000000000E+00  0.00000000000E+00  0.45593999997E+02  0.45594000000E+02  0.51100000000E-03 0.  1.
         11   -1    0    0    0    0 -0.00000000000E+00 -0.00000000000E+00 -0.45593999997E+02  0.45594000000E+02  0.51100000000E-03 0. -1.
    9900012    2    1    2    0    0  0.91599765250E+01 -0.15467192497E+02 -0.52477485975E+01  0.72461599411E+02  0.70000037930E+02 0.  0.
        -12    1    1    2    0    0 -0.91599765250E+01  0.15467192497E+02  0.52477485975E+01  0.18726400589E+02  0.00000000000E+00 0.  1.
         11    1    3    3    0    0  0.88696279953E+01  0.19352821137E+02  0.14864902638E+02  0.25964732185E+02  0.51100000000E-03 0.  1.
        -11    1    3    3    0    0  0.11658863406E+02 -0.20830978944E+02 -0.12238767312E+02  0.26826222344E+02  0.51100000000E-03 0. -1.
        -12    1    3    3    0    0 -0.11368514876E+02 -0.13989034690E+02 -0.78738839232E+01  0.19670644882E+02  0.00000000000E+00 0.  1.
</event>
<event>
 7    1  0.1788006E-013  0.7246153E+02  0.7816164E-02  0.1226708E+00
        -11   -1    0    0    0    0  0.00000000000E+00  0.00000000000E+00  0.45593999997E+02  0.45594000000E+02  0.51100000000E-03 0. -1.
         11   -1    0    0    0    0 -0.00000000000E+00 -0.00000000000E+00 -0.45593999997E+02  0.45594000000E+02  0.51100000000E-03 0.  1.
    9900012    2    1    2    0    0  0.26890443237E+01  0.12764673167E+01  0.18488384450E+02  0.72461529757E+02  0.69999947192E+02 0.  0.
        -12    1    1    2    0    0 -0.26890443237E+01 -0.12764673167E+01 -0.18488384450E+02  0.18726470243E+02  0.00000000000E+00 0.  1.
         11    1    3    3    0    0 -0.46451463289E+01 -0.10887472010E+02  0.12689744516E+02  0.17353502452E+02  0.51100000000E-03 0. -1.
        -11    1    3    3    0    0 -0.12666518228E+01 -0.14798077569E+02  0.18804135627E+02  0.23962116424E+02  0.51100000000E-03 0.  1.
         12    1    3    3    0    0  0.86008424754E+01  0.26962016896E+02 -0.13005495693E+02  0.31145910881E+02  0.00000000000E+00 0. -1.
</event>
<event>
 7    1  0.1788006E-013  0.7246156E+02  0.7816164E-02  0.1226708E+00
        -11   -1    0    0    0    0  0.00000000000E+00  0.00000000000E+00  0.45593999997E+02  0.45594000000E+02  0.51100000000E-03 0. -1.
         11   -1    0    0    0    0 -0.00000000000E+00 -0.00000000000E+00 -0.45593999997E+02  0.45594000000E+02  0.51100000000E-03 0.  1.
    9900012    2    1    2    0    0  0.12991365730E+02 -0.13351557750E+02  0.19078052499E+01  0.72461564174E+02  0.69999992027E+02 0.  0.
        -12    1    1    2    0    0 -0.12991365730E+02  0.13351557750E+02 -0.19078052499E+01  0.18726435826E+02  0.00000000000E+00 0.  1.
         11    1    3    3    0    0  0.14056279505E+02  0.25354663609E+02  0.11731522834E+02  0.31274056157E+02  0.51100000000E-03 0. -1.
        -11    1    3    3    0    0 -0.76862724651E+00 -0.94670181713E+01  0.18960635902E+01  0.96855706233E+01  0.51100000000E-03 0.  1.
        -12    1    3    3    0    0 -0.29628652856E+00 -0.29239203188E+02 -0.11719781174E+02  0.31501937393E+02  0.00000000000E+00 0.  1.
</event>
<event>
 7    1  0.1788006E-013  0.7246156E+02  0.7816164E-02  0.1226708E+00
        -11   -1    0    0    0    0  0.00000000000E+00  0.00000000000E+00  0.45593999997E+02  0.45594000000E+02  0.51100000000E-03 0.  1.
         11   -1    0    0    0    0 -0.00000000000E+00 -0.00000000000E+00 -0.45593999997E+02  0.45594000000E+02  0.51100000000E-03 0. -1.
    9900012    2    1    2    0    0 -0.12525901725E+02 -0.33014170982E+01 -0.13523392925E+02  0.72461555461E+02  0.69999980677E+02 0.  0.
        -12    1    1    2    0    0  0.12525901725E+02  0.33014170982E+01  0.13523392925E+02  0.18726444539E+02  0.00000000000E+00 0.  1.
         11    1    3    3    0    0 -0.13557985970E+02 -0.35268819444E+01 -0.11682661943E+02  0.18241229952E+02  0.51100000000E-03 0. -1.
        -11    1    3    3    0    0 -0.24125994728E+02  0.11339076737E+02 -0.37945590439E-01  0.26657826674E+02  0.51100000000E-03 0.  1.
        -12    1    3    3    0    0  0.25158078973E+02 -0.11113611891E+02 -0.18027853914E+01  0.27562498835E+02  0.00000000000E+00 0.  1.
</event>
<event>
 7    1  0.1788006E-013  0.7246180E+02  0.7816164E-02  0.1226707E+00
        -11   -1    0    0    0    0  0.00000000000E+00  0.00000000000E+00  0.45593999997E+02  0.45594000000E+02  0.51100000000E-03 0.  1.
         11   -1    0    0    0    0 -0.00000000000E+00 -0.00000000000E+00 -0.45593999997E+02  0.45594000000E+02  0.51100000000E-03 0. -1.
    9900012    2    1    2    0    0 -0.17270894330E+02  0.42873230605E+01  0.58314504179E+01  0.72461795260E+02  0.70000293059E+02 0.  0.
        -12    1    1    2    0    0  0.17270894330E+02 -0.42873230605E+01 -0.58314504179E+01  0.18726204740E+02  0.00000000000E+00 0.  1.
         11    1    3    3    0    0 -0.81451390296E+00 -0.18355998356E+02  0.15880773403E+02  0.24285902756E+02  0.51100000000E-03 0. -1.
        -11    1    3    3    0    0 -0.19421212430E+01  0.27710497338E+01  0.13618738663E+02  0.14032839862E+02  0.51100000000E-03 0.  1.
        -12    1    3    3    0    0 -0.14514259184E+02  0.19872271683E+02 -0.23668061649E+02  0.34143052642E+02  0.00000000000E+00 0.  1.
</event>
<event>
 7    1  0.1788006E-013  0.7246159E+02  0.7816164E-02  0.1226708E+00
        -11   -1    0    0    0    0  0.00000000000E+00  0.00000000000E+00  0.45593999997E+02  0.45594000000E+02  0.51100000000E-03 0.  1.
         11   -1    0    0    0    0 -0.00000000000E+00 -0.00000000000E+00 -0.45593999997E+02  0.45594000000E+02  0.51100000000E-03 0. -1.
    9900012    2    1    2    0    0 -0.94486880399E+01  0.15832144444E+02  0.32777991677E+01  0.72461588951E+02  0.70000024304E+02 0.  0.
        -12    1    1    2    0    0  0.94486880399E+01 -0.15832144444E+02 -0.32777991677E+01  0.18726411049E+02  0.00000000000E+00 0.  1.
         11    1    3    3    0    0 -0.55419816948E+01 -0.17888498214E+02 -0.17473408571E+01  0.18808645081E+02  0.51100000000E-03 0. -1.
        -11    1    3    3    0    0  0.24534557943E+01 -0.69970372004E+01  0.96645599500E+01  0.12181202494E+02  0.51100000000E-03 0.  1.
         12    1    3    3    0    0 -0.63601621394E+01  0.40717679859E+02 -0.46394199251E+01  0.41471741376E+02  0.00000000000E+00 0. -1.
</event>
<event>
 7    1  0.1788006E-013  0.7246159E+02  0.7816164E-02  0.1226708E+00
        -11   -1    0    0    0    0  0.00000000000E+00  0.00000000000E+00  0.45593999997E+02  0.45594000000E+02  0.51100000000E-03 0.  1.
         11   -1    0    0    0    0 -0.00000000000E+00 -0.00000000000E+00 -0.45593999997E+02  0.45594000000E+02  0.51100000000E-03 0. -1.
    9900012    2    1    2    0    0 -0.17204204694E+02  0.68908287078E+01  0.26851997751E+01  0.72461588778E+02  0.70000024078E+02 0.  0.
        -12    1    1    2    0    0  0.17204204694E+02 -0.68908287078E+01 -0.26851997751E+01  0.18726411222E+02  0.00000000000E+00 0.  1.
         11    1    3    3    0    0 -0.15815342276E+02  0.17913744162E+02 -0.27004842853E+01  0.24048282617E+02  0.51100000000E-03 0. -1.
        -11    1    3    3    0    0 -0.17402192832E+02 -0.62147811049E+01  0.19256932291E+02  0.26688747837E+02  0.51100000000E-03 0.  1.
         12    1    3    3    0    0  0.16013330414E+02 -0.48081343494E+01 -0.13871248231E+02  0.21724558324E+02  0.00000000000E+00 0. -1.
</event>
<event>
 7    1  0.1788006E-013  0.7246160E+02  0.7816164E-02  0.1226708E+00
        -11   -1    0    0    0    0  0.00000000000E+00  0.00000000000E+00  0.45593999997E+02  0.45594000000E+02  0.51100000000E-03 0.  1.
         11   -1    0    0    0    0 -0.00000000000E+00 -0.00000000000E+00 -0.45593999997E+02  0.45594000000E+02  0.51100000000E-03 0. -1.
    9900012    2    1    2    0    0  0.11820244484E+02 -0.14113034070E+02  0.34325179836E+01  0.72461599117E+02  0.70000037547E+02 0.  0.
        -12    1    1    2    0    0 -0.11820244484E+02  0.14113034070E+02 -0.34325179836E+01  0.18726400883E+02  0.00000000000E+00 0.  1.
         11    1    3    3    0    0 -0.14284040693E+01  0.11634622613E+02  0.45578051957E+01  0.12576898266E+02  0.51100000000E-03 0. -1.
        -11    1    3    3    0    0  0.15045318082E+02  0.19805332734E+01  0.19910204687E+02  0.25033984085E+02  0.51100000000E-03 0.  1.
         12    1    3    3    0    0 -0.17966695285E+01 -0.27728189956E+02 -0.21035491899E+02  0.34850716766E+02  0.00000000000E+00 0. -1.
</event>
<event>
 7    1  0.1788006E-013  0.7246156E+02  0.7816164E-02  0.1226708E+00
        -11   -1    0    0    0    0  0.00000000000E+00  0.00000000000E+00  0.45593999997E+02  0.45594000000E+02  0.51100000000E-03 0.  1.
         11   -1    0    0    0    0 -0.00000000000E+00 -0.00000000000E+00 -0.45593999997E+02  0.45594000000E+02  0.51100000000E-03 0. -1.
    9900012    2    1    2    0    0 -0.14397402215E+01  0.17112557780E+02 -0.74677359133E+01  0.72461559726E+02  0.69999986233E+02 0.  0.
        -12    1    1    2    0    0  0.14397402215E+01 -0.17112557780E+02  0.74677359133E+01  0.18726440274E+02  0.00000000000E+00 0.  1.
         11    1    3    3    0    0  0.20761050624E+02  0.23954764979E+02 -0.76415621211E+01  0.32607444857E+02  0.51100000000E-03 0. -1.
        -11    1    3    3    0    0 -0.18653658843E+01 -0.20577695094E-01  0.14137601986E+02  0.14260147387E+02  0.51100000000E-03 0.  1.
        -12    1    3    3    0    0 -0.20335424961E+02 -0.68216295040E+01 -0.13963775778E+02  0.25593967481E+02  0.00000000000E+00 0.  1.
</event>
<event>
 7    1  0.1788006E-013  0.7246164E+02  0.7816164E-02  0.1226708E+00
        -11   -1    0    0    0    0  0.00000000000E+00  0.00000000000E+00  0.45593999997E+02  0.45594000000E+02  0.51100000000E-03 0.  1.
         11   -1    0    0    0    0 -0.00000000000E+00 -0.00000000000E+00 -0.45593999997E+02  0.45594000000E+02  0.51100000000E-03 0. -1.
    9900012    2    1    2    0    0 -0.15301583761E+01 -0.29660884316E+01 -0.18426543247E+02  0.72461639935E+02  0.70000090720E+02 0.  0.
        -12    1    1    2    0    0  0.15301583761E+01  0.29660884316E+01  0.18426543247E+02  0.18726360065E+02  0.00000000000E+00 0.  1.
         11    1    3    3    0    0  0.63156707473E+01  0.24725852352E+02 -0.26232044200E+02  0.36597480989E+02  0.51100000000E-03 0. -1.
        -11    1    3    3    0    0 -0.28520358627E+01 -0.12314671853E+02 -0.65553871866E+01  0.14239324171E+02  0.51100000000E-03 0.  1.
        -12    1    3    3    0    0 -0.49937932608E+01 -0.15377268931E+02  0.14360888140E+02  0.21624834776E+02  0.00000000000E+00 0.  1.
</event>
<event>
 7    1  0.1788006E-013  0.7246161E+02  0.7816164E-02  0.1226708E+00
        -11   -1    0    0    0    0  0.00000000000E+00  0.00000000000E+00  0.45593999997E+02  0.45594000000E+02  0.51100000000E-03 0. -1.
         11   -1    0    0    0    0 -0.00000000000E+00 -0.00000000000E+00 -0.45593999997E+02  0.45594000000E+02  0.51100000000E-03 0.  1.
    9900012    2    1    2    0    0  0.16605631732E+02  0.87537193485E-01 -0.86558092383E+01  0.72461609490E+02  0.70000051059E+02 0.  0.
        -12    1    1    2    0    0 -0.16605631732E+02 -0.87537193485E-01  0.86558092383E+01  0.18726390510E+02  0.00000000000E+00 0.  1.
         11    1    3    3    0    0  0.14948084908E+02  0.22692617227E+02 -0.29593180218E+01  0.27334185234E+02  0.51100000000E-03 0. -1.
        -11    1    3    3    0    0  0.91016387781E+01  0.78979096590E+01  0.32469071534E+01  0.12480353030E+02  0.51100000000E-03 0.  1.
        -12    1    3    3    0    0 -0.74440919540E+01 -0.30502989692E+02 -0.89433983699E+01  0.32647071225E+02  0.00000000000E+00 0.  1.
</event>
<event>
 7    1  0.1788006E-013  0.7246158E+02  0.7816164E-02  0.1226708E+00
        -11   -1    0    0    0    0  0.00000000000E+00  0.00000000000E+00  0.45593999997E+02  0.45594000000E+02  0.51100000000E-03 0.  1.
         11   -1    0    0    0    0 -0.00000000000E+00 -0.00000000000E+00 -0.45593999997E+02  0.45594000000E+02  0.51100000000E-03 0. -1.
    9900012    2    1    2    0    0  0.95050768786E+01  0.11507548024E+02 -0.11309675127E+02  0.72461577504E+02  0.70000009392E+02 0.  0.
        -12    1    1    2    0    0 -0.95050768786E+01 -0.11507548024E+02  0.11309675127E+02  0.18726422496E+02  0.00000000000E+00 0.  1.
         11    1    3    3    0    0 -0.84319858726E+01 -0.18236735726E+02 -0.33721463214E-01  0.20091740918E+02  0.51100000000E-03 0. -1.
        -11    1    3    3    0    0  0.70755333692E+01 -0.69933245975E+01 -0.99008914062E+01  0.14035576664E+02  0.51100000000E-03 0.  1.
         12    1    3    3    0    0  0.10861529382E+02  0.36737608348E+02 -0.13750622580E+01  0.38334259923E+02  0.00000000000E+00 0. -1.
</event>
<event>
 7    1  0.1788006E-013  0.7246161E+02  0.7816164E-02  0.1226708E+00
        -11   -1    0    0    0    0  0.00000000000E+00  0.00000000000E+00  0.45593999997E+02  0.45594000000E+02  0.51100000000E-03 0.  1.
         11   -1    0    0    0    0 -0.00000000000E+00 -0.00000000000E+00 -0.45593999997E+02  0.45594000000E+02  0.51100000000E-03 0. -1.
    9900012    2    1    2    0    0 -0.13159046164E+02  0.11121467410E+02  0.73369035134E+01  0.72461609892E+02  0.70000051583E+02 0.  0.
        -12    1    1    2    0    0  0.13159046164E+02 -0.11121467410E+02 -0.73369035134E+01  0.18726390108E+02  0.00000000000E+00 0.  1.
         11    1    3    3    0    0 -0.14886161583E+02  0.12071106857E+02 -0.24984733101E+02  0.31488828429E+02  0.51100000000E-03 0. -1.
        -11    1    3    3    0    0  0.71455099755E+01 -0.72110561262E+01  0.31207499220E+01  0.10620580191E+02  0.51100000000E-03 0.  1.
         12    1    3    3    0    0 -0.54183945566E+01  0.62614166799E+01  0.29200886693E+02  0.30352201272E+02  0.00000000000E+00 0. -1.
</event>
<event>
 7    1  0.1788006E-013  0.7246156E+02  0.7816164E-02  0.1226708E+00
        -11   -1    0    0    0    0  0.00000000000E+00  0.00000000000E+00  0.45593999997E+02  0.45594000000E+02  0.51100000000E-03 0.  1.
         11   -1    0    0    0    0 -0.00000000000E+00 -0.00000000000E+00 -0.45593999997E+02  0.45594000000E+02  0.51100000000E-03 0. -1.
    9900012    2    1    2    0    0  0.14502623220E+02  0.95213823937E+01 -0.70495995060E+01  0.72461557302E+02  0.69999983075E+02 0.  0.
        -12    1    1    2    0    0 -0.14502623220E+02 -0.95213823937E+01  0.70495995060E+01  0.18726442698E+02  0.00000000000E+00 0.  1.
         11    1    3    3    0    0 -0.54708972170E+01 -0.12516404521E+02  0.13574346566E+02  0.19257569510E+02  0.51100000000E-03 0. -1.
        -11    1    3    3    0    0 -0.10673596129E+02  0.13225550501E+02 -0.51461256889E+01  0.17757349189E+02  0.51100000000E-03 0.  1.
        -12    1    3    3    0    0  0.30647116565E+02  0.88122364138E+01 -0.15477820383E+02  0.35446638602E+02  0.00000000000E+00 0.  1.
</event>
<event>
 7    1  0.1788006E-013  0.7246159E+02  0.7816164E-02  0.1226708E+00
        -11   -1    0    0    0    0  0.00000000000E+00  0.00000000000E+00  0.45593999997E+02  0.45594000000E+02  0.51100000000E-03 0.  1.
         11   -1    0    0    0    0 -0.00000000000E+00 -0.00000000000E+00 -0.45593999997E+02  0.45594000000E+02  0.51100000000E-03 0. -1.
    9900012    2    1    2    0    0 -0.31111785216E+01  0.18373788336E+02 -0.18447270059E+01  0.72461586907E+02  0.70000021641E+02 0.  0.
        -12    1    1    2    0    0  0.31111785216E+01 -0.18373788336E+02  0.18447270059E+01  0.18726413093E+02  0.00000000000E+00 0.  1.
         11    1    3    3    0    0 -0.28516172402E+02  0.30085952139E+01 -0.32422423998E+01  0.28857163230E+02  0.51100000000E-03 0. -1.
        -11    1    3    3    0    0  0.11006971293E+02 -0.73290079141E+01  0.86069595212E+01  0.15778071064E+02  0.51100000000E-03 0.  1.
        -12    1    3    3    0    0  0.14398022588E+02  0.22694201036E+02 -0.72094441273E+01  0.27826352613E+02  0.00000000000E+00 0.  1.
</event>
<event>
 7    1  0.1788006E-013  0.7246161E+02  0.7816164E-02  0.1226708E+00
        -11   -1    0    0    0    0  0.00000000000E+00  0.00000000000E+00  0.45593999997E+02  0.45594000000E+02  0.51100000000E-03 0.  1.
         11   -1    0    0    0    0 -0.00000000000E+00 -0.00000000000E+00 -0.45593999997E+02  0.45594000000E+02  0.51100000000E-03 0. -1.
    9900012    2    1    2    0    0 -0.19735413647E+01 -0.17431482946E+02 -0.65518105988E+01  0.72461609922E+02  0.70000051622E+02 0.  0.
        -12    1    1    2    0    0  0.19735413647E+01  0.17431482946E+02  0.65518105988E+01  0.18726390078E+02  0.00000000000E+00 0.  1.
         11    1    3    3    0    0  0.19058562474E+02 -0.34857227156E+02 -0.98400996641E+01  0.40927773580E+02  0.51100000000E-03 0. -1.
        -11    1    3    3    0    0 -0.41858610559E+01 -0.15938750783E+00 -0.43232612708E+01  0.60197529379E+01  0.51100000000E-03 0.  1.
        -12    1    3    3    0    0 -0.16846242783E+02  0.17585131717E+02  0.76115503361E+01  0.25514083404E+02  0.00000000000E+00 0.  1.
</event>
<event>
 7    1  0.1788006E-013  0.7246144E+02  0.7816164E-02  0.1226708E+00
        -11   -1    0    0    0    0  0.00000000000E+00  0.00000000000E+00  0.45593999997E+02  0.45594000000E+02  0.51100000000E-03 0.  1.
         11   -1    0    0    0    0 -0.00000000000E+00 -0.00000000000E+00 -0.45593999997E+02  0.45594000000E+02  0.51100000000E-03 0. -1.
    9900012    2    1    2    0    0 -0.23555086407E+01 -0.62053349795E+01 -0.17510841549E+02  0.72461436649E+02  0.69999825902E+02 0.  0.
        -12    1    1    2    0    0  0.23555086407E+01  0.62053349795E+01  0.17510841549E+02  0.18726563351E+02  0.00000000000E+00 0.  1.
         11    1    3    3    0    0  0.72138175178E+01 -0.19910803294E+02  0.67440919952E+01  0.22225256536E+02  0.51100000000E-03 0. -1.
        -11    1    3    3    0    0  0.26591621961E+01 -0.10475858415E+02  0.35839200587E+01  0.11386800971E+02  0.51100000000E-03 0.  1.
        -12    1    3    3    0    0 -0.12228488355E+02  0.24181326729E+02 -0.27838853603E+02  0.38849379142E+02  0.00000000000E+00 0.  1.
</event>
<event>
 7    1  0.1788006E-013  0.7246159E+02  0.7816164E-02  0.1226708E+00
        -11   -1    0    0    0    0  0.00000000000E+00  0.00000000000E+00  0.45593999997E+02  0.45594000000E+02  0.51100000000E-03 0. -1.
         11   -1    0    0    0    0 -0.00000000000E+00 -0.00000000000E+00 -0.45593999997E+02  0.45594000000E+02  0.51100000000E-03 0.  1.
    9900012    2    1    2    0    0  0.15346618092E+02 -0.94531935359E+01  0.50790651293E+01  0.72461589306E+02  0.70000024766E+02 0.  0.
        -12    1    1    2    0    0 -0.15346618092E+02  0.94531935359E+01 -0.50790651293E+01  0.18726410694E+02  0.00000000000E+00 0.  1.
         11    1    3    3    0    0  0.13698508125E+02 -0.50457062830E+01  0.29181198243E+01  0.14887031279E+02  0.51100000000E-03 0. -1.
        -11    1    3    3    0    0  0.22884922255E+02 -0.19041908914E+02 -0.63019150835E+01  0.30430709746E+02  0.51100000000E-03 0.  1.
         12    1    3    3    0    0 -0.21236812288E+02  0.14634421661E+02  0.84628603885E+01  0.27143848280E+02  0.00000000000E+00 0. -1.
</event>
<event>
 7    1  0.1788006E-013  0.7246160E+02  0.7816164E-02  0.1226708E+00
        -11   -1    0    0    0    0  0.00000000000E+00  0.00000000000E+00  0.45593999997E+02  0.45594000000E+02  0.51100000000E-03 0.  1.
         11   -1    0    0    0    0 -0.00000000000E+00 -0.00000000000E+00 -0.45593999997E+02  0.45594000000E+02  0.51100000000E-03 0. -1.
    9900012    2    1    2    0    0 -0.12100229992E+02  0.93358239084E+01 -0.10821505296E+02  0.72461597495E+02  0.70000035434E+02 0.  0.
        -12    1    1    2    0    0  0.12100229992E+02 -0.93358239084E+01  0.10821505296E+02  0.18726402505E+02  0.00000000000E+00 0.  1.
         11    1    3    3    0    0 -0.72063756448E+01  0.90520889893E+01  0.81671673144E+01  0.14162442840E+02  0.51100000000E-03 0. -1.
        -11    1    3    3    0    0  0.69210741881E+01  0.89388865039E+01  0.16446090186E+02  0.19956924676E+02  0.51100000000E-03 0.  1.
        -12    1    3    3    0    0 -0.11814928535E+02 -0.86551515849E+01 -0.35434762797E+02  0.38342229979E+02  0.00000000000E+00 0.  1.
</event>
<event>
 7    1  0.1788006E-013  0.7246155E+02  0.7816164E-02  0.1226708E+00
        -11   -1    0    0    0    0  0.00000000000E+00  0.00000000000E+00  0.45593999997E+02  0.45594000000E+02  0.51100000000E-03 0.  1.
         11   -1    0    0    0    0 -0.00000000000E+00 -0.00000000000E+00 -0.45593999997E+02  0.45594000000E+02  0.51100000000E-03 0. -1.
    9900012    2    1    2    0    0 -0.55794357441E+01 -0.76932467737E+01 -0.16135790717E+02  0.72461551026E+02  0.69999974899E+02 0.  0.
        -12    1    1    2    0    0  0.55794357441E+01  0.76932467737E+01  0.16135790717E+02  0.18726448974E+02  0.00000000000E+00 0.  1.
         11    1    3    3    0    0  0.12540313601E+00  0.25518989355E+02 -0.40605042890E+01  0.25840321960E+02  0.51100000000E-03 0. -1.
        -11    1    3    3    0    0 -0.13131940730E+02 -0.56686433817E+01 -0.11051794826E+02  0.18075495962E+02  0.51100000000E-03 0.  1.
        -12    1    3    3    0    0  0.74271018501E+01 -0.27543592748E+02 -0.10234916010E+01  0.28545733103E+02  0.00000000000E+00 0.  1.
</event>
<event>
 7    1  0.1788006E-013  0.7246156E+02  0.7816164E-02  0.1226708E+00
        -11   -1    0    0    0    0  0.00000000000E+00  0.00000000000E+00  0.45593999997E+02  0.45594000000E+02  0.51100000000E-03 0.  1.
         11   -1    0    0    0    0 -0.00000000000E+00 -0.00000000000E+00 -0.45593999997E+02  0.45594000000E+02  0.51100000000E-03 0. -1.
    9900012    2    1    2    0    0 -0.76427563190E+01 -0.15152767368E+02 -0.79158897336E+01  0.72461564318E+02  0.69999992215E+02 0.  0.
        -12    1    1    2    0    0  0.76427563190E+01  0.15152767368E+02  0.79158897336E+01  0.18726435682E+02  0.00000000000E+00 0.  1.
         11    1    3    3    0    0 -0.57863984585E+01 -0.61584087087E+01  0.77331615664E+01  0.11454701786E+02  0.51100000000E-03 0. -1.
        -11    1    3    3    0    0  0.10273425485E+02  0.75954027971E+01  0.17702773812E+02  0.21831665436E+02  0.51100000000E-03 0.  1.
         12    1    3    3    0    0 -0.12129783345E+02 -0.16589761456E+02 -0.33351825112E+02  0.39175197095E+02  0.00000000000E+00 0. -1.
</event>
<event>
 7    1  0.1788006E-013  0.7246150E+02  0.7816164E-02  0.1226708E+00
        -11   -1    0    0    0    0  0.00000000000E+00  0.00000000000E+00  0.45593999997E+02  0.45594000000E+02  0.51100000000E-03 0. -1.
         11   -1    0    0    0    0 -0.00000000000E+00 -0.00000000000E+00 -0.45593999997E+02  0.45594000000E+02  0.51100000000E-03 0.  1.
    9900012    2    1    2    0    0  0.75312978186E+01 -0.17143821516E+02  0.22559833669E+00  0.72461495852E+02  0.69999903025E+02 0.  0.
        -12    1    1    2    0    0 -0.75312978186E+01  0.17143821516E+02 -0.22559833669E+00  0.18726504148E+02  0.00000000000E+00 0.  1.
         11    1    3    3    0    0 -0.14340792203E+02  0.12999234692E+02  0.10098894451E+02  0.21831767977E+02  0.51100000000E-03 0. -1.
        -11    1    3    3    0    0 -0.42807779946E+01 -0.18874147281E+02 -0.10750359795E+02  0.22138851185E+02  0.51100000000E-03 0.  1.
        -12    1    3    3    0    0  0.26152868016E+02 -0.11268908927E+02  0.87706368005E+00  0.28490876690E+02  0.00000000000E+00 0.  1.
</event>
<event>
 7    1  0.1788006E-013  0.7246156E+02  0.7816164E-02  0.1226708E+00
        -11   -1    0    0    0    0  0.00000000000E+00  0.00000000000E+00  0.45593999997E+02  0.45594000000E+02  0.51100000000E-03 0. -1.
         11   -1    0    0    0    0 -0.00000000000E+00 -0.00000000000E+00 -0.45593999997E+02  0.45594000000E+02  0.51100000000E-03 0.  1.
    9900012    2    1    2    0    0  0.12097828531E+02  0.13524277190E+02  0.46277516110E+01  0.72461558436E+02  0.69999984553E+02 0.  0.
        -12    1    1    2    0    0 -0.12097828531E+02 -0.13524277190E+02 -0.46277516110E+01  0.18726441564E+02  0.00000000000E+00 0.  1.
         11    1    3    3    0    0 -0.27506552210E+01  0.11695563069E+02  0.74783056598E+01  0.14151938223E+02  0.51100000000E-03 0. -1.
        -11    1    3    3    0    0 -0.85157259995E+01  0.18588492874E+02  0.14188017000E+02  0.24886733077E+02  0.51100000000E-03 0.  1.
        -12    1    3    3    0    0  0.23364209751E+02 -0.16759778753E+02 -0.17038571048E+02  0.33422887136E+02  0.00000000000E+00 0.  1.
</event>
<event>
 7    1  0.1788006E-013  0.7246161E+02  0.7816164E-02  0.1226708E+00
        -11   -1    0    0    0    0  0.00000000000E+00  0.00000000000E+00  0.45593999997E+02  0.45594000000E+02  0.51100000000E-03 0.  1.
         11   -1    0    0    0    0 -0.00000000000E+00 -0.00000000000E+00 -0.45593999997E+02  0.45594000000E+02  0.51100000000E-03 0. -1.
    9900012    2    1    2    0    0 -0.44406380254E+01  0.34989231851E+01 -0.17852614104E+02  0.72461613273E+02  0.70000055987E+02 0.  0.
        -12    1    1    2    0    0  0.44406380254E+01 -0.34989231851E+01  0.17852614104E+02  0.18726386727E+02  0.00000000000E+00 0.  1.
         11    1    3    3    0    0 -0.50791671507E+01 -0.59724369498E+01 -0.21429547923E+02  0.22818708695E+02  0.51100000000E-03 0. -1.
        -11    1    3    3    0    0  0.37616730986E+01 -0.16064429002E+02 -0.11231697910E+02  0.19959135800E+02  0.51100000000E-03 0.  1.
        -12    1    3    3    0    0 -0.31231439733E+01  0.25535789137E+02  0.14808631730E+02  0.29683768778E+02  0.00000000000E+00 0.  1.
</event>
<event>
 7    1  0.1788006E-013  0.7246158E+02  0.7816164E-02  0.1226708E+00
        -11   -1    0    0    0    0  0.00000000000E+00  0.00000000000E+00  0.45593999997E+02  0.45594000000E+02  0.51100000000E-03 0.  1.
         11   -1    0    0    0    0 -0.00000000000E+00 -0.00000000000E+00 -0.45593999997E+02  0.45594000000E+02  0.51100000000E-03 0. -1.
    9900012    2    1    2    0    0  0.14736708362E+01 -0.93563323510E+01 -0.16154447949E+02  0.72461578843E+02  0.70000011136E+02 0.  0.
        -12    1    1    2    0    0 -0.14736708362E+01  0.93563323510E+01  0.16154447949E+02  0.18726421157E+02  0.00000000000E+00 0.  1.
         11    1    3    3    0    0 -0.12264148248E+02 -0.16356546330E+02 -0.25223061794E+02  0.32467657548E+02  0.51100000000E-03 0. -1.
        -11    1    3    3    0    0 -0.85946108125E+01  0.10075630776E+01 -0.75779905317E+01  0.11502541421E+02  0.51100000000E-03 0.  1.
        -12    1    3    3    0    0  0.22332429897E+02  0.59926509017E+01  0.16646604376E+02  0.28491379875E+02  0.00000000000E+00 0.  1.
</event>
<event>
 7    1  0.1788006E-013  0.7246109E+02  0.7816164E-02  0.1226709E+00
        -11   -1    0    0    0    0  0.00000000000E+00  0.00000000000E+00  0.45593999997E+02  0.45594000000E+02  0.51100000000E-03 0.  1.
         11   -1    0    0    0    0 -0.00000000000E+00 -0.00000000000E+00 -0.45593999997E+02  0.45594000000E+02  0.51100000000E-03 0. -1.
    9900012    2    1    2    0    0 -0.14253575625E+02 -0.19715019225E+01 -0.11985245073E+02  0.72461085214E+02  0.69999368090E+02 0.  0.
        -12    1    1    2    0    0  0.14253575625E+02  0.19715019225E+01  0.11985245073E+02  0.18726914786E+02  0.00000000000E+00 0.  1.
         11    1    3    3    0    0 -0.23669692896E+02 -0.39407106469E+01 -0.71176160599E+01  0.25028863754E+02  0.51100000000E-03 0. -1.
        -11    1    3    3    0    0 -0.52697434066E+01 -0.25041141073E+01  0.18541652475E+02  0.19437943816E+02  0.51100000000E-03 0.  1.
         12    1    3    3    0    0  0.14685860677E+02  0.44733228317E+01 -0.23409281488E+02  0.27994277643E+02  0.00000000000E+00 0. -1.
</event>
<event>
 7    1  0.1788006E-013  0.7246140E+02  0.7816164E-02  0.1226708E+00
        -11   -1    0    0    0    0  0.00000000000E+00  0.00000000000E+00  0.45593999997E+02  0.45594000000E+02  0.51100000000E-03 0.  1.
         11   -1    0    0    0    0 -0.00000000000E+00 -0.00000000000E+00 -0.45593999997E+02  0.45594000000E+02  0.51100000000E-03 0. -1.
    9900012    2    1    2    0    0  0.18132286130E+02 -0.33302198511E+01  0.32886522577E+01  0.72461403988E+02  0.69999783354E+02 0.  0.
        -12    1    1    2    0    0 -0.18132286130E+02  0.33302198511E+01 -0.32886522577E+01  0.18726596012E+02  0.00000000000E+00 0.  1.
         11    1    3    3    0    0  0.66422433806E+01 -0.15983539483E+02 -0.14079470430E+02  0.22311979280E+02  0.51100000000E-03 0. -1.
        -11    1    3    3    0    0  0.19518265385E+02 -0.74082678378E+01  0.19330796910E+02  0.28452149751E+02  0.51100000000E-03 0.  1.
         12    1    3    3    0    0 -0.80282226359E+01  0.20061587469E+02 -0.19626742222E+01  0.21697274957E+02  0.00000000000E+00 0. -1.
</event>
<event>
 7    1  0.1788006E-013  0.7246159E+02  0.7816164E-02  0.1226708E+00
        -11   -1    0    0    0    0  0.00000000000E+00  0.00000000000E+00  0.45593999997E+02  0.45594000000E+02  0.51100000000E-03 0.  1.
         11   -1    0    0    0    0 -0.00000000000E+00 -0.00000000000E+00 -0.45593999997E+02  0.45594000000E+02  0.51100000000E-03 0. -1.
    9900012    2    1    2    0    0  0.14339088776E+02 -0.59230746347E+01 -0.10487436525E+02  0.72461585369E+02  0.70000019637E+02 0.  0.
        -12    1    1    2    0    0 -0.14339088776E+02  0.59230746347E+01  0.10487436525E+02  0.18726414631E+02  0.00000000000E+00 0.  1.
         11    1    3    3    0    0 -0.97593953909E+01 -0.72332110047E+01  0.50719941475E+01  0.13163976023E+02  0.51100000000E-03 0. -1.
        -11    1    3    3    0    0 -0.11500717540E+02 -0.12264673433E+02  0.27333772570E+01  0.17034085530E+02  0.51100000000E-03 0.  1.
        -12    1    3    3    0    0  0.35599201707E+02  0.13574809803E+02 -0.18292807930E+02  0.42263523816E+02  0.00000000000E+00 0.  1.
</event>
<event>
 7    1  0.1788006E-013  0.7246159E+02  0.7816164E-02  0.1226708E+00
        -11   -1    0    0    0    0  0.00000000000E+00  0.00000000000E+00  0.45593999997E+02  0.45594000000E+02  0.51100000000E-03 0. -1.
         11   -1    0    0    0    0 -0.00000000000E+00 -0.00000000000E+00 -0.45593999997E+02  0.45594000000E+02  0.51100000000E-03 0.  1.
    9900012    2    1    2    0    0 -0.18445061732E+02  0.31974703125E+01  0.48405249770E+00  0.72461590159E+02  0.70000025878E+02 0.  0.
        -12    1    1    2    0    0  0.18445061732E+02 -0.31974703125E+01 -0.48405249770E+00  0.18726409841E+02  0.00000000000E+00 0.  1.
         11    1    3    3    0    0  0.31851421302E+00 -0.16606166265E+01 -0.24263046040E+01  0.29573726814E+01  0.51100000000E-03 0. -1.
        -11    1    3    3    0    0 -0.16461699173E+01  0.34593826596E+02  0.56231610575E+01  0.35086502455E+02  0.51100000000E-03 0.  1.
         12    1    3    3    0    0 -0.17117406028E+02 -0.29735739657E+02 -0.27128039558E+01  0.34417715023E+02  0.00000000000E+00 0. -1.
</event>
<event>
 7    1  0.1788006E-013  0.7246157E+02  0.7816164E-02  0.1226708E+00
        -11   -1    0    0    0    0  0.00000000000E+00  0.00000000000E+00  0.45593999997E+02  0.45594000000E+02  0.51100000000E-03 0. -1.
         11   -1    0    0    0    0 -0.00000000000E+00 -0.00000000000E+00 -0.45593999997E+02  0.45594000000E+02  0.51100000000E-03 0.  1.
    9900012    2    1    2    0    0  0.91465116113E+01 -0.85306743781E+01  0.13937289236E+02  0.72461571850E+02  0.70000002027E+02 0.  0.
        -12    1    1    2    0    0 -0.91465116113E+01  0.85306743781E+01 -0.13937289236E+02  0.18726428150E+02  0.00000000000E+00 0.  1.
         11    1    3    3    0    0 -0.75191765768E+01  0.14127346827E+02  0.25762146760E+02  0.30328339069E+02  0.51100000000E-03 0. -1.
        -11    1    3    3    0    0 -0.51308676300E+01 -0.19553551792E+01 -0.10728310642E+02  0.12051799285E+02  0.51100000000E-03 0.  1.
        -12    1    3    3    0    0  0.21796555818E+02 -0.20702666026E+02 -0.10965468816E+01  0.30081433496E+02  0.00000000000E+00 0.  1.
</event>
<event>
 7    1  0.1788006E-013  0.7246152E+02  0.7816164E-02  0.1226708E+00
        -11   -1    0    0    0    0  0.00000000000E+00  0.00000000000E+00  0.45593999997E+02  0.45594000000E+02  0.51100000000E-03 0. -1.
         11   -1    0    0    0    0 -0.00000000000E+00 -0.00000000000E+00 -0.45593999997E+02  0.45594000000E+02  0.51100000000E-03 0.  1.
    9900012    2    1    2    0    0 -0.10688761937E+02 -0.11748979579E+02  0.99193254059E+01  0.72461516897E+02  0.69999930440E+02 0.  0.
        -12    1    1    2    0    0  0.10688761937E+02  0.11748979579E+02 -0.99193254059E+01  0.18726483103E+02  0.00000000000E+00 0.  1.
         11    1    3    3    0    0  0.11732772137E+02 -0.12647271495E+02  0.96216823881E+00  0.17278228679E+02  0.51100000000E-03 0. -1.
        -11    1    3    3    0    0  0.23817191321E+01 -0.10968098037E+02  0.22040395771E+02  0.24733596717E+02  0.51100000000E-03 0.  1.
         12    1    3    3    0    0 -0.24803253206E+02  0.11866389954E+02 -0.13083238604E+02  0.30449691501E+02  0.00000000000E+00 0. -1.
</event>
<event>
 7    1  0.1788006E-013  0.7246154E+02  0.7816164E-02  0.1226708E+00
        -11   -1    0    0    0    0  0.00000000000E+00  0.00000000000E+00  0.45593999997E+02  0.45594000000E+02  0.51100000000E-03 0.  1.
         11   -1    0    0    0    0 -0.00000000000E+00 -0.00000000000E+00 -0.45593999997E+02  0.45594000000E+02  0.51100000000E-03 0. -1.
    9900012    2    1    2    0    0  0.16996398330E+02  0.84058463812E+00 -0.78164110655E+01  0.72461536888E+02  0.69999956482E+02 0.  0.
        -12    1    1    2    0    0 -0.16996398330E+02 -0.84058463812E+00  0.78164110655E+01  0.18726463112E+02  0.00000000000E+00 0.  1.
         11    1    3    3    0    0  0.25494529756E+01 -0.86888402942E+01  0.60138711746E+01  0.10870248521E+02  0.51100000000E-03 0. -1.
        -11    1    3    3    0    0  0.98695920805E+01 -0.23868462413E+02 -0.21618116109E+01  0.25918830519E+02  0.51100000000E-03 0.  1.
         12    1    3    3    0    0  0.45773532740E+01  0.33397887345E+02 -0.11668470629E+02  0.35672457848E+02  0.00000000000E+00 0. -1.
</event>
<event>
 7    1  0.1788006E-013  0.7246163E+02  0.7816164E-02  0.1226708E+00
        -11   -1    0    0    0    0  0.00000000000E+00  0.00000000000E+00  0.45593999997E+02  0.45594000000E+02  0.51100000000E-03 0. -1.
         11   -1    0    0    0    0 -0.00000000000E+00 -0.00000000000E+00 -0.45593999997E+02  0.45594000000E+02  0.51100000000E-03 0.  1.
    9900012    2    1    2    0    0  0.98202809245E+01  0.14401620332E+02  0.68434284766E+01  0.72461625580E+02  0.70000072019E+02 0.  0.
        -12    1    1    2    0    0 -0.98202809245E+01 -0.14401620332E+02 -0.68434284766E+01  0.18726374420E+02  0.00000000000E+00 0.  1.
         11    1    3    3    0    0  0.21167528030E+02  0.21424154372E+02  0.16809637818E+02  0.34490905429E+02  0.51100000000E-03 0. -1.
        -11    1    3    3    0    0  0.96763213735E+01  0.59718344627E+01 -0.13400449373E+00  0.11371541656E+02  0.51100000000E-03 0.  1.
        -12    1    3    3    0    0 -0.21023568479E+02 -0.12994368503E+02 -0.98322048480E+01  0.26599178494E+02  0.00000000000E+00 0.  1.
</event>
<event>
 7    1  0.1788006E-013  0.7246109E+02  0.7816164E-02  0.1226709E+00
        -11   -1    0    0    0    0  0.00000000000E+00  0.00000000000E+00  0.45593999997E+02  0.45594000000E+02  0.51100000000E-03 0.  1.
         11   -1    0    0    0    0 -0.00000000000E+00 -0.00000000000E+00 -0.45593999997E+02  0.45594000000E+02  0.51100000000E-03 0. -1.
    9900012    2    1    2    0    0 -0.17499983085E+02 -0.64725148998E+01 -0.15981778489E+01  0.72461093433E+02  0.69999378797E+02 0.  0.
        -12    1    1    2    0    0  0.17499983085E+02  0.64725148998E+01  0.15981778489E+01  0.18726906567E+02  0.00000000000E+00 0.  1.
         11    1    3    3    0    0  0.68715121335E+01  0.16404616805E+02 -0.17719837265E+01  0.17873697382E+02  0.51100000000E-03 0. -1.
        -11    1    3    3    0    0 -0.91842884888E+01  0.44625489008E+01  0.16426613651E+02  0.19341642486E+02  0.51100000000E-03 0.  1.
         12    1    3    3    0    0 -0.15187206730E+02 -0.27339680605E+02 -0.16252807774E+02  0.35245753566E+02  0.00000000000E+00 0. -1.
</event>
<event>
 7    1  0.1788006E-013  0.7246160E+02  0.7816164E-02  0.1226708E+00
        -11   -1    0    0    0    0  0.00000000000E+00  0.00000000000E+00  0.45593999997E+02  0.45594000000E+02  0.51100000000E-03 0.  1.
         11   -1    0    0    0    0 -0.00000000000E+00 -0.00000000000E+00 -0.45593999997E+02  0.45594000000E+02  0.51100000000E-03 0. -1.
    9900012    2    1    2    0    0  0.12534782848E+02 -0.57699948098E+01 -0.12659551946E+02  0.72461604815E+02  0.70000044969E+02 0.  0.
        -12    1    1    2    0    0 -0.12534782848E+02  0.57699948098E+01  0.12659551946E+02  0.18726395185E+02  0.00000000000E+00 0.  1.
         11    1    3    3    0    0  0.94000386204E+01  0.94969136562E+01 -0.34151071675E+02  0.36672166446E+02  0.51100000000E-03 0. -1.
        -11    1    3    3    0    0  0.54640880667E+01  0.54421886690E+01  0.47441797996E+01  0.90543314575E+01  0.51100000000E-03 0.  1.
        -12    1    3    3    0    0 -0.23293438395E+01 -0.20709097135E+02  0.16747339929E+02  0.26735106911E+02  0.00000000000E+00 0.  1.
</event>
<event>
 7    1  0.1788006E-013  0.7246139E+02  0.7816164E-02  0.1226709E+00
        -11   -1    0    0    0    0  0.00000000000E+00  0.00000000000E+00  0.45593999997E+02  0.45594000000E+02  0.51100000000E-03 0. -1.
         11   -1    0    0    0    0 -0.00000000000E+00 -0.00000000000E+00 -0.45593999997E+02  0.45594000000E+02  0.51100000000E-03 0.  1.
    9900012    2    1    2    0    0  0.12901427235E+02  0.11110853844E+02  0.77966786949E+01  0.72461385343E+02  0.69999759066E+02 0.  0.
        -12    1    1    2    0    0 -0.12901427235E+02 -0.11110853844E+02 -0.77966786949E+01  0.18726614657E+02  0.00000000000E+00 0.  1.
         11    1    3    3    0    0 -0.47156483913E+01  0.30578458226E+01  0.64249603042E+01  0.85362682711E+01  0.51100000000E-03 0. -1.
        -11    1    3    3    0    0 -0.71546447661E+01 -0.11309082091E+02  0.22405161185E+02  0.26097423770E+02  0.51100000000E-03 0.  1.
         12    1    3    3    0    0  0.24771720393E+02  0.19362090112E+02 -0.21033442794E+02  0.37827693301E+02  0.00000000000E+00 0. -1.
</event>
<event>
 7    1  0.1788006E-013  0.7246163E+02  0.7816164E-02  0.1226708E+00
        -11   -1    0    0    0    0  0.00000000000E+00  0.00000000000E+00  0.45593999997E+02  0.45594000000E+02  0.51100000000E-03 0. -1.
         11   -1    0    0    0    0 -0.00000000000E+00 -0.00000000000E+00 -0.45593999997E+02  0.45594000000E+02  0.51100000000E-03 0.  1.
    9900012    2    1    2    0    0  0.11664022658E+02  0.68593312889E+01  0.12945152719E+02  0.72461632781E+02  0.70000081401E+02 0.  0.
        -12    1    1    2    0    0 -0.11664022658E+02 -0.68593312889E+01 -0.12945152719E+02  0.18726367219E+02  0.00000000000E+00 0.  1.
         11    1    3    3    0    0  0.17982222875E+02  0.16361177480E+02  0.33159342786E+02  0.41116790759E+02  0.51100000000E-03 0. -1.
        -11    1    3    3    0    0 -0.52454425416E+01  0.30440220497E+00  0.30501609934E+01  0.60754267757E+01  0.51100000000E-03 0.  1.
        -12    1    3    3    0    0 -0.10727576752E+01 -0.98062483962E+01 -0.23264351060E+02  0.25269415247E+02  0.00000000000E+00 0.  1.
</event>
<event>
 7    1  0.1788006E-013  0.7246153E+02  0.7816164E-02  0.1226708E+00
        -11   -1    0    0    0    0  0.00000000000E+00  0.00000000000E+00  0.45593999997E+02  0.45594000000E+02  0.51100000000E-03 0.  1.
         11   -1    0    0    0    0 -0.00000000000E+00 -0.00000000000E+00 -0.45593999997E+02  0.45594000000E+02  0.51100000000E-03 0. -1.
    9900012    2    1    2    0    0 -0.96962688294E+01 -0.68898941917E+01 -0.14463490343E+02  0.72461526117E+02  0.69999942451E+02 0.  0.
        -12    1    1    2    0    0  0.96962688294E+01  0.68898941917E+01  0.14463490343E+02  0.18726473883E+02  0.00000000000E+00 0.  1.
         11    1    3    3    0    0 -0.11161069979E+02  0.42058498434E+01 -0.16224591024E+02  0.20136931498E+02  0.51100000000E-03 0. -1.
        -11    1    3    3    0    0 -0.23744172808E+02 -0.39119698558E+01  0.80375300684E+01  0.25371068963E+02  0.51100000000E-03 0.  1.
        -12    1    3    3    0    0  0.25208973957E+02 -0.71837741794E+01 -0.62764293869E+01  0.26953525656E+02  0.00000000000E+00 0.  1.
</event>
<event>
 7    1  0.1788006E-013  0.7246116E+02  0.7816164E-02  0.1226709E+00
        -11   -1    0    0    0    0  0.00000000000E+00  0.00000000000E+00  0.45593999997E+02  0.45594000000E+02  0.51100000000E-03 0.  1.
         11   -1    0    0    0    0 -0.00000000000E+00 -0.00000000000E+00 -0.45593999997E+02  0.45594000000E+02  0.51100000000E-03 0. -1.
    9900012    2    1    2    0    0 -0.35087857028E+01  0.50431143768E+01 -0.17690393102E+02  0.72461158627E+02  0.69999463724E+02 0.  0.
        -12    1    1    2    0    0  0.35087857028E+01 -0.50431143768E+01  0.17690393102E+02  0.18726841373E+02  0.00000000000E+00 0.  1.
         11    1    3    3    0    0 -0.12359787576E+02 -0.14915671317E+02  0.52197573669E+01  0.20062090295E+02  0.51100000000E-03 0.  1.
        -11    1    3    3    0    0 -0.33215932308E+01 -0.11588309701E+02 -0.11636985465E+02  0.16755337487E+02  0.51100000000E-03 0. -1.
         12    1    3    3    0    0  0.12172595104E+02  0.31547095395E+02 -0.11273165003E+02  0.35643730846E+02  0.00000000000E+00 0. -1.
</event>
<event>
 7    1  0.1788006E-013  0.7246159E+02  0.7816164E-02  0.1226708E+00
        -11   -1    0    0    0    0  0.00000000000E+00  0.00000000000E+00  0.45593999997E+02  0.45594000000E+02  0.51100000000E-03 0.  1.
         11   -1    0    0    0    0 -0.00000000000E+00 -0.00000000000E+00 -0.45593999997E+02  0.45594000000E+02  0.51100000000E-03 0. -1.
    9900012    2    1    2    0    0  0.10680360685E+02 -0.64762380925E+01 -0.13952297173E+02  0.72461591893E+02  0.70000028136E+02 0.  0.
        -12    1    1    2    0    0 -0.10680360685E+02  0.64762380925E+01  0.13952297173E+02  0.18726408107E+02  0.00000000000E+00 0.  1.
         11    1    3    3    0    0 -0.25870024043E+01  0.16514134117E+02 -0.83151755717E+01  0.18669530046E+02  0.51100000000E-03 0.  1.
        -11    1    3    3    0    0 -0.43574484048E+01  0.44231993941E+01  0.14298050584E+02  0.15588017842E+02  0.51100000000E-03 0. -1.
         12    1    3    3    0    0  0.17624811494E+02 -0.27413571604E+02 -0.19935172185E+02  0.38204044005E+02  0.00000000000E+00 0. -1.
</event>
<event>
 7    1  0.1788006E-013  0.7246155E+02  0.7816164E-02  0.1226708E+00
        -11   -1    0    0    0    0  0.00000000000E+00  0.00000000000E+00  0.45593999997E+02  0.45594000000E+02  0.51100000000E-03 0. -1.
         11   -1    0    0    0    0 -0.00000000000E+00 -0.00000000000E+00 -0.45593999997E+02  0.45594000000E+02  0.51100000000E-03 0.  1.
    9900012    2    1    2    0    0  0.89810527745E+01  0.80514714146E+01  0.14324607824E+02  0.72461551052E+02  0.69999974933E+02 0.  0.
        -12    1    1    2    0    0 -0.89810527745E+01 -0.80514714146E+01 -0.14324607824E+02  0.18726448948E+02  0.00000000000E+00 0.  1.
         11    1    3    3    0    0  0.20129608054E+02  0.15298587258E+02  0.17264956748E+02  0.30615790440E+02  0.51100000000E-03 0. -1.
        -11    1    3    3    0    0  0.93567141123E+01  0.30706102713E+01  0.11177700977E+02  0.14896903900E+02  0.51100000000E-03 0.  1.
        -12    1    3    3    0    0 -0.20505269392E+02 -0.10317726115E+02 -0.14118049901E+02  0.26948856711E+02  0.00000000000E+00 0.  1.
</event>
<event>
 7    1  0.1788006E-013  0.7246156E+02  0.7816164E-02  0.1226708E+00
        -11   -1    0    0    0    0  0.00000000000E+00  0.00000000000E+00  0.45593999997E+02  0.45594000000E+02  0.51100000000E-03 0. -1.
         11   -1    0    0    0    0 -0.00000000000E+00 -0.00000000000E+00 -0.45593999997E+02  0.45594000000E+02  0.51100000000E-03 0.  1.
    9900012    2    1    2    0    0  0.10867850105E+02  0.89906726905E+01  0.12318165411E+02  0.72461559857E+02  0.69999986403E+02 0.  0.
        -12    1    1    2    0    0 -0.10867850105E+02 -0.89906726905E+01 -0.12318165411E+02  0.18726440143E+02  0.00000000000E+00 0.  1.
         11    1    3    3    0    0  0.20349982820E+02  0.45416275036E+01  0.51348399540E+01  0.21473582905E+02  0.51100000000E-03 0. -1.
        -11    1    3    3    0    0  0.28754748719E+01  0.21497185042E+02  0.17190451285E+02  0.27675059821E+02  0.51100000000E-03 0.  1.
        -12    1    3    3    0    0 -0.12357607587E+02 -0.17048139855E+02 -0.10007125828E+02  0.23312917130E+02  0.00000000000E+00 0.  1.
</event>
<event>
 7    1  0.1788006E-013  0.7246167E+02  0.7816164E-02  0.1226708E+00
        -11   -1    0    0    0    0  0.00000000000E+00  0.00000000000E+00  0.45593999997E+02  0.45594000000E+02  0.51100000000E-03 0.  1.
         11   -1    0    0    0    0 -0.00000000000E+00 -0.00000000000E+00 -0.45593999997E+02  0.45594000000E+02  0.51100000000E-03 0. -1.
    9900012    2    1    2    0    0 -0.70312643603E+01  0.13667814256E+02 -0.10697081473E+02  0.72461671554E+02  0.70000131909E+02 0.  0.
        -12    1    1    2    0    0  0.70312643603E+01 -0.13667814256E+02  0.10697081473E+02  0.18726328446E+02  0.00000000000E+00 0.  1.
         11    1    3    3    0    0 -0.47555632651E+00  0.24586400897E+01 -0.15512856343E+02  0.15713681207E+02  0.51100000000E-03 0. -1.
        -11    1    3    3    0    0  0.96984077508E+01 -0.13360269182E+02 -0.14123183459E+02  0.21726026254E+02  0.51100000000E-03 0.  1.
         12    1    3    3    0    0 -0.16254115785E+02  0.24569443348E+02  0.18938958329E+02  0.35021964093E+02  0.00000000000E+00 0. -1.
</event>
<event>
 7    1  0.1788006E-013  0.7246154E+02  0.7816164E-02  0.1226708E+00
        -11   -1    0    0    0    0  0.00000000000E+00  0.00000000000E+00  0.45593999997E+02  0.45594000000E+02  0.51100000000E-03 0. -1.
         11   -1    0    0    0    0 -0.00000000000E+00 -0.00000000000E+00 -0.45593999997E+02  0.45594000000E+02  0.51100000000E-03 0.  1.
    9900012    2    1    2    0    0  0.34338268951E+01  0.14879927470E+02 -0.10838671179E+02  0.72461542738E+02  0.69999964103E+02 0.  0.
        -12    1    1    2    0    0 -0.34338268951E+01 -0.14879927470E+02  0.10838671179E+02  0.18726457262E+02  0.00000000000E+00 0.  1.
         11    1    3    3    0    0  0.18881815279E+02  0.18042822508E+01  0.94766914069E+01  0.21203444602E+02  0.51100000000E-03 0. -1.
        -11    1    3    3    0    0 -0.58972983469E+01  0.28136558150E+02 -0.89431290845E+01  0.30106869489E+02  0.51100000000E-03 0.  1.
        -12    1    3    3    0    0 -0.95506900375E+01 -0.15060912931E+02 -0.11372233502E+02  0.21151228648E+02  0.00000000000E+00 0.  1.
</event>
<event>
 7    1  0.1788006E-013  0.7246159E+02  0.7816164E-02  0.1226708E+00
        -11   -1    0    0    0    0  0.00000000000E+00  0.00000000000E+00  0.45593999997E+02  0.45594000000E+02  0.51100000000E-03 0.  1.
         11   -1    0    0    0    0 -0.00000000000E+00 -0.00000000000E+00 -0.45593999997E+02  0.45594000000E+02  0.51100000000E-03 0. -1.
    9900012    2    1    2    0    0 -0.63554319950E+01 -0.48668258389E+01  0.16929297138E+02  0.72461585203E+02  0.70000019421E+02 0.  0.
        -12    1    1    2    0    0  0.63554319950E+01  0.48668258389E+01 -0.16929297138E+02  0.18726414797E+02  0.00000000000E+00 0.  1.
         11    1    3    3    0    0 -0.13392425104E+02  0.22586491940E+02 -0.10188403431E+02  0.28165763492E+02  0.51100000000E-03 0. -1.
        -11    1    3    3    0    0 -0.70146920289E+01 -0.71448902513E+01  0.52292846803E+01  0.11296051500E+02  0.51100000000E-03 0.  1.
        -12    1    3    3    0    0  0.14051685138E+02 -0.20308427528E+02  0.21888415888E+02  0.32999770211E+02  0.00000000000E+00 0.  1.
</event>
<event>
 7    1  0.1788006E-013  0.7246160E+02  0.7816164E-02  0.1226708E+00
        -11   -1    0    0    0    0  0.00000000000E+00  0.00000000000E+00  0.45593999997E+02  0.45594000000E+02  0.51100000000E-03 0.  1.
         11   -1    0    0    0    0 -0.00000000000E+00 -0.00000000000E+00 -0.45593999997E+02  0.45594000000E+02  0.51100000000E-03 0. -1.
    9900012    2    1    2    0    0  0.14864384506E+02 -0.10624903717E+02  0.41035795522E+01  0.72461604968E+02  0.70000045169E+02 0.  0.
        -12    1    1    2    0    0 -0.14864384506E+02  0.10624903717E+02 -0.41035795522E+01  0.18726395032E+02  0.00000000000E+00 0.  1.
         11    1    3    3    0    0  0.94031480904E+00  0.11269165005E+02  0.29234451864E+01  0.11680102905E+02  0.51100000000E-03 0. -1.
        -11    1    3    3    0    0 -0.60287843078E+01 -0.34786895615E+01  0.24202028801E+02  0.25183044289E+02  0.51100000000E-03 0.  1.
         12    1    3    3    0    0  0.19952854005E+02 -0.18415379160E+02 -0.23021894436E+02  0.35598457775E+02  0.00000000000E+00 0. -1.
</event>
<event>
 7    1  0.1788006E-013  0.7246180E+02  0.7816164E-02  0.1226707E+00
        -11   -1    0    0    0    0  0.00000000000E+00  0.00000000000E+00  0.45593999997E+02  0.45594000000E+02  0.51100000000E-03 0.  1.
         11   -1    0    0    0    0 -0.00000000000E+00 -0.00000000000E+00 -0.45593999997E+02  0.45594000000E+02  0.51100000000E-03 0. -1.
    9900012    2    1    2    0    0 -0.14012750758E+02 -0.11371962606E+02  0.49991952769E+01  0.72461797216E+02  0.70000295606E+02 0.  0.
        -12    1    1    2    0    0  0.14012750758E+02  0.11371962606E+02 -0.49991952769E+01  0.18726202784E+02  0.00000000000E+00 0.  1.
         11    1    3    3    0    0  0.30070329187E+01  0.54367151338E+00  0.11400884473E+02  0.11803304313E+02  0.51100000000E-03 0. -1.
        -11    1    3    3    0    0  0.13406798721E+02 -0.24069744692E+02 -0.25866541419E+01  0.27672832190E+02  0.51100000000E-03 0.  1.
         12    1    3    3    0    0 -0.30426582397E+02  0.12154110573E+02 -0.38150350537E+01  0.32985660713E+02  0.00000000000E+00 0. -1.
</event>
<event>
 7    1  0.1788006E-013  0.7246162E+02  0.7816164E-02  0.1226708E+00
        -11   -1    0    0    0    0  0.00000000000E+00  0.00000000000E+00  0.45593999997E+02  0.45594000000E+02  0.51100000000E-03 0. -1.
         11   -1    0    0    0    0 -0.00000000000E+00 -0.00000000000E+00 -0.45593999997E+02  0.45594000000E+02  0.51100000000E-03 0.  1.
    9900012    2    1    2    0    0 -0.13587992110E+02 -0.23349699457E+01  0.12672479753E+02  0.72461618681E+02  0.70000063033E+02 0.  0.
        -12    1    1    2    0    0  0.13587992110E+02  0.23349699457E+01 -0.12672479753E+02  0.18726381319E+02  0.00000000000E+00 0.  1.
         11    1    3    3    0    0 -0.14187767345E+02 -0.29829039275E+02  0.15678569558E+02  0.36563395219E+02  0.51100000000E-03 0. -1.
        -11    1    3    3    0    0 -0.37556856942E+01 -0.30752544407E+01 -0.99294055516E+00  0.49546237108E+01  0.51100000000E-03 0.  1.
         12    1    3    3    0    0  0.43554609294E+01  0.30569323770E+02 -0.20131492504E+01  0.30943599751E+02  0.00000000000E+00 0. -1.
</event>
<event>
 7    1  0.1788006E-013  0.7246157E+02  0.7816164E-02  0.1226708E+00
        -11   -1    0    0    0    0  0.00000000000E+00  0.00000000000E+00  0.45593999997E+02  0.45594000000E+02  0.51100000000E-03 0.  1.
         11   -1    0    0    0    0 -0.00000000000E+00 -0.00000000000E+00 -0.45593999997E+02  0.45594000000E+02  0.51100000000E-03 0. -1.
    9900012    2    1    2    0    0 -0.17801710101E+01 -0.11569468689E+02 -0.14617023920E+02  0.72461574745E+02  0.70000005797E+02 0.  0.
        -12    1    1    2    0    0  0.17801710101E+01  0.11569468689E+02  0.14617023920E+02  0.18726425255E+02  0.00000000000E+00 0.  1.
         11    1    3    3    0    0  0.27586074454E+02 -0.99838036527E+01  0.27882198071E+01  0.29469340154E+02  0.51100000000E-03 0. -1.
        -11    1    3    3    0    0 -0.35379744014E+00 -0.49351671929E+01  0.43393647011E+01  0.65811195188E+01  0.51100000000E-03 0.  1.
        -12    1    3    3    0    0 -0.29012448024E+02  0.33495021564E+01 -0.21744608428E+02  0.36411115071E+02  0.00000000000E+00 0.  1.
</event>
<event>
 7    1  0.1788006E-013  0.7246157E+02  0.7816164E-02  0.1226708E+00
        -11   -1    0    0    0    0  0.00000000000E+00  0.00000000000E+00  0.45593999997E+02  0.45594000000E+02  0.51100000000E-03 0.  1.
         11   -1    0    0    0    0 -0.00000000000E+00 -0.00000000000E+00 -0.45593999997E+02  0.45594000000E+02  0.51100000000E-03 0. -1.
    9900012    2    1    2    0    0 -0.83750292486E+01 -0.72519816019E+01  0.15097907192E+02  0.72461570718E+02  0.70000000552E+02 0.  0.
        -12    1    1    2    0    0  0.83750292486E+01  0.72519816019E+01 -0.15097907192E+02  0.18726429282E+02  0.00000000000E+00 0.  1.
         11    1    3    3    0    0 -0.15448064709E+02 -0.32398180250E+02  0.81440338551E+00  0.35901922510E+02  0.51100000000E-03 0. -1.
        -11    1    3    3    0    0 -0.45500368350E+01  0.56272114027E+01  0.11616384905E+02  0.13686078397E+02  0.51100000000E-03 0.  1.
        -12    1    3    3    0    0  0.11623072296E+02  0.19518987245E+02  0.26671189012E+01  0.22873569811E+02  0.00000000000E+00 0.  1.
</event>
<event>
 7    1  0.1788006E-013  0.7246157E+02  0.7816164E-02  0.1226708E+00
        -11   -1    0    0    0    0  0.00000000000E+00  0.00000000000E+00  0.45593999997E+02  0.45594000000E+02  0.51100000000E-03 0. -1.
         11   -1    0    0    0    0 -0.00000000000E+00 -0.00000000000E+00 -0.45593999997E+02  0.45594000000E+02  0.51100000000E-03 0.  1.
    9900012    2    1    2    0    0 -0.11674525912E+02  0.33404289293E+01  0.14255742759E+02  0.72461568885E+02  0.69999998164E+02 0.  0.
        -12    1    1    2    0    0  0.11674525912E+02 -0.33404289293E+01 -0.14255742759E+02  0.18726431115E+02  0.00000000000E+00 0.  1.
         11    1    3    3    0    0 -0.15924919042E+02 -0.47124129389E+00 -0.36354171168E+01  0.16341400574E+02  0.51100000000E-03 0. -1.
        -11    1    3    3    0    0  0.18242463840E+02 -0.88064834748E+01 -0.98980767332E+01  0.22545810285E+02  0.51100000000E-03 0.  1.
         12    1    3    3    0    0 -0.13992070710E+02  0.12618153698E+02  0.27789236609E+02  0.33574358025E+02  0.00000000000E+00 0. -1.
</event>
<event>
 7    1  0.1788006E-013  0.7246158E+02  0.7816164E-02  0.1226708E+00
        -11   -1    0    0    0    0  0.00000000000E+00  0.00000000000E+00  0.45593999997E+02  0.45594000000E+02  0.51100000000E-03 0.  1.
         11   -1    0    0    0    0 -0.00000000000E+00 -0.00000000000E+00 -0.45593999997E+02  0.45594000000E+02  0.51100000000E-03 0. -1.
    9900012    2    1    2    0    0 -0.94531746123E+01 -0.60613680666E+01 -0.14985867029E+02  0.72461577391E+02  0.70000009245E+02 0.  0.
        -12    1    1    2    0    0  0.94531746123E+01  0.60613680666E+01  0.14985867029E+02  0.18726422609E+02  0.00000000000E+00 0.  1.
         11    1    3    3    0    0 -0.70912884137E+01  0.89557126024E+01 -0.25745696011E+02  0.28166150304E+02  0.51100000000E-03 0. -1.
        -11    1    3    3    0    0 -0.14646770307E+00  0.96906634789E+01 -0.84988760780E+01  0.12890357105E+02  0.51100000000E-03 0.  1.
        -12    1    3    3    0    0 -0.22154184956E+01 -0.24707744148E+02  0.19258705060E+02  0.31405069982E+02  0.00000000000E+00 0.  1.
</event>
<event>
 7    1  0.1788006E-013  0.7246157E+02  0.7816164E-02  0.1226708E+00
        -11   -1    0    0    0    0  0.00000000000E+00  0.00000000000E+00  0.45593999997E+02  0.45594000000E+02  0.51100000000E-03 0. -1.
         11   -1    0    0    0    0 -0.00000000000E+00 -0.00000000000E+00 -0.45593999997E+02  0.45594000000E+02  0.51100000000E-03 0.  1.
    9900012    2    1    2    0    0  0.16090072316E+01 -0.51638743256E+01  0.17928318872E+02  0.72461571620E+02  0.70000001727E+02 0.  0.
        -12    1    1    2    0    0 -0.16090072316E+01  0.51638743256E+01 -0.17928318872E+02  0.18726428380E+02  0.00000000000E+00 0.  1.
         11    1    3    3    0    0  0.22138547454E+02 -0.15617241176E+01  0.34896371156E+02  0.41355906297E+02  0.51100000000E-03 0. -1.
        -11    1    3    3    0    0  0.14039991558E+01 -0.27106166373E+01  0.44670640111E+00  0.30851585136E+01  0.51100000000E-03 0.  1.
        -12    1    3    3    0    0 -0.21933539378E+02 -0.89153357066E+00 -0.17414758685E+02  0.28020506809E+02  0.00000000000E+00 0.  1.
</event>
<event>
 7    1  0.1788006E-013  0.7246159E+02  0.7816164E-02  0.1226708E+00
        -11   -1    0    0    0    0  0.00000000000E+00  0.00000000000E+00  0.45593999997E+02  0.45594000000E+02  0.51100000000E-03 0.  1.
         11   -1    0    0    0    0 -0.00000000000E+00 -0.00000000000E+00 -0.45593999997E+02  0.45594000000E+02  0.51100000000E-03 0. -1.
    9900012    2    1    2    0    0  0.14587130841E+02 -0.11563739756E+02  0.20430154925E+01  0.72461591492E+02  0.70000027613E+02 0.  0.
        -12    1    1    2    0    0 -0.14587130841E+02  0.11563739756E+02 -0.20430154925E+01  0.18726408508E+02  0.00000000000E+00 0.  1.
         11    1    3    3    0    0 -0.48932733602E+01  0.17047737872E+02  0.67235772941E+01  0.18967761666E+02  0.51100000000E-03 0. -1.
        -11    1    3    3    0    0 -0.30534530093E+00  0.54835764150E+01  0.10016231920E+02  0.11423123399E+02  0.51100000000E-03 0.  1.
         12    1    3    3    0    0  0.19785749502E+02 -0.34095054043E+02 -0.14696793722E+02  0.42070706427E+02  0.00000000000E+00 0. -1.
</event>
<event>
 7    1  0.1788006E-013  0.7246157E+02  0.7816164E-02  0.1226708E+00
        -11   -1    0    0    0    0  0.00000000000E+00  0.00000000000E+00  0.45593999997E+02  0.45594000000E+02  0.51100000000E-03 0.  1.
         11   -1    0    0    0    0 -0.00000000000E+00 -0.00000000000E+00 -0.45593999997E+02  0.45594000000E+02  0.51100000000E-03 0. -1.
    9900012    2    1    2    0    0  0.14634734757E+02 -0.10017369201E+02  0.60129786881E+01  0.72461573223E+02  0.70000003815E+02 0.  0.
        -12    1    1    2    0    0 -0.14634734757E+02  0.10017369201E+02 -0.60129786881E+01  0.18726426777E+02  0.00000000000E+00 0.  1.
         11    1    3    3    0    0  0.33759921357E+02 -0.43624263810E+01  0.96954879202E+01  0.35394428096E+02  0.51100000000E-03 0.  1.
        -11    1    3    3    0    0 -0.10826320396E+02 -0.14582636536E+02  0.83051951705E+01  0.19970948118E+02  0.51100000000E-03 0. -1.
         12    1    3    3    0    0 -0.82988662035E+01  0.89276937155E+01 -0.11987704403E+02  0.17096197009E+02  0.00000000000E+00 0. -1.
</event>
<event>
 7    1  0.1788006E-013  0.7246154E+02  0.7816164E-02  0.1226708E+00
        -11   -1    0    0    0    0  0.00000000000E+00  0.00000000000E+00  0.45593999997E+02  0.45594000000E+02  0.51100000000E-03 0.  1.
         11   -1    0    0    0    0 -0.00000000000E+00 -0.00000000000E+00 -0.45593999997E+02  0.45594000000E+02  0.51100000000E-03 0. -1.
    9900012    2    1    2    0    0 -0.60861017824E+01  0.11117446680E+02 -0.13785574526E+02  0.72461539560E+02  0.69999959963E+02 0.  0.
        -12    1    1    2    0    0  0.60861017824E+01 -0.11117446680E+02  0.13785574526E+02  0.18726460440E+02  0.00000000000E+00 0.  1.
         11    1    3    3    0    0  0.44215895208E+01  0.22666235350E+02  0.76095918189E+01  0.24314904210E+02  0.51100000000E-03 0. -1.
        -11    1    3    3    0    0 -0.63338322146E+01  0.20085614129E+01  0.10960874272E+02  0.12817664161E+02  0.51100000000E-03 0.  1.
         12    1    3    3    0    0 -0.41738590886E+01 -0.13557350082E+02 -0.32356040617E+02  0.35328971190E+02  0.00000000000E+00 0. -1.
</event>
<event>
 7    1  0.1788006E-013  0.7246157E+02  0.7816164E-02  0.1226708E+00
        -11   -1    0    0    0    0  0.00000000000E+00  0.00000000000E+00  0.45593999997E+02  0.45594000000E+02  0.51100000000E-03 0.  1.
         11   -1    0    0    0    0 -0.00000000000E+00 -0.00000000000E+00 -0.45593999997E+02  0.45594000000E+02  0.51100000000E-03 0. -1.
    9900012    2    1    2    0    0  0.13275379657E+01 -0.44798119090E+01 -0.18134169903E+02  0.72461569752E+02  0.69999999293E+02 0.  0.
        -12    1    1    2    0    0 -0.13275379657E+01  0.44798119090E+01  0.18134169903E+02  0.18726430248E+02  0.00000000000E+00 0.  1.
         11    1    3    3    0    0  0.25911049358E+02 -0.59884744019E+01  0.32898661996E+01  0.26796781978E+02  0.51100000000E-03 0. -1.
        -11    1    3    3    0    0 -0.85229138337E+01  0.37295694800E+01  0.78684904333E+01  0.12184534898E+02  0.51100000000E-03 0.  1.
         12    1    3    3    0    0 -0.16060597558E+02 -0.22209069872E+01 -0.29292526536E+02  0.33480252876E+02  0.00000000000E+00 0. -1.
</event>
<event>
 7    1  0.1788006E-013  0.7246159E+02  0.7816164E-02  0.1226708E+00
        -11   -1    0    0    0    0  0.00000000000E+00  0.00000000000E+00  0.45593999997E+02  0.45594000000E+02  0.51100000000E-03 0. -1.
         11   -1    0    0    0    0 -0.00000000000E+00 -0.00000000000E+00 -0.45593999997E+02  0.45594000000E+02  0.51100000000E-03 0.  1.
    9900012    2    1    2    0    0  0.33220659556E+01 -0.17775157720E+02  0.48668387624E+01  0.72461588872E+02  0.70000024201E+02 0.  0.
        -12    1    1    2    0    0 -0.33220659556E+01  0.17775157720E+02 -0.48668387624E+01  0.18726411128E+02  0.00000000000E+00 0.  1.
         11    1    3    3    0    0 -0.61042377191E+01 -0.18959585095E+02  0.34165103375E+02  0.39547210698E+02  0.51100000000E-03 0. -1.
        -11    1    3    3    0    0  0.35730388063E+01  0.35073932394E+01 -0.29227100756E+01  0.57974691111E+01  0.51100000000E-03 0.  1.
        -12    1    3    3    0    0  0.58532648684E+01 -0.23229658650E+01 -0.26375554537E+02  0.27116909063E+02  0.00000000000E+00 0.  1.
</event>
<event>
 7    1  0.1788006E-013  0.7246151E+02  0.7816164E-02  0.1226708E+00
        -11   -1    0    0    0    0  0.00000000000E+00  0.00000000000E+00  0.45593999997E+02  0.45594000000E+02  0.51100000000E-03 0.  1.
         11   -1    0    0    0    0 -0.00000000000E+00 -0.00000000000E+00 -0.45593999997E+02  0.45594000000E+02  0.51100000000E-03 0. -1.
    9900012    2    1    2    0    0  0.15620175538E+02  0.58094187730E+01 -0.85406265295E+01  0.72461507221E+02  0.69999917835E+02 0.  0.
        -12    1    1    2    0    0 -0.15620175538E+02 -0.58094187730E+01  0.85406265295E+01  0.18726492779E+02  0.00000000000E+00 0.  1.
         11    1    3    3    0    0 -0.39130555875E+01 -0.87153108156E+01 -0.61484767002E+01  0.11361004033E+02  0.51100000000E-03 0. -1.
        -11    1    3    3    0    0  0.36059374887E+02  0.94541124114E+00  0.85549987051E+01  0.37072366026E+02  0.51100000000E-03 0.  1.
         12    1    3    3    0    0 -0.16526143762E+02  0.13579318347E+02 -0.10947148534E+02  0.24028137162E+02  0.00000000000E+00 0. -1.
</event>
<event>
 7    1  0.1788006E-013  0.7246153E+02  0.7816164E-02  0.1226708E+00
        -11   -1    0    0    0    0  0.00000000000E+00  0.00000000000E+00  0.45593999997E+02  0.45594000000E+02  0.51100000000E-03 0.  1.
         11   -1    0    0    0    0 -0.00000000000E+00 -0.00000000000E+00 -0.45593999997E+02  0.45594000000E+02  0.51100000000E-03 0. -1.
    9900012    2    1    2    0    0  0.17427433265E+02  0.65989854239E+00  0.68212607977E+01  0.72461534899E+02  0.69999953891E+02 0.  0.
        -12    1    1    2    0    0 -0.17427433265E+02 -0.65989854239E+00 -0.68212607977E+01  0.18726465101E+02  0.00000000000E+00 0.  1.
         11    1    3    3    0    0 -0.62163364576E+00 -0.98636829675E-01  0.57359144399E+01  0.57703442130E+01  0.51100000000E-03 0. -1.
        -11    1    3    3    0    0  0.25969449576E+02 -0.11043347344E+02  0.25764176568E+02  0.38212048183E+02  0.51100000000E-03 0.  1.
         12    1    3    3    0    0 -0.79203826646E+01  0.11801882716E+02 -0.24678830210E+02  0.28479142504E+02  0.00000000000E+00 0. -1.
</event>
<event>
 7    1  0.1788006E-013  0.7246154E+02  0.7816164E-02  0.1226708E+00
        -11   -1    0    0    0    0  0.00000000000E+00  0.00000000000E+00  0.45593999997E+02  0.45594000000E+02  0.51100000000E-03 0. -1.
         11   -1    0    0    0    0 -0.00000000000E+00 -0.00000000000E+00 -0.45593999997E+02  0.45594000000E+02  0.51100000000E-03 0.  1.
    9900012    2    1    2    0    0 -0.69564286557E+01  0.15876651820E+02  0.70866392533E+01  0.72461536678E+02  0.69999956208E+02 0.  0.
        -12    1    1    2    0    0  0.69564286557E+01 -0.15876651820E+02 -0.70866392533E+01  0.18726463322E+02  0.00000000000E+00 0.  1.
         11    1    3    3    0    0 -0.13447523911E+02  0.32166317302E+02  0.23524107327E+01  0.34943407170E+02  0.51100000000E-03 0. -1.
        -11    1    3    3    0    0 -0.84803008235E+01  0.59625269083E+01  0.20167322175E+01  0.10560986615E+02  0.51100000000E-03 0.  1.
         12    1    3    3    0    0  0.14971396079E+02 -0.22252192391E+02  0.27174963032E+01  0.26957142892E+02  0.00000000000E+00 0. -1.
</event>
<event>
 7    1  0.1788006E-013  0.7246160E+02  0.7816164E-02  0.1226708E+00
        -11   -1    0    0    0    0  0.00000000000E+00  0.00000000000E+00  0.45593999997E+02  0.45594000000E+02  0.51100000000E-03 0.  1.
         11   -1    0    0    0    0 -0.00000000000E+00 -0.00000000000E+00 -0.45593999997E+02  0.45594000000E+02  0.51100000000E-03 0. -1.
    9900012    2    1    2    0    0  0.12821603827E+02 -0.11290737526E+02 -0.76683717623E+01  0.72461596073E+02  0.70000033581E+02 0.  0.
        -12    1    1    2    0    0 -0.12821603827E+02  0.11290737526E+02  0.76683717623E+01  0.18726403927E+02  0.00000000000E+00 0.  1.
         11    1    3    3    0    0 -0.12085241891E+02  0.22909707825E+02 -0.11383850124E+02  0.28293105664E+02  0.51100000000E-03 0. -1.
        -11    1    3    3    0    0  0.10356984971E+01 -0.50168813290E+01 -0.29044802942E+01  0.58887838887E+01  0.51100000000E-03 0.  1.
        -12    1    3    3    0    0  0.23871147221E+02 -0.29183564021E+02  0.66199586563E+01  0.38279706520E+02  0.00000000000E+00 0.  1.
</event>
<event>
 7    1  0.1788006E-013  0.7246158E+02  0.7816164E-02  0.1226708E+00
        -11   -1    0    0    0    0  0.00000000000E+00  0.00000000000E+00  0.45593999997E+02  0.45594000000E+02  0.51100000000E-03 0.  1.
         11   -1    0    0    0    0 -0.00000000000E+00 -0.00000000000E+00 -0.45593999997E+02  0.45594000000E+02  0.51100000000E-03 0. -1.
    9900012    2    1    2    0    0 -0.33960808742E+01 -0.79983991267E+01 -0.16588275307E+02  0.72461584658E+02  0.70000018711E+02 0.  0.
        -12    1    1    2    0    0  0.33960808742E+01  0.79983991267E+01  0.16588275307E+02  0.18726415342E+02  0.00000000000E+00 0.  1.
         11    1    3    3    0    0  0.25532910213E+02  0.21111134303E+01 -0.63036519059E+01  0.26384130295E+02  0.51100000000E-03 0. -1.
        -11    1    3    3    0    0  0.31570850883E+01 -0.36333400407E+00 -0.12084680493E+02  0.12495547236E+02  0.51100000000E-03 0.  1.
        -12    1    3    3    0    0 -0.32086076175E+02 -0.97461785530E+01  0.18000570919E+01  0.33581907126E+02  0.00000000000E+00 0.  1.
</event>
<event>
 7    1  0.1788006E-013  0.7246153E+02  0.7816164E-02  0.1226708E+00
        -11   -1    0    0    0    0  0.00000000000E+00  0.00000000000E+00  0.45593999997E+02  0.45594000000E+02  0.51100000000E-03 0. -1.
         11   -1    0    0    0    0 -0.00000000000E+00 -0.00000000000E+00 -0.45593999997E+02  0.45594000000E+02  0.51100000000E-03 0.  1.
    9900012    2    1    2    0    0  0.18846768499E+01  0.17759985915E+02 -0.56312978137E+01  0.72461531524E+02  0.69999949494E+02 0.  0.
        -12    1    1    2    0    0 -0.18846768499E+01 -0.17759985915E+02  0.56312978137E+01  0.18726468476E+02  0.00000000000E+00 0.  1.
         11    1    3    3    0    0 -0.11560675772E+01  0.19295224714E+02  0.20011443572E+02  0.27822653776E+02  0.51100000000E-03 0. -1.
        -11    1    3    3    0    0  0.14641354358E+02  0.46730193725E+00  0.18179926438E+01  0.14761189859E+02  0.51100000000E-03 0.  1.
        -12    1    3    3    0    0 -0.11600609931E+02 -0.20025407364E+01 -0.27460734030E+02  0.29877687890E+02  0.00000000000E+00 0.  1.
</event>
<event>
 7    1  0.1788006E-013  0.7246157E+02  0.7816164E-02  0.1226708E+00
        -11   -1    0    0    0    0  0.00000000000E+00  0.00000000000E+00  0.45593999997E+02  0.45594000000E+02  0.51100000000E-03 0.  1.
         11   -1    0    0    0    0 -0.00000000000E+00 -0.00000000000E+00 -0.45593999997E+02  0.45594000000E+02  0.51100000000E-03 0. -1.
    9900012    2    1    2    0    0  0.15430582703E+02 -0.73868404032E+01 -0.76164819735E+01  0.72461572381E+02  0.70000002718E+02 0.  0.
        -12    1    1    2    0    0 -0.15430582703E+02  0.73868404032E+01  0.76164819735E+01  0.18726427619E+02  0.00000000000E+00 0.  1.
         11    1    3    3    0    0  0.37922038920E+01 -0.88680098823E+01  0.93389508088E+01  0.13425290019E+02  0.51100000000E-03 0. -1.
        -11    1    3    3    0    0  0.90087405037E+01 -0.10616416591E+02  0.17535353269E+02  0.22390942839E+02  0.51100000000E-03 0.  1.
         12    1    3    3    0    0  0.26296383078E+01  0.12097586070E+02 -0.34490786051E+02  0.36645339523E+02  0.00000000000E+00 0. -1.
</event>
<event>
 7    1  0.1788006E-013  0.7246155E+02  0.7816164E-02  0.1226708E+00
        -11   -1    0    0    0    0  0.00000000000E+00  0.00000000000E+00  0.45593999997E+02  0.45594000000E+02  0.51100000000E-03 0. -1.
         11   -1    0    0    0    0 -0.00000000000E+00 -0.00000000000E+00 -0.45593999997E+02  0.45594000000E+02  0.51100000000E-03 0.  1.
    9900012    2    1    2    0    0 -0.13993442688E+02  0.44708984743E+01  0.11613552540E+02  0.72461548814E+02  0.69999972018E+02 0.  0.
        -12    1    1    2    0    0  0.13993442688E+02 -0.44708984743E+01 -0.11613552540E+02  0.18726451186E+02  0.00000000000E+00 0.  1.
         11    1    3    3    0    0  0.11798563240E+02  0.41719508102E+01 -0.87204314579E+01  0.15253104378E+02  0.51100000000E-03 0. -1.
        -11    1    3    3    0    0  0.12397260246E+02 -0.73924411240E+01  0.69245246567E+01  0.16009037740E+02  0.51100000000E-03 0.  1.
         12    1    3    3    0    0 -0.38189266173E+02  0.76913887880E+01  0.13409459341E+02  0.41199406697E+02  0.00000000000E+00 0. -1.
</event>
<event>
 7    1  0.1788006E-013  0.7246157E+02  0.7816164E-02  0.1226708E+00
        -11   -1    0    0    0    0  0.00000000000E+00  0.00000000000E+00  0.45593999997E+02  0.45594000000E+02  0.51100000000E-03 0. -1.
         11   -1    0    0    0    0 -0.00000000000E+00 -0.00000000000E+00 -0.45593999997E+02  0.45594000000E+02  0.51100000000E-03 0.  1.
    9900012    2    1    2    0    0  0.18021126559E+02  0.31322731097E+01  0.40133752128E+01  0.72461566333E+02  0.69999994839E+02 0.  0.
        -12    1    1    2    0    0 -0.18021126559E+02 -0.31322731097E+01 -0.40133752128E+01  0.18726433667E+02  0.00000000000E+00 0.  1.
         11    1    3    3    0    0  0.48327359327E+01 -0.54583906508E+00 -0.14988401675E+02  0.15757711189E+02  0.51100000000E-03 0. -1.
        -11    1    3    3    0    0  0.19835689201E+02 -0.48720133259E+01 -0.12120714065E+02  0.23750848187E+02  0.51100000000E-03 0.  1.
         12    1    3    3    0    0 -0.66472985740E+01  0.85501255006E+01  0.31122490952E+02  0.32953006957E+02  0.00000000000E+00 0. -1.
</event>
<event>
 7    1  0.1788006E-013  0.7246154E+02  0.7816164E-02  0.1226708E+00
        -11   -1    0    0    0    0  0.00000000000E+00  0.00000000000E+00  0.45593999997E+02  0.45594000000E+02  0.51100000000E-03 0. -1.
         11   -1    0    0    0    0 -0.00000000000E+00 -0.00000000000E+00 -0.45593999997E+02  0.45594000000E+02  0.51100000000E-03 0.  1.
    9900012    2    1    2    0    0  0.17010532147E+02  0.49342703184E+01 -0.60807183809E+01  0.72461538414E+02  0.69999958470E+02 0.  0.
        -12    1    1    2    0    0 -0.17010532147E+02 -0.49342703184E+01  0.60807183809E+01  0.18726461586E+02  0.00000000000E+00 0.  1.
         11    1    3    3    0    0  0.24144307929E+02  0.16774485885E+02 -0.38855698343E+01  0.29655162034E+02  0.51100000000E-03 0. -1.
        -11    1    3    3    0    0 -0.23830065527E+01 -0.20430056004E+01 -0.20915549795E+02  0.21149771053E+02  0.51100000000E-03 0.  1.
         12    1    3    3    0    0 -0.47507692293E+01 -0.97972099657E+01  0.18720401248E+02  0.21656605327E+02  0.00000000000E+00 0. -1.
</event>
<event>
 7    1  0.1788006E-013  0.7246157E+02  0.7816164E-02  0.1226708E+00
        -11   -1    0    0    0    0  0.00000000000E+00  0.00000000000E+00  0.45593999997E+02  0.45594000000E+02  0.51100000000E-03 0.  1.
         11   -1    0    0    0    0 -0.00000000000E+00 -0.00000000000E+00 -0.45593999997E+02  0.45594000000E+02  0.51100000000E-03 0. -1.
    9900012    2    1    2    0    0 -0.47636429340E+01 -0.12053506344E+02 -0.13516651065E+02  0.72461570410E+02  0.70000000150E+02 0.  0.
        -12    1    1    2    0    0  0.47636429340E+01  0.12053506344E+02  0.13516651065E+02  0.18726429590E+02  0.00000000000E+00 0.  1.
         11    1    3    3    0    0  0.12537306182E+02 -0.19433950684E+02 -0.14351110382E+01  0.23171578052E+02  0.51100000000E-03 0. -1.
        -11    1    3    3    0    0 -0.83936519483E+01 -0.17862951107E+02 -0.10781737518E+02  0.22489648273E+02  0.51100000000E-03 0.  1.
         12    1    3    3    0    0 -0.89072971681E+01  0.25243395446E+02 -0.12998025085E+01  0.26800344085E+02  0.00000000000E+00 0. -1.
</event>
<event>
 7    1  0.1788006E-013  0.7246158E+02  0.7816164E-02  0.1226708E+00
        -11   -1    0    0    0    0  0.00000000000E+00  0.00000000000E+00  0.45593999997E+02  0.45594000000E+02  0.51100000000E-03 0.  1.
         11   -1    0    0    0    0 -0.00000000000E+00 -0.00000000000E+00 -0.45593999997E+02  0.45594000000E+02  0.51100000000E-03 0. -1.
    9900012    2    1    2    0    0  0.62817105260E+01 -0.10199159479E+02 -0.14394306767E+02  0.72461579933E+02  0.70000012556E+02 0.  0.
        -12    1    1    2    0    0 -0.62817105260E+01  0.10199159479E+02  0.14394306767E+02  0.18726420067E+02  0.00000000000E+00 0.  1.
         11    1    3    3    0    0 -0.42771826737E+01 -0.42462927643E+01  0.67392437109E+01  0.90411669557E+01  0.51100000000E-03 0. -1.
        -11    1    3    3    0    0  0.15791290996E+02  0.18959765404E+02  0.68328829069E+01  0.25603239338E+02  0.51100000000E-03 0.  1.
         12    1    3    3    0    0 -0.52323977968E+01 -0.24912632119E+02 -0.27966433385E+02  0.37817173639E+02  0.00000000000E+00 0. -1.
</event>
<event>
 7    1  0.1788006E-013  0.7246159E+02  0.7816164E-02  0.1226708E+00
        -11   -1    0    0    0    0  0.00000000000E+00  0.00000000000E+00  0.45593999997E+02  0.45594000000E+02  0.51100000000E-03 0. -1.
         11   -1    0    0    0    0 -0.00000000000E+00 -0.00000000000E+00 -0.45593999997E+02  0.45594000000E+02  0.51100000000E-03 0.  1.
    9900012    2    1    2    0    0 -0.11045876884E+02 -0.14982585601E+02 -0.20467809349E+01  0.72461586045E+02  0.70000020518E+02 0.  0.
        -12    1    1    2    0    0  0.11045876884E+02  0.14982585601E+02  0.20467809349E+01  0.18726413955E+02  0.00000000000E+00 0.  1.
         11    1    3    3    0    0 -0.50373865473E+01 -0.23710035153E+00  0.20430263968E+01  0.54410878437E+01  0.51100000000E-03 0. -1.
        -11    1    3    3    0    0 -0.29032528321E+02  0.70157350251E+00 -0.19804360000E+02  0.35150996876E+02  0.51100000000E-03 0.  1.
         12    1    3    3    0    0  0.23024037985E+02 -0.15447058752E+02  0.15714552668E+02  0.31869501326E+02  0.00000000000E+00 0. -1.
</event>
<event>
 7    1  0.1788006E-013  0.7246157E+02  0.7816164E-02  0.1226708E+00
        -11   -1    0    0    0    0  0.00000000000E+00  0.00000000000E+00  0.45593999997E+02  0.45594000000E+02  0.51100000000E-03 0.  1.
         11   -1    0    0    0    0 -0.00000000000E+00 -0.00000000000E+00 -0.45593999997E+02  0.45594000000E+02  0.51100000000E-03 0. -1.
    9900012    2    1    2    0    0 -0.10857140789E+02 -0.70845702947E+01  0.13513341104E+02  0.72461574015E+02  0.70000004847E+02 0.  0.
        -12    1    1    2    0    0  0.10857140789E+02  0.70845702947E+01 -0.13513341104E+02  0.18726425985E+02  0.00000000000E+00 0.  1.
         11    1    3    3    0    0 -0.15063827902E+02 -0.18858579675E+02 -0.73260185968E+01  0.25223708830E+02  0.51100000000E-03 0. -1.
        -11    1    3    3    0    0  0.23175814661E+01 -0.32563887641E+01 -0.11149027106E+02  0.11843819371E+02  0.51100000000E-03 0.  1.
        -12    1    3    3    0    0  0.18891056463E+01  0.15030398145E+02  0.31988386807E+02  0.35394045813E+02  0.00000000000E+00 0.  1.
</event>
<event>
 7    1  0.1788006E-013  0.7246157E+02  0.7816164E-02  0.1226708E+00
        -11   -1    0    0    0    0  0.00000000000E+00  0.00000000000E+00  0.45593999997E+02  0.45594000000E+02  0.51100000000E-03 0. -1.
         11   -1    0    0    0    0 -0.00000000000E+00 -0.00000000000E+00 -0.45593999997E+02  0.45594000000E+02  0.51100000000E-03 0.  1.
    9900012    2    1    2    0    0 -0.84864805237E+01  0.15942666703E+02 -0.49487645936E+01  0.72461568298E+02  0.69999997399E+02 0.  0.
        -12    1    1    2    0    0  0.84864805237E+01 -0.15942666703E+02  0.49487645936E+01  0.18726431702E+02  0.00000000000E+00 0.  1.
         11    1    3    3    0    0  0.50540357827E+01  0.78257573693E+01 -0.32747498094E+01  0.98747021561E+01  0.51100000000E-03 0. -1.
        -11    1    3    3    0    0  0.61326168425E+01 -0.16549694443E+02 -0.19538131730E+02  0.26329450569E+02  0.51100000000E-03 0.  1.
         12    1    3    3    0    0 -0.19673133149E+02  0.24666603777E+02  0.17864116946E+02  0.36257415573E+02  0.00000000000E+00 0. -1.
</event>
<event>
 7    1  0.1788006E-013  0.7246158E+02  0.7816164E-02  0.1226708E+00
        -11   -1    0    0    0    0  0.00000000000E+00  0.00000000000E+00  0.45593999997E+02  0.45594000000E+02  0.51100000000E-03 0.  1.
         11   -1    0    0    0    0 -0.00000000000E+00 -0.00000000000E+00 -0.45593999997E+02  0.45594000000E+02  0.51100000000E-03 0. -1.
    9900012    2    1    2    0    0 -0.32586003805E+01 -0.64801402709E+01 -0.17264651625E+02  0.72461577755E+02  0.70000009719E+02 0.  0.
        -12    1    1    2    0    0  0.32586003805E+01  0.64801402709E+01  0.17264651625E+02  0.18726422245E+02  0.00000000000E+00 0.  1.
         11    1    3    3    0    0 -0.43635287131E+01 -0.23559881368E+02 -0.13093851476E+02  0.27304895891E+02  0.51100000000E-03 0. -1.
        -11    1    3    3    0    0 -0.10096443936E+02  0.58224708018E+01 -0.19735650431E+02  0.22920192944E+02  0.51100000000E-03 0.  1.
        -12    1    3    3    0    0  0.11201372268E+02  0.11257270295E+02  0.15564850283E+02  0.22236488920E+02  0.00000000000E+00 0.  1.
</event>
<event>
 7    1  0.1788006E-013  0.7246155E+02  0.7816164E-02  0.1226708E+00
        -11   -1    0    0    0    0  0.00000000000E+00  0.00000000000E+00  0.45593999997E+02  0.45594000000E+02  0.51100000000E-03 0.  1.
         11   -1    0    0    0    0 -0.00000000000E+00 -0.00000000000E+00 -0.45593999997E+02  0.45594000000E+02  0.51100000000E-03 0. -1.
    9900012    2    1    2    0    0 -0.95362272095E+01 -0.19754702486E+01 -0.15994927819E+02  0.72461552712E+02  0.69999977096E+02 0.  0.
        -12    1    1    2    0    0  0.95362272095E+01  0.19754702486E+01  0.15994927819E+02  0.18726447288E+02  0.00000000000E+00 0.  1.
         11    1    3    3    0    0 -0.27648423563E+02 -0.14186453352E+02 -0.25769565739E+02  0.40370302239E+02  0.51100000000E-03 0. -1.
        -11    1    3    3    0    0  0.81245779778E+01 -0.57901854505E+01  0.34157150231E+01  0.10545241782E+02  0.51100000000E-03 0.  1.
        -12    1    3    3    0    0  0.99876183754E+01  0.18001168554E+02  0.63589228966E+01  0.21546008691E+02  0.00000000000E+00 0.  1.
</event>
<event>
 7    1  0.1788006E-013  0.7246157E+02  0.7816164E-02  0.1226708E+00
        -11   -1    0    0    0    0  0.00000000000E+00  0.00000000000E+00  0.45593999997E+02  0.45594000000E+02  0.51100000000E-03 0.  1.
         11   -1    0    0    0    0 -0.00000000000E+00 -0.00000000000E+00 -0.45593999997E+02  0.45594000000E+02  0.51100000000E-03 0. -1.
    9900012    2    1    2    0    0 -0.87377933993E+01  0.23423228238E+00 -0.16561256737E+02  0.72461571537E+02  0.70000001619E+02 0.  0.
        -12    1    1    2    0    0  0.87377933993E+01 -0.23423228238E+00  0.16561256737E+02  0.18726428463E+02  0.00000000000E+00 0.  1.
         11    1    3    3    0    0 -0.15687248877E+02  0.49748156301E+01 -0.36466054100E+02  0.40007645142E+02  0.51100000000E-03 0. -1.
        -11    1    3    3    0    0 -0.96252343918E+00 -0.12238678921E+02  0.35140958097E+01  0.12769517717E+02  0.51100000000E-03 0.  1.
        -12    1    3    3    0    0  0.79119789168E+01  0.74980955733E+01  0.16390701553E+02  0.19684408678E+02  0.00000000000E+00 0.  1.
</event>
<event>
 7    1  0.1788006E-013  0.7246183E+02  0.7816164E-02  0.1226707E+00
        -11   -1    0    0    0    0  0.00000000000E+00  0.00000000000E+00  0.45593999997E+02  0.45594000000E+02  0.51100000000E-03 0. -1.
         11   -1    0    0    0    0 -0.00000000000E+00 -0.00000000000E+00 -0.45593999997E+02  0.45594000000E+02  0.51100000000E-03 0.  1.
    9900012    2    1    2    0    0  0.49574004814E+01  0.17791655490E+02 -0.30903820925E+01  0.72461834186E+02  0.70000343767E+02 0.  0.
        -12    1    1    2    0    0 -0.49574004814E+01 -0.17791655490E+02  0.30903820925E+01  0.18726165814E+02  0.00000000000E+00 0.  1.
         11    1    3    3    0    0  0.18345958190E+02  0.11078960251E+02  0.23269446447E+01  0.21557648614E+02  0.51100000000E-03 0. -1.
        -11    1    3    3    0    0 -0.45394278432E+01  0.18620587157E+02  0.15920375259E+02  0.24915678193E+02  0.51100000000E-03 0.  1.
        -12    1    3    3    0    0 -0.88491298650E+01 -0.11907891917E+02 -0.21337701996E+02  0.25988507378E+02  0.00000000000E+00 0.  1.
</event>
<event>
 7    1  0.1788006E-013  0.7246156E+02  0.7816164E-02  0.1226708E+00
        -11   -1    0    0    0    0  0.00000000000E+00  0.00000000000E+00  0.45593999997E+02  0.45594000000E+02  0.51100000000E-03 0.  1.
         11   -1    0    0    0    0 -0.00000000000E+00 -0.00000000000E+00 -0.45593999997E+02  0.45594000000E+02  0.51100000000E-03 0. -1.
    9900012    2    1    2    0    0  0.40151758275E+01  0.75696365850E+01 -0.16651077628E+02  0.72461563576E+02  0.69999991249E+02 0.  0.
        -12    1    1    2    0    0 -0.40151758275E+01 -0.75696365850E+01  0.16651077628E+02  0.18726436424E+02  0.00000000000E+00 0.  1.
         11    1    3    3    0    0  0.12638236594E+02  0.21275696597E+02 -0.63138071451E+01  0.25539076937E+02  0.51100000000E-03 0.  1.
        -11    1    3    3    0    0  0.81001120365E+01 -0.19099014907E+02 -0.18269828240E+02  0.27643639587E+02  0.51100000000E-03 0. -1.
        -12    1    3    3    0    0 -0.16723172803E+02  0.53929548949E+01  0.79325577570E+01  0.19278847052E+02  0.00000000000E+00 0.  1.
</event>
<event>
 7    1  0.1788006E-013  0.7246157E+02  0.7816164E-02  0.1226708E+00
        -11   -1    0    0    0    0  0.00000000000E+00  0.00000000000E+00  0.45593999997E+02  0.45594000000E+02  0.51100000000E-03 0.  1.
         11   -1    0    0    0    0 -0.00000000000E+00 -0.00000000000E+00 -0.45593999997E+02  0.45594000000E+02  0.51100000000E-03 0. -1.
    9900012    2    1    2    0    0 -0.11892768901E+02 -0.14302082288E+01 -0.14394292819E+02  0.72461571791E+02  0.70000001950E+02 0.  0.
        -12    1    1    2    0    0  0.11892768901E+02  0.14302082288E+01  0.14394292819E+02  0.18726428209E+02  0.00000000000E+00 0.  1.
         11    1    3    3    0    0 -0.20112404463E+02 -0.29875574527E+02 -0.15833870713E+02  0.39341711054E+02  0.51100000000E-03 0. -1.
        -11    1    3    3    0    0 -0.11569694769E+00  0.58335417011E+01  0.62446231120E+01  0.85462806316E+01  0.51100000000E-03 0.  1.
        -12    1    3    3    0    0  0.83353325102E+01  0.22611824597E+02 -0.48050452179E+01  0.24573580106E+02  0.00000000000E+00 0.  1.
</event>
<event>
 7    1  0.1788006E-013  0.7246178E+02  0.7816164E-02  0.1226707E+00
        -11   -1    0    0    0    0  0.00000000000E+00  0.00000000000E+00  0.45593999997E+02  0.45594000000E+02  0.51100000000E-03 0.  1.
         11   -1    0    0    0    0 -0.00000000000E+00 -0.00000000000E+00 -0.45593999997E+02  0.45594000000E+02  0.51100000000E-03 0. -1.
    9900012    2    1    2    0    0 -0.44304124513E+01  0.16292132689E+01 -0.18121491398E+02  0.72461779322E+02  0.70000272297E+02 0.  0.
        -12    1    1    2    0    0  0.44304124513E+01 -0.16292132689E+01  0.18121491398E+02  0.18726220678E+02  0.00000000000E+00 0.  1.
         11    1    3    3    0    0 -0.29274540669E+02  0.21562039395E+02 -0.10249673783E+02  0.37775337022E+02  0.51100000000E-03 0. -1.
        -11    1    3    3    0    0  0.28731996020E+00  0.37905543765E+00  0.14145501662E+01  0.14923767012E+01  0.51100000000E-03 0.  1.
        -12    1    3    3    0    0  0.24556808257E+02 -0.20311881564E+02 -0.92863677816E+01  0.33194065599E+02  0.00000000000E+00 0.  1.
</event>
<event>
 7    1  0.1788006E-013  0.7246161E+02  0.7816164E-02  0.1226708E+00
        -11   -1    0    0    0    0  0.00000000000E+00  0.00000000000E+00  0.45593999997E+02  0.45594000000E+02  0.51100000000E-03 0.  1.
         11   -1    0    0    0    0 -0.00000000000E+00 -0.00000000000E+00 -0.45593999997E+02  0.45594000000E+02  0.51100000000E-03 0. -1.
    9900012    2    1    2    0    0 -0.63181728391E+01 -0.17604875053E+02 -0.90923260516E+00  0.72461611197E+02  0.70000053283E+02 0.  0.
        -12    1    1    2    0    0  0.63181728391E+01  0.17604875053E+02  0.90923260516E+00  0.18726388803E+02  0.00000000000E+00 0.  1.
         11    1    3    3    0    0  0.12933448511E+02 -0.21346517821E+02  0.33464106089E+01  0.25182263157E+02  0.51100000000E-03 0. -1.
        -11    1    3    3    0    0  0.12436837280E+02  0.38909909109E+01  0.54683536785E+01  0.14132148599E+02  0.51100000000E-03 0.  1.
        -12    1    3    3    0    0 -0.31688458630E+02 -0.14934814318E+00 -0.97239968925E+01  0.33147199441E+02  0.00000000000E+00 0.  1.
</event>
<event>
 7    1  0.1788006E-013  0.7246159E+02  0.7816164E-02  0.1226708E+00
        -11   -1    0    0    0    0  0.00000000000E+00  0.00000000000E+00  0.45593999997E+02  0.45594000000E+02  0.51100000000E-03 0. -1.
         11   -1    0    0    0    0 -0.00000000000E+00 -0.00000000000E+00 -0.45593999997E+02  0.45594000000E+02  0.51100000000E-03 0.  1.
    9900012    2    1    2    0    0 -0.17975035560E+02 -0.43190231019E+01  0.29870749914E+01  0.72461588680E+02  0.70000023950E+02 0.  0.
        -12    1    1    2    0    0  0.17975035560E+02  0.43190231019E+01 -0.29870749914E+01  0.18726411320E+02  0.00000000000E+00 0.  1.
         11    1    3    3    0    0 -0.27085194407E+02  0.14064352367E+02  0.99155987977E+01  0.32089450967E+02  0.51100000000E-03 0. -1.
        -11    1    3    3    0    0  0.12721804418E+01 -0.27840673514E+00  0.12567940841E+02  0.12635232116E+02  0.51100000000E-03 0.  1.
        -12    1    3    3    0    0  0.78379784053E+01 -0.18104968734E+02 -0.19496464647E+02  0.27736905597E+02  0.00000000000E+00 0.  1.
</event>
<event>
 7    1  0.1788006E-013  0.7246155E+02  0.7816164E-02  0.1226708E+00
        -11   -1    0    0    0    0  0.00000000000E+00  0.00000000000E+00  0.45593999997E+02  0.45594000000E+02  0.51100000000E-03 0. -1.
         11   -1    0    0    0    0 -0.00000000000E+00 -0.00000000000E+00 -0.45593999997E+02  0.45594000000E+02  0.51100000000E-03 0.  1.
    9900012    2    1    2    0    0  0.48687300931E+01 -0.11061970496E+02  0.14304135969E+02  0.72461547325E+02  0.69999970078E+02 0.  0.
        -12    1    1    2    0    0 -0.48687300931E+01  0.11061970496E+02 -0.14304135969E+02  0.18726452675E+02  0.00000000000E+00 0.  1.
         11    1    3    3    0    0  0.11359846127E+02 -0.20487923924E+02 -0.12090586486E+01  0.23457684324E+02  0.51100000000E-03 0. -1.
        -11    1    3    3    0    0 -0.96661685182E+01 -0.90641909744E+01 -0.10516973202E+02  0.16917479051E+02  0.51100000000E-03 0.  1.
         12    1    3    3    0    0  0.31750524846E+01  0.18490144403E+02  0.26030167820E+02  0.32086383951E+02  0.00000000000E+00 0. -1.
</event>
<event>
 7    1  0.1788006E-013  0.7246154E+02  0.7816164E-02  0.1226708E+00
        -11   -1    0    0    0    0  0.00000000000E+00  0.00000000000E+00  0.45593999997E+02  0.45594000000E+02  0.51100000000E-03 0. -1.
         11   -1    0    0    0    0 -0.00000000000E+00 -0.00000000000E+00 -0.45593999997E+02  0.45594000000E+02  0.51100000000E-03 0.  1.
    9900012    2    1    2    0    0 -0.30123515295E+01 -0.13441439343E+02  0.12685968650E+02  0.72461538670E+02  0.69999958804E+02 0.  0.
        -12    1    1    2    0    0  0.30123515295E+01  0.13441439343E+02 -0.12685968650E+02  0.18726461330E+02  0.00000000000E+00 0.  1.
         11    1    3    3    0    0  0.10570897843E+01 -0.33317573931E+01 -0.20959469952E+01  0.40756643884E+01  0.51100000000E-03 0. -1.
        -11    1    3    3    0    0  0.26998458135E+01  0.22558484958E+02 -0.11917494419E+02  0.25655429923E+02  0.51100000000E-03 0.  1.
         12    1    3    3    0    0 -0.67692871273E+01 -0.32668166908E+02  0.26699410064E+02  0.42730444359E+02  0.00000000000E+00 0. -1.
</event>
<event>
 7    1  0.1788006E-013  0.7246166E+02  0.7816164E-02  0.1226708E+00
        -11   -1    0    0    0    0  0.00000000000E+00  0.00000000000E+00  0.45593999997E+02  0.45594000000E+02  0.51100000000E-03 0.  1.
         11   -1    0    0    0    0 -0.00000000000E+00 -0.00000000000E+00 -0.45593999997E+02  0.45594000000E+02  0.51100000000E-03 0. -1.
    9900012    2    1    2    0    0 -0.14601655689E+02 -0.11473193910E+02 -0.24151893673E+01  0.72461663812E+02  0.70000121824E+02 0.  0.
        -12    1    1    2    0    0  0.14601655689E+02  0.11473193910E+02  0.24151893673E+01  0.18726336188E+02  0.00000000000E+00 0.  1.
         11    1    3    3    0    0 -0.18150758682E+01  0.58018560771E+01 -0.45073174622E+01  0.75678230234E+01  0.51100000000E-03 0. -1.
        -11    1    3    3    0    0 -0.31353159214E+02 -0.76650820047E+01  0.19482073263E+02  0.37700467553E+02  0.51100000000E-03 0.  1.
         12    1    3    3    0    0  0.18566579393E+02 -0.96099679821E+01 -0.17389945168E+02  0.27193373235E+02  0.00000000000E+00 0. -1.
</event>
<event>
 7    1  0.1788006E-013  0.7246152E+02  0.7816164E-02  0.1226708E+00
        -11   -1    0    0    0    0  0.00000000000E+00  0.00000000000E+00  0.45593999997E+02  0.45594000000E+02  0.51100000000E-03 0.  1.
         11   -1    0    0    0    0 -0.00000000000E+00 -0.00000000000E+00 -0.45593999997E+02  0.45594000000E+02  0.51100000000E-03 0. -1.
    9900012    2    1    2    0    0 -0.10290197940E+02  0.14344690418E+02 -0.62468283564E+01  0.72461516579E+02  0.69999930025E+02 0.  0.
        -12    1    1    2    0    0  0.10290197940E+02 -0.14344690418E+02  0.62468283564E+01  0.18726483421E+02  0.00000000000E+00 0.  1.
         11    1    3    3    0    0  0.14021722874E+01 -0.34330752763E+01  0.95288165955E+01  0.10224990902E+02  0.51100000000E-03 0. -1.
        -11    1    3    3    0    0 -0.45020767641E+00  0.48919895264E+01  0.21059800268E+02  0.21625203723E+02  0.51100000000E-03 0.  1.
         12    1    3    3    0    0 -0.11242162551E+02  0.12885776167E+02 -0.36835445220E+02  0.40611321953E+02  0.00000000000E+00 0. -1.
</event>
<event>
 7    1  0.1788006E-013  0.7246157E+02  0.7816164E-02  0.1226708E+00
        -11   -1    0    0    0    0  0.00000000000E+00  0.00000000000E+00  0.45593999997E+02  0.45594000000E+02  0.51100000000E-03 0.  1.
         11   -1    0    0    0    0 -0.00000000000E+00 -0.00000000000E+00 -0.45593999997E+02  0.45594000000E+02  0.51100000000E-03 0. -1.
    9900012    2    1    2    0    0 -0.17502288590E+01  0.17351901688E+02  0.68211099380E+01  0.72461565902E+02  0.69999994278E+02 0.  0.
        -12    1    1    2    0    0  0.17502288590E+01 -0.17351901688E+02 -0.68211099380E+01  0.18726434098E+02  0.00000000000E+00 0.  1.
         11    1    3    3    0    0 -0.29918806769E+01 -0.22544114466E+02 -0.30088386619E+01  0.22939955480E+02  0.51100000000E-03 0. -1.
        -11    1    3    3    0    0 -0.28591788209E+01  0.41471218337E+01 -0.79296252327E+01  0.93942790902E+01  0.51100000000E-03 0.  1.
        -12    1    3    3    0    0  0.41008306389E+01  0.35748894321E+02  0.17759573833E+02  0.40127331332E+02  0.00000000000E+00 0.  1.
</event>
<event>
 7    1  0.1788006E-013  0.7246155E+02  0.7816164E-02  0.1226708E+00
        -11   -1    0    0    0    0  0.00000000000E+00  0.00000000000E+00  0.45593999997E+02  0.45594000000E+02  0.51100000000E-03 0.  1.
         11   -1    0    0    0    0 -0.00000000000E+00 -0.00000000000E+00 -0.45593999997E+02  0.45594000000E+02  0.51100000000E-03 0. -1.
    9900012    2    1    2    0    0  0.18547619218E+02  0.25802050946E+01 -0.91969568648E-01  0.72461545573E+02  0.69999967796E+02 0.  0.
        -12    1    1    2    0    0 -0.18547619218E+02 -0.25802050946E+01  0.91969568648E-01  0.18726454427E+02  0.00000000000E+00 0.  1.
         11    1    3    3    0    0 -0.25634647510E+01  0.55570595788E+01  0.19340792187E+02  0.20285918894E+02  0.51100000000E-03 0. -1.
        -11    1    3    3    0    0  0.27784256464E+02 -0.14386602337E+02 -0.35142508072E+01  0.31484745402E+02  0.51100000000E-03 0.  1.
         12    1    3    3    0    0 -0.66731724948E+01  0.11409747853E+02 -0.15918510948E+02  0.20690881277E+02  0.00000000000E+00 0. -1.
</event>
<event>
 7    1  0.1788006E-013  0.7246159E+02  0.7816164E-02  0.1226708E+00
        -11   -1    0    0    0    0  0.00000000000E+00  0.00000000000E+00  0.45593999997E+02  0.45594000000E+02  0.51100000000E-03 0. -1.
         11   -1    0    0    0    0 -0.00000000000E+00 -0.00000000000E+00 -0.45593999997E+02  0.45594000000E+02  0.51100000000E-03 0.  1.
    9900012    2    1    2    0    0 -0.88442806279E+01 -0.11442221956E+02  0.11896751555E+02  0.72461589755E+02  0.70000025351E+02 0.  0.
        -12    1    1    2    0    0  0.88442806279E+01  0.11442221956E+02 -0.11896751555E+02  0.18726410245E+02  0.00000000000E+00 0.  1.
         11    1    3    3    0    0 -0.24742207581E+01 -0.36148877840E+02  0.29031049619E+01  0.36349568858E+02  0.51100000000E-03 0. -1.
        -11    1    3    3    0    0 -0.15014812890E+02  0.10565774624E+02  0.55932875273E+01  0.19192838903E+02  0.51100000000E-03 0.  1.
        -12    1    3    3    0    0  0.86447530200E+01  0.14140881260E+02  0.34003590657E+01  0.16919181994E+02  0.00000000000E+00 0.  1.
</event>
<event>
 7    1  0.1788006E-013  0.7246154E+02  0.7816164E-02  0.1226708E+00
        -11   -1    0    0    0    0  0.00000000000E+00  0.00000000000E+00  0.45593999997E+02  0.45594000000E+02  0.51100000000E-03 0.  1.
         11   -1    0    0    0    0 -0.00000000000E+00 -0.00000000000E+00 -0.45593999997E+02  0.45594000000E+02  0.51100000000E-03 0. -1.
    9900012    2    1    2    0    0 -0.10046873343E+02 -0.15276615205E+00 -0.15802449179E+02  0.72461537399E+02  0.69999957148E+02 0.  0.
        -12    1    1    2    0    0  0.10046873343E+02  0.15276615205E+00  0.15802449179E+02  0.18726462601E+02  0.00000000000E+00 0.  1.
         11    1    3    3    0    0  0.79535111281E+01 -0.20551044153E+02 -0.11979654271E+02  0.25082182357E+02  0.51100000000E-03 0. -1.
        -11    1    3    3    0    0 -0.22703749579E+01  0.49577455339E+01  0.16512713656E+02  0.17389754333E+02  0.51100000000E-03 0.  1.
        -12    1    3    3    0    0 -0.15730009514E+02  0.15440532468E+02 -0.20335508564E+02  0.29989600710E+02  0.00000000000E+00 0.  1.
</event>
<event>
 7    1  0.1788006E-013  0.7246155E+02  0.7816164E-02  0.1226708E+00
        -11   -1    0    0    0    0  0.00000000000E+00  0.00000000000E+00  0.45593999997E+02  0.45594000000E+02  0.51100000000E-03 0.  1.
         11   -1    0    0    0    0 -0.00000000000E+00 -0.00000000000E+00 -0.45593999997E+02  0.45594000000E+02  0.51100000000E-03 0. -1.
    9900012    2    1    2    0    0  0.20082969671E+01 -0.47937484978E+01 -0.17990734176E+02  0.72461553525E+02  0.69999978155E+02 0.  0.
        -12    1    1    2    0    0 -0.20082969671E+01  0.47937484978E+01  0.17990734176E+02  0.18726446475E+02  0.00000000000E+00 0.  1.
         11    1    3    3    0    0  0.15736109314E+02  0.93819896572E+01  0.10602258418E+02  0.21167303798E+02  0.51100000000E-03 0. -1.
        -11    1    3    3    0    0 -0.97703150610E+01  0.10862732229E+02 -0.23330158875E+01  0.14795302337E+02  0.51100000000E-03 0.  1.
         12    1    3    3    0    0 -0.39574972856E+01 -0.25038470384E+02 -0.26259976707E+02  0.36498947390E+02  0.00000000000E+00 0. -1.
</event>
<event>
 7    1  0.1788006E-013  0.7246151E+02  0.7816164E-02  0.1226708E+00
        -11   -1    0    0    0    0  0.00000000000E+00  0.00000000000E+00  0.45593999997E+02  0.45594000000E+02  0.51100000000E-03 0.  1.
         11   -1    0    0    0    0 -0.00000000000E+00 -0.00000000000E+00 -0.45593999997E+02  0.45594000000E+02  0.51100000000E-03 0. -1.
    9900012    2    1    2    0    0 -0.10717837695E+02 -0.12458267183E+02 -0.89778043687E+01  0.72461509743E+02  0.69999921121E+02 0.  0.
        -12    1    1    2    0    0  0.10717837695E+02  0.12458267183E+02  0.89778043687E+01  0.18726490257E+02  0.00000000000E+00 0.  1.
         11    1    3    3    0    0 -0.77638218160E+01  0.31159596941E+01  0.56715724583E+01  0.10107070219E+02  0.51100000000E-03 0. -1.
        -11    1    3    3    0    0  0.84297581929E+01  0.20266927025E+02  0.12556271124E+00  0.21950510711E+02  0.51100000000E-03 0.  1.
         12    1    3    3    0    0 -0.11383774072E+02 -0.35841153902E+02 -0.14774939538E+02  0.40403928813E+02  0.00000000000E+00 0. -1.
</event>
<event>
 7    1  0.1788006E-013  0.7246162E+02  0.7816164E-02  0.1226708E+00
        -11   -1    0    0    0    0  0.00000000000E+00  0.00000000000E+00  0.45593999997E+02  0.45594000000E+02  0.51100000000E-03 0. -1.
         11   -1    0    0    0    0 -0.00000000000E+00 -0.00000000000E+00 -0.45593999997E+02  0.45594000000E+02  0.51100000000E-03 0.  1.
    9900012    2    1    2    0    0  0.13456346818E+02 -0.96025032099E+01  0.87974880987E+01  0.72461624632E+02  0.70000070784E+02 0.  0.
        -12    1    1    2    0    0 -0.13456346818E+02  0.96025032099E+01 -0.87974880987E+01  0.18726375368E+02  0.00000000000E+00 0.  1.
         11    1    3    3    0    0  0.32755010528E+02 -0.18346498234E+01  0.12754050617E+02  0.35198330387E+02  0.51100000000E-03 0. -1.
        -11    1    3    3    0    0  0.61453541306E+00 -0.67446835428E+01  0.10597794611E+02  0.12577029090E+02  0.51100000000E-03 0.  1.
        -12    1    3    3    0    0 -0.19913199122E+02 -0.10231698437E+01 -0.14554357129E+02  0.24686265154E+02  0.00000000000E+00 0.  1.
</event>
<event>
 7    1  0.1788006E-013  0.7246160E+02  0.7816164E-02  0.1226708E+00
        -11   -1    0    0    0    0  0.00000000000E+00  0.00000000000E+00  0.45593999997E+02  0.45594000000E+02  0.51100000000E-03 0.  1.
         11   -1    0    0    0    0 -0.00000000000E+00 -0.00000000000E+00 -0.45593999997E+02  0.45594000000E+02  0.51100000000E-03 0. -1.
    9900012    2    1    2    0    0 -0.13276197501E+00  0.14528142281E+02 -0.11814964558E+02  0.72461603353E+02  0.70000043065E+02 0.  0.
        -12    1    1    2    0    0  0.13276197501E+00 -0.14528142281E+02  0.11814964558E+02  0.18726396647E+02  0.00000000000E+00 0.  1.
         11    1    3    3    0    0  0.27294858276E+01  0.23254073712E+01 -0.16453853543E+01  0.39452383388E+01  0.51100000000E-03 0. -1.
        -11    1    3    3    0    0 -0.12183969565E+02  0.25171086447E+02 -0.31336509710E+02  0.42000113671E+02  0.51100000000E-03 0.  1.
         12    1    3    3    0    0  0.93217217624E+01 -0.12968351538E+02  0.21166930507E+02  0.26516251343E+02  0.00000000000E+00 0. -1.
</event>
<event>
 7    1  0.1788006E-013  0.7246152E+02  0.7816164E-02  0.1226708E+00
        -11   -1    0    0    0    0  0.00000000000E+00  0.00000000000E+00  0.45593999997E+02  0.45594000000E+02  0.51100000000E-03 0.  1.
         11   -1    0    0    0    0 -0.00000000000E+00 -0.00000000000E+00 -0.45593999997E+02  0.45594000000E+02  0.51100000000E-03 0. -1.
    9900012    2    1    2    0    0  0.13758741366E+02 -0.73020656960E+01 -0.10395099086E+02  0.72461515749E+02  0.69999928944E+02 0.  0.
        -12    1    1    2    0    0 -0.13758741366E+02  0.73020656960E+01  0.10395099086E+02  0.18726484251E+02  0.00000000000E+00 0.  1.
         11    1    3    3    0    0  0.14165092133E+02  0.15999771917E+02 -0.50036479701E+01  0.21947187287E+02  0.51100000000E-03 0. -1.
        -11    1    3    3    0    0  0.49010884624E+01 -0.54159440286E+01  0.18681157259E+02  0.20058383649E+02  0.51100000000E-03 0.  1.
        -12    1    3    3    0    0 -0.53074392290E+01 -0.17885893584E+02 -0.24072608374E+02  0.30455944813E+02  0.00000000000E+00 0.  1.
</event>
<event>
 7    1  0.1788006E-013  0.7246155E+02  0.7816164E-02  0.1226708E+00
        -11   -1    0    0    0    0  0.00000000000E+00  0.00000000000E+00  0.45593999997E+02  0.45594000000E+02  0.51100000000E-03 0.  1.
         11   -1    0    0    0    0 -0.00000000000E+00 -0.00000000000E+00 -0.45593999997E+02  0.45594000000E+02  0.51100000000E-03 0. -1.
    9900012    2    1    2    0    0  0.15542182014E+02 -0.49268144007E+01  0.92112375720E+01  0.72461552940E+02  0.69999977393E+02 0.  0.
        -12    1    1    2    0    0 -0.15542182014E+02  0.49268144007E+01 -0.92112375720E+01  0.18726447060E+02  0.00000000000E+00 0.  1.
         11    1    3    3    0    0  0.74369409961E+00 -0.18072359656E+02  0.17007039291E+02  0.24827457585E+02  0.51100000000E-03 0.  1.
        -11    1    3    3    0    0 -0.98006106400E+01  0.18096643543E+02 -0.91122213019E+01  0.22507177827E+02  0.51100000000E-03 0. -1.
         12    1    3    3    0    0  0.24599098554E+02 -0.49510982877E+01  0.13164195834E+01  0.25126917528E+02  0.00000000000E+00 0. -1.
</event>
<event>
 7    1  0.1788006E-013  0.7246153E+02  0.7816164E-02  0.1226708E+00
        -11   -1    0    0    0    0  0.00000000000E+00  0.00000000000E+00  0.45593999997E+02  0.45594000000E+02  0.51100000000E-03 0.  1.
         11   -1    0    0    0    0 -0.00000000000E+00 -0.00000000000E+00 -0.45593999997E+02  0.45594000000E+02  0.51100000000E-03 0. -1.
    9900012    2    1    2    0    0  0.49089645827E+01  0.14996737488E+02 -0.10083681129E+02  0.72461529599E+02  0.69999946987E+02 0.  0.
        -12    1    1    2    0    0 -0.49089645827E+01 -0.14996737488E+02  0.10083681129E+02  0.18726470401E+02  0.00000000000E+00 0.  1.
         11    1    3    3    0    0 -0.82367391519E+01 -0.11040970146E+02 -0.25156382035E+02  0.28680837697E+02  0.51100000000E-03 0. -1.
        -11    1    3    3    0    0  0.72639563289E+01 -0.26583365190E+01  0.12068263992E+02  0.14334392580E+02  0.51100000000E-03 0.  1.
        -12    1    3    3    0    0  0.58817474056E+01  0.28696044153E+02  0.30044369146E+01  0.29446299322E+02  0.00000000000E+00 0.  1.
</event>
<event>
 7    1  0.1788006E-013  0.7246161E+02  0.7816164E-02  0.1226708E+00
        -11   -1    0    0    0    0  0.00000000000E+00  0.00000000000E+00  0.45593999997E+02  0.45594000000E+02  0.51100000000E-03 0.  1.
         11   -1    0    0    0    0 -0.00000000000E+00 -0.00000000000E+00 -0.45593999997E+02  0.45594000000E+02  0.51100000000E-03 0. -1.
    9900012    2    1    2    0    0 -0.13502712076E+02  0.10978074020E+02 -0.69163891489E+01  0.72461607356E+02  0.70000048280E+02 0.  0.
        -12    1    1    2    0    0  0.13502712076E+02 -0.10978074020E+02  0.69163891489E+01  0.18726392644E+02  0.00000000000E+00 0.  1.
         11    1    3    3    0    0 -0.16234890723E+02 -0.85175532516E+01 -0.20074886371E+02  0.27186788212E+02  0.51100000000E-03 0. -1.
        -11    1    3    3    0    0 -0.11060820106E+02 -0.70561789598E+01  0.64123873160E+01  0.14603085780E+02  0.51100000000E-03 0.  1.
        -12    1    3    3    0    0  0.13792998753E+02  0.26551806231E+02  0.67461099064E+01  0.30671733365E+02  0.00000000000E+00 0.  1.
</event>
<event>
 7    1  0.1788006E-013  0.7246135E+02  0.7816164E-02  0.1226709E+00
        -11   -1    0    0    0    0  0.00000000000E+00  0.00000000000E+00  0.45593999997E+02  0.45594000000E+02  0.51100000000E-03 0.  1.
         11   -1    0    0    0    0 -0.00000000000E+00 -0.00000000000E+00 -0.45593999997E+02  0.45594000000E+02  0.51100000000E-03 0. -1.
    9900012    2    1    2    0    0 -0.15827457727E+02  0.41482156030E+01 -0.91088508740E+01  0.72461353877E+02  0.69999718075E+02 0.  0.
        -12    1    1    2    0    0  0.15827457727E+02 -0.41482156030E+01  0.91088508740E+01  0.18726646123E+02  0.00000000000E+00 0.  1.
         11    1    3    3    0    0 -0.33717147347E+02  0.11207037546E+02 -0.14494369106E+02  0.38373564492E+02  0.51100000000E-03 0. -1.
        -11    1    3    3    0    0 -0.30319565577E+01  0.74639914694E+01  0.26115101876E+01  0.84689972809E+01  0.51100000000E-03 0.  1.
         12    1    3    3    0    0  0.20921646178E+02 -0.14522813413E+02  0.27740080447E+01  0.25618792104E+02  0.00000000000E+00 0. -1.
</event>
<event>
 7    1  0.1788006E-013  0.7246158E+02  0.7816164E-02  0.1226708E+00
        -11   -1    0    0    0    0  0.00000000000E+00  0.00000000000E+00  0.45593999997E+02  0.45594000000E+02  0.51100000000E-03 0. -1.
         11   -1    0    0    0    0 -0.00000000000E+00 -0.00000000000E+00 -0.45593999997E+02  0.45594000000E+02  0.51100000000E-03 0.  1.
    9900012    2    1    2    0    0  0.11492948115E+02 -0.10241478466E+02  0.10663162039E+02  0.72461581170E+02  0.70000014167E+02 0.  0.
        -12    1    1    2    0    0 -0.11492948115E+02  0.10241478466E+02 -0.10663162039E+02  0.18726418830E+02  0.00000000000E+00 0.  1.
         11    1    3    3    0    0  0.91684234543E+00  0.15251563946E+01  0.31910922312E+02  0.31960501638E+02  0.51100000000E-03 0. -1.
        -11    1    3    3    0    0  0.54524249107E+01  0.10304672218E+02 -0.53837784393E+01  0.12841350297E+02  0.51100000000E-03 0.  1.
        -12    1    3    3    0    0  0.51236808585E+01 -0.22071307079E+02 -0.15863981834E+02  0.27659729234E+02  0.00000000000E+00 0.  1.
</event>
<event>
 7    1  0.1788006E-013  0.7246155E+02  0.7816164E-02  0.1226708E+00
        -11   -1    0    0    0    0  0.00000000000E+00  0.00000000000E+00  0.45593999997E+02  0.45594000000E+02  0.51100000000E-03 0. -1.
         11   -1    0    0    0    0 -0.00000000000E+00 -0.00000000000E+00 -0.45593999997E+02  0.45594000000E+02  0.51100000000E-03 0.  1.
    9900012    2    1    2    0    0  0.13322359039E+02  0.28862120529E+01  0.12839954554E+02  0.72461550702E+02  0.69999974477E+02 0.  0.
        -12    1    1    2    0    0 -0.13322359039E+02 -0.28862120529E+01 -0.12839954554E+02  0.18726449298E+02  0.00000000000E+00 0.  1.
         11    1    3    3    0    0  0.88079356849E+01  0.76037136497E+01  0.17062093892E+02  0.20652148569E+02  0.51100000000E-03 0. -1.
        -11    1    3    3    0    0 -0.59762890131E+01  0.97529613056E+01  0.19198679887E+02  0.22347831982E+02  0.51100000000E-03 0.  1.
        -12    1    3    3    0    0  0.10490712367E+02 -0.14470462903E+02 -0.23420819225E+02  0.29461570151E+02  0.00000000000E+00 0.  1.
</event>
<event>
 7    1  0.1788006E-013  0.7246158E+02  0.7816164E-02  0.1226708E+00
        -11   -1    0    0    0    0  0.00000000000E+00  0.00000000000E+00  0.45593999997E+02  0.45594000000E+02  0.51100000000E-03 0. -1.
         11   -1    0    0    0    0 -0.00000000000E+00 -0.00000000000E+00 -0.45593999997E+02  0.45594000000E+02  0.51100000000E-03 0.  1.
    9900012    2    1    2    0    0 -0.96784421268E+00  0.15133342684E+02  0.10987446024E+02  0.72461581407E+02  0.70000014476E+02 0.  0.
        -12    1    1    2    0    0  0.96784421268E+00 -0.15133342684E+02 -0.10987446024E+02  0.18726418593E+02  0.00000000000E+00 0.  1.
         11    1    3    3    0    0  0.21485068613E+01  0.86862961204E+01  0.56601864077E+01  0.10587990010E+02  0.51100000000E-03 0. -1.
        -11    1    3    3    0    0  0.24121729939E+02 -0.13480533050E+02 -0.43171357620E+00  0.27636371025E+02  0.51100000000E-03 0.  1.
         12    1    3    3    0    0 -0.27238081013E+02  0.19927579614E+02  0.57589731926E+01  0.34237220371E+02  0.00000000000E+00 0. -1.
</event>
<event>
 7    1  0.1788006E-013  0.7246163E+02  0.7816164E-02  0.1226708E+00
        -11   -1    0    0    0    0  0.00000000000E+00  0.00000000000E+00  0.45593999997E+02  0.45594000000E+02  0.51100000000E-03 0.  1.
         11   -1    0    0    0    0 -0.00000000000E+00 -0.00000000000E+00 -0.45593999997E+02  0.45594000000E+02  0.51100000000E-03 0. -1.
    9900012    2    1    2    0    0 -0.17894021403E+02  0.50849588788E+01 -0.21503772802E+01  0.72461630057E+02  0.70000077853E+02 0.  0.
        -12    1    1    2    0    0  0.17894021403E+02 -0.50849588788E+01  0.21503772802E+01  0.18726369943E+02  0.00000000000E+00 0.  1.
         11    1    3    3    0    0  0.14932482659E+02 -0.20004009497E+02 -0.69649374210E+01  0.25916207050E+02  0.51100000000E-03 0. -1.
        -11    1    3    3    0    0  0.38173919931E+00  0.67634260361E+01  0.53192442051E+01  0.86130143235E+01  0.51100000000E-03 0.  1.
        -12    1    3    3    0    0 -0.33208243262E+02  0.18325542339E+02 -0.50468406417E+00  0.37932408684E+02  0.00000000000E+00 0.  1.
</event>
<event>
 7    1  0.1788006E-013  0.7246164E+02  0.7816164E-02  0.1226708E+00
        -11   -1    0    0    0    0  0.00000000000E+00  0.00000000000E+00  0.45593999997E+02  0.45594000000E+02  0.51100000000E-03 0. -1.
         11   -1    0    0    0    0 -0.00000000000E+00 -0.00000000000E+00 -0.45593999997E+02  0.45594000000E+02  0.51100000000E-03 0.  1.
    9900012    2    1    2    0    0  0.15813927518E+02  0.89013299372E+01  0.46219579836E+01  0.72461642271E+02  0.70000093763E+02 0.  0.
        -12    1    1    2    0    0 -0.15813927518E+02 -0.89013299372E+01 -0.46219579836E+01  0.18726357729E+02  0.00000000000E+00 0.  1.
         11    1    3    3    0    0  0.25148170266E+01  0.14874626271E+02 -0.28598482150E+01  0.15354398180E+02  0.51100000000E-03 0. -1.
        -11    1    3    3    0    0  0.24462546582E+02  0.14812471679E+02 -0.69757113505E+01  0.29436135134E+02  0.51100000000E-03 0.  1.
        -12    1    3    3    0    0 -0.11163436090E+02 -0.20785768013E+02  0.14457517549E+02  0.27671108957E+02  0.00000000000E+00 0.  1.
</event>
<event>
 7    1  0.1788006E-013  0.7246162E+02  0.7816164E-02  0.1226708E+00
        -11   -1    0    0    0    0  0.00000000000E+00  0.00000000000E+00  0.45593999997E+02  0.45594000000E+02  0.51100000000E-03 0. -1.
         11   -1    0    0    0    0 -0.00000000000E+00 -0.00000000000E+00 -0.45593999997E+02  0.45594000000E+02  0.51100000000E-03 0.  1.
    9900012    2    1    2    0    0 -0.21470313681E+01  0.12941466431E+02  0.13363602430E+02  0.72461623762E+02  0.70000069652E+02 0.  0.
        -12    1    1    2    0    0  0.21470313681E+01 -0.12941466431E+02 -0.13363602430E+02  0.18726376238E+02  0.00000000000E+00 0.  1.
         11    1    3    3    0    0 -0.52287557169E+01  0.14646790761E+02  0.16370152483E+02  0.22579864006E+02  0.51100000000E-03 0. -1.
        -11    1    3    3    0    0 -0.53695308936E+01 -0.35034117027E+01  0.22267207742E+02  0.23171842750E+02  0.51100000000E-03 0.  1.
        -12    1    3    3    0    0  0.84512552425E+01  0.17980873730E+01 -0.25273757795E+02  0.26709917006E+02  0.00000000000E+00 0.  1.
</event>
<event>
 7    1  0.1788006E-013  0.7246122E+02  0.7816164E-02  0.1226709E+00
        -11   -1    0    0    0    0  0.00000000000E+00  0.00000000000E+00  0.45593999997E+02  0.45594000000E+02  0.51100000000E-03 0. -1.
         11   -1    0    0    0    0 -0.00000000000E+00 -0.00000000000E+00 -0.45593999997E+02  0.45594000000E+02  0.51100000000E-03 0.  1.
    9900012    2    1    2    0    0  0.10152536414E+02  0.22281366318E+01  0.15577347860E+02  0.72461218247E+02  0.69999541391E+02 0.  0.
        -12    1    1    2    0    0 -0.10152536414E+02 -0.22281366318E+01 -0.15577347860E+02  0.18726781753E+02  0.00000000000E+00 0.  1.
         11    1    3    3    0    0  0.53755777636E+01 -0.92970500938E+01  0.65923842540E+01  0.12601250222E+02  0.51100000000E-03 0. -1.
        -11    1    3    3    0    0 -0.16367305124E+02 -0.14788022844E+02 -0.61005728996E+01  0.22886486987E+02  0.51100000000E-03 0.  1.
         12    1    3    3    0    0  0.21144263774E+02  0.26313209570E+02  0.15085536505E+02  0.36973481038E+02  0.00000000000E+00 0. -1.
</event>
<event>
 7    1  0.1788006E-013  0.7246155E+02  0.7816164E-02  0.1226708E+00
        -11   -1    0    0    0    0  0.00000000000E+00  0.00000000000E+00  0.45593999997E+02  0.45594000000E+02  0.51100000000E-03 0. -1.
         11   -1    0    0    0    0 -0.00000000000E+00 -0.00000000000E+00 -0.45593999997E+02  0.45594000000E+02  0.51100000000E-03 0.  1.
    9900012    2    1    2    0    0 -0.10897546595E+02  0.23168656691E+01  0.15051761032E+02  0.72461550831E+02  0.69999974645E+02 0.  0.
        -12    1    1    2    0    0  0.10897546595E+02 -0.23168656691E+01 -0.15051761032E+02  0.18726449169E+02  0.00000000000E+00 0.  1.
         11    1    3    3    0    0 -0.52475504742E+01  0.43683964497E+01  0.14276870241E+02  0.15825571006E+02  0.51100000000E-03 0. -1.
        -11    1    3    3    0    0  0.10849412074E+02 -0.21516327795E+02  0.14027917277E+02  0.27882692975E+02  0.51100000000E-03 0.  1.
         12    1    3    3    0    0 -0.16499408195E+02  0.19464797015E+02 -0.13253026487E+02  0.28753286850E+02  0.00000000000E+00 0. -1.
</event>
<event>
 7    1  0.1788006E-013  0.7246172E+02  0.7816164E-02  0.1226708E+00
        -11   -1    0    0    0    0  0.00000000000E+00  0.00000000000E+00  0.45593999997E+02  0.45594000000E+02  0.51100000000E-03 0. -1.
         11   -1    0    0    0    0 -0.00000000000E+00 -0.00000000000E+00 -0.45593999997E+02  0.45594000000E+02  0.51100000000E-03 0.  1.
    9900012    2    1    2    0    0 -0.88168384661E+00 -0.50656696834E+01  0.18006536701E+02  0.72461715272E+02  0.70000188861E+02 0.  0.
        -12    1    1    2    0    0  0.88168384661E+00  0.50656696834E+01 -0.18006536701E+02  0.18726284728E+02  0.00000000000E+00 0.  1.
         11    1    3    3    0    0 -0.25114544561E+00 -0.95871004309E+01 -0.16646521042E+02  0.19211513001E+02  0.51100000000E-03 0. -1.
        -11    1    3    3    0    0  0.19522497952E+02  0.33478538457E+01  0.13260058273E+02  0.23836216087E+02  0.51100000000E-03 0.  1.
        -12    1    3    3    0    0 -0.20153036353E+02  0.11735769018E+01  0.21392999470E+02  0.29413986185E+02  0.00000000000E+00 0.  1.
</event>
<event>
 7    1  0.1788006E-013  0.7246157E+02  0.7816164E-02  0.1226708E+00
        -11   -1    0    0    0    0  0.00000000000E+00  0.00000000000E+00  0.45593999997E+02  0.45594000000E+02  0.51100000000E-03 0.  1.
         11   -1    0    0    0    0 -0.00000000000E+00 -0.00000000000E+00 -0.45593999997E+02  0.45594000000E+02  0.51100000000E-03 0. -1.
    9900012    2    1    2    0    0 -0.17538648411E+02  0.44799294608E+01  0.47963572671E+01  0.72461574845E+02  0.70000005928E+02 0.  0.
        -12    1    1    2    0    0  0.17538648411E+02 -0.44799294608E+01 -0.47963572671E+01  0.18726425155E+02  0.00000000000E+00 0.  1.
         11    1    3    3    0    0 -0.26025651336E+01  0.24405121183E+02 -0.54969918459E+00  0.24549652843E+02  0.51100000000E-03 0. -1.
        -11    1    3    3    0    0 -0.10329382698E+02 -0.46276554318E+01  0.22057779635E+02  0.24792276708E+02  0.51100000000E-03 0.  1.
        -12    1    3    3    0    0 -0.46067005790E+01 -0.15297536291E+02 -0.16711723183E+02  0.23119645294E+02  0.00000000000E+00 0.  1.
</event>
<event>
 7    1  0.1788006E-013  0.7246158E+02  0.7816164E-02  0.1226708E+00
        -11   -1    0    0    0    0  0.00000000000E+00  0.00000000000E+00  0.45593999997E+02  0.45594000000E+02  0.51100000000E-03 0.  1.
         11   -1    0    0    0    0 -0.00000000000E+00 -0.00000000000E+00 -0.45593999997E+02  0.45594000000E+02  0.51100000000E-03 0. -1.
    9900012    2    1    2    0    0  0.13242392555E+02 -0.72489286311E+01 -0.11080203020E+02  0.72461579471E+02  0.70000011954E+02 0.  0.
        -12    1    1    2    0    0 -0.13242392555E+02  0.72489286311E+01  0.11080203020E+02  0.18726420529E+02  0.00000000000E+00 0.  1.
         11    1    3    3    0    0  0.15245778895E+02 -0.28170126057E+01 -0.38871678167E+01  0.15983723222E+02  0.51100000000E-03 0. -1.
        -11    1    3    3    0    0  0.14312182709E+02 -0.24807738172E+02  0.22278192108E+01  0.28726740606E+02  0.51100000000E-03 0.  1.
         12    1    3    3    0    0 -0.16315569049E+02  0.20375822147E+02 -0.94208544142E+01  0.27751115643E+02  0.00000000000E+00 0. -1.
</event>
<event>
 7    1  0.1788006E-013  0.7246175E+02  0.7816164E-02  0.1226708E+00
        -11   -1    0    0    0    0  0.00000000000E+00  0.00000000000E+00  0.45593999997E+02  0.45594000000E+02  0.51100000000E-03 0.  1.
         11   -1    0    0    0    0 -0.00000000000E+00 -0.00000000000E+00 -0.45593999997E+02  0.45594000000E+02  0.51100000000E-03 0. -1.
    9900012    2    1    2    0    0  0.18715326849E+02  0.54488558052E+00 -0.33479346730E+00  0.72461749814E+02  0.70000233858E+02 0.  0.
        -12    1    1    2    0    0 -0.18715326849E+02 -0.54488558052E+00  0.33479346730E+00  0.18726250186E+02  0.00000000000E+00 0.  1.
         11    1    3    3    0    0  0.24153725680E+02 -0.25882154076E+02 -0.76415293891E+01  0.36217141460E+02  0.51100000000E-03 0. -1.
        -11    1    3    3    0    0  0.69352724862E+01  0.75339281493E+00  0.19752148420E+01  0.72503157949E+01  0.51100000000E-03 0.  1.
        -12    1    3    3    0    0 -0.12373671318E+02  0.25673646841E+02  0.53315210797E+01  0.28994292560E+02  0.00000000000E+00 0.  1.
</event>
<event>
 7    1  0.1788006E-013  0.7246189E+02  0.7816164E-02  0.1226707E+00
        -11   -1    0    0    0    0  0.00000000000E+00  0.00000000000E+00  0.45593999997E+02  0.45594000000E+02  0.51100000000E-03 0.  1.
         11   -1    0    0    0    0 -0.00000000000E+00 -0.00000000000E+00 -0.45593999997E+02  0.45594000000E+02  0.51100000000E-03 0. -1.
    9900012    2    1    2    0    0  0.74561199576E+01  0.98675077637E+01 -0.14060793374E+02  0.72461886026E+02  0.70000411297E+02 0.  0.
        -12    1    1    2    0    0 -0.74561199576E+01 -0.98675077637E+01  0.14060793374E+02  0.18726113974E+02  0.00000000000E+00 0.  1.
         11    1    3    3    0    0  0.20501457391E+02 -0.69254388235E+01 -0.95803185877E+01  0.23665459272E+02  0.51100000000E-03 0. -1.
        -11    1    3    3    0    0  0.15922942192E+02  0.84831825044E+01  0.13832430699E+01  0.18094690799E+02  0.51100000000E-03 0.  1.
        -12    1    3    3    0    0 -0.28968279625E+02  0.83097640829E+01 -0.58637178558E+01  0.30701735955E+02  0.00000000000E+00 0.  1.
</event>
<event>
 7    1  0.1788006E-013  0.7246164E+02  0.7816164E-02  0.1226708E+00
        -11   -1    0    0    0    0  0.00000000000E+00  0.00000000000E+00  0.45593999997E+02  0.45594000000E+02  0.51100000000E-03 0.  1.
         11   -1    0    0    0    0 -0.00000000000E+00 -0.00000000000E+00 -0.45593999997E+02  0.45594000000E+02  0.51100000000E-03 0. -1.
    9900012    2    1    2    0    0 -0.23065597725E+01 -0.16851502237E+02 -0.78347330234E+01  0.72461644584E+02  0.70000096776E+02 0.  0.
        -12    1    1    2    0    0  0.23065597725E+01  0.16851502237E+02  0.78347330234E+01  0.18726355416E+02  0.00000000000E+00 0.  1.
         11    1    3    3    0    0 -0.13158924201E+02 -0.94654786506E+01 -0.25261109900E+02  0.30014600544E+02  0.51100000000E-03 0. -1.
        -11    1    3    3    0    0 -0.12349822939E+02  0.36056674377E+01  0.39922644952E+01  0.13470602821E+02  0.51100000000E-03 0.  1.
        -12    1    3    3    0    0  0.23202187368E+02 -0.10991691024E+02  0.13434112381E+02  0.28976441218E+02  0.00000000000E+00 0.  1.
</event>
<event>
 7    1  0.1788006E-013  0.7246160E+02  0.7816164E-02  0.1226708E+00
        -11   -1    0    0    0    0  0.00000000000E+00  0.00000000000E+00  0.45593999997E+02  0.45594000000E+02  0.51100000000E-03 0. -1.
         11   -1    0    0    0    0 -0.00000000000E+00 -0.00000000000E+00 -0.45593999997E+02  0.45594000000E+02  0.51100000000E-03 0.  1.
    9900012    2    1    2    0    0  0.39732773470E+01  0.17767485655E+01  0.18213577760E+02  0.72461596630E+02  0.70000034307E+02 0.  0.
        -12    1    1    2    0    0 -0.39732773470E+01 -0.17767485655E+01 -0.18213577760E+02  0.18726403370E+02  0.00000000000E+00 0.  1.
         11    1    3    3    0    0  0.93128641439E+01  0.21350185745E+01  0.21248186092E+02  0.23297492469E+02  0.51100000000E-03 0. -1.
        -11    1    3    3    0    0  0.53711357247E+01  0.15067843319E+02  0.15858518513E+02  0.22525132873E+02  0.51100000000E-03 0.  1.
        -12    1    3    3    0    0 -0.10710722522E+02 -0.15426113328E+02 -0.18893126845E+02  0.26638971289E+02  0.00000000000E+00 0.  1.
</event>
<event>
 7    1  0.1788006E-013  0.7246159E+02  0.7816164E-02  0.1226708E+00
        -11   -1    0    0    0    0  0.00000000000E+00  0.00000000000E+00  0.45593999997E+02  0.45594000000E+02  0.51100000000E-03 0. -1.
         11   -1    0    0    0    0 -0.00000000000E+00 -0.00000000000E+00 -0.45593999997E+02  0.45594000000E+02  0.51100000000E-03 0.  1.
    9900012    2    1    2    0    0 -0.68852645925E+01  0.11739346537E+02  0.12863103764E+02  0.72461586460E+02  0.70000021059E+02 0.  0.
        -12    1    1    2    0    0  0.68852645925E+01 -0.11739346537E+02 -0.12863103764E+02  0.18726413540E+02  0.00000000000E+00 0.  1.
         11    1    3    3    0    0 -0.28134392713E+02 -0.44586284512E+01  0.11785147602E+02  0.30827149159E+02  0.51100000000E-03 0.  1.
        -11    1    3    3    0    0 -0.15633746615E+01  0.46758481238E+01  0.12651957846E+02  0.13578649919E+02  0.51100000000E-03 0. -1.
         12    1    3    3    0    0  0.22812502782E+02  0.11522126865E+02 -0.11574001684E+02  0.28055787383E+02  0.00000000000E+00 0. -1.
</event>
<event>
 7    1  0.1788006E-013  0.7246164E+02  0.7816164E-02  0.1226708E+00
        -11   -1    0    0    0    0  0.00000000000E+00  0.00000000000E+00  0.45593999997E+02  0.45594000000E+02  0.51100000000E-03 0.  1.
         11   -1    0    0    0    0 -0.00000000000E+00 -0.00000000000E+00 -0.45593999997E+02  0.45594000000E+02  0.51100000000E-03 0. -1.
    9900012    2    1    2    0    0 -0.33216942663E+01 -0.72512308802E+01 -0.16942920350E+02  0.72461640181E+02  0.70000091041E+02 0.  0.
        -12    1    1    2    0    0  0.33216942663E+01  0.72512308802E+01  0.16942920350E+02  0.18726359819E+02  0.00000000000E+00 0.  1.
         11    1    3    3    0    0 -0.16367944153E+02 -0.81208566780E+01 -0.82492157756E+01  0.20047630039E+02  0.51100000000E-03 0. -1.
        -11    1    3    3    0    0 -0.10787713039E+02 -0.16059717560E+02  0.52183927091E+01  0.20037986512E+02  0.51100000000E-03 0.  1.
         12    1    3    3    0    0  0.23833962926E+02  0.16929343358E+02 -0.13912097283E+02  0.32376023631E+02  0.00000000000E+00 0. -1.
</event>
<event>
 7    1  0.1788006E-013  0.7246153E+02  0.7816164E-02  0.1226708E+00
        -11   -1    0    0    0    0  0.00000000000E+00  0.00000000000E+00  0.45593999997E+02  0.45594000000E+02  0.51100000000E-03 0.  1.
         11   -1    0    0    0    0 -0.00000000000E+00 -0.00000000000E+00 -0.45593999997E+02  0.45594000000E+02  0.51100000000E-03 0. -1.
    9900012    2    1    2    0    0 -0.42692352284E+01  0.33244871541E+01 -0.17927693108E+02  0.72461527710E+02  0.69999944525E+02 0.  0.
        -12    1    1    2    0    0  0.42692352284E+01 -0.33244871541E+01  0.17927693108E+02  0.18726472290E+02  0.00000000000E+00 0.  1.
         11    1    3    3    0    0 -0.18499877222E+02 -0.79805387723E+01 -0.44162323924E+01  0.20626137911E+02  0.51100000000E-03 0. -1.
        -11    1    3    3    0    0 -0.12129322723E+02 -0.88783528461E+01  0.20482640320E+01  0.15170398966E+02  0.51100000000E-03 0.  1.
         12    1    3    3    0    0  0.26359964717E+02  0.20183378773E+02 -0.15559724747E+02  0.36664990833E+02  0.00000000000E+00 0. -1.
</event>
<event>
 7    1  0.1788006E-013  0.7246156E+02  0.7816164E-02  0.1226708E+00
        -11   -1    0    0    0    0  0.00000000000E+00  0.00000000000E+00  0.45593999997E+02  0.45594000000E+02  0.51100000000E-03 0.  1.
         11   -1    0    0    0    0 -0.00000000000E+00 -0.00000000000E+00 -0.45593999997E+02  0.45594000000E+02  0.51100000000E-03 0. -1.
    9900012    2    1    2    0    0  0.46435567619E+01  0.74072752266E+00 -0.18126454650E+02  0.72461557336E+02  0.69999983119E+02 0.  0.
        -12    1    1    2    0    0 -0.46435567619E+01 -0.74072752266E+00  0.18126454650E+02  0.18726442664E+02  0.00000000000E+00 0.  1.
         11    1    3    3    0    0  0.24785398867E+01 -0.11403006254E+02 -0.15332785995E+02  0.19268265055E+02  0.51100000000E-03 0. -1.
        -11    1    3    3    0    0 -0.20623964507E+02  0.39451826872E+01  0.12607671000E+02  0.24492156841E+02  0.51100000000E-03 0.  1.
         12    1    3    3    0    0  0.22788981382E+02  0.81985510892E+01 -0.15401339655E+02  0.28701135440E+02  0.00000000000E+00 0. -1.
</event>
<event>
 7    1  0.1788006E-013  0.7246158E+02  0.7816164E-02  0.1226708E+00
        -11   -1    0    0    0    0  0.00000000000E+00  0.00000000000E+00  0.45593999997E+02  0.45594000000E+02  0.51100000000E-03 0. -1.
         11   -1    0    0    0    0 -0.00000000000E+00 -0.00000000000E+00 -0.45593999997E+02  0.45594000000E+02  0.51100000000E-03 0.  1.
    9900012    2    1    2    0    0 -0.10507035211E+02 -0.84514525456E+01 -0.12994379646E+02  0.72461581724E+02  0.70000014889E+02 0.  0.
        -12    1    1    2    0    0  0.10507035211E+02  0.84514525456E+01  0.12994379646E+02  0.18726418276E+02  0.00000000000E+00 0.  1.
         11    1    3    3    0    0 -0.37326809806E+02 -0.37863797006E+01  0.28219582398E+01  0.37624338533E+02  0.51100000000E-03 0. -1.
        -11    1    3    3    0    0  0.46259286830E+01 -0.17021101449E+01  0.28434495179E+01  0.56904833316E+01  0.51100000000E-03 0.  1.
        -12    1    3    3    0    0  0.22193845912E+02 -0.29629627002E+01 -0.18659787404E+02  0.29146759859E+02  0.00000000000E+00 0.  1.
</event>
<event>
 7    1  0.1788006E-013  0.7246158E+02  0.7816164E-02  0.1226708E+00
        -11   -1    0    0    0    0  0.00000000000E+00  0.00000000000E+00  0.45593999997E+02  0.45594000000E+02  0.51100000000E-03 0. -1.
         11   -1    0    0    0    0 -0.00000000000E+00 -0.00000000000E+00 -0.45593999997E+02  0.45594000000E+02  0.51100000000E-03 0.  1.
    9900012    2    1    2    0    0 -0.15051024451E+02  0.10221097389E+02  0.44355912336E+01  0.72461584474E+02  0.70000018472E+02 0.  0.
        -12    1    1    2    0    0  0.15051024451E+02 -0.10221097389E+02 -0.44355912336E+01  0.18726415526E+02  0.00000000000E+00 0.  1.
         11    1    3    3    0    0  0.19285477765E+00 -0.68131593683E+01 -0.20936245693E+02  0.22017781848E+02  0.51100000000E-03 0.  1.
        -11    1    3    3    0    0  0.77549086133E+01  0.17190353811E+02  0.18553162849E+02  0.26454994306E+02  0.51100000000E-03 0. -1.
         12    1    3    3    0    0 -0.22998787842E+02 -0.15609705331E+00  0.68186740772E+01  0.23988808321E+02  0.00000000000E+00 0. -1.
</event>
<event>
 7    1  0.1788006E-013  0.7246156E+02  0.7816164E-02  0.1226708E+00
        -11   -1    0    0    0    0  0.00000000000E+00  0.00000000000E+00  0.45593999997E+02  0.45594000000E+02  0.51100000000E-03 0. -1.
         11   -1    0    0    0    0 -0.00000000000E+00 -0.00000000000E+00 -0.45593999997E+02  0.45594000000E+02  0.51100000000E-03 0.  1.
    9900012    2    1    2    0    0 -0.16974426827E+02  0.79005570919E+01 -0.35979862261E+00  0.72461563512E+02  0.69999991165E+02 0.  0.
        -12    1    1    2    0    0  0.16974426827E+02 -0.79005570919E+01  0.35979862261E+00  0.18726436488E+02  0.00000000000E+00 0.  1.
         11    1    3    3    0    0 -0.17740560413E+02 -0.12916580906E+01 -0.21274878163E+02  0.27731143242E+02  0.51100000000E-03 0. -1.
        -11    1    3    3    0    0 -0.12763060198E+02  0.14949665283E+02  0.61690450944E+00  0.19666437632E+02  0.51100000000E-03 0.  1.
         12    1    3    3    0    0  0.13529193783E+02 -0.57574501007E+01  0.20298175031E+02  0.25063982638E+02  0.00000000000E+00 0. -1.
</event>
<event>
 7    1  0.1788006E-013  0.7246157E+02  0.7816164E-02  0.1226708E+00
        -11   -1    0    0    0    0  0.00000000000E+00  0.00000000000E+00  0.45593999997E+02  0.45594000000E+02  0.51100000000E-03 0. -1.
         11   -1    0    0    0    0 -0.00000000000E+00 -0.00000000000E+00 -0.45593999997E+02  0.45594000000E+02  0.51100000000E-03 0.  1.
    9900012    2    1    2    0    0 -0.17254673668E+02 -0.65830950327E+01  0.31013588506E+01  0.72461566001E+02  0.69999994407E+02 0.  0.
        -12    1    1    2    0    0  0.17254673668E+02  0.65830950327E+01 -0.31013588506E+01  0.18726433999E+02  0.00000000000E+00 0.  1.
         11    1    3    3    0    0 -0.17263485330E+01 -0.40691373391E+01  0.84768193405E+01  0.95600535739E+01  0.51100000000E-03 0. -1.
        -11    1    3    3    0    0 -0.26474392676E+02  0.79090038477E+01 -0.25590529198E+02  0.37660602682E+02  0.51100000000E-03 0.  1.
         12    1    3    3    0    0  0.10946067541E+02 -0.10422961541E+02  0.20215068708E+02  0.25240909745E+02  0.00000000000E+00 0. -1.
</event>
<event>
 7    1  0.1788006E-013  0.7246166E+02  0.7816164E-02  0.1226708E+00
        -11   -1    0    0    0    0  0.00000000000E+00  0.00000000000E+00  0.45593999997E+02  0.45594000000E+02  0.51100000000E-03 0. -1.
         11   -1    0    0    0    0 -0.00000000000E+00 -0.00000000000E+00 -0.45593999997E+02  0.45594000000E+02  0.51100000000E-03 0.  1.
    9900012    2    1    2    0    0  0.10035050455E+02  0.44545988782E+01  0.15170037660E+02  0.72461662093E+02  0.70000119585E+02 0.  0.
        -12    1    1    2    0    0 -0.10035050455E+02 -0.44545988782E+01 -0.15170037660E+02  0.18726337907E+02  0.00000000000E+00 0.  1.
         11    1    3    3    0    0 -0.50305216195E+01 -0.46924103521E+01 -0.10597210937E+01  0.69604505411E+01  0.51100000000E-03 0. -1.
        -11    1    3    3    0    0  0.23634478106E+01 -0.21481850915E+02 -0.94247805307E+01  0.23577156160E+02  0.51100000000E-03 0.  1.
         12    1    3    3    0    0  0.12702124264E+02  0.30628860145E+02  0.25654539285E+02  0.41924055392E+02  0.00000000000E+00 0. -1.
</event>
<event>
 7    1  0.1788006E-013  0.7246156E+02  0.7816164E-02  0.1226708E+00
        -11   -1    0    0    0    0  0.00000000000E+00  0.00000000000E+00  0.45593999997E+02  0.45594000000E+02  0.51100000000E-03 0.  1.
         11   -1    0    0    0    0 -0.00000000000E+00 -0.00000000000E+00 -0.45593999997E+02  0.45594000000E+02  0.51100000000E-03 0. -1.
    9900012    2    1    2    0    0  0.19329932451E+01 -0.13378742605E+02 -0.12959637330E+02  0.72461563705E+02  0.69999991416E+02 0.  0.
        -12    1    1    2    0    0 -0.19329932451E+01  0.13378742605E+02  0.12959637330E+02  0.18726436295E+02  0.00000000000E+00 0.  1.
         11    1    3    3    0    0 -0.91568584174E+01 -0.16155372962E+02 -0.13568258286E+02  0.22998733982E+02  0.51100000000E-03 0. -1.
        -11    1    3    3    0    0 -0.15971654052E+02  0.73607947714E+00 -0.11551253973E+02  0.19724781742E+02  0.51100000000E-03 0.  1.
         12    1    3    3    0    0  0.27061505714E+02  0.20405508790E+01  0.12159874929E+02  0.29738047981E+02  0.00000000000E+00 0. -1.
</event>
<event>
 7    1  0.1788006E-013  0.7246165E+02  0.7816164E-02  0.1226708E+00
        -11   -1    0    0    0    0  0.00000000000E+00  0.00000000000E+00  0.45593999997E+02  0.45594000000E+02  0.51100000000E-03 0. -1.
         11   -1    0    0    0    0 -0.00000000000E+00 -0.00000000000E+00 -0.45593999997E+02  0.45594000000E+02  0.51100000000E-03 0.  1.
    9900012    2    1    2    0    0  0.18099603924E+02  0.89889843133E+00  0.47193927580E+01  0.72461645614E+02  0.70000098117E+02 0.  0.
        -12    1    1    2    0    0 -0.18099603924E+02 -0.89889843133E+00 -0.47193927580E+01  0.18726354386E+02  0.00000000000E+00 0.  1.
         11    1    3    3    0    0  0.21359282334E+02 -0.12691053314E+02  0.17585807726E+02  0.30439159148E+02  0.51100000000E-03 0. -1.
        -11    1    3    3    0    0  0.10191213757E+02  0.22153028274E+01  0.91167028110E+01  0.13852172207E+02  0.51100000000E-03 0.  1.
        -12    1    3    3    0    0 -0.13450892167E+02  0.11374648917E+02 -0.21983117779E+02  0.28170314258E+02  0.00000000000E+00 0.  1.
</event>
<event>
 7    1  0.1788006E-013  0.7246148E+02  0.7816164E-02  0.1226708E+00
        -11   -1    0    0    0    0  0.00000000000E+00  0.00000000000E+00  0.45593999997E+02  0.45594000000E+02  0.51100000000E-03 0.  1.
         11   -1    0    0    0    0 -0.00000000000E+00 -0.00000000000E+00 -0.45593999997E+02  0.45594000000E+02  0.51100000000E-03 0. -1.
    9900012    2    1    2    0    0 -0.28788350157E+01  0.15439708832E+02 -0.10198534742E+02  0.72461483753E+02  0.69999887263E+02 0.  0.
        -12    1    1    2    0    0  0.28788350157E+01 -0.15439708832E+02  0.10198534742E+02  0.18726516247E+02  0.00000000000E+00 0.  1.
         11    1    3    3    0    0  0.33413980936E+00  0.49670926837E+01 -0.19833240689E+02  0.20448498615E+02  0.51100000000E-03 0. -1.
        -11    1    3    3    0    0 -0.18660954199E+02 -0.76434708616E+01 -0.87007914569E+01  0.21962641706E+02  0.51100000000E-03 0.  1.
        -12    1    3    3    0    0  0.15447979374E+02  0.18116087010E+02  0.18335497404E+02  0.30050343432E+02  0.00000000000E+00 0.  1.
</event>
<event>
 7    1  0.1788006E-013  0.7246168E+02  0.7816164E-02  0.1226708E+00
        -11   -1    0    0    0    0  0.00000000000E+00  0.00000000000E+00  0.45593999997E+02  0.45594000000E+02  0.51100000000E-03 0. -1.
         11   -1    0    0    0    0 -0.00000000000E+00 -0.00000000000E+00 -0.45593999997E+02  0.45594000000E+02  0.51100000000E-03 0.  1.
    9900012    2    1    2    0    0 -0.18447422609E+02  0.13136906936E+01  0.29397006067E+01  0.72461680986E+02  0.70000144196E+02 0.  0.
        -12    1    1    2    0    0  0.18447422609E+02 -0.13136906936E+01 -0.29397006067E+01  0.18726319014E+02  0.00000000000E+00 0.  1.
         11    1    3    3    0    0 -0.99102237310E+01 -0.16473036488E+02  0.25746603466E+02  0.32131932027E+02  0.51100000000E-03 0. -1.
        -11    1    3    3    0    0  0.51243374212E+01 -0.44098889794E+01 -0.75258570026E+01  0.10116544801E+02  0.51100000000E-03 0.  1.
        -12    1    3    3    0    0 -0.13661536299E+02  0.22196616161E+02 -0.15281045857E+02  0.30213204158E+02  0.00000000000E+00 0.  1.
</event>
<event>
 7    1  0.1788006E-013  0.7246168E+02  0.7816164E-02  0.1226708E+00
        -11   -1    0    0    0    0  0.00000000000E+00  0.00000000000E+00  0.45593999997E+02  0.45594000000E+02  0.51100000000E-03 0.  1.
         11   -1    0    0    0    0 -0.00000000000E+00 -0.00000000000E+00 -0.45593999997E+02  0.45594000000E+02  0.51100000000E-03 0. -1.
    9900012    2    1    2    0    0  0.55677774523E+01  0.13192081312E+02 -0.12068295899E+02  0.72461683731E+02  0.70000147772E+02 0.  0.
        -12    1    1    2    0    0 -0.55677774523E+01 -0.13192081312E+02  0.12068295899E+02  0.18726316269E+02  0.00000000000E+00 0.  1.
         11    1    3    3    0    0  0.83453968643E+01 -0.76423417824E+01 -0.14191610347E+02  0.18150835828E+02  0.51100000000E-03 0. -1.
        -11    1    3    3    0    0  0.45277643107E+01 -0.11674583713E+02  0.14142744126E+02  0.18889514716E+02  0.51100000000E-03 0.  1.
        -12    1    3    3    0    0 -0.73053837226E+01  0.32509006807E+02 -0.12019429679E+02  0.35421333187E+02  0.00000000000E+00 0.  1.
</event>
<event>
 7    1  0.1788006E-013  0.7246158E+02  0.7816164E-02  0.1226708E+00
        -11   -1    0    0    0    0  0.00000000000E+00  0.00000000000E+00  0.45593999997E+02  0.45594000000E+02  0.51100000000E-03 0. -1.
         11   -1    0    0    0    0 -0.00000000000E+00 -0.00000000000E+00 -0.45593999997E+02  0.45594000000E+02  0.51100000000E-03 0.  1.
    9900012    2    1    2    0    0 -0.82377061447E+01 -0.85279023320E+01  0.14494616620E+02  0.72461579315E+02  0.70000011751E+02 0.  0.
        -12    1    1    2    0    0  0.82377061447E+01  0.85279023320E+01 -0.14494616620E+02  0.18726420685E+02  0.00000000000E+00 0.  1.
         11    1    3    3    0    0 -0.11591067743E+02 -0.17359633885E+02  0.34392010703E+01  0.21155090269E+02  0.51100000000E-03 0.  1.
        -11    1    3    3    0    0  0.15477557517E+02  0.24305096563E+02  0.12643583406E+00  0.28815074039E+02  0.51100000000E-03 0. -1.
         12    1    3    3    0    0 -0.12124195919E+02 -0.15473365010E+02  0.10928979715E+02  0.22491415007E+02  0.00000000000E+00 0. -1.
</event>
<event>
 7    1  0.1788006E-013  0.7246161E+02  0.7816164E-02  0.1226708E+00
        -11   -1    0    0    0    0  0.00000000000E+00  0.00000000000E+00  0.45593999997E+02  0.45594000000E+02  0.51100000000E-03 0. -1.
         11   -1    0    0    0    0 -0.00000000000E+00 -0.00000000000E+00 -0.45593999997E+02  0.45594000000E+02  0.51100000000E-03 0.  1.
    9900012    2    1    2    0    0  0.46940945262E+01  0.61220972294E+01  0.17063502576E+02  0.72461609049E+02  0.70000050485E+02 0.  0.
        -12    1    1    2    0    0 -0.46940945262E+01 -0.61220972294E+01 -0.17063502576E+02  0.18726390951E+02  0.00000000000E+00 0.  1.
         11    1    3    3    0    0  0.12911795478E+02  0.19165186342E+01  0.21139141057E+02  0.24844532418E+02  0.51100000000E-03 0. -1.
        -11    1    3    3    0    0 -0.11836962780E+02  0.23814450882E+02  0.22723529884E+01  0.26690922559E+02  0.51100000000E-03 0.  1.
        -12    1    3    3    0    0  0.36192618279E+01 -0.19608872287E+02 -0.63479914700E+01  0.20926154072E+02  0.00000000000E+00 0.  1.
</event>
<event>
 7    1  0.1788006E-013  0.7246164E+02  0.7816164E-02  0.1226708E+00
        -11   -1    0    0    0    0  0.00000000000E+00  0.00000000000E+00  0.45593999997E+02  0.45594000000E+02  0.51100000000E-03 0.  1.
         11   -1    0    0    0    0 -0.00000000000E+00 -0.00000000000E+00 -0.45593999997E+02  0.45594000000E+02  0.51100000000E-03 0. -1.
    9900012    2    1    2    0    0 -0.16963509941E+02  0.77211054280E+00 -0.78942852161E+01  0.72461639882E+02  0.70000090651E+02 0.  0.
        -12    1    1    2    0    0  0.16963509941E+02 -0.77211054280E+00  0.78942852161E+01  0.18726360118E+02  0.00000000000E+00 0.  1.
         11    1    3    3    0    0  0.70400397150E+01  0.95916010229E+01 -0.27294714666E+01  0.12207005535E+02  0.51100000000E-03 0. -1.
        -11    1    3    3    0    0 -0.17577237354E+01 -0.11728843021E+02 -0.26663149061E+02  0.29181824300E+02  0.51100000000E-03 0.  1.
        -12    1    3    3    0    0 -0.22245825920E+02  0.29093525407E+01  0.21498335312E+02  0.31072810048E+02  0.00000000000E+00 0.  1.
</event>
<event>
 7    1  0.1788006E-013  0.7246157E+02  0.7816164E-02  0.1226708E+00
        -11   -1    0    0    0    0  0.00000000000E+00  0.00000000000E+00  0.45593999997E+02  0.45594000000E+02  0.51100000000E-03 0.  1.
         11   -1    0    0    0    0 -0.00000000000E+00 -0.00000000000E+00 -0.45593999997E+02  0.45594000000E+02  0.51100000000E-03 0. -1.
    9900012    2    1    2    0    0 -0.57953877068E+00  0.18692881778E+02 -0.95882948328E+00  0.72461573530E+02  0.70000004215E+02 0.  0.
        -12    1    1    2    0    0  0.57953877068E+00 -0.18692881778E+02  0.95882948328E+00  0.18726426470E+02  0.00000000000E+00 0.  1.
         11    1    3    3    0    0  0.83344842098E+01  0.15434915345E+02 -0.22671306875E+02  0.28665107613E+02  0.51100000000E-03 0. -1.
        -11    1    3    3    0    0  0.93254846360E+01  0.47797905526E+01 -0.48433446691E+01  0.11544221466E+02  0.51100000000E-03 0.  1.
        -12    1    3    3    0    0 -0.18239507616E+02 -0.15218241199E+01  0.26555822061E+02  0.32252244450E+02  0.00000000000E+00 0.  1.
</event>
<event>
 7    1  0.1788006E-013  0.7246155E+02  0.7816164E-02  0.1226708E+00
        -11   -1    0    0    0    0  0.00000000000E+00  0.00000000000E+00  0.45593999997E+02  0.45594000000E+02  0.51100000000E-03 0.  1.
         11   -1    0    0    0    0 -0.00000000000E+00 -0.00000000000E+00 -0.45593999997E+02  0.45594000000E+02  0.51100000000E-03 0. -1.
    9900012    2    1    2    0    0  0.13160376836E+02  0.56456547100E+01 -0.12066932625E+02  0.72461553499E+02  0.69999978121E+02 0.  0.
        -12    1    1    2    0    0 -0.13160376836E+02 -0.56456547100E+01  0.12066932625E+02  0.18726446501E+02  0.00000000000E+00 0.  1.
         11    1    3    3    0    0  0.57362046882E+01 -0.13839211111E+02 -0.32471466465E+02  0.35760647968E+02  0.51100000000E-03 0. -1.
        -11    1    3    3    0    0 -0.55873859996E+01 -0.55869839243E+00  0.56787529459E+00  0.56438912830E+01  0.51100000000E-03 0.  1.
        -12    1    3    3    0    0  0.13011558147E+02  0.20043564213E+02  0.19836658546E+02  0.31057014249E+02  0.00000000000E+00 0.  1.
</event>
<event>
 7    1  0.1788006E-013  0.7246159E+02  0.7816164E-02  0.1226708E+00
        -11   -1    0    0    0    0  0.00000000000E+00  0.00000000000E+00  0.45593999997E+02  0.45594000000E+02  0.51100000000E-03 0.  1.
         11   -1    0    0    0    0 -0.00000000000E+00 -0.00000000000E+00 -0.45593999997E+02  0.45594000000E+02  0.51100000000E-03 0. -1.
    9900012    2    1    2    0    0 -0.93926239113E+01 -0.15293568982E+02  0.53445003747E+01  0.72461592966E+02  0.70000029534E+02 0.  0.
        -12    1    1    2    0    0  0.93926239113E+01  0.15293568982E+02 -0.53445003747E+01  0.18726407034E+02  0.00000000000E+00 0.  1.
         11    1    3    3    0    0 -0.77542905625E+01 -0.28135567333E+02  0.24749159010E+02  0.38265650958E+02  0.51100000000E-03 0. -1.
        -11    1    3    3    0    0  0.37792632105E+01  0.12499670481E+01  0.51490003857E+01  0.65082603872E+01  0.51100000000E-03 0.  1.
         12    1    3    3    0    0 -0.54175965593E+01  0.11592031303E+02 -0.24553659021E+02  0.27687681620E+02  0.00000000000E+00 0. -1.
</event>
<event>
 7    1  0.1788006E-013  0.7246145E+02  0.7816164E-02  0.1226708E+00
        -11   -1    0    0    0    0  0.00000000000E+00  0.00000000000E+00  0.45593999997E+02  0.45594000000E+02  0.51100000000E-03 0.  1.
         11   -1    0    0    0    0 -0.00000000000E+00 -0.00000000000E+00 -0.45593999997E+02  0.45594000000E+02  0.51100000000E-03 0. -1.
    9900012    2    1    2    0    0 -0.16368193745E+02 -0.13907919674E+01 -0.89906393519E+01  0.72461450271E+02  0.69999843648E+02 0.  0.
        -12    1    1    2    0    0  0.16368193745E+02  0.13907919674E+01  0.89906393519E+01  0.18726549729E+02  0.00000000000E+00 0.  1.
         11    1    3    3    0    0 -0.17233119095E+01  0.82414174699E+01  0.10543347831E+02  0.13492699864E+02  0.51100000000E-03 0.  1.
        -11    1    3    3    0    0  0.86681038428E+01  0.30846409816E+01 -0.29271876490E+02  0.30683770755E+02  0.51100000000E-03 0. -1.
         12    1    3    3    0    0 -0.23312985679E+02 -0.12716850419E+02  0.97378893068E+01  0.28284979653E+02  0.00000000000E+00 0. -1.
</event>
<event>
 7    1  0.1788006E-013  0.7246162E+02  0.7816164E-02  0.1226708E+00
        -11   -1    0    0    0    0  0.00000000000E+00  0.00000000000E+00  0.45593999997E+02  0.45594000000E+02  0.51100000000E-03 0.  1.
         11   -1    0    0    0    0 -0.00000000000E+00 -0.00000000000E+00 -0.45593999997E+02  0.45594000000E+02  0.51100000000E-03 0. -1.
    9900012    2    1    2    0    0  0.33382432964E+01 -0.17777107712E+02  0.48484943956E+01  0.72461619549E+02  0.70000064163E+02 0.  0.
        -12    1    1    2    0    0 -0.33382432964E+01  0.17777107712E+02 -0.48484943956E+01  0.18726380451E+02  0.00000000000E+00 0.  1.
         11    1    3    3    0    0 -0.85760246157E+01 -0.39710922676E+02 -0.13786425970E-01  0.40626417124E+02  0.51100000000E-03 0. -1.
        -11    1    3    3    0    0  0.11369540765E+01 -0.31052909220E+01  0.30766675206E+01  0.45167886352E+01  0.51100000000E-03 0.  1.
        -12    1    3    3    0    0  0.10777313836E+02  0.25039105887E+02  0.17856133010E+01  0.27318413790E+02  0.00000000000E+00 0.  1.
</event>
<event>
 7    1  0.1788006E-013  0.7246151E+02  0.7816164E-02  0.1226708E+00
        -11   -1    0    0    0    0  0.00000000000E+00  0.00000000000E+00  0.45593999997E+02  0.45594000000E+02  0.51100000000E-03 0. -1.
         11   -1    0    0    0    0 -0.00000000000E+00 -0.00000000000E+00 -0.45593999997E+02  0.45594000000E+02  0.51100000000E-03 0.  1.
    9900012    2    1    2    0    0 -0.11143048722E+02  0.15013110388E+02  0.10585102634E+01  0.72461509076E+02  0.69999920252E+02 0.  0.
        -12    1    1    2    0    0  0.11143048722E+02 -0.15013110388E+02 -0.10585102634E+01  0.18726490924E+02  0.00000000000E+00 0.  1.
         11    1    3    3    0    0  0.19417131043E+02 -0.13184717655E+02 -0.16817524105E+01  0.23530619393E+02  0.51100000000E-03 0. -1.
        -11    1    3    3    0    0  0.21336406688E+01 -0.22758364805E+00 -0.45201884738E+01  0.50036307738E+01  0.51100000000E-03 0.  1.
         12    1    3    3    0    0 -0.32693820434E+02  0.28425411692E+02  0.72604511478E+01  0.43927258909E+02  0.00000000000E+00 0. -1.
</event>
<event>
 7    1  0.1788006E-013  0.7246168E+02  0.7816164E-02  0.1226708E+00
        -11   -1    0    0    0    0  0.00000000000E+00  0.00000000000E+00  0.45593999997E+02  0.45594000000E+02  0.51100000000E-03 0.  1.
         11   -1    0    0    0    0 -0.00000000000E+00 -0.00000000000E+00 -0.45593999997E+02  0.45594000000E+02  0.51100000000E-03 0. -1.
    9900012    2    1    2    0    0 -0.11758120715E+02 -0.11400574281E+02  0.90801180549E+01  0.72461680538E+02  0.70000143613E+02 0.  0.
        -12    1    1    2    0    0  0.11758120715E+02  0.11400574281E+02 -0.90801180549E+01  0.18726319462E+02  0.00000000000E+00 0.  1.
         11    1    3    3    0    0 -0.20107303217E+02 -0.67649066525E+01  0.30430532091E+01  0.21431933599E+02  0.51100000000E-03 0. -1.
        -11    1    3    3    0    0 -0.58824273503E+00 -0.22006314267E+02  0.17726889088E+02  0.28264226403E+02  0.51100000000E-03 0.  1.
         12    1    3    3    0    0  0.89374252369E+01  0.17370646638E+02 -0.11689824242E+02  0.22765520537E+02  0.00000000000E+00 0. -1.
</event>
<event>
 7    1  0.1788006E-013  0.7246155E+02  0.7816164E-02  0.1226708E+00
        -11   -1    0    0    0    0  0.00000000000E+00  0.00000000000E+00  0.45593999997E+02  0.45594000000E+02  0.51100000000E-03 0.  1.
         11   -1    0    0    0    0 -0.00000000000E+00 -0.00000000000E+00 -0.45593999997E+02  0.45594000000E+02  0.51100000000E-03 0. -1.
    9900012    2    1    2    0    0 -0.37513081690E+01 -0.17054244363E+02 -0.67646347593E+01  0.72461552200E+02  0.69999976429E+02 0.  0.
        -12    1    1    2    0    0  0.37513081690E+01  0.17054244363E+02  0.67646347593E+01  0.18726447800E+02  0.00000000000E+00 0.  1.
         11    1    3    3    0    0 -0.27918782048E+02 -0.20653449644E+02 -0.15809076003E+02  0.38156916248E+02  0.51100000000E-03 0. -1.
        -11    1    3    3    0    0  0.12165973574E+01  0.11681789428E+01 -0.63447706968E+01  0.65651250277E+01  0.51100000000E-03 0.  1.
        -12    1    3    3    0    0  0.22950876521E+02  0.24310263388E+01  0.15389211941E+02  0.27739510924E+02  0.00000000000E+00 0.  1.
</event>
<event>
 7    1  0.1788006E-013  0.7246161E+02  0.7816164E-02  0.1226708E+00
        -11   -1    0    0    0    0  0.00000000000E+00  0.00000000000E+00  0.45593999997E+02  0.45594000000E+02  0.51100000000E-03 0.  1.
         11   -1    0    0    0    0 -0.00000000000E+00 -0.00000000000E+00 -0.45593999997E+02  0.45594000000E+02  0.51100000000E-03 0. -1.
    9900012    2    1    2    0    0 -0.17401508110E+02 -0.69003587000E+01 -0.50031802304E+00  0.72461608120E+02  0.70000049275E+02 0.  0.
        -12    1    1    2    0    0  0.17401508110E+02  0.69003587000E+01  0.50031802304E+00  0.18726391880E+02  0.00000000000E+00 0.  1.
         11    1    3    3    0    0 -0.10621824234E+02  0.15001739644E+02  0.77693828566E+01  0.19955917735E+02  0.51100000000E-03 0. -1.
        -11    1    3    3    0    0  0.41695643937E+01  0.12616559341E+02 -0.93967457740E+01  0.16274571215E+02  0.51100000000E-03 0.  1.
        -12    1    3    3    0    0 -0.10949248270E+02 -0.34518657686E+02  0.11270448944E+01  0.36231119170E+02  0.00000000000E+00 0.  1.
</event>
<event>
 7    1  0.1788006E-013  0.7246154E+02  0.7816164E-02  0.1226708E+00
        -11   -1    0    0    0    0  0.00000000000E+00  0.00000000000E+00  0.45593999997E+02  0.45594000000E+02  0.51100000000E-03 0.  1.
         11   -1    0    0    0    0 -0.00000000000E+00 -0.00000000000E+00 -0.45593999997E+02  0.45594000000E+02  0.51100000000E-03 0. -1.
    9900012    2    1    2    0    0  0.11922359975E+02  0.50911725613E+01 -0.13513608830E+02  0.72461539335E+02  0.69999959670E+02 0.  0.
        -12    1    1    2    0    0 -0.11922359975E+02 -0.50911725613E+01  0.13513608830E+02  0.18726460665E+02  0.00000000000E+00 0.  1.
         11    1    3    3    0    0 -0.73772121483E+01  0.23731705438E+02 -0.82358743332E+01  0.26181037573E+02  0.51100000000E-03 0.  1.
        -11    1    3    3    0    0 -0.20137114052E+01  0.55783372877E+01 -0.11945839309E+02  0.13337014567E+02  0.51100000000E-03 0. -1.
         12    1    3    3    0    0  0.21313283528E+02 -0.24218870165E+02  0.66681048119E+01  0.32943487195E+02  0.00000000000E+00 0. -1.
</event>
<event>
 7    1  0.1788006E-013  0.7246157E+02  0.7816164E-02  0.1226708E+00
        -11   -1    0    0    0    0  0.00000000000E+00  0.00000000000E+00  0.45593999997E+02  0.45594000000E+02  0.51100000000E-03 0.  1.
         11   -1    0    0    0    0 -0.00000000000E+00 -0.00000000000E+00 -0.45593999997E+02  0.45594000000E+02  0.51100000000E-03 0. -1.
    9900012    2    1    2    0    0  0.63919552951E+01  0.33148326184E+01 -0.17286819723E+02  0.72461565638E+02  0.69999993934E+02 0.  0.
        -12    1    1    2    0    0 -0.63919552951E+01 -0.33148326184E+01  0.17286819723E+02  0.18726434362E+02  0.00000000000E+00 0.  1.
         11    1    3    3    0    0  0.15094312149E+02  0.87209475144E+01 -0.27098435012E+02  0.32221396077E+02  0.51100000000E-03 0. -1.
        -11    1    3    3    0    0  0.11903249108E+02 -0.69309132350E+01 -0.51763398715E+01  0.14714597933E+02  0.51100000000E-03 0.  1.
        -12    1    3    3    0    0 -0.20605605962E+02  0.15247983390E+01  0.14987955160E+02  0.25525571628E+02  0.00000000000E+00 0.  1.
</event>
<event>
 7    1  0.1788006E-013  0.7246155E+02  0.7816164E-02  0.1226708E+00
        -11   -1    0    0    0    0  0.00000000000E+00  0.00000000000E+00  0.45593999997E+02  0.45594000000E+02  0.51100000000E-03 0.  1.
         11   -1    0    0    0    0 -0.00000000000E+00 -0.00000000000E+00 -0.45593999997E+02  0.45594000000E+02  0.51100000000E-03 0. -1.
    9900012    2    1    2    0    0 -0.25767813046E+01  0.18293635898E+02  0.30631715161E+01  0.72461549829E+02  0.69999973340E+02 0.  0.
        -12    1    1    2    0    0  0.25767813046E+01 -0.18293635898E+02 -0.30631715161E+01  0.18726450171E+02  0.00000000000E+00 0.  1.
         11    1    3    3    0    0 -0.21098511574E+02 -0.42238822710E+01 -0.14425582343E+02  0.25905323744E+02  0.51100000000E-03 0. -1.
        -11    1    3    3    0    0 -0.82989258459E+01  0.40681749984E+01 -0.69497966343E+00  0.92685066223E+01  0.51100000000E-03 0.  1.
        -12    1    3    3    0    0  0.26820656115E+02  0.18449343171E+02  0.18183733522E+02  0.37287719463E+02  0.00000000000E+00 0.  1.
</event>
<event>
 7    1  0.1788006E-013  0.7246154E+02  0.7816164E-02  0.1226708E+00
        -11   -1    0    0    0    0  0.00000000000E+00  0.00000000000E+00  0.45593999997E+02  0.45594000000E+02  0.51100000000E-03 0. -1.
         11   -1    0    0    0    0 -0.00000000000E+00 -0.00000000000E+00 -0.45593999997E+02  0.45594000000E+02  0.51100000000E-03 0.  1.
    9900012    2    1    2    0    0  0.78324776480E+01  0.10446387814E+02  0.13424064865E+02  0.72461541660E+02  0.69999962699E+02 0.  0.
        -12    1    1    2    0    0 -0.78324776480E+01 -0.10446387814E+02 -0.13424064865E+02  0.18726458340E+02  0.00000000000E+00 0.  1.
         11    1    3    3    0    0 -0.13876157923E+02  0.18645895442E+02  0.14062551353E+02  0.27165649751E+02  0.51100000000E-03 0. -1.
        -11    1    3    3    0    0  0.60651819218E+01 -0.13444445779E+02  0.16071027819E+02  0.21813241150E+02  0.51100000000E-03 0.  1.
         12    1    3    3    0    0  0.15643453650E+02  0.52449381503E+01 -0.16709514308E+02  0.23482650759E+02  0.00000000000E+00 0. -1.
</event>
<event>
 7    1  0.1788006E-013  0.7246139E+02  0.7816164E-02  0.1226708E+00
        -11   -1    0    0    0    0  0.00000000000E+00  0.00000000000E+00  0.45593999997E+02  0.45594000000E+02  0.51100000000E-03 0. -1.
         11   -1    0    0    0    0 -0.00000000000E+00 -0.00000000000E+00 -0.45593999997E+02  0.45594000000E+02  0.51100000000E-03 0.  1.
    9900012    2    1    2    0    0 -0.18288131659E+02 -0.39510258890E+01 -0.78706068537E+00  0.72461392467E+02  0.69999768347E+02 0.  0.
        -12    1    1    2    0    0  0.18288131659E+02  0.39510258890E+01  0.78706068537E+00  0.18726607533E+02  0.00000000000E+00 0.  1.
         11    1    3    3    0    0 -0.36345445068E+02 -0.26695224632E+01  0.10857280833E+02  0.38026283999E+02  0.51100000000E-03 0. -1.
        -11    1    3    3    0    0  0.61469415441E+01  0.72928231628E+01 -0.16430910415E+02  0.18998551980E+02  0.51100000000E-03 0.  1.
        -12    1    3    3    0    0  0.11910371865E+02 -0.85743265885E+01  0.47865688969E+01  0.15436556488E+02  0.00000000000E+00 0.  1.
</event>
<event>
 7    1  0.1788006E-013  0.7246161E+02  0.7816164E-02  0.1226708E+00
        -11   -1    0    0    0    0  0.00000000000E+00  0.00000000000E+00  0.45593999997E+02  0.45594000000E+02  0.51100000000E-03 0. -1.
         11   -1    0    0    0    0 -0.00000000000E+00 -0.00000000000E+00 -0.45593999997E+02  0.45594000000E+02  0.51100000000E-03 0.  1.
    9900012    2    1    2    0    0 -0.82213027325E+01 -0.84837861870E+01  0.14529738962E+02  0.72461607903E+02  0.70000048992E+02 0.  0.
        -12    1    1    2    0    0  0.82213027325E+01  0.84837861870E+01 -0.14529738962E+02  0.18726392097E+02  0.00000000000E+00 0.  1.
         11    1    3    3    0    0 -0.17835301519E+02 -0.95835328372E+01  0.37022301167E+02  0.42197071769E+02  0.51100000000E-03 0. -1.
        -11    1    3    3    0    0 -0.36710855477E+01  0.29302134228E+01 -0.13032295899E+02  0.13852933136E+02  0.51100000000E-03 0.  1.
        -12    1    3    3    0    0  0.13285084334E+02 -0.18304667726E+01 -0.94602663068E+01  0.16411602998E+02  0.00000000000E+00 0.  1.
</event>
<event>
 7    1  0.1788006E-013  0.7246126E+02  0.7816164E-02  0.1226709E+00
        -11   -1    0    0    0    0  0.00000000000E+00  0.00000000000E+00  0.45593999997E+02  0.45594000000E+02  0.51100000000E-03 0. -1.
         11   -1    0    0    0    0 -0.00000000000E+00 -0.00000000000E+00 -0.45593999997E+02  0.45594000000E+02  0.51100000000E-03 0.  1.
    9900012    2    1    2    0    0 -0.16951702384E+02 -0.53263550797E+00  0.79402008803E+01  0.72461262315E+02  0.69999598798E+02 0.  0.
        -12    1    1    2    0    0  0.16951702384E+02  0.53263550797E+00 -0.79402008803E+01  0.18726737685E+02  0.00000000000E+00 0.  1.
         11    1    3    3    0    0 -0.23823841498E+02 -0.20824087534E+01 -0.14249561936E+02  0.27838136891E+02  0.51100000000E-03 0. -1.
        -11    1    3    3    0    0  0.43805805943E+01  0.12311613248E+02 -0.59754646966E+01  0.14369115690E+02  0.51100000000E-03 0.  1.
         12    1    3    3    0    0  0.24915585190E+01 -0.10761840003E+02  0.28165227513E+02  0.30254009734E+02  0.00000000000E+00 0. -1.
</event>
<event>
 7    1  0.1788006E-013  0.7246160E+02  0.7816164E-02  0.1226708E+00
        -11   -1    0    0    0    0  0.00000000000E+00  0.00000000000E+00  0.45593999997E+02  0.45594000000E+02  0.51100000000E-03 0.  1.
         11   -1    0    0    0    0 -0.00000000000E+00 -0.00000000000E+00 -0.45593999997E+02  0.45594000000E+02  0.51100000000E-03 0. -1.
    9900012    2    1    2    0    0 -0.26235862393E+01  0.58229395925E+01 -0.17603637935E+02  0.72461604223E+02  0.70000044199E+02 0.  0.
        -12    1    1    2    0    0  0.26235862393E+01 -0.58229395925E+01  0.17603637935E+02  0.18726395777E+02  0.00000000000E+00 0.  1.
         11    1    3    3    0    0 -0.13087268783E+02 -0.14714337907E+02 -0.15100306279E+02  0.24815470865E+02  0.51100000000E-03 0. -1.
        -11    1    3    3    0    0 -0.11332972231E+02  0.20178634741E+02 -0.91033118396E+01  0.24869335462E+02  0.51100000000E-03 0.  1.
        -12    1    3    3    0    0  0.21796654775E+02  0.35864275851E+00  0.65999801837E+01  0.22776797897E+02  0.00000000000E+00 0.  1.
</event>
<event>
 7    1  0.1788006E-013  0.7246161E+02  0.7816164E-02  0.1226708E+00
        -11   -1    0    0    0    0  0.00000000000E+00  0.00000000000E+00  0.45593999997E+02  0.45594000000E+02  0.51100000000E-03 0. -1.
         11   -1    0    0    0    0 -0.00000000000E+00 -0.00000000000E+00 -0.45593999997E+02  0.45594000000E+02  0.51100000000E-03 0.  1.
    9900012    2    1    2    0    0  0.38910545045E+01 -0.14027631316E+02  0.11779762135E+02  0.72461613764E+02  0.70000056627E+02 0.  0.
        -12    1    1    2    0    0 -0.38910545045E+01  0.14027631316E+02 -0.11779762135E+02  0.18726386236E+02  0.00000000000E+00 0.  1.
         11    1    3    3    0    0  0.17197595561E+02  0.13511929369E+02  0.18937353389E+01  0.21952579852E+02  0.51100000000E-03 0. -1.
        -11    1    3    3    0    0  0.93860180609E+01 -0.24959834391E+02  0.61574864433E+01  0.27367961331E+02  0.51100000000E-03 0.  1.
        -12    1    3    3    0    0 -0.22692559117E+02 -0.25797262939E+01  0.37285403533E+01  0.23141072581E+02  0.00000000000E+00 0.  1.
</event>
<event>
 7    1  0.1925107E-013  0.7246158E+02  0.7816164E-02  0.1226708E+00
        -11   -1    0    0    0    0  0.00000000000E+00  0.00000000000E+00  0.45593999997E+02  0.45594000000E+02  0.51100000000E-03 0. -1.
         11   -1    0    0    0    0 -0.00000000000E+00 -0.00000000000E+00 -0.45593999997E+02  0.45594000000E+02  0.51100000000E-03 0.  1.
    9900012    2    1    2    0    0  0.73693019370E+01  0.38636045945E+01  0.16776314110E+02  0.72461581052E+02  0.70000014014E+02 0.  0.
        -12    1    1    2    0    0 -0.73693019370E+01 -0.38636045945E+01 -0.16776314110E+02  0.18726418948E+02  0.00000000000E+00 0.  1.
         11    1    3    3    0    0  0.40965296508E+01 -0.10538676400E+02  0.19138630233E+01  0.11467699306E+02  0.51100000000E-03 0. -1.
        -11    1    3    3    0    0 -0.72019661436E+01 -0.13007697112E+02 -0.13573863814E+02  0.20132517964E+02  0.51100000000E-03 0.  1.
         12    1    3    3    0    0  0.10474738430E+02  0.27409978106E+02  0.28436314900E+02  0.40861363781E+02  0.00000000000E+00 0. -1.
</event>
<event>
 7    1  0.1788006E-013  0.7246158E+02  0.7816164E-02  0.1226708E+00
        -11   -1    0    0    0    0  0.00000000000E+00  0.00000000000E+00  0.45593999997E+02  0.45594000000E+02  0.51100000000E-03 0. -1.
         11   -1    0    0    0    0 -0.00000000000E+00 -0.00000000000E+00 -0.45593999997E+02  0.45594000000E+02  0.51100000000E-03 0.  1.
    9900012    2    1    2    0    0  0.15282478117E+02 -0.98315499912E+01  0.45238736061E+01  0.72461576288E+02  0.70000007808E+02 0.  0.
        -12    1    1    2    0    0 -0.15282478117E+02  0.98315499912E+01 -0.45238736061E+01  0.18726423712E+02  0.00000000000E+00 0.  1.
         11    1    3    3    0    0  0.50270074215E+01 -0.20205874762E+02 -0.16723433308E+02  0.26706205278E+02  0.51100000000E-03 0. -1.
        -11    1    3    3    0    0  0.37372000209E+01 -0.13137702014E+02  0.15555950422E+02  0.20701533083E+02  0.51100000000E-03 0.  1.
        -12    1    3    3    0    0  0.65182706748E+01  0.23512026785E+02  0.56913564919E+01  0.25053837926E+02  0.00000000000E+00 0.  1.
</event>
<event>
 7    1  0.1788006E-013  0.7246153E+02  0.7816164E-02  0.1226708E+00
        -11   -1    0    0    0    0  0.00000000000E+00  0.00000000000E+00  0.45593999997E+02  0.45594000000E+02  0.51100000000E-03 0.  1.
         11   -1    0    0    0    0 -0.00000000000E+00 -0.00000000000E+00 -0.45593999997E+02  0.45594000000E+02  0.51100000000E-03 0. -1.
    9900012    2    1    2    0    0  0.10788931333E+02 -0.15273810657E+02  0.99522342613E+00  0.72461526734E+02  0.69999943255E+02 0.  0.
        -12    1    1    2    0    0 -0.10788931333E+02  0.15273810657E+02 -0.99522342613E+00  0.18726473266E+02  0.00000000000E+00 0.  1.
         11    1    3    3    0    0 -0.29749688717E+01 -0.11390379993E+02  0.15260236376E+02  0.19273453522E+02  0.51100000000E-03 0. -1.
        -11    1    3    3    0    0 -0.77363882197E+00  0.21716748503E+02 -0.74247064092E+01  0.22963927105E+02  0.51100000000E-03 0.  1.
         12    1    3    3    0    0  0.14537539027E+02 -0.25600179167E+02 -0.68403065402E+01  0.30224146107E+02  0.00000000000E+00 0. -1.
</event>
<event>
 7    1  0.1788006E-013  0.7246162E+02  0.7816164E-02  0.1226708E+00
        -11   -1    0    0    0    0  0.00000000000E+00  0.00000000000E+00  0.45593999997E+02  0.45594000000E+02  0.51100000000E-03 0. -1.
         11   -1    0    0    0    0 -0.00000000000E+00 -0.00000000000E+00 -0.45593999997E+02  0.45594000000E+02  0.51100000000E-03 0.  1.
    9900012    2    1    2    0    0 -0.16044537322E+02 -0.54812644203E+01  0.79502105046E+01  0.72461620622E+02  0.70000065561E+02 0.  0.
        -12    1    1    2    0    0  0.16044537322E+02  0.54812644203E+01 -0.79502105046E+01  0.18726379378E+02  0.00000000000E+00 0.  1.
         11    1    3    3    0    0 -0.54000127714E+01 -0.12586212693E+01 -0.28315079796E+01  0.62258897461E+01  0.51100000000E-03 0. -1.
        -11    1    3    3    0    0  0.21745409562E+02  0.48087182765E+01 -0.12308402964E+02  0.25445694965E+02  0.51100000000E-03 0.  1.
         12    1    3    3    0    0 -0.32389934113E+02 -0.90313614275E+01  0.23090121448E+02  0.40790035911E+02  0.00000000000E+00 0. -1.
</event>
<event>
 7    1  0.1788006E-013  0.7246156E+02  0.7816164E-02  0.1226708E+00
        -11   -1    0    0    0    0  0.00000000000E+00  0.00000000000E+00  0.45593999997E+02  0.45594000000E+02  0.51100000000E-03 0.  1.
         11   -1    0    0    0    0 -0.00000000000E+00 -0.00000000000E+00 -0.45593999997E+02  0.45594000000E+02  0.51100000000E-03 0. -1.
    9900012    2    1    2    0    0 -0.16266219987E+02 -0.55364835355E+01 -0.74455933519E+01  0.72461563527E+02  0.69999991184E+02 0.  0.
        -12    1    1    2    0    0  0.16266219987E+02  0.55364835355E+01  0.74455933519E+01  0.18726436473E+02  0.00000000000E+00 0.  1.
         11    1    3    3    0    0  0.10735419043E+02  0.13633267577E+02 -0.70178267088E+01  0.18718042067E+02  0.51100000000E-03 0. -1.
        -11    1    3    3    0    0 -0.18713462435E+02 -0.67940062873E+01 -0.20613205263E+02  0.28657571935E+02  0.51100000000E-03 0.  1.
        -12    1    3    3    0    0 -0.82881765954E+01 -0.12375744825E+02  0.20185438620E+02  0.25085949524E+02  0.00000000000E+00 0.  1.
</event>
<event>
 7    1  0.1788006E-013  0.7246165E+02  0.7816164E-02  0.1226708E+00
        -11   -1    0    0    0    0  0.00000000000E+00  0.00000000000E+00  0.45593999997E+02  0.45594000000E+02  0.51100000000E-03 0. -1.
         11   -1    0    0    0    0 -0.00000000000E+00 -0.00000000000E+00 -0.45593999997E+02  0.45594000000E+02  0.51100000000E-03 0.  1.
    9900012    2    1    2    0    0 -0.26872875068E+01 -0.81193383451E+01  0.16659258738E+02  0.72461653025E+02  0.70000107773E+02 0.  0.
        -12    1    1    2    0    0  0.26872875068E+01  0.81193383451E+01 -0.16659258738E+02  0.18726346975E+02  0.00000000000E+00 0.  1.
         11    1    3    3    0    0  0.37104976355E+01  0.79533218236E+01  0.31853865678E+01  0.93364773111E+01  0.51100000000E-03 0. -1.
        -11    1    3    3    0    0  0.24511942867E+02 -0.11836332643E+02  0.16417611967E+02  0.31787923753E+02  0.51100000000E-03 0.  1.
        -12    1    3    3    0    0 -0.30909728009E+02 -0.42363275261E+01 -0.29437397964E+01  0.31337251962E+02  0.00000000000E+00 0.  1.
</event>
<event>
 7    1  0.1788006E-013  0.7246142E+02  0.7816164E-02  0.1226708E+00
        -11   -1    0    0    0    0  0.00000000000E+00  0.00000000000E+00  0.45593999997E+02  0.45594000000E+02  0.51100000000E-03 0.  1.
         11   -1    0    0    0    0 -0.00000000000E+00 -0.00000000000E+00 -0.45593999997E+02  0.45594000000E+02  0.51100000000E-03 0. -1.
    9900012    2    1    2    0    0  0.10707219378E+02  0.11069751997E+02 -0.10653686137E+02  0.72461415037E+02  0.69999797748E+02 0.  0.
        -12    1    1    2    0    0 -0.10707219378E+02 -0.11069751997E+02  0.10653686137E+02  0.18726584963E+02  0.00000000000E+00 0.  1.
         11    1    3    3    0    0  0.14476294671E+00  0.46815456387E+01 -0.23362442006E+00  0.46896062211E+01  0.51100000000E-03 0. -1.
        -11    1    3    3    0    0 -0.17554413769E+02  0.15420054449E+02  0.15860217197E+02  0.28239724003E+02  0.51100000000E-03 0.  1.
         12    1    3    3    0    0  0.28116870201E+02 -0.90318480908E+01 -0.26280278914E+02  0.39532084812E+02  0.00000000000E+00 0. -1.
</event>
<event>
 7    1  0.1788006E-013  0.7246159E+02  0.7816164E-02  0.1226708E+00
        -11   -1    0    0    0    0  0.00000000000E+00  0.00000000000E+00  0.45593999997E+02  0.45594000000E+02  0.51100000000E-03 0.  1.
         11   -1    0    0    0    0 -0.00000000000E+00 -0.00000000000E+00 -0.45593999997E+02  0.45594000000E+02  0.51100000000E-03 0. -1.
    9900012    2    1    2    0    0  0.48132485852E+01 -0.10786470162E+01 -0.18065089606E+02  0.72461593409E+02  0.70000030112E+02 0.  0.
        -12    1    1    2    0    0 -0.48132485852E+01  0.10786470162E+01  0.18065089606E+02  0.18726406591E+02  0.00000000000E+00 0.  1.
         11    1    3    3    0    0 -0.51227406197E+00 -0.27225539251E+02 -0.18329728708E+02  0.32824858979E+02  0.51100000000E-03 0.  1.
        -11    1    3    3    0    0  0.25629740640E+01 -0.58563081264E+01  0.36088482739E+01  0.73409105055E+01  0.51100000000E-03 0. -1.
         12    1    3    3    0    0  0.27625485832E+01  0.32003200361E+02 -0.33442091719E+01  0.32295823925E+02  0.00000000000E+00 0. -1.
</event>
<event>
 7    1  0.1788006E-013  0.7246153E+02  0.7816164E-02  0.1226708E+00
        -11   -1    0    0    0    0  0.00000000000E+00  0.00000000000E+00  0.45593999997E+02  0.45594000000E+02  0.51100000000E-03 0. -1.
         11   -1    0    0    0    0 -0.00000000000E+00 -0.00000000000E+00 -0.45593999997E+02  0.45594000000E+02  0.51100000000E-03 0.  1.
    9900012    2    1    2    0    0 -0.14385930813E+02 -0.11841986884E+02  0.18689350387E+01  0.72461532717E+02  0.69999951049E+02 0.  0.
        -12    1    1    2    0    0  0.14385930813E+02  0.11841986884E+02 -0.18689350387E+01  0.18726467283E+02  0.00000000000E+00 0.  1.
         11    1    3    3    0    0 -0.11900368330E+02 -0.23966210627E+02  0.25407384854E+02  0.36898959655E+02  0.51100000000E-03 0. -1.
        -11    1    3    3    0    0  0.81458347589E+01 -0.82882549137E+00 -0.22912687971E+01  0.85024401543E+01  0.51100000000E-03 0.  1.
        -12    1    3    3    0    0 -0.10631397242E+02  0.12953049235E+02 -0.21247181018E+02  0.27060132909E+02  0.00000000000E+00 0.  1.
</event>
<event>
 7    1  0.1788006E-013  0.7246158E+02  0.7816164E-02  0.1226708E+00
        -11   -1    0    0    0    0  0.00000000000E+00  0.00000000000E+00  0.45593999997E+02  0.45594000000E+02  0.51100000000E-03 0.  1.
         11   -1    0    0    0    0 -0.00000000000E+00 -0.00000000000E+00 -0.45593999997E+02  0.45594000000E+02  0.51100000000E-03 0. -1.
    9900012    2    1    2    0    0  0.83737006537E+01  0.16181758731E+02 -0.43255803450E+01  0.72461579531E+02  0.70000012033E+02 0.  0.
        -12    1    1    2    0    0 -0.83737006537E+01 -0.16181758731E+02  0.43255803450E+01  0.18726420469E+02  0.00000000000E+00 0.  1.
         11    1    3    3    0    0  0.19163606727E+02  0.32258696929E+01 -0.25102482841E+02  0.31745624944E+02  0.51100000000E-03 0. -1.
        -11    1    3    3    0    0  0.93906548758E+01 -0.22347217527E+01  0.71764448976E+01  0.12028289236E+02  0.51100000000E-03 0.  1.
        -12    1    3    3    0    0 -0.20180560950E+02  0.15190610790E+02  0.13600457598E+02  0.28687665351E+02  0.00000000000E+00 0.  1.
</event>
<event>
 7    1  0.1788006E-013  0.7246156E+02  0.7816164E-02  0.1226708E+00
        -11   -1    0    0    0    0  0.00000000000E+00  0.00000000000E+00  0.45593999997E+02  0.45594000000E+02  0.51100000000E-03 0. -1.
         11   -1    0    0    0    0 -0.00000000000E+00 -0.00000000000E+00 -0.45593999997E+02  0.45594000000E+02  0.51100000000E-03 0.  1.
    9900012    2    1    2    0    0 -0.57986309544E-01 -0.43172654826E+01  0.18221892402E+02  0.72461561300E+02  0.69999988284E+02 0.  0.
        -12    1    1    2    0    0  0.57986309544E-01  0.43172654826E+01 -0.18221892402E+02  0.18726438700E+02  0.00000000000E+00 0.  1.
         11    1    3    3    0    0 -0.10675730435E+02 -0.25019016644E+02  0.13093706867E+02  0.30188865066E+02  0.51100000000E-03 0. -1.
        -11    1    3    3    0    0  0.46669840961E+01  0.16377806728E+02  0.19644863519E+02  0.25998729906E+02  0.51100000000E-03 0.  1.
         12    1    3    3    0    0  0.59507600296E+01  0.43239444338E+01 -0.14516677984E+02  0.16273966329E+02  0.00000000000E+00 0. -1.
</event>
<event>
 7    1  0.1788006E-013  0.7246153E+02  0.7816164E-02  0.1226708E+00
        -11   -1    0    0    0    0  0.00000000000E+00  0.00000000000E+00  0.45593999997E+02  0.45594000000E+02  0.51100000000E-03 0. -1.
         11   -1    0    0    0    0 -0.00000000000E+00 -0.00000000000E+00 -0.45593999997E+02  0.45594000000E+02  0.51100000000E-03 0.  1.
    9900012    2    1    2    0    0  0.97077592641E+00 -0.17432719667E+02 -0.67704171344E+01  0.72461530257E+02  0.69999947843E+02 0.  0.
        -12    1    1    2    0    0 -0.97077592641E+00  0.17432719667E+02  0.67704171344E+01  0.18726469743E+02  0.00000000000E+00 0.  1.
         11    1    3    3    0    0 -0.64777864412E+01 -0.14331376484E+01 -0.14433720341E+02  0.15885461398E+02  0.51100000000E-03 0. -1.
        -11    1    3    3    0    0 -0.19104810611E+02  0.46800062741E+01  0.11365263943E+02  0.22717074459E+02  0.51100000000E-03 0.  1.
         12    1    3    3    0    0  0.26553372978E+02 -0.20679588293E+02 -0.37019607371E+01  0.33858994400E+02  0.00000000000E+00 0. -1.
</event>
<event>
 7    1  0.1788006E-013  0.7246156E+02  0.7816164E-02  0.1226708E+00
        -11   -1    0    0    0    0  0.00000000000E+00  0.00000000000E+00  0.45593999997E+02  0.45594000000E+02  0.51100000000E-03 0.  1.
         11   -1    0    0    0    0 -0.00000000000E+00 -0.00000000000E+00 -0.45593999997E+02  0.45594000000E+02  0.51100000000E-03 0. -1.
    9900012    2    1    2    0    0 -0.42906146279E+01  0.17339514201E+02  0.56224047843E+01  0.72461559811E+02  0.69999986343E+02 0.  0.
        -12    1    1    2    0    0  0.42906146279E+01 -0.17339514201E+02 -0.56224047843E+01  0.18726440189E+02  0.00000000000E+00 0.  1.
         11    1    3    3    0    0 -0.29933960762E+01  0.51110775196E+01 -0.41996791015E+01  0.72609116712E+01  0.51100000000E-03 0. -1.
        -11    1    3    3    0    0  0.25416049369E+02 -0.34733513594E+01 -0.10954793213E+02  0.27893497985E+02  0.51100000000E-03 0.  1.
        -12    1    3    3    0    0 -0.26713267921E+02  0.15701788041E+02  0.20776877099E+02  0.37307150155E+02  0.00000000000E+00 0.  1.
</event>
<event>
 7    1  0.1788006E-013  0.7246159E+02  0.7816164E-02  0.1226708E+00
        -11   -1    0    0    0    0  0.00000000000E+00  0.00000000000E+00  0.45593999997E+02  0.45594000000E+02  0.51100000000E-03 0. -1.
         11   -1    0    0    0    0 -0.00000000000E+00 -0.00000000000E+00 -0.45593999997E+02  0.45594000000E+02  0.51100000000E-03 0.  1.
    9900012    2    1    2    0    0 -0.10614967432E+02 -0.37284750309E+01  0.14969950389E+02  0.72461588858E+02  0.70000024182E+02 0.  0.
        -12    1    1    2    0    0  0.10614967432E+02  0.37284750309E+01 -0.14969950389E+02  0.18726411142E+02  0.00000000000E+00 0.  1.
         11    1    3    3    0    0 -0.11082764592E+02 -0.26912119280E+02  0.15533004464E+02  0.32990363186E+02  0.51100000000E-03 0. -1.
        -11    1    3    3    0    0  0.36934520386E+00 -0.69633645713E+01 -0.55527559873E+01  0.89139195278E+01  0.51100000000E-03 0.  1.
        -12    1    3    3    0    0  0.98451957038E-01  0.30147008821E+02  0.49897019120E+01  0.30557306144E+02  0.00000000000E+00 0.  1.
</event>
<event>
 7    1  0.1788006E-013  0.7246119E+02  0.7816164E-02  0.1226709E+00
        -11   -1    0    0    0    0  0.00000000000E+00  0.00000000000E+00  0.45593999997E+02  0.45594000000E+02  0.51100000000E-03 0.  1.
         11   -1    0    0    0    0 -0.00000000000E+00 -0.00000000000E+00 -0.45593999997E+02  0.45594000000E+02  0.51100000000E-03 0. -1.
    9900012    2    1    2    0    0  0.16704463041E+02 -0.23657824307E+01 -0.81275686475E+01  0.72461190765E+02  0.69999505591E+02 0.  0.
        -12    1    1    2    0    0 -0.16704463041E+02  0.23657824307E+01  0.81275686475E+01  0.18726809235E+02  0.00000000000E+00 0.  1.
         11    1    3    3    0    0  0.24705637391E+02  0.14257066315E+02 -0.16601187069E+01  0.28572512195E+02  0.51100000000E-03 0. -1.
        -11    1    3    3    0    0 -0.70564991999E+01 -0.59102505705E+01  0.16294232237E+02  0.18714359386E+02  0.51100000000E-03 0.  1.
         12    1    3    3    0    0 -0.94467514953E+00 -0.10712598175E+02 -0.22761682178E+02  0.25174319184E+02  0.00000000000E+00 0. -1.
</event>
<event>
 7    1  0.1788006E-013  0.7246160E+02  0.7816164E-02  0.1226708E+00
        -11   -1    0    0    0    0  0.00000000000E+00  0.00000000000E+00  0.45593999997E+02  0.45594000000E+02  0.51100000000E-03 0.  1.
         11   -1    0    0    0    0 -0.00000000000E+00 -0.00000000000E+00 -0.45593999997E+02  0.45594000000E+02  0.51100000000E-03 0. -1.
    9900012    2    1    2    0    0  0.17232395562E+01 -0.11630310912E+02 -0.14575476256E+02  0.72461596326E+02  0.70000033911E+02 0.  0.
        -12    1    1    2    0    0 -0.17232395562E+01  0.11630310912E+02  0.14575476256E+02  0.18726403674E+02  0.00000000000E+00 0.  1.
         11    1    3    3    0    0  0.67168660293E+01 -0.64811512672E+01 -0.19003421793E+02  0.21171954353E+02  0.51100000000E-03 0. -1.
        -11    1    3    3    0    0  0.32748832117E+01 -0.27156502432E+02 -0.72575356173E-01  0.27353349920E+02  0.51100000000E-03 0.  1.
        -12    1    3    3    0    0 -0.82685096848E+01  0.22007342788E+02  0.45005208936E+01  0.23936292054E+02  0.00000000000E+00 0.  1.
</event>
<event>
 7    1  0.1788006E-013  0.7246157E+02  0.7816164E-02  0.1226708E+00
        -11   -1    0    0    0    0  0.00000000000E+00  0.00000000000E+00  0.45593999997E+02  0.45594000000E+02  0.51100000000E-03 0. -1.
         11   -1    0    0    0    0 -0.00000000000E+00 -0.00000000000E+00 -0.45593999997E+02  0.45594000000E+02  0.51100000000E-03 0.  1.
    9900012    2    1    2    0    0  0.12941338319E+02  0.13513567682E+02  0.76453936258E+00  0.72461567627E+02  0.69999996526E+02 0.  0.
        -12    1    1    2    0    0 -0.12941338319E+02 -0.13513567682E+02 -0.76453936258E+00  0.18726432373E+02  0.00000000000E+00 0.  1.
         11    1    3    3    0    0  0.51038986193E+01 -0.69662378817E+00  0.85324126621E+01  0.99668014887E+01  0.51100000000E-03 0. -1.
        -11    1    3    3    0    0  0.23115783789E+02 -0.15312578793E+02 -0.92226385335E+01  0.29221081281E+02  0.51100000000E-03 0.  1.
        -12    1    3    3    0    0 -0.15278344089E+02  0.29522770263E+02  0.14547652340E+01  0.33273684857E+02  0.00000000000E+00 0.  1.
</event>
<event>
 7    1  0.1788006E-013  0.7246156E+02  0.7816164E-02  0.1226708E+00
        -11   -1    0    0    0    0  0.00000000000E+00  0.00000000000E+00  0.45593999997E+02  0.45594000000E+02  0.51100000000E-03 0. -1.
         11   -1    0    0    0    0 -0.00000000000E+00 -0.00000000000E+00 -0.45593999997E+02  0.45594000000E+02  0.51100000000E-03 0.  1.
    9900012    2    1    2    0    0 -0.14781602731E+02  0.10412388534E+02  0.48750320673E+01  0.72461560084E+02  0.69999986699E+02 0.  0.
        -12    1    1    2    0    0  0.14781602731E+02 -0.10412388534E+02 -0.48750320673E+01  0.18726439916E+02  0.00000000000E+00 0.  1.
         11    1    3    3    0    0  0.46107196610E+00  0.15761603190E+02  0.17716310222E+02  0.23717258919E+02  0.51100000000E-03 0. -1.
        -11    1    3    3    0    0  0.15657787868E+02 -0.19886755293E+01 -0.24617318199E+01  0.15974394358E+02  0.51100000000E-03 0.  1.
        -12    1    3    3    0    0 -0.30900462566E+02 -0.33605391272E+01 -0.10379546335E+02  0.32769906807E+02  0.00000000000E+00 0.  1.
</event>
<event>
 7    1  0.1788006E-013  0.7246158E+02  0.7816164E-02  0.1226708E+00
        -11   -1    0    0    0    0  0.00000000000E+00  0.00000000000E+00  0.45593999997E+02  0.45594000000E+02  0.51100000000E-03 0. -1.
         11   -1    0    0    0    0 -0.00000000000E+00 -0.00000000000E+00 -0.45593999997E+02  0.45594000000E+02  0.51100000000E-03 0.  1.
    9900012    2    1    2    0    0 -0.17088339796E+02  0.18640744112E+01  0.74291664293E+01  0.72461584319E+02  0.70000018270E+02 0.  0.
        -12    1    1    2    0    0  0.17088339796E+02 -0.18640744112E+01 -0.74291664293E+01  0.18726415681E+02  0.00000000000E+00 0.  1.
         11    1    3    3    0    0 -0.36005044470E+01  0.24480960918E+02 -0.13435097366E+00  0.24744678826E+02  0.51100000000E-03 0. -1.
        -11    1    3    3    0    0  0.13620617773E+02 -0.11290392693E+02  0.38255226412E+01  0.18100519866E+02  0.51100000000E-03 0.  1.
        -12    1    3    3    0    0 -0.27108453122E+02 -0.11326493814E+02  0.37379947618E+01  0.29616385628E+02  0.00000000000E+00 0.  1.
</event>
<event>
 7    1  0.1788006E-013  0.7246177E+02  0.7816164E-02  0.1226707E+00
        -11   -1    0    0    0    0  0.00000000000E+00  0.00000000000E+00  0.45593999997E+02  0.45594000000E+02  0.51100000000E-03 0.  1.
         11   -1    0    0    0    0 -0.00000000000E+00 -0.00000000000E+00 -0.45593999997E+02  0.45594000000E+02  0.51100000000E-03 0. -1.
    9900012    2    1    2    0    0 -0.87973065386E+01  0.10254587408E+01 -0.16499321388E+02  0.72461767752E+02  0.70000257224E+02 0.  0.
        -12    1    1    2    0    0  0.87973065386E+01 -0.10254587408E+01  0.16499321388E+02  0.18726232248E+02  0.00000000000E+00 0.  1.
         11    1    3    3    0    0 -0.14867597234E+01  0.25859436628E+01  0.60240546783E+01  0.67221123266E+01  0.51100000000E-03 0. -1.
        -11    1    3    3    0    0 -0.20379209051E+02  0.20498640627E+02  0.36090489033E+01  0.29129566824E+02  0.51100000000E-03 0.  1.
         12    1    3    3    0    0  0.13068662236E+02 -0.22059125549E+02 -0.26132424969E+02  0.36610088601E+02  0.00000000000E+00 0. -1.
</event>
<event>
 7    1  0.1788006E-013  0.7246122E+02  0.7816164E-02  0.1226709E+00
        -11   -1    0    0    0    0  0.00000000000E+00  0.00000000000E+00  0.45593999997E+02  0.45594000000E+02  0.51100000000E-03 0. -1.
         11   -1    0    0    0    0 -0.00000000000E+00 -0.00000000000E+00 -0.45593999997E+02  0.45594000000E+02  0.51100000000E-03 0.  1.
    9900012    2    1    2    0    0 -0.14228878465E+02 -0.34256422626E+01  0.11683155444E+02  0.72461224292E+02  0.69999549266E+02 0.  0.
        -12    1    1    2    0    0  0.14228878465E+02  0.34256422626E+01 -0.11683155444E+02  0.18726775708E+02  0.00000000000E+00 0.  1.
         11    1    3    3    0    0 -0.19700445881E+02 -0.16770156667E+02  0.16683284505E+01  0.25925451638E+02  0.51100000000E-03 0. -1.
        -11    1    3    3    0    0  0.52709501870E+01  0.73420888100E+00 -0.16412249165E+02  0.17253518524E+02  0.51100000000E-03 0.  1.
         12    1    3    3    0    0  0.20061722836E+00  0.12610305523E+02  0.26427076158E+02  0.29282254130E+02  0.00000000000E+00 0. -1.
</event>
<event>
 7    1  0.1788006E-013  0.7246157E+02  0.7816164E-02  0.1226708E+00
        -11   -1    0    0    0    0  0.00000000000E+00  0.00000000000E+00  0.45593999997E+02  0.45594000000E+02  0.51100000000E-03 0. -1.
         11   -1    0    0    0    0 -0.00000000000E+00 -0.00000000000E+00 -0.45593999997E+02  0.45594000000E+02  0.51100000000E-03 0.  1.
    9900012    2    1    2    0    0 -0.84722946827E+01 -0.97862223425E+01  0.13532527478E+02  0.72461568817E+02  0.69999998075E+02 0.  0.
        -12    1    1    2    0    0  0.84722946827E+01  0.97862223425E+01 -0.13532527478E+02  0.18726431183E+02  0.00000000000E+00 0.  1.
         11    1    3    3    0    0  0.35172782941E+01 -0.34836398691E+01 -0.35086780365E+01  0.60677685487E+01  0.51100000000E-03 0. -1.
        -11    1    3    3    0    0  0.93272831507E+01 -0.29993355833E+02  0.13969925168E+02  0.34376713260E+02  0.51100000000E-03 0.  1.
         12    1    3    3    0    0 -0.21316856128E+02  0.23690773359E+02  0.30712803464E+01  0.32017087008E+02  0.00000000000E+00 0. -1.
</event>
<event>
 7    1  0.1788006E-013  0.7246156E+02  0.7816164E-02  0.1226708E+00
        -11   -1    0    0    0    0  0.00000000000E+00  0.00000000000E+00  0.45593999997E+02  0.45594000000E+02  0.51100000000E-03 0. -1.
         11   -1    0    0    0    0 -0.00000000000E+00 -0.00000000000E+00 -0.45593999997E+02  0.45594000000E+02  0.51100000000E-03 0.  1.
    9900012    2    1    2    0    0  0.16563676884E+02  0.42563537322E+01  0.76293893374E+01  0.72461560919E+02  0.69999987787E+02 0.  0.
        -12    1    1    2    0    0 -0.16563676884E+02 -0.42563537322E+01 -0.76293893374E+01  0.18726439081E+02  0.00000000000E+00 0.  1.
         11    1    3    3    0    0  0.75289546425E+00  0.17463884784E+02  0.10947379937E+02  0.20625209115E+02  0.51100000000E-03 0. -1.
        -11    1    3    3    0    0  0.14869202083E+02 -0.19797852120E+02 -0.21300396820E+02  0.32661215900E+02  0.51100000000E-03 0.  1.
         12    1    3    3    0    0  0.94157933637E+00  0.65903210682E+01  0.17982406220E+02  0.19175135903E+02  0.00000000000E+00 0. -1.
</event>
<event>
 7    1  0.1788006E-013  0.7246159E+02  0.7816164E-02  0.1226708E+00
        -11   -1    0    0    0    0  0.00000000000E+00  0.00000000000E+00  0.45593999997E+02  0.45594000000E+02  0.51100000000E-03 0. -1.
         11   -1    0    0    0    0 -0.00000000000E+00 -0.00000000000E+00 -0.45593999997E+02  0.45594000000E+02  0.51100000000E-03 0.  1.
    9900012    2    1    2    0    0 -0.90679501699E+01 -0.11882843628E+01  0.16341320967E+02  0.72461587878E+02  0.70000022906E+02 0.  0.
        -12    1    1    2    0    0  0.90679501699E+01  0.11882843628E+01 -0.16341320967E+02  0.18726412122E+02  0.00000000000E+00 0.  1.
         11    1    3    3    0    0 -0.24708573399E+02  0.55626838242E+01 -0.49972223706E+01  0.25815291640E+02  0.51100000000E-03 0. -1.
        -11    1    3    3    0    0  0.98640741345E+01  0.33702147749E+01 -0.92354375618E+01  0.13926651190E+02  0.51100000000E-03 0.  1.
        -12    1    3    3    0    0  0.57765490949E+01 -0.10121182962E+02  0.30573980900E+02  0.32719645048E+02  0.00000000000E+00 0.  1.
</event>
<event>
 7    1  0.1788006E-013  0.7246158E+02  0.7816164E-02  0.1226708E+00
        -11   -1    0    0    0    0  0.00000000000E+00  0.00000000000E+00  0.45593999997E+02  0.45594000000E+02  0.51100000000E-03 0. -1.
         11   -1    0    0    0    0 -0.00000000000E+00 -0.00000000000E+00 -0.45593999997E+02  0.45594000000E+02  0.51100000000E-03 0.  1.
    9900012    2    1    2    0    0 -0.15149394761E+02  0.10535560932E+02  0.31900645958E+01  0.72461582353E+02  0.70000015709E+02 0.  0.
        -12    1    1    2    0    0  0.15149394761E+02 -0.10535560932E+02 -0.31900645958E+01  0.18726417647E+02  0.00000000000E+00 0.  1.
         11    1    3    3    0    0  0.72808436335E+01  0.22219649539E+02 -0.35394588800E+01  0.23648494224E+02  0.51100000000E-03 0. -1.
        -11    1    3    3    0    0  0.28432960191E+01  0.24147354548E+01  0.17530602968E+02  0.17923094605E+02  0.51100000000E-03 0.  1.
        -12    1    3    3    0    0 -0.25273534413E+02 -0.14098824062E+02 -0.10801079492E+02  0.30889993523E+02  0.00000000000E+00 0.  1.
</event>
<event>
 7    1  0.1788006E-013  0.7246157E+02  0.7816164E-02  0.1226708E+00
        -11   -1    0    0    0    0  0.00000000000E+00  0.00000000000E+00  0.45593999997E+02  0.45594000000E+02  0.51100000000E-03 0.  1.
         11   -1    0    0    0    0 -0.00000000000E+00 -0.00000000000E+00 -0.45593999997E+02  0.45594000000E+02  0.51100000000E-03 0. -1.
    9900012    2    1    2    0    0 -0.71601176631E+01  0.13039618397E+02 -0.11374543405E+02  0.72461570266E+02  0.69999999964E+02 0.  0.
        -12    1    1    2    0    0  0.71601176631E+01 -0.13039618397E+02  0.11374543405E+02  0.18726429734E+02  0.00000000000E+00 0.  1.
         11    1    3    3    0    0 -0.16468028924E+02  0.23935417803E+02 -0.90480138505E+01  0.30429701888E+02  0.51100000000E-03 0. -1.
        -11    1    3    3    0    0 -0.63931288020E+01  0.10360074696E+02 -0.85581469518E+01  0.14881032327E+02  0.51100000000E-03 0.  1.
        -12    1    3    3    0    0  0.15701040063E+02 -0.21255874103E+02  0.62316173969E+01  0.27150836052E+02  0.00000000000E+00 0.  1.
</event>
<event>
 7    1  0.1788006E-013  0.7246154E+02  0.7816164E-02  0.1226708E+00
        -11   -1    0    0    0    0  0.00000000000E+00  0.00000000000E+00  0.45593999997E+02  0.45594000000E+02  0.51100000000E-03 0. -1.
         11   -1    0    0    0    0 -0.00000000000E+00 -0.00000000000E+00 -0.45593999997E+02  0.45594000000E+02  0.51100000000E-03 0.  1.
    9900012    2    1    2    0    0 -0.10184063001E+02 -0.13916038902E+02 -0.73012946774E+01  0.72461543264E+02  0.69999964788E+02 0.  0.
        -12    1    1    2    0    0  0.10184063001E+02  0.13916038902E+02  0.73012946774E+01  0.18726456736E+02  0.00000000000E+00 0.  1.
         11    1    3    3    0    0 -0.22280613686E+01  0.67306975920E+00 -0.27343400903E+00  0.23435116346E+01  0.51100000000E-03 0. -1.
        -11    1    3    3    0    0  0.23577020634E+02  0.11088440450E+02 -0.12828053047E+02  0.29041149406E+02  0.51100000000E-03 0.  1.
         12    1    3    3    0    0 -0.31533022266E+02 -0.25677549111E+02  0.58001923782E+01  0.41076882223E+02  0.00000000000E+00 0. -1.
</event>
<event>
 7    1  0.1788006E-013  0.7246171E+02  0.7816164E-02  0.1226708E+00
        -11   -1    0    0    0    0  0.00000000000E+00  0.00000000000E+00  0.45593999997E+02  0.45594000000E+02  0.51100000000E-03 0.  1.
         11   -1    0    0    0    0 -0.00000000000E+00 -0.00000000000E+00 -0.45593999997E+02  0.45594000000E+02  0.51100000000E-03 0. -1.
    9900012    2    1    2    0    0 -0.84188279540E+01  0.15879459094E+02  0.52573781112E+01  0.72461710729E+02  0.70000182942E+02 0.  0.
        -12    1    1    2    0    0  0.84188279540E+01 -0.15879459094E+02 -0.52573781112E+01  0.18726289271E+02  0.00000000000E+00 0.  1.
         11    1    3    3    0    0  0.14440617747E+01  0.18597239278E+02 -0.15244730734E+02  0.24090339113E+02  0.51100000000E-03 0. -1.
        -11    1    3    3    0    0 -0.54176047177E+01  0.54057744076E+01  0.32401618136E+02  0.33293207955E+02  0.51100000000E-03 0.  1.
         12    1    3    3    0    0 -0.44452850111E+01 -0.81235545914E+01 -0.11899509291E+02  0.15078163661E+02  0.00000000000E+00 0. -1.
</event>
<event>
 7    1  0.1788006E-013  0.7246152E+02  0.7816164E-02  0.1226708E+00
        -11   -1    0    0    0    0  0.00000000000E+00  0.00000000000E+00  0.45593999997E+02  0.45594000000E+02  0.51100000000E-03 0.  1.
         11   -1    0    0    0    0 -0.00000000000E+00 -0.00000000000E+00 -0.45593999997E+02  0.45594000000E+02  0.51100000000E-03 0. -1.
    9900012    2    1    2    0    0  0.32758289353E+01 -0.57265133269E+01 -0.17525893423E+02  0.72461522746E+02  0.69999938059E+02 0.  0.
        -12    1    1    2    0    0 -0.32758289353E+01  0.57265133269E+01  0.17525893423E+02  0.18726477254E+02  0.00000000000E+00 0.  1.
         11    1    3    3    0    0 -0.27480094992E+01 -0.18255895245E+02 -0.27621645838E+02  0.33223253701E+02  0.51100000000E-03 0. -1.
        -11    1    3    3    0    0  0.37342560327E+01  0.11882360495E+01 -0.12907479839E+02  0.13489240493E+02  0.51100000000E-03 0.  1.
        -12    1    3    3    0    0  0.22895824018E+01  0.11341145869E+02  0.23003232254E+02  0.25749028551E+02  0.00000000000E+00 0.  1.
</event>
<event>
 7    1  0.1788006E-013  0.7246173E+02  0.7816164E-02  0.1226708E+00
        -11   -1    0    0    0    0  0.00000000000E+00  0.00000000000E+00  0.45593999997E+02  0.45594000000E+02  0.51100000000E-03 0.  1.
         11   -1    0    0    0    0 -0.00000000000E+00 -0.00000000000E+00 -0.45593999997E+02  0.45594000000E+02  0.51100000000E-03 0. -1.
    9900012    2    1    2    0    0  0.12245845517E+01 -0.14098521741E+02 -0.12263978324E+02  0.72461732701E+02  0.70000211565E+02 0.  0.
        -12    1    1    2    0    0 -0.12245845517E+01  0.14098521741E+02  0.12263978324E+02  0.18726267299E+02  0.00000000000E+00 0.  1.
         11    1    3    3    0    0 -0.14908093952E+02 -0.97157080614E+01 -0.15014707983E+02  0.23282776993E+02  0.51100000000E-03 0. -1.
        -11    1    3    3    0    0 -0.66349439449E+01 -0.15594363164E+02  0.13451543868E+02  0.21636789880E+02  0.51100000000E-03 0.  1.
         12    1    3    3    0    0  0.22767622448E+02  0.11211549484E+02 -0.10700814209E+02  0.27542165828E+02  0.00000000000E+00 0. -1.
</event>
<event>
 7    1  0.1788006E-013  0.7246155E+02  0.7816164E-02  0.1226708E+00
        -11   -1    0    0    0    0  0.00000000000E+00  0.00000000000E+00  0.45593999997E+02  0.45594000000E+02  0.51100000000E-03 0.  1.
         11   -1    0    0    0    0 -0.00000000000E+00 -0.00000000000E+00 -0.45593999997E+02  0.45594000000E+02  0.51100000000E-03 0. -1.
    9900012    2    1    2    0    0 -0.52874895328E+01 -0.48232598004E+01 -0.17304867105E+02  0.72461553295E+02  0.69999977855E+02 0.  0.
        -12    1    1    2    0    0  0.52874895328E+01  0.48232598004E+01  0.17304867105E+02  0.18726446705E+02  0.00000000000E+00 0.  1.
         11    1    3    3    0    0 -0.15985993838E+02  0.63463768650E+01 -0.22961477437E+02  0.28688986470E+02  0.51100000000E-03 0. -1.
        -11    1    3    3    0    0  0.13076440608E+02 -0.22680298613E+01 -0.15673418985E+02  0.20537607489E+02  0.51100000000E-03 0.  1.
        -12    1    3    3    0    0 -0.23779363029E+01 -0.89016068041E+01  0.21330029316E+02  0.23234959337E+02  0.00000000000E+00 0.  1.
</event>
<event>
 7    1  0.1788006E-013  0.7246158E+02  0.7816164E-02  0.1226708E+00
        -11   -1    0    0    0    0  0.00000000000E+00  0.00000000000E+00  0.45593999997E+02  0.45594000000E+02  0.51100000000E-03 0.  1.
         11   -1    0    0    0    0 -0.00000000000E+00 -0.00000000000E+00 -0.45593999997E+02  0.45594000000E+02  0.51100000000E-03 0. -1.
    9900012    2    1    2    0    0 -0.68622526071E+01  0.13374564921E+02 -0.11167338177E+02  0.72461576433E+02  0.70000007996E+02 0.  0.
        -12    1    1    2    0    0  0.68622526071E+01 -0.13374564921E+02  0.11167338177E+02  0.18726423567E+02  0.00000000000E+00 0.  1.
         11    1    3    3    0    0 -0.22963412622E+02  0.31315951557E+02 -0.18037506333E+02  0.42817739036E+02  0.51100000000E-03 0. -1.
        -11    1    3    3    0    0 -0.12296326018E+01 -0.26049513235E+01 -0.32871008984E+01  0.43706750406E+01  0.51100000000E-03 0.  1.
        -12    1    3    3    0    0  0.17330792617E+02 -0.15336435313E+02  0.10157269055E+02  0.25273162356E+02  0.00000000000E+00 0.  1.
</event>
<event>
 7    1  0.1788006E-013  0.7246159E+02  0.7816164E-02  0.1226708E+00
        -11   -1    0    0    0    0  0.00000000000E+00  0.00000000000E+00  0.45593999997E+02  0.45594000000E+02  0.51100000000E-03 0.  1.
         11   -1    0    0    0    0 -0.00000000000E+00 -0.00000000000E+00 -0.45593999997E+02  0.45594000000E+02  0.51100000000E-03 0. -1.
    9900012    2    1    2    0    0 -0.43213046585E+01 -0.40542375333E+01 -0.17764232912E+02  0.72461588521E+02  0.70000023744E+02 0.  0.
        -12    1    1    2    0    0  0.43213046585E+01  0.40542375333E+01  0.17764232912E+02  0.18726411479E+02  0.00000000000E+00 0.  1.
         11    1    3    3    0    0 -0.27185071263E+02  0.94443104779E+01  0.53269207651E+01  0.29267715747E+02  0.51100000000E-03 0. -1.
        -11    1    3    3    0    0  0.67036217910E+01 -0.58243553020E+01  0.47724620286E+01  0.10081570011E+02  0.51100000000E-03 0.  1.
         12    1    3    3    0    0  0.16160144813E+02 -0.76741927091E+01 -0.27863615705E+02  0.33112302763E+02  0.00000000000E+00 0. -1.
</event>
<event>
 7    1  0.1788006E-013  0.7246159E+02  0.7816164E-02  0.1226708E+00
        -11   -1    0    0    0    0  0.00000000000E+00  0.00000000000E+00  0.45593999997E+02  0.45594000000E+02  0.51100000000E-03 0. -1.
         11   -1    0    0    0    0 -0.00000000000E+00 -0.00000000000E+00 -0.45593999997E+02  0.45594000000E+02  0.51100000000E-03 0.  1.
    9900012    2    1    2    0    0  0.10601967314E+01 -0.10279246347E+02  0.15617028820E+02  0.72461587857E+02  0.70000022878E+02 0.  0.
        -12    1    1    2    0    0 -0.10601967314E+01  0.10279246347E+02 -0.15617028820E+02  0.18726412143E+02  0.00000000000E+00 0.  1.
         11    1    3    3    0    0  0.24182717491E+01  0.37419509862E+01  0.11896065676E+02  0.12703015952E+02  0.51100000000E-03 0. -1.
        -11    1    3    3    0    0 -0.37223177684E+01  0.21772839136E+02 -0.54122070629E+01  0.22742123013E+02  0.51100000000E-03 0.  1.
         12    1    3    3    0    0  0.23642427506E+01 -0.35794036469E+02  0.91331702072E+01  0.37016448892E+02  0.00000000000E+00 0. -1.
</event>
<event>
 7    1  0.1788006E-013  0.7246148E+02  0.7816164E-02  0.1226708E+00
        -11   -1    0    0    0    0  0.00000000000E+00  0.00000000000E+00  0.45593999997E+02  0.45594000000E+02  0.51100000000E-03 0.  1.
         11   -1    0    0    0    0 -0.00000000000E+00 -0.00000000000E+00 -0.45593999997E+02  0.45594000000E+02  0.51100000000E-03 0. -1.
    9900012    2    1    2    0    0 -0.14344373668E+02 -0.68311699302E+00 -0.12018936136E+02  0.72461480553E+02  0.69999883095E+02 0.  0.
        -12    1    1    2    0    0  0.14344373668E+02  0.68311699302E+00  0.12018936136E+02  0.18726519447E+02  0.00000000000E+00 0.  1.
         11    1    3    3    0    0 -0.13442502545E+02  0.86037933844E-01 -0.38862428135E+01  0.13993254113E+02  0.51100000000E-03 0. -1.
        -11    1    3    3    0    0 -0.19870077839E+02  0.57451550590E+01  0.16674387894E+02  0.26568063759E+02  0.51100000000E-03 0.  1.
         12    1    3    3    0    0  0.18968206716E+02 -0.65143099858E+01 -0.24807081217E+02  0.31900162682E+02  0.00000000000E+00 0. -1.
</event>
<event>
 7    1  0.1788006E-013  0.7246157E+02  0.7816164E-02  0.1226708E+00
        -11   -1    0    0    0    0  0.00000000000E+00  0.00000000000E+00  0.45593999997E+02  0.45594000000E+02  0.51100000000E-03 0. -1.
         11   -1    0    0    0    0 -0.00000000000E+00 -0.00000000000E+00 -0.45593999997E+02  0.45594000000E+02  0.51100000000E-03 0.  1.
    9900012    2    1    2    0    0  0.17341845774E+02 -0.66792198742E+01  0.23081194745E+01  0.72461574594E+02  0.70000005601E+02 0.  0.
        -12    1    1    2    0    0 -0.17341845774E+02  0.66792198742E+01 -0.23081194745E+01  0.18726425406E+02  0.00000000000E+00 0.  1.
         11    1    3    3    0    0  0.15080986818E+02 -0.93742661820E+01  0.80204012108E+01  0.19484349250E+02  0.51100000000E-03 0. -1.
        -11    1    3    3    0    0 -0.32872747611E+01  0.20983515533E+02  0.14065313210E+02  0.25474440827E+02  0.51100000000E-03 0.  1.
         12    1    3    3    0    0  0.55481337165E+01 -0.18288469225E+02 -0.19777594947E+02  0.27502784517E+02  0.00000000000E+00 0. -1.
</event>
<event>
 7    1  0.1788006E-013  0.7246157E+02  0.7816164E-02  0.1226708E+00
        -11   -1    0    0    0    0  0.00000000000E+00  0.00000000000E+00  0.45593999997E+02  0.45594000000E+02  0.51100000000E-03 0.  1.
         11   -1    0    0    0    0 -0.00000000000E+00 -0.00000000000E+00 -0.45593999997E+02  0.45594000000E+02  0.51100000000E-03 0. -1.
    9900012    2    1    2    0    0  0.39895908319E+01  0.26598716322E+01 -0.18102134476E+02  0.72461574162E+02  0.70000005038E+02 0.  0.
        -12    1    1    2    0    0 -0.39895908319E+01 -0.26598716322E+01  0.18102134476E+02  0.18726425838E+02  0.00000000000E+00 0.  1.
         11    1    3    3    0    0  0.12239273640E+02 -0.40294078405E+01 -0.72131259471E+01  0.14767028576E+02  0.51100000000E-03 0. -1.
        -11    1    3    3    0    0  0.22627647576E+02  0.56149413476E+00  0.38088377047E+01  0.22952841990E+02  0.51100000000E-03 0.  1.
         12    1    3    3    0    0 -0.30877330384E+02  0.61277853379E+01 -0.14697846233E+02  0.34741703595E+02  0.00000000000E+00 0. -1.
</event>
<event>
 7    1  0.1788006E-013  0.7246159E+02  0.7816164E-02  0.1226708E+00
        -11   -1    0    0    0    0  0.00000000000E+00  0.00000000000E+00  0.45593999997E+02  0.45594000000E+02  0.51100000000E-03 0.  1.
         11   -1    0    0    0    0 -0.00000000000E+00 -0.00000000000E+00 -0.45593999997E+02  0.45594000000E+02  0.51100000000E-03 0. -1.
    9900012    2    1    2    0    0 -0.52994685014E+01  0.25635918419E+00 -0.17959075619E+02  0.72461588611E+02  0.70000023861E+02 0.  0.
        -12    1    1    2    0    0  0.52994685014E+01 -0.25635918419E+00  0.17959075619E+02  0.18726411389E+02  0.00000000000E+00 0.  1.
         11    1    3    3    0    0  0.19602904405E+02  0.65118331080E+01  0.49173898761E+01  0.21233430128E+02  0.51100000000E-03 0.  1.
        -11    1    3    3    0    0 -0.92951800194E+01 -0.11168614567E+02  0.77771448567E+01  0.16480967973E+02  0.51100000000E-03 0. -1.
        -12    1    3    3    0    0 -0.15607192887E+02  0.49131406428E+01 -0.30653610351E+02  0.34747190510E+02  0.00000000000E+00 0.  1.
</event>
<event>
 7    1  0.1788006E-013  0.7246146E+02  0.7816164E-02  0.1226708E+00
        -11   -1    0    0    0    0  0.00000000000E+00  0.00000000000E+00  0.45593999997E+02  0.45594000000E+02  0.51100000000E-03 0.  1.
         11   -1    0    0    0    0 -0.00000000000E+00 -0.00000000000E+00 -0.45593999997E+02  0.45594000000E+02  0.51100000000E-03 0. -1.
    9900012    2    1    2    0    0  0.14060612718E+02 -0.20433748202E+01 -0.12198653104E+02  0.72461458723E+02  0.69999854657E+02 0.  0.
        -12    1    1    2    0    0 -0.14060612718E+02  0.20433748202E+01  0.12198653104E+02  0.18726541277E+02  0.00000000000E+00 0.  1.
         11    1    3    3    0    0 -0.15650359608E+02 -0.68091976642E+01 -0.24664809940E+01  0.17244780586E+02  0.51100000000E-03 0. -1.
        -11    1    3    3    0    0  0.15326519241E+02 -0.58308200672E+01  0.16640182361E+02  0.23362284220E+02  0.51100000000E-03 0.  1.
         12    1    3    3    0    0  0.14384453085E+02  0.10596642911E+02 -0.26372354470E+02  0.31854393917E+02  0.00000000000E+00 0. -1.
</event>
<event>
 7    1  0.1788006E-013  0.7246104E+02  0.7816164E-02  0.1226709E+00
        -11   -1    0    0    0    0  0.00000000000E+00  0.00000000000E+00  0.45593999997E+02  0.45594000000E+02  0.51100000000E-03 0. -1.
         11   -1    0    0    0    0 -0.00000000000E+00 -0.00000000000E+00 -0.45593999997E+02  0.45594000000E+02  0.51100000000E-03 0.  1.
    9900012    2    1    2    0    0  0.15721138557E+02  0.10175638898E+02 -0.35394702999E-01  0.72461038760E+02  0.69999307574E+02 0.  0.
        -12    1    1    2    0    0 -0.15721138557E+02 -0.10175638898E+02  0.35394702999E-01  0.18726961240E+02  0.00000000000E+00 0.  1.
         11    1    3    3    0    0  0.24990059356E+02 -0.21044512720E+01 -0.15079427317E+02  0.29262961406E+02  0.51100000000E-03 0. -1.
        -11    1    3    3    0    0 -0.19123406583E+01 -0.12371469267E+02 -0.15057562958E+01  0.12608632000E+02  0.51100000000E-03 0.  1.
         12    1    3    3    0    0 -0.73565801409E+01  0.24651559437E+02  0.16549788910E+02  0.30589445353E+02  0.00000000000E+00 0. -1.
</event>
<event>
 7    1  0.1788006E-013  0.7246162E+02  0.7816164E-02  0.1226708E+00
        -11   -1    0    0    0    0  0.00000000000E+00  0.00000000000E+00  0.45593999997E+02  0.45594000000E+02  0.51100000000E-03 0. -1.
         11   -1    0    0    0    0 -0.00000000000E+00 -0.00000000000E+00 -0.45593999997E+02  0.45594000000E+02  0.51100000000E-03 0.  1.
    9900012    2    1    2    0    0 -0.18357019000E+02 -0.36215660132E+01 -0.76262580334E+00  0.72461615270E+02  0.70000058589E+02 0.  0.
        -12    1    1    2    0    0  0.18357019000E+02  0.36215660132E+01  0.76262580334E+00  0.18726384730E+02  0.00000000000E+00 0.  1.
         11    1    3    3    0    0 -0.32377773700E+02 -0.14562882090E+02  0.31913364044E+01  0.35645229595E+02  0.51100000000E-03 0. -1.
        -11    1    3    3    0    0 -0.93744468539E+01  0.40321055812E+01  0.42858011145E+01  0.11068252829E+02  0.51100000000E-03 0.  1.
        -12    1    3    3    0    0  0.23395201554E+02  0.69092104961E+01 -0.82397633223E+01  0.25748132846E+02  0.00000000000E+00 0.  1.
</event>
<event>
 7    1  0.1788006E-013  0.7246156E+02  0.7816164E-02  0.1226708E+00
        -11   -1    0    0    0    0  0.00000000000E+00  0.00000000000E+00  0.45593999997E+02  0.45594000000E+02  0.51100000000E-03 0. -1.
         11   -1    0    0    0    0 -0.00000000000E+00 -0.00000000000E+00 -0.45593999997E+02  0.45594000000E+02  0.51100000000E-03 0.  1.
    9900012    2    1    2    0    0  0.98072517124E+01  0.10799655970E+02  0.11741586129E+02  0.72461558799E+02  0.69999985026E+02 0.  0.
        -12    1    1    2    0    0 -0.98072517124E+01 -0.10799655970E+02 -0.11741586129E+02  0.18726441201E+02  0.00000000000E+00 0.  1.
         11    1    3    3    0    0  0.53447347985E+01  0.26210549718E+01  0.20935207057E+01  0.63102257042E+01  0.51100000000E-03 0. -1.
        -11    1    3    3    0    0  0.72278968779E+01  0.34405261465E+02 -0.57344646745E+01  0.35620901100E+02  0.51100000000E-03 0.  1.
         12    1    3    3    0    0 -0.27653799641E+01 -0.26226660468E+02  0.15382530098E+02  0.30530431996E+02  0.00000000000E+00 0. -1.
</event>
<event>
 7    1  0.1788006E-013  0.7246163E+02  0.7816164E-02  0.1226708E+00
        -11   -1    0    0    0    0  0.00000000000E+00  0.00000000000E+00  0.45593999997E+02  0.45594000000E+02  0.51100000000E-03 0.  1.
         11   -1    0    0    0    0 -0.00000000000E+00 -0.00000000000E+00 -0.45593999997E+02  0.45594000000E+02  0.51100000000E-03 0. -1.
    9900012    2    1    2    0    0 -0.38344547371E+01 -0.14739631599E+01 -0.18270229011E+02  0.72461631461E+02  0.70000079681E+02 0.  0.
        -12    1    1    2    0    0  0.38344547371E+01  0.14739631599E+01  0.18270229011E+02  0.18726368539E+02  0.00000000000E+00 0.  1.
         11    1    3    3    0    0 -0.18625779257E+02  0.17654291003E+01 -0.18122609767E+02  0.26047367964E+02  0.51100000000E-03 0. -1.
        -11    1    3    3    0    0  0.65400194419E+01 -0.23575529192E+02 -0.28367779847E+00  0.24467486678E+02  0.51100000000E-03 0.  1.
        -12    1    3    3    0    0  0.82513050781E+01  0.20336136932E+02  0.13605855391E+00  0.21946776819E+02  0.00000000000E+00 0.  1.
</event>
<event>
 7    1  0.1788006E-013  0.7246153E+02  0.7816164E-02  0.1226708E+00
        -11   -1    0    0    0    0  0.00000000000E+00  0.00000000000E+00  0.45593999997E+02  0.45594000000E+02  0.51100000000E-03 0. -1.
         11   -1    0    0    0    0 -0.00000000000E+00 -0.00000000000E+00 -0.45593999997E+02  0.45594000000E+02  0.51100000000E-03 0.  1.
    9900012    2    1    2    0    0  0.14822219587E+02  0.50674448851E+01  0.10261739736E+02  0.72461534942E+02  0.69999953947E+02 0.  0.
        -12    1    1    2    0    0 -0.14822219587E+02 -0.50674448851E+01 -0.10261739736E+02  0.18726465058E+02  0.00000000000E+00 0.  1.
         11    1    3    3    0    0 -0.91528998148E+01 -0.24879975216E+02  0.10727866647E+02  0.28598529067E+02  0.51100000000E-03 0. -1.
        -11    1    3    3    0    0 -0.22962616882E+01  0.20233519253E+01  0.42467349221E+01  0.52346469331E+01  0.51100000000E-03 0.  1.
        -12    1    3    3    0    0  0.26271381090E+02  0.27924068175E+02 -0.47128618336E+01  0.38628358942E+02  0.00000000000E+00 0.  1.
</event>
<event>
 7    1  0.1788006E-013  0.7246155E+02  0.7816164E-02  0.1226708E+00
        -11   -1    0    0    0    0  0.00000000000E+00  0.00000000000E+00  0.45593999997E+02  0.45594000000E+02  0.51100000000E-03 0.  1.
         11   -1    0    0    0    0 -0.00000000000E+00 -0.00000000000E+00 -0.45593999997E+02  0.45594000000E+02  0.51100000000E-03 0. -1.
    9900012    2    1    2    0    0  0.91994452338E+01 -0.16133588382E+02 -0.23994530868E+01  0.72461552344E+02  0.69999976617E+02 0.  0.
        -12    1    1    2    0    0 -0.91994452338E+01  0.16133588382E+02  0.23994530868E+01  0.18726447656E+02  0.00000000000E+00 0.  1.
         11    1    3    3    0    0 -0.21777470570E+01  0.81076364694E+00  0.58216415822E+01  0.62682877174E+01  0.51100000000E-03 0. -1.
        -11    1    3    3    0    0 -0.21186012379E+02  0.74523727693E+01  0.57324567536E+01  0.23178568573E+02  0.51100000000E-03 0.  1.
         12    1    3    3    0    0  0.32563204670E+02 -0.24396724798E+02 -0.13953551423E+02  0.43014696053E+02  0.00000000000E+00 0. -1.
</event>
<event>
 7    1  0.1788006E-013  0.7246173E+02  0.7816164E-02  0.1226708E+00
        -11   -1    0    0    0    0  0.00000000000E+00  0.00000000000E+00  0.45593999997E+02  0.45594000000E+02  0.51100000000E-03 0. -1.
         11   -1    0    0    0    0 -0.00000000000E+00 -0.00000000000E+00 -0.45593999997E+02  0.45594000000E+02  0.51100000000E-03 0.  1.
    9900012    2    1    2    0    0  0.73802933382E+01  0.12715810751E+02 -0.11597959972E+02  0.72461728392E+02  0.70000205952E+02 0.  0.
        -12    1    1    2    0    0 -0.73802933382E+01 -0.12715810751E+02  0.11597959972E+02  0.18726271608E+02  0.00000000000E+00 0.  1.
         11    1    3    3    0    0 -0.35274215491E+01  0.12747301705E+01  0.48640526702E+01  0.61422022461E+01  0.51100000000E-03 0. -1.
        -11    1    3    3    0    0  0.33938081239E+02 -0.66949927955E-01  0.29640335975E+01  0.34067335322E+02  0.51100000000E-03 0.  1.
         12    1    3    3    0    0 -0.23030366352E+02  0.11508030508E+02 -0.19426046240E+02  0.32252190825E+02  0.00000000000E+00 0. -1.
</event>
<event>
 7    1  0.1788006E-013  0.7246138E+02  0.7816164E-02  0.1226709E+00
        -11   -1    0    0    0    0  0.00000000000E+00  0.00000000000E+00  0.45593999997E+02  0.45594000000E+02  0.51100000000E-03 0.  1.
         11   -1    0    0    0    0 -0.00000000000E+00 -0.00000000000E+00 -0.45593999997E+02  0.45594000000E+02  0.51100000000E-03 0. -1.
    9900012    2    1    2    0    0  0.10843291525E+02  0.11868169339E+02  0.96049940118E+01  0.72461379255E+02  0.69999751135E+02 0.  0.
        -12    1    1    2    0    0 -0.10843291525E+02 -0.11868169339E+02 -0.96049940118E+01  0.18726620745E+02  0.00000000000E+00 0.  1.
         11    1    3    3    0    0  0.15118094498E+02 -0.23149682342E+02  0.65843657297E+01  0.28422147106E+02  0.51100000000E-03 0. -1.
        -11    1    3    3    0    0 -0.15387761666E+01 -0.33081076237E+01  0.42434628855E+01  0.55962832007E+01  0.51100000000E-03 0.  1.
        -12    1    3    3    0    0 -0.27360268063E+01  0.38325959305E+02 -0.12228346033E+01  0.38442948948E+02  0.00000000000E+00 0.  1.
</event>
<event>
 7    1  0.1788006E-013  0.7246156E+02  0.7816164E-02  0.1226708E+00
        -11   -1    0    0    0    0  0.00000000000E+00  0.00000000000E+00  0.45593999997E+02  0.45594000000E+02  0.51100000000E-03 0.  1.
         11   -1    0    0    0    0 -0.00000000000E+00 -0.00000000000E+00 -0.45593999997E+02  0.45594000000E+02  0.51100000000E-03 0. -1.
    9900012    2    1    2    0    0 -0.17622013680E+02 -0.49736620281E+01  0.39251448650E+01  0.72461563011E+02  0.69999990512E+02 0.  0.
        -12    1    1    2    0    0  0.17622013680E+02  0.49736620281E+01 -0.39251448650E+01  0.18726436989E+02  0.00000000000E+00 0.  1.
         11    1    3    3    0    0 -0.28116164822E+01 -0.27405247126E+02 -0.11435120613E+02  0.29828086445E+02  0.51100000000E-03 0. -1.
        -11    1    3    3    0    0 -0.58098364814E+01  0.16173956398E+02 -0.63429239224E+01  0.18318945102E+02  0.51100000000E-03 0.  1.
        -12    1    3    3    0    0 -0.90005607161E+01  0.62576286999E+01  0.21703189400E+02  0.24314531463E+02  0.00000000000E+00 0.  1.
</event>
<event>
 7    1  0.1788006E-013  0.7246154E+02  0.7816164E-02  0.1226708E+00
        -11   -1    0    0    0    0  0.00000000000E+00  0.00000000000E+00  0.45593999997E+02  0.45594000000E+02  0.51100000000E-03 0. -1.
         11   -1    0    0    0    0 -0.00000000000E+00 -0.00000000000E+00 -0.45593999997E+02  0.45594000000E+02  0.51100000000E-03 0.  1.
    9900012    2    1    2    0    0  0.42859721358E+00 -0.30663353448E+01  0.18468740347E+02  0.72461535357E+02  0.69999954488E+02 0.  0.
        -12    1    1    2    0    0 -0.42859721358E+00  0.30663353448E+01 -0.18468740347E+02  0.18726464643E+02  0.00000000000E+00 0.  1.
         11    1    3    3    0    0  0.53177704652E+01  0.82243027765E+01 -0.46123965347E+01  0.10825527282E+02  0.51100000000E-03 0. -1.
        -11    1    3    3    0    0 -0.42709809081E+01 -0.32602029908E+02  0.23326052949E+02  0.40314245354E+02  0.51100000000E-03 0.  1.
         12    1    3    3    0    0 -0.61819234355E+00  0.21311391786E+02 -0.24491606782E+00  0.21321762721E+02  0.00000000000E+00 0. -1.
</event>
<event>
 7    1  0.1788006E-013  0.7246157E+02  0.7816164E-02  0.1226708E+00
        -11   -1    0    0    0    0  0.00000000000E+00  0.00000000000E+00  0.45593999997E+02  0.45594000000E+02  0.51100000000E-03 0. -1.
         11   -1    0    0    0    0 -0.00000000000E+00 -0.00000000000E+00 -0.45593999997E+02  0.45594000000E+02  0.51100000000E-03 0.  1.
    9900012    2    1    2    0    0  0.85780365032E+01 -0.15642682393E+00  0.16645476937E+02  0.72461572630E+02  0.70000003042E+02 0.  0.
        -12    1    1    2    0    0 -0.85780365032E+01  0.15642682393E+00 -0.16645476937E+02  0.18726427370E+02  0.00000000000E+00 0.  1.
         11    1    3    3    0    0 -0.25265338323E+02 -0.80487819724E+01  0.17709649573E+02  0.31886547321E+02  0.51100000000E-03 0. -1.
        -11    1    3    3    0    0 -0.27078519992E+01  0.23487419912E+01 -0.31254370135E+00  0.35981571974E+01  0.51100000000E-03 0.  1.
        -12    1    3    3    0    0  0.36551226825E+02  0.55436131572E+01 -0.75162893414E+00  0.36976868111E+02  0.00000000000E+00 0.  1.
</event>
<event>
 7    1  0.1788006E-013  0.7246157E+02  0.7816164E-02  0.1226708E+00
        -11   -1    0    0    0    0  0.00000000000E+00  0.00000000000E+00  0.45593999997E+02  0.45594000000E+02  0.51100000000E-03 0.  1.
         11   -1    0    0    0    0 -0.00000000000E+00 -0.00000000000E+00 -0.45593999997E+02  0.45594000000E+02  0.51100000000E-03 0. -1.
    9900012    2    1    2    0    0 -0.11224248616E+02  0.74964926178E+01  0.12980681396E+02  0.72461568197E+02  0.69999997268E+02 0.  0.
        -12    1    1    2    0    0  0.11224248616E+02 -0.74964926178E+01 -0.12980681396E+02  0.18726431803E+02  0.00000000000E+00 0.  1.
         11    1    3    3    0    0 -0.45024222958E+00 -0.14929754912E+02  0.19482324518E+02  0.24549160244E+02  0.51100000000E-03 0. -1.
        -11    1    3    3    0    0 -0.55553618289E+00 -0.10333966111E+02 -0.87073666893E+01  0.13524707426E+02  0.51100000000E-03 0.  1.
        -12    1    3    3    0    0 -0.10218470204E+02  0.32760213641E+02  0.22057235669E+01  0.34387700527E+02  0.00000000000E+00 0.  1.
</event>
<event>
 7    1  0.1788006E-013  0.7246202E+02  0.7816164E-02  0.1226707E+00
        -11   -1    0    0    0    0  0.00000000000E+00  0.00000000000E+00  0.45593999997E+02  0.45594000000E+02  0.51100000000E-03 0. -1.
         11   -1    0    0    0    0 -0.00000000000E+00 -0.00000000000E+00 -0.45593999997E+02  0.45594000000E+02  0.51100000000E-03 0.  1.
    9900012    2    1    2    0    0  0.20027145436E+01  0.91073564921E+01  0.16239068391E+02  0.72462024724E+02  0.70000591977E+02 0.  0.
        -12    1    1    2    0    0 -0.20027145436E+01 -0.91073564921E+01 -0.16239068391E+02  0.18725975276E+02  0.00000000000E+00 0.  1.
         11    1    3    3    0    0  0.17239857942E+02  0.20697344872E+01 -0.14688713141E+02  0.22743236285E+02  0.51100000000E-03 0. -1.
        -11    1    3    3    0    0 -0.45183608702E+01  0.39349654865E+01 -0.75597694523E+01  0.96462247934E+01  0.51100000000E-03 0.  1.
         12    1    3    3    0    0 -0.10718782529E+02  0.31026565184E+01  0.38487550984E+02  0.40072563646E+02  0.00000000000E+00 0. -1.
</event>
<event>
 7    1  0.1788006E-013  0.7246159E+02  0.7816164E-02  0.1226708E+00
        -11   -1    0    0    0    0  0.00000000000E+00  0.00000000000E+00  0.45593999997E+02  0.45594000000E+02  0.51100000000E-03 0.  1.
         11   -1    0    0    0    0 -0.00000000000E+00 -0.00000000000E+00 -0.45593999997E+02  0.45594000000E+02  0.51100000000E-03 0. -1.
    9900012    2    1    2    0    0 -0.84998175764E+01  0.16368132465E+02 -0.32427950486E+01  0.72461591403E+02  0.70000027498E+02 0.  0.
        -12    1    1    2    0    0  0.84998175764E+01 -0.16368132465E+02  0.32427950486E+01  0.18726408597E+02  0.00000000000E+00 0.  1.
         11    1    3    3    0    0  0.52407939503E+01 -0.17516759407E+01  0.60959233749E+01  0.82276711094E+01  0.51100000000E-03 0. -1.
        -11    1    3    3    0    0  0.12789204606E+02 -0.15880932131E+02 -0.20087203535E+01  0.20489087767E+02  0.51100000000E-03 0.  1.
         12    1    3    3    0    0 -0.26529816133E+02  0.34000740537E+02 -0.73299980699E+01  0.43744832527E+02  0.00000000000E+00 0. -1.
</event>
<event>
 7    1  0.1788006E-013  0.7246163E+02  0.7816164E-02  0.1226708E+00
        -11   -1    0    0    0    0  0.00000000000E+00  0.00000000000E+00  0.45593999997E+02  0.45594000000E+02  0.51100000000E-03 0.  1.
         11   -1    0    0    0    0 -0.00000000000E+00 -0.00000000000E+00 -0.45593999997E+02  0.45594000000E+02  0.51100000000E-03 0. -1.
    9900012    2    1    2    0    0 -0.10748052152E+02 -0.20847038340E+01 -0.15192447673E+02  0.72461626047E+02  0.70000072628E+02 0.  0.
        -12    1    1    2    0    0  0.10748052152E+02  0.20847038340E+01  0.15192447673E+02  0.18726373953E+02  0.00000000000E+00 0.  1.
         11    1    3    3    0    0  0.10358398010E+02 -0.10521932696E+02  0.15965626918E+01  0.14851144390E+02  0.51100000000E-03 0. -1.
        -11    1    3    3    0    0 -0.24476354756E+02 -0.15219633525E+01  0.11752319517E+02  0.27194214990E+02  0.51100000000E-03 0.  1.
         12    1    3    3    0    0  0.33699045937E+01  0.99591922150E+01 -0.28541329882E+02  0.30416266667E+02  0.00000000000E+00 0. -1.
</event>
<event>
 7    1  0.1788006E-013  0.7246160E+02  0.7816164E-02  0.1226708E+00
        -11   -1    0    0    0    0  0.00000000000E+00  0.00000000000E+00  0.45593999997E+02  0.45594000000E+02  0.51100000000E-03 0. -1.
         11   -1    0    0    0    0 -0.00000000000E+00 -0.00000000000E+00 -0.45593999997E+02  0.45594000000E+02  0.51100000000E-03 0.  1.
    9900012    2    1    2    0    0 -0.16398811812E+02 -0.70553281399E+01 -0.56550359706E+01  0.72461598428E+02  0.70000036649E+02 0.  0.
        -12    1    1    2    0    0  0.16398811812E+02  0.70553281399E+01  0.56550359706E+01  0.18726401572E+02  0.00000000000E+00 0.  1.
         11    1    3    3    0    0  0.58879512815E+01 -0.13762317247E+01  0.40623087917E+01  0.72845272347E+01  0.51100000000E-03 0. -1.
        -11    1    3    3    0    0  0.67594807276E+01 -0.78364994457E-01 -0.29058217389E+02  0.29834153564E+02  0.51100000000E-03 0.  1.
        -12    1    3    3    0    0 -0.29046243822E+02 -0.56007314207E+01  0.19340872627E+02  0.35342917629E+02  0.00000000000E+00 0.  1.
</event>
<event>
 7    1  0.1788006E-013  0.7246168E+02  0.7816164E-02  0.1226708E+00
        -11   -1    0    0    0    0  0.00000000000E+00  0.00000000000E+00  0.45593999997E+02  0.45594000000E+02  0.51100000000E-03 0.  1.
         11   -1    0    0    0    0 -0.00000000000E+00 -0.00000000000E+00 -0.45593999997E+02  0.45594000000E+02  0.51100000000E-03 0. -1.
    9900012    2    1    2    0    0  0.14389852569E+02  0.10539971122E+02 -0.57022942941E+01  0.72461681397E+02  0.70000144732E+02 0.  0.
        -12    1    1    2    0    0 -0.14389852569E+02 -0.10539971122E+02  0.57022942941E+01  0.18726318603E+02  0.00000000000E+00 0.  1.
         11    1    3    3    0    0  0.19741419787E+01  0.27644314847E+02 -0.17127459536E+02  0.32579982356E+02  0.51100000000E-03 0. -1.
        -11    1    3    3    0    0  0.28393285497E+01  0.95023111304E+01  0.34608582425E+01  0.10503963227E+02  0.51100000000E-03 0.  1.
        -12    1    3    3    0    0  0.95763820402E+01 -0.26606654856E+02  0.79643069997E+01  0.29377735814E+02  0.00000000000E+00 0.  1.
</event>
<event>
 7    1  0.1788006E-013  0.7246151E+02  0.7816164E-02  0.1226708E+00
        -11   -1    0    0    0    0  0.00000000000E+00  0.00000000000E+00  0.45593999997E+02  0.45594000000E+02  0.51100000000E-03 0.  1.
         11   -1    0    0    0    0 -0.00000000000E+00 -0.00000000000E+00 -0.45593999997E+02  0.45594000000E+02  0.51100000000E-03 0. -1.
    9900012    2    1    2    0    0 -0.11260042206E+02 -0.17130403552E+01 -0.14864674288E+02  0.72461505415E+02  0.69999915483E+02 0.  0.
        -12    1    1    2    0    0  0.11260042206E+02  0.17130403552E+01  0.14864674288E+02  0.18726494585E+02  0.00000000000E+00 0.  1.
         11    1    3    3    0    0 -0.98447954452E+00 -0.69811911016E+01  0.23108812818E+02  0.24160369602E+02  0.51100000000E-03 0. -1.
        -11    1    3    3    0    0 -0.35924356642E+01 -0.11365801155E+02 -0.15530168916E+02  0.19577363886E+02  0.51100000000E-03 0.  1.
        -12    1    3    3    0    0 -0.66831269971E+01  0.16633951902E+02 -0.22443318191E+02  0.28723771928E+02  0.00000000000E+00 0.  1.
</event>
<event>
 7    1  0.1788006E-013  0.7246155E+02  0.7816164E-02  0.1226708E+00
        -11   -1    0    0    0    0  0.00000000000E+00  0.00000000000E+00  0.45593999997E+02  0.45594000000E+02  0.51100000000E-03 0.  1.
         11   -1    0    0    0    0 -0.00000000000E+00 -0.00000000000E+00 -0.45593999997E+02  0.45594000000E+02  0.51100000000E-03 0. -1.
    9900012    2    1    2    0    0  0.12773789886E+02  0.17295566449E+01  0.13583772484E+02  0.72461549479E+02  0.69999972884E+02 0.  0.
        -12    1    1    2    0    0 -0.12773789886E+02 -0.17295566449E+01 -0.13583772484E+02  0.18726450521E+02  0.00000000000E+00 0.  1.
         11    1    3    3    0    0  0.79680490354E+00  0.13443415357E+01 -0.14677358570E+01  0.21439218796E+01  0.51100000000E-03 0. -1.
        -11    1    3    3    0    0 -0.19651856243E+02 -0.13608924096E+02 -0.11680103914E+02  0.26604944964E+02  0.51100000000E-03 0.  1.
         12    1    3    3    0    0  0.31628841226E+02  0.13994139205E+02  0.26731612255E+02  0.43712682635E+02  0.00000000000E+00 0. -1.
</event>
<event>
 7    1  0.1788006E-013  0.7246163E+02  0.7816164E-02  0.1226708E+00
        -11   -1    0    0    0    0  0.00000000000E+00  0.00000000000E+00  0.45593999997E+02  0.45594000000E+02  0.51100000000E-03 0.  1.
         11   -1    0    0    0    0 -0.00000000000E+00 -0.00000000000E+00 -0.45593999997E+02  0.45594000000E+02  0.51100000000E-03 0. -1.
    9900012    2    1    2    0    0  0.16909270699E+02  0.68519392350E+01  0.42195429364E+01  0.72461626901E+02  0.70000073741E+02 0.  0.
        -12    1    1    2    0    0 -0.16909270699E+02 -0.68519392350E+01 -0.42195429364E+01  0.18726373099E+02  0.00000000000E+00 0.  1.
         11    1    3    3    0    0 -0.11589405078E+02  0.22777201498E+02 -0.40415912947E+01  0.25873725642E+02  0.51100000000E-03 0. -1.
        -11    1    3    3    0    0  0.47229753325E+01 -0.13422687990E+02 -0.92341632032E+01  0.16963042745E+02  0.51100000000E-03 0.  1.
        -12    1    3    3    0    0  0.23775700445E+02 -0.25025742735E+01  0.17495297434E+02  0.29624858513E+02  0.00000000000E+00 0.  1.
</event>
<event>
 7    1  0.1788006E-013  0.7246151E+02  0.7816164E-02  0.1226708E+00
        -11   -1    0    0    0    0  0.00000000000E+00  0.00000000000E+00  0.45593999997E+02  0.45594000000E+02  0.51100000000E-03 0. -1.
         11   -1    0    0    0    0 -0.00000000000E+00 -0.00000000000E+00 -0.45593999997E+02  0.45594000000E+02  0.51100000000E-03 0.  1.
    9900012    2    1    2    0    0  0.47783772133E+01 -0.11472794769E+02  0.14007977619E+02  0.72461512193E+02  0.69999924313E+02 0.  0.
        -12    1    1    2    0    0 -0.47783772133E+01  0.11472794769E+02 -0.14007977619E+02  0.18726487807E+02  0.00000000000E+00 0.  1.
         11    1    3    3    0    0 -0.80247086276E+01 -0.24700349430E+02 -0.10247074093E+02  0.27919629981E+02  0.51100000000E-03 0. -1.
        -11    1    3    3    0    0  0.77999720958E+01 -0.10472016654E+02  0.98934445387E+01  0.16382397340E+02  0.51100000000E-03 0.  1.
        -12    1    3    3    0    0  0.50031137450E+01  0.23699571316E+02  0.14361607174E+02  0.28159484873E+02  0.00000000000E+00 0.  1.
</event>
<event>
 7    1  0.1788006E-013  0.7246160E+02  0.7816164E-02  0.1226708E+00
        -11   -1    0    0    0    0  0.00000000000E+00  0.00000000000E+00  0.45593999997E+02  0.45594000000E+02  0.51100000000E-03 0. -1.
         11   -1    0    0    0    0 -0.00000000000E+00 -0.00000000000E+00 -0.45593999997E+02  0.45594000000E+02  0.51100000000E-03 0.  1.
    9900012    2    1    2    0    0  0.49791547830E+01  0.15568225713E+02  0.91387246076E+01  0.72461603613E+02  0.70000043403E+02 0.  0.
        -12    1    1    2    0    0 -0.49791547830E+01 -0.15568225713E+02 -0.91387246076E+01  0.18726396387E+02  0.00000000000E+00 0.  1.
         11    1    3    3    0    0 -0.67297232284E+01 -0.21907020551E+02 -0.10086687505E+00  0.22917611101E+02  0.51100000000E-03 0. -1.
        -11    1    3    3    0    0  0.13863400519E+02  0.30743442582E+01  0.23336438361E+01  0.14390669213E+02  0.51100000000E-03 0.  1.
        -12    1    3    3    0    0 -0.21545225079E+01  0.34400902006E+02  0.69059476466E+01  0.35153323299E+02  0.00000000000E+00 0.  1.
</event>
<event>
 7    1  0.1788006E-013  0.7246156E+02  0.7816164E-02  0.1226708E+00
        -11   -1    0    0    0    0  0.00000000000E+00  0.00000000000E+00  0.45593999997E+02  0.45594000000E+02  0.51100000000E-03 0.  1.
         11   -1    0    0    0    0 -0.00000000000E+00 -0.00000000000E+00 -0.45593999997E+02  0.45594000000E+02  0.51100000000E-03 0. -1.
    9900012    2    1    2    0    0  0.69247530327E+01 -0.34528621574E+01 -0.17053013131E+02  0.72461555636E+02  0.69999980905E+02 0.  0.
        -12    1    1    2    0    0 -0.69247530327E+01  0.34528621574E+01  0.17053013131E+02  0.18726444364E+02  0.00000000000E+00 0.  1.
         11    1    3    3    0    0  0.22904777733E+02 -0.24685713572E+01  0.41344898383E+01  0.23405484272E+02  0.51100000000E-03 0. -1.
        -11    1    3    3    0    0  0.98338138084E+00  0.61537224784E+01  0.10616838464E+02  0.12310670108E+02  0.51100000000E-03 0.  1.
         12    1    3    3    0    0 -0.16963406081E+02 -0.71380132787E+01 -0.31804341434E+02  0.36745401256E+02  0.00000000000E+00 0. -1.
</event>
<event>
 7    1  0.1788006E-013  0.7246154E+02  0.7816164E-02  0.1226708E+00
        -11   -1    0    0    0    0  0.00000000000E+00  0.00000000000E+00  0.45593999997E+02  0.45594000000E+02  0.51100000000E-03 0.  1.
         11   -1    0    0    0    0 -0.00000000000E+00 -0.00000000000E+00 -0.45593999997E+02  0.45594000000E+02  0.51100000000E-03 0. -1.
    9900012    2    1    2    0    0  0.97361175138E+00  0.58689904647E+01 -0.17756332129E+02  0.72461540121E+02  0.69999960694E+02 0.  0.
        -12    1    1    2    0    0 -0.97361175138E+00 -0.58689904647E+01  0.17756332129E+02  0.18726459879E+02  0.00000000000E+00 0.  1.
         11    1    3    3    0    0 -0.57413462226E+01 -0.81333116739E+01 -0.21912500620E+02  0.24068059724E+02  0.51100000000E-03 0. -1.
        -11    1    3    3    0    0  0.22078362984E+02  0.19128825547E+01 -0.99436330285E+01  0.24289690607E+02  0.51100000000E-03 0.  1.
        -12    1    3    3    0    0 -0.15363405010E+02  0.12089419584E+02  0.14099801519E+02  0.24103789790E+02  0.00000000000E+00 0.  1.
</event>
<event>
 7    1  0.1788006E-013  0.7246139E+02  0.7816164E-02  0.1226708E+00
        -11   -1    0    0    0    0  0.00000000000E+00  0.00000000000E+00  0.45593999997E+02  0.45594000000E+02  0.51100000000E-03 0.  1.
         11   -1    0    0    0    0 -0.00000000000E+00 -0.00000000000E+00 -0.45593999997E+02  0.45594000000E+02  0.51100000000E-03 0. -1.
    9900012    2    1    2    0    0  0.12524822529E+02  0.10131753210E+02  0.95478931421E+01  0.72461391499E+02  0.69999767085E+02 0.  0.
        -12    1    1    2    0    0 -0.12524822529E+02 -0.10131753210E+02 -0.95478931421E+01  0.18726608501E+02  0.00000000000E+00 0.  1.
         11    1    3    3    0    0  0.10988541264E+02  0.26958552188E+02 -0.66515001645E+01  0.29862250918E+02  0.51100000000E-03 0. -1.
        -11    1    3    3    0    0  0.12139984308E+02  0.29732523932E+01 -0.32206758712E+01  0.12907060166E+02  0.51100000000E-03 0.  1.
        -12    1    3    3    0    0 -0.10603703043E+02 -0.19800051371E+02  0.19420069178E+02  0.29692080415E+02  0.00000000000E+00 0.  1.
</event>
<event>
 7    1  0.1788006E-013  0.7246160E+02  0.7816164E-02  0.1226708E+00
        -11   -1    0    0    0    0  0.00000000000E+00  0.00000000000E+00  0.45593999997E+02  0.45594000000E+02  0.51100000000E-03 0. -1.
         11   -1    0    0    0    0 -0.00000000000E+00 -0.00000000000E+00 -0.45593999997E+02  0.45594000000E+02  0.51100000000E-03 0.  1.
    9900012    2    1    2    0    0  0.42518934642E+01 -0.17845051365E+02  0.37621048841E+01  0.72461604473E+02  0.70000044525E+02 0.  0.
        -12    1    1    2    0    0 -0.42518934642E+01  0.17845051365E+02 -0.37621048841E+01  0.18726395527E+02  0.00000000000E+00 0.  1.
         11    1    3    3    0    0 -0.21108614462E+02  0.98165912130E+01 -0.70306276182E+01  0.24318075428E+02  0.51100000000E-03 0. -1.
        -11    1    3    3    0    0  0.89570245284E+01 -0.44278200971E+01 -0.90369445751E+01  0.13472202742E+02  0.51100000000E-03 0.  1.
         12    1    3    3    0    0  0.16403483398E+02 -0.23233822481E+02  0.19829677077E+02  0.34671326304E+02  0.00000000000E+00 0. -1.
</event>
<event>
 7    1  0.1788006E-013  0.7246154E+02  0.7816164E-02  0.1226708E+00
        -11   -1    0    0    0    0  0.00000000000E+00  0.00000000000E+00  0.45593999997E+02  0.45594000000E+02  0.51100000000E-03 0. -1.
         11   -1    0    0    0    0 -0.00000000000E+00 -0.00000000000E+00 -0.45593999997E+02  0.45594000000E+02  0.51100000000E-03 0.  1.
    9900012    2    1    2    0    0 -0.11948317704E+02  0.14416232942E+02 -0.30045696381E+00  0.72461538973E+02  0.69999959199E+02 0.  0.
        -12    1    1    2    0    0  0.11948317704E+02 -0.14416232942E+02  0.30045696381E+00  0.18726461027E+02  0.00000000000E+00 0.  1.
         11    1    3    3    0    0  0.96257399122E+00  0.51563256805E+01  0.97556401339E+01  0.11076405459E+02  0.51100000000E-03 0. -1.
        -11    1    3    3    0    0  0.18547072300E+02  0.90466929659E+01  0.11141229518E+02  0.23451301455E+02  0.51100000000E-03 0.  1.
         12    1    3    3    0    0 -0.31457963995E+02  0.21321429569E+00 -0.21197326615E+02  0.37933832059E+02  0.00000000000E+00 0. -1.
</event>
<event>
 7    1  0.1788006E-013  0.7246157E+02  0.7816164E-02  0.1226708E+00
        -11   -1    0    0    0    0  0.00000000000E+00  0.00000000000E+00  0.45593999997E+02  0.45594000000E+02  0.51100000000E-03 0. -1.
         11   -1    0    0    0    0 -0.00000000000E+00 -0.00000000000E+00 -0.45593999997E+02  0.45594000000E+02  0.51100000000E-03 0.  1.
    9900012    2    1    2    0    0  0.59874560618E+01 -0.12516749471E+02  0.12576187649E+02  0.72461570998E+02  0.70000000916E+02 0.  0.
        -12    1    1    2    0    0 -0.59874560618E+01  0.12516749471E+02 -0.12576187649E+02  0.18726429002E+02  0.00000000000E+00 0.  1.
         11    1    3    3    0    0  0.56368121920E+01  0.10886021932E+02  0.65212276831E+01  0.13885443311E+02  0.51100000000E-03 0. -1.
        -11    1    3    3    0    0  0.20227860617E+02 -0.13753604589E+02  0.20719914988E+02  0.32056869182E+02  0.51100000000E-03 0.  1.
         12    1    3    3    0    0 -0.19877216747E+02 -0.96491668140E+01 -0.14664955023E+02  0.26519258505E+02  0.00000000000E+00 0. -1.
</event>
<event>
 7    1  0.1788006E-013  0.7246155E+02  0.7816164E-02  0.1226708E+00
        -11   -1    0    0    0    0  0.00000000000E+00  0.00000000000E+00  0.45593999997E+02  0.45594000000E+02  0.51100000000E-03 0.  1.
         11   -1    0    0    0    0 -0.00000000000E+00 -0.00000000000E+00 -0.45593999997E+02  0.45594000000E+02  0.51100000000E-03 0. -1.
    9900012    2    1    2    0    0 -0.73137926338E+01  0.58450140043E+01 -0.16218022822E+02  0.72461547703E+02  0.69999970570E+02 0.  0.
        -12    1    1    2    0    0  0.73137926338E+01 -0.58450140043E+01  0.16218022822E+02  0.18726452297E+02  0.00000000000E+00 0.  1.
         11    1    3    3    0    0 -0.18807115488E+02  0.11708545801E+01 -0.75879512824E+01  0.20313923756E+02  0.51100000000E-03 0. -1.
        -11    1    3    3    0    0 -0.13965752931E+02  0.66834427199E+01  0.11780809158E+02  0.19455028301E+02  0.51100000000E-03 0.  1.
         12    1    3    3    0    0  0.25459075786E+02 -0.20092832957E+01 -0.20410880697E+02  0.32692595646E+02  0.00000000000E+00 0. -1.
</event>
<event>
 7    1  0.1788006E-013  0.7246162E+02  0.7816164E-02  0.1226708E+00
        -11   -1    0    0    0    0  0.00000000000E+00  0.00000000000E+00  0.45593999997E+02  0.45594000000E+02  0.51100000000E-03 0. -1.
         11   -1    0    0    0    0 -0.00000000000E+00 -0.00000000000E+00 -0.45593999997E+02  0.45594000000E+02  0.51100000000E-03 0.  1.
    9900012    2    1    2    0    0 -0.17108122352E+01  0.55717445507E+01  0.17796235229E+02  0.72461622770E+02  0.70000068359E+02 0.  0.
        -12    1    1    2    0    0  0.17108122352E+01 -0.55717445507E+01 -0.17796235229E+02  0.18726377230E+02  0.00000000000E+00 0.  1.
         11    1    3    3    0    0 -0.22267663869E+02  0.19383080203E+02  0.98768722264E+01  0.31130455467E+02  0.51100000000E-03 0. -1.
        -11    1    3    3    0    0 -0.41075491936E+01 -0.45795096379E+01  0.13116757834E+02  0.14487691508E+02  0.51100000000E-03 0.  1.
        -12    1    3    3    0    0  0.24664400827E+02 -0.92318260142E+01 -0.51973948309E+01  0.26843475795E+02  0.00000000000E+00 0.  1.
</event>
<event>
 7    1  0.1788006E-013  0.7246156E+02  0.7816164E-02  0.1226708E+00
        -11   -1    0    0    0    0  0.00000000000E+00  0.00000000000E+00  0.45593999997E+02  0.45594000000E+02  0.51100000000E-03 0.  1.
         11   -1    0    0    0    0 -0.00000000000E+00 -0.00000000000E+00 -0.45593999997E+02  0.45594000000E+02  0.51100000000E-03 0. -1.
    9900012    2    1    2    0    0  0.77960473780E+01  0.23663857556E+01 -0.16861236381E+02  0.72461563378E+02  0.69999990990E+02 0.  0.
        -12    1    1    2    0    0 -0.77960473780E+01 -0.23663857556E+01  0.16861236381E+02  0.18726436622E+02  0.00000000000E+00 0.  1.
         11    1    3    3    0    0 -0.19223860069E+02  0.14539488782E+02 -0.17839538418E+02  0.29986708075E+02  0.51100000000E-03 0. -1.
        -11    1    3    3    0    0 -0.57452797892E+00  0.76720649015E+01 -0.29908140547E+01  0.82544310054E+01  0.51100000000E-03 0.  1.
         12    1    3    3    0    0  0.27594435426E+02 -0.19845167927E+02  0.39691160911E+01  0.34220424297E+02  0.00000000000E+00 0. -1.
</event>
<event>
 7    1  0.1788006E-013  0.7246159E+02  0.7816164E-02  0.1226708E+00
        -11   -1    0    0    0    0  0.00000000000E+00  0.00000000000E+00  0.45593999997E+02  0.45594000000E+02  0.51100000000E-03 0. -1.
         11   -1    0    0    0    0 -0.00000000000E+00 -0.00000000000E+00 -0.45593999997E+02  0.45594000000E+02  0.51100000000E-03 0.  1.
    9900012    2    1    2    0    0  0.47321376398E+01  0.14970854309E+02 -0.10205827425E+02  0.72461587669E+02  0.70000022633E+02 0.  0.
        -12    1    1    2    0    0 -0.47321376398E+01 -0.14970854309E+02  0.10205827425E+02  0.18726412331E+02  0.00000000000E+00 0.  1.
         11    1    3    3    0    0  0.13298466237E+02 -0.76045931311E+01 -0.83072588367E+01  0.17426691900E+02  0.51100000000E-03 0. -1.
        -11    1    3    3    0    0 -0.35765396044E+00  0.21174407609E+02 -0.23648779114E+02  0.31745050131E+02  0.51100000000E-03 0.  1.
         12    1    3    3    0    0 -0.82086746364E+01  0.14010398310E+01  0.21750210526E+02  0.23289845638E+02  0.00000000000E+00 0. -1.
</event>
<event>
 7    1  0.1788006E-013  0.7246161E+02  0.7816164E-02  0.1226708E+00
        -11   -1    0    0    0    0  0.00000000000E+00  0.00000000000E+00  0.45593999997E+02  0.45594000000E+02  0.51100000000E-03 0.  1.
         11   -1    0    0    0    0 -0.00000000000E+00 -0.00000000000E+00 -0.45593999997E+02  0.45594000000E+02  0.51100000000E-03 0. -1.
    9900012    2    1    2    0    0 -0.15332977052E+02  0.35293267033E+00 -0.10744907556E+02  0.72461607258E+02  0.70000048152E+02 0.  0.
        -12    1    1    2    0    0  0.15332977052E+02 -0.35293267033E+00  0.10744907556E+02  0.18726392742E+02  0.00000000000E+00 0.  1.
         11    1    3    3    0    0  0.13660358473E+02 -0.32393568575E+01 -0.22298173885E+02  0.26349713193E+02  0.51100000000E-03 0. -1.
        -11    1    3    3    0    0 -0.69303421853E+01  0.17305874702E+02  0.55335616384E+01  0.19445905653E+02  0.51100000000E-03 0.  1.
        -12    1    3    3    0    0 -0.22062993340E+02 -0.13713585174E+02  0.60197046905E+01  0.26665988412E+02  0.00000000000E+00 0.  1.
</event>
<event>
 7    1  0.1788006E-013  0.7246156E+02  0.7816164E-02  0.1226708E+00
        -11   -1    0    0    0    0  0.00000000000E+00  0.00000000000E+00  0.45593999997E+02  0.45594000000E+02  0.51100000000E-03 0.  1.
         11   -1    0    0    0    0 -0.00000000000E+00 -0.00000000000E+00 -0.45593999997E+02  0.45594000000E+02  0.51100000000E-03 0. -1.
    9900012    2    1    2    0    0 -0.71031162630E+01  0.11194352950E+02 -0.13225425194E+02  0.72461556927E+02  0.69999982586E+02 0.  0.
        -12    1    1    2    0    0  0.71031162630E+01 -0.11194352950E+02  0.13225425194E+02  0.18726443073E+02  0.00000000000E+00 0.  1.
         11    1    3    3    0    0  0.10885954176E+02  0.60609868008E+01 -0.16149036052E+02  0.20396836152E+02  0.51100000000E-03 0. -1.
        -11    1    3    3    0    0  0.11013179444E+02 -0.11724022491E+02  0.82845176330E+01  0.18093536346E+02  0.51100000000E-03 0.  1.
         12    1    3    3    0    0 -0.29002249883E+02  0.16857388641E+02 -0.53609067744E+01  0.33971184429E+02  0.00000000000E+00 0. -1.
</event>
<event>
 7    1  0.1788006E-013  0.7246158E+02  0.7816164E-02  0.1226708E+00
        -11   -1    0    0    0    0  0.00000000000E+00  0.00000000000E+00  0.45593999997E+02  0.45594000000E+02  0.51100000000E-03 0.  1.
         11   -1    0    0    0    0 -0.00000000000E+00 -0.00000000000E+00 -0.45593999997E+02  0.45594000000E+02  0.51100000000E-03 0. -1.
    9900012    2    1    2    0    0 -0.13012999321E+02  0.75191307087E+01 -0.11171547192E+02  0.72461576300E+02  0.70000007823E+02 0.  0.
        -12    1    1    2    0    0  0.13012999321E+02 -0.75191307087E+01  0.11171547192E+02  0.18726423700E+02  0.00000000000E+00 0.  1.
         11    1    3    3    0    0 -0.10671996180E+02  0.10537586184E+02 -0.13525351276E+01  0.15058604735E+02  0.51100000000E-03 0. -1.
        -11    1    3    3    0    0 -0.41341057678E+01 -0.12477473828E+02  0.21188890280E+02  0.24934860240E+02  0.51100000000E-03 0.  1.
         12    1    3    3    0    0  0.17931026268E+01  0.94590183529E+01 -0.31007902344E+02  0.32468111325E+02  0.00000000000E+00 0. -1.
</event>
<event>
 7    1  0.1788006E-013  0.7246151E+02  0.7816164E-02  0.1226708E+00
        -11   -1    0    0    0    0  0.00000000000E+00  0.00000000000E+00  0.45593999997E+02  0.45594000000E+02  0.51100000000E-03 0.  1.
         11   -1    0    0    0    0 -0.00000000000E+00 -0.00000000000E+00 -0.45593999997E+02  0.45594000000E+02  0.51100000000E-03 0. -1.
    9900012    2    1    2    0    0 -0.37701109469E+01  0.15283120198E+02 -0.10143657599E+02  0.72461513703E+02  0.69999926280E+02 0.  0.
        -12    1    1    2    0    0  0.37701109469E+01 -0.15283120198E+02  0.10143657599E+02  0.18726486297E+02  0.00000000000E+00 0.  1.
         11    1    3    3    0    0  0.92585145988E+01 -0.12598920592E+02 -0.18452548452E+02  0.24185727967E+02  0.51100000000E-03 0. -1.
        -11    1    3    3    0    0  0.10264970224E+02  0.20606868597E+02  0.22506107940E+01  0.23131750826E+02  0.51100000000E-03 0.  1.
        -12    1    3    3    0    0 -0.23293595769E+02  0.72751721922E+01  0.60582800584E+01  0.25144034910E+02  0.00000000000E+00 0.  1.
</event>
<event>
 7    1  0.1788006E-013  0.7246149E+02  0.7816164E-02  0.1226708E+00
        -11   -1    0    0    0    0  0.00000000000E+00  0.00000000000E+00  0.45593999997E+02  0.45594000000E+02  0.51100000000E-03 0.  1.
         11   -1    0    0    0    0 -0.00000000000E+00 -0.00000000000E+00 -0.45593999997E+02  0.45594000000E+02  0.51100000000E-03 0. -1.
    9900012    2    1    2    0    0  0.91789355833E+01  0.16240344497E+02 -0.16372785575E+01  0.72461485938E+02  0.69999890111E+02 0.  0.
        -12    1    1    2    0    0 -0.91789355833E+01 -0.16240344497E+02  0.16372785575E+01  0.18726514062E+02  0.00000000000E+00 0.  1.
         11    1    3    3    0    0  0.27202375931E+02  0.23921639222E+02  0.44643206447E+01  0.36498551182E+02  0.51100000000E-03 0. -1.
        -11    1    3    3    0    0 -0.44565342628E+01  0.92870394776E+01  0.51283136105E+01  0.11506928376E+02  0.51100000000E-03 0.  1.
        -12    1    3    3    0    0 -0.13566906084E+02 -0.16968334202E+02 -0.11229912813E+02  0.24456006381E+02  0.00000000000E+00 0.  1.
</event>
<event>
 7    1  0.1788006E-013  0.7246157E+02  0.7816164E-02  0.1226708E+00
        -11   -1    0    0    0    0  0.00000000000E+00  0.00000000000E+00  0.45593999997E+02  0.45594000000E+02  0.51100000000E-03 0.  1.
         11   -1    0    0    0    0 -0.00000000000E+00 -0.00000000000E+00 -0.45593999997E+02  0.45594000000E+02  0.51100000000E-03 0. -1.
    9900012    2    1    2    0    0 -0.49176403209E+01 -0.12457223588E+02 -0.13088675290E+02  0.72461574108E+02  0.70000004968E+02 0.  0.
        -12    1    1    2    0    0  0.49176403209E+01  0.12457223588E+02  0.13088675290E+02  0.18726425892E+02  0.00000000000E+00 0.  1.
         11    1    3    3    0    0  0.58523057979E+01 -0.51067885404E+01 -0.49185390917E+01  0.91935194244E+01  0.51100000000E-03 0. -1.
        -11    1    3    3    0    0  0.24762475045E+02  0.43786548905E+01 -0.98300215514E+00  0.25165831647E+02  0.51100000000E-03 0.  1.
         12    1    3    3    0    0 -0.35532421164E+02 -0.11729089938E+02 -0.71871340436E+01  0.38102223036E+02  0.00000000000E+00 0. -1.
</event>
<event>
 7    1  0.1788006E-013  0.7246106E+02  0.7816164E-02  0.1226709E+00
        -11   -1    0    0    0    0  0.00000000000E+00  0.00000000000E+00  0.45593999997E+02  0.45594000000E+02  0.51100000000E-03 0. -1.
         11   -1    0    0    0    0 -0.00000000000E+00 -0.00000000000E+00 -0.45593999997E+02  0.45594000000E+02  0.51100000000E-03 0.  1.
    9900012    2    1    2    0    0 -0.76916017778E+01 -0.13667310274E+02 -0.10234359150E+02  0.72461061775E+02  0.69999337557E+02 0.  0.
        -12    1    1    2    0    0  0.76916017778E+01  0.13667310274E+02  0.10234359150E+02  0.18726938225E+02  0.00000000000E+00 0.  1.
         11    1    3    3    0    0  0.21029288221E+01 -0.19484985502E+02 -0.14997599246E+01  0.19655438173E+02  0.51100000000E-03 0. -1.
        -11    1    3    3    0    0  0.12846654536E+02 -0.69666646324E+01  0.12503514930E+02  0.19233014188E+02  0.51100000000E-03 0.  1.
         12    1    3    3    0    0 -0.22641185136E+02  0.12784339860E+02 -0.21238114156E+02  0.33572609415E+02  0.00000000000E+00 0. -1.
</event>
<event>
 7    1  0.1788006E-013  0.7246160E+02  0.7816164E-02  0.1226708E+00
        -11   -1    0    0    0    0  0.00000000000E+00  0.00000000000E+00  0.45593999997E+02  0.45594000000E+02  0.51100000000E-03 0.  1.
         11   -1    0    0    0    0 -0.00000000000E+00 -0.00000000000E+00 -0.45593999997E+02  0.45594000000E+02  0.51100000000E-03 0. -1.
    9900012    2    1    2    0    0 -0.58035594030E+01  0.68283075083E+01 -0.16442956152E+02  0.72461604400E+02  0.70000044428E+02 0.  0.
        -12    1    1    2    0    0  0.58035594030E+01 -0.68283075083E+01  0.16442956152E+02  0.18726395600E+02  0.00000000000E+00 0.  1.
         11    1    3    3    0    0 -0.23737327848E+02  0.96048574519E+01  0.12754890945E+02  0.28607713353E+02  0.51100000000E-03 0. -1.
        -11    1    3    3    0    0  0.20403622926E+00  0.99690584964E+01 -0.14249451636E+02  0.17391682790E+02  0.51100000000E-03 0.  1.
        -12    1    3    3    0    0  0.17729732216E+02 -0.12745608440E+02 -0.14948395461E+02  0.26462208256E+02  0.00000000000E+00 0.  1.
</event>
<event>
 7    1  0.1788006E-013  0.7246157E+02  0.7816164E-02  0.1226708E+00
        -11   -1    0    0    0    0  0.00000000000E+00  0.00000000000E+00  0.45593999997E+02  0.45594000000E+02  0.51100000000E-03 0. -1.
         11   -1    0    0    0    0 -0.00000000000E+00 -0.00000000000E+00 -0.45593999997E+02  0.45594000000E+02  0.51100000000E-03 0.  1.
    9900012    2    1    2    0    0 -0.58261009197E+01  0.14322914425E+02  0.10563607764E+02  0.72461571121E+02  0.70000001077E+02 0.  0.
        -12    1    1    2    0    0  0.58261009197E+01 -0.14322914425E+02 -0.10563607764E+02  0.18726428879E+02  0.00000000000E+00 0.  1.
         11    1    3    3    0    0 -0.34050459203E+00  0.17128023855E+02 -0.26062088657E+01  0.17328516078E+02  0.51100000000E-03 0. -1.
        -11    1    3    3    0    0  0.11412011186E+02  0.18148567500E+02  0.17744040254E+02  0.27829039984E+02  0.51100000000E-03 0.  1.
        -12    1    3    3    0    0 -0.16897607514E+02 -0.20953676930E+02 -0.45742236245E+01  0.27304015059E+02  0.00000000000E+00 0.  1.
</event>
<event>
 7    1  0.1788006E-013  0.7246166E+02  0.7816164E-02  0.1226708E+00
        -11   -1    0    0    0    0  0.00000000000E+00  0.00000000000E+00  0.45593999997E+02  0.45594000000E+02  0.51100000000E-03 0.  1.
         11   -1    0    0    0    0 -0.00000000000E+00 -0.00000000000E+00 -0.45593999997E+02  0.45594000000E+02  0.51100000000E-03 0. -1.
    9900012    2    1    2    0    0  0.69270342443E+01 -0.16865006218E+02 -0.42736058838E+01  0.72461656379E+02  0.70000112142E+02 0.  0.
        -12    1    1    2    0    0 -0.69270342443E+01  0.16865006218E+02  0.42736058838E+01  0.18726343621E+02  0.00000000000E+00 0.  1.
         11    1    3    3    0    0  0.58231827899E+01 -0.92850138769E+01  0.15315097249E+02  0.18832767840E+02  0.51100000000E-03 0. -1.
        -11    1    3    3    0    0 -0.16657831584E+01  0.12143143196E+02  0.11434720754E+02  0.16762565412E+02  0.51100000000E-03 0.  1.
         12    1    3    3    0    0  0.27696346128E+01 -0.19723135536E+02 -0.31023423887E+02  0.36866323128E+02  0.00000000000E+00 0. -1.
</event>
<event>
 7    1  0.1788006E-013  0.7246156E+02  0.7816164E-02  0.1226708E+00
        -11   -1    0    0    0    0  0.00000000000E+00  0.00000000000E+00  0.45593999997E+02  0.45594000000E+02  0.51100000000E-03 0.  1.
         11   -1    0    0    0    0 -0.00000000000E+00 -0.00000000000E+00 -0.45593999997E+02  0.45594000000E+02  0.51100000000E-03 0. -1.
    9900012    2    1    2    0    0  0.11378369176E+02  0.11703969566E+02 -0.91776494158E+01  0.72461563140E+02  0.69999990680E+02 0.  0.
        -12    1    1    2    0    0 -0.11378369176E+02 -0.11703969566E+02  0.91776494158E+01  0.18726436860E+02  0.00000000000E+00 0.  1.
         11    1    3    3    0    0 -0.65122073801E+00 -0.63025370425E+00 -0.12149076479E+02  0.12182830859E+02  0.51100000000E-03 0. -1.
        -11    1    3    3    0    0  0.26971257743E+02  0.15176611141E+02 -0.16894430374E+02  0.35259042073E+02  0.51100000000E-03 0.  1.
        -12    1    3    3    0    0 -0.14941667829E+02 -0.28423878713E+01  0.19865857438E+02  0.25019690207E+02  0.00000000000E+00 0.  1.
</event>
<event>
 7    1  0.1788006E-013  0.7246160E+02  0.7816164E-02  0.1226708E+00
        -11   -1    0    0    0    0  0.00000000000E+00  0.00000000000E+00  0.45593999997E+02  0.45594000000E+02  0.51100000000E-03 0. -1.
         11   -1    0    0    0    0 -0.00000000000E+00 -0.00000000000E+00 -0.45593999997E+02  0.45594000000E+02  0.51100000000E-03 0.  1.
    9900012    2    1    2    0    0 -0.41146793099E+01  0.52874754368E+00  0.18261102375E+02  0.72461600994E+02  0.70000039992E+02 0.  0.
        -12    1    1    2    0    0  0.41146793099E+01 -0.52874754368E+00 -0.18261102375E+02  0.18726399006E+02  0.00000000000E+00 0.  1.
         11    1    3    3    0    0  0.70068522245E+01  0.41521506390E+01  0.10116390068E+02  0.12987597210E+02  0.51100000000E-03 0. -1.
        -11    1    3    3    0    0  0.43887931242E+01  0.34139773290E+01 -0.23169570749E+02  0.23827416043E+02  0.51100000000E-03 0.  1.
         12    1    3    3    0    0 -0.15510324659E+02 -0.70373804244E+01  0.31314283056E+02  0.35646587741E+02  0.00000000000E+00 0. -1.
</event>
<event>
 7    1  0.1788006E-013  0.7246153E+02  0.7816164E-02  0.1226708E+00
        -11   -1    0    0    0    0  0.00000000000E+00  0.00000000000E+00  0.45593999997E+02  0.45594000000E+02  0.51100000000E-03 0.  1.
         11   -1    0    0    0    0 -0.00000000000E+00 -0.00000000000E+00 -0.45593999997E+02  0.45594000000E+02  0.51100000000E-03 0. -1.
    9900012    2    1    2    0    0  0.41670953127E+01 -0.18247258232E+02 -0.59455165317E+00  0.72461531887E+02  0.69999949967E+02 0.  0.
        -12    1    1    2    0    0 -0.41670953127E+01  0.18247258232E+02  0.59455165317E+00  0.18726468113E+02  0.00000000000E+00 0.  1.
         11    1    3    3    0    0 -0.57286484394E+01 -0.15652280245E+02  0.10435566925E+02  0.19665003105E+02  0.51100000000E-03 0. -1.
        -11    1    3    3    0    0 -0.14657870808E+02 -0.16536871405E+02  0.96380940502E+00  0.22119001363E+02  0.51100000000E-03 0.  1.
         12    1    3    3    0    0  0.24553614560E+02  0.13941893418E+02 -0.11993927983E+02  0.30677527418E+02  0.00000000000E+00 0. -1.
</event>
<event>
 7    1  0.1788006E-013  0.7246157E+02  0.7816164E-02  0.1226708E+00
        -11   -1    0    0    0    0  0.00000000000E+00  0.00000000000E+00  0.45593999997E+02  0.45594000000E+02  0.51100000000E-03 0.  1.
         11   -1    0    0    0    0 -0.00000000000E+00 -0.00000000000E+00 -0.45593999997E+02  0.45594000000E+02  0.51100000000E-03 0. -1.
    9900012    2    1    2    0    0  0.23681712682E+01 -0.11010153511E+02 -0.14961533018E+02  0.72461569861E+02  0.69999999436E+02 0.  0.
        -12    1    1    2    0    0 -0.23681712682E+01  0.11010153511E+02  0.14961533018E+02  0.18726430139E+02  0.00000000000E+00 0.  1.
         11    1    3    3    0    0 -0.22014826596E+02 -0.25197919144E+02 -0.17293199757E+02  0.37664870600E+02  0.51100000000E-03 0. -1.
        -11    1    3    3    0    0  0.38156645662E+01  0.10338214535E+02 -0.56717545861E+01  0.12393820081E+02  0.51100000000E-03 0.  1.
        -12    1    3    3    0    0  0.20567333298E+02  0.38495510968E+01  0.80034213256E+01  0.22402879180E+02  0.00000000000E+00 0.  1.
</event>
<event>
 7    1  0.1788006E-013  0.7246154E+02  0.7816164E-02  0.1226708E+00
        -11   -1    0    0    0    0  0.00000000000E+00  0.00000000000E+00  0.45593999997E+02  0.45594000000E+02  0.51100000000E-03 0.  1.
         11   -1    0    0    0    0 -0.00000000000E+00 -0.00000000000E+00 -0.45593999997E+02  0.45594000000E+02  0.51100000000E-03 0. -1.
    9900012    2    1    2    0    0  0.49202364664E+01  0.15936866813E+02 -0.85139742106E+01  0.72461542578E+02  0.69999963895E+02 0.  0.
        -12    1    1    2    0    0 -0.49202364664E+01 -0.15936866813E+02  0.85139742106E+01  0.18726457422E+02  0.00000000000E+00 0.  1.
         11    1    3    3    0    0 -0.22314556538E+00  0.20560400754E+01  0.16037729431E+01  0.26170943142E+01  0.51100000000E-03 0. -1.
        -11    1    3    3    0    0  0.12858895887E+02  0.36721258221E+02 -0.20050405454E+02  0.43770089877E+02  0.51100000000E-03 0.  1.
         12    1    3    3    0    0 -0.77155138554E+01 -0.22840431483E+02  0.99326583002E+01  0.26074358387E+02  0.00000000000E+00 0. -1.
</event>
<event>
 7    1  0.1788006E-013  0.7246171E+02  0.7816164E-02  0.1226708E+00
        -11   -1    0    0    0    0  0.00000000000E+00  0.00000000000E+00  0.45593999997E+02  0.45594000000E+02  0.51100000000E-03 0.  1.
         11   -1    0    0    0    0 -0.00000000000E+00 -0.00000000000E+00 -0.45593999997E+02  0.45594000000E+02  0.51100000000E-03 0. -1.
    9900012    2    1    2    0    0  0.52365271255E+01 -0.32584685707E+01 -0.17681491218E+02  0.72461709245E+02  0.70000181008E+02 0.  0.
        -12    1    1    2    0    0 -0.52365271255E+01  0.32584685707E+01  0.17681491218E+02  0.18726290755E+02  0.00000000000E+00 0.  1.
         11    1    3    3    0    0 -0.99613969796E+01 -0.70732371014E+01 -0.10108291629E+02  0.15856786333E+02  0.51100000000E-03 0. -1.
        -11    1    3    3    0    0 -0.63915755590E+01 -0.17615124154E+02  0.10239361007E+02  0.21353907164E+02  0.51100000000E-03 0.  1.
         12    1    3    3    0    0  0.21589499664E+02  0.21429892685E+02 -0.17812560596E+02  0.35251015747E+02  0.00000000000E+00 0. -1.
</event>
<event>
 7    1  0.1788006E-013  0.7246158E+02  0.7816164E-02  0.1226708E+00
        -11   -1    0    0    0    0  0.00000000000E+00  0.00000000000E+00  0.45593999997E+02  0.45594000000E+02  0.51100000000E-03 0.  1.
         11   -1    0    0    0    0 -0.00000000000E+00 -0.00000000000E+00 -0.45593999997E+02  0.45594000000E+02  0.51100000000E-03 0. -1.
    9900012    2    1    2    0    0 -0.60095671053E+01  0.17616051080E+02  0.20588203539E+01  0.72461577659E+02  0.70000009594E+02 0.  0.
        -12    1    1    2    0    0  0.60095671053E+01 -0.17616051080E+02 -0.20588203539E+01  0.18726422341E+02  0.00000000000E+00 0.  1.
         11    1    3    3    0    0 -0.20128115902E+02 -0.30535400242E+01 -0.10045855055E+01  0.20383187895E+02  0.51100000000E-03 0. -1.
        -11    1    3    3    0    0  0.63209142056E+01  0.32710624857E+02  0.11727547793E+02  0.35319602382E+02  0.51100000000E-03 0.  1.
         12    1    3    3    0    0  0.77976345914E+01 -0.12041033753E+02 -0.86641419340E+01  0.16758787382E+02  0.00000000000E+00 0. -1.
</event>
<event>
 7    1  0.1788006E-013  0.7246158E+02  0.7816164E-02  0.1226708E+00
        -11   -1    0    0    0    0  0.00000000000E+00  0.00000000000E+00  0.45593999997E+02  0.45594000000E+02  0.51100000000E-03 0.  1.
         11   -1    0    0    0    0 -0.00000000000E+00 -0.00000000000E+00 -0.45593999997E+02  0.45594000000E+02  0.51100000000E-03 0. -1.
    9900012    2    1    2    0    0 -0.76655049619E+01 -0.10253847285E+01 -0.17054841058E+02  0.72461575256E+02  0.70000006464E+02 0.  0.
        -12    1    1    2    0    0  0.76655049619E+01  0.10253847285E+01  0.17054841058E+02  0.18726424744E+02  0.00000000000E+00 0.  1.
         11    1    3    3    0    0 -0.30933301397E+02 -0.13980938419E+02  0.42605724354E+01  0.34212399100E+02  0.51100000000E-03 0.  1.
        -11    1    3    3    0    0  0.10074843203E+02 -0.26229318239E+01 -0.11769798365E+02  0.15713382536E+02  0.51100000000E-03 0. -1.
        -12    1    3    3    0    0  0.13192953232E+02  0.15578485515E+02 -0.95456151290E+01  0.22535793621E+02  0.00000000000E+00 0.  1.
</event>
<event>
 7    1  0.1788006E-013  0.7246162E+02  0.7816164E-02  0.1226708E+00
        -11   -1    0    0    0    0  0.00000000000E+00  0.00000000000E+00  0.45593999997E+02  0.45594000000E+02  0.51100000000E-03 0. -1.
         11   -1    0    0    0    0 -0.00000000000E+00 -0.00000000000E+00 -0.45593999997E+02  0.45594000000E+02  0.51100000000E-03 0.  1.
    9900012    2    1    2    0    0  0.18156115663E+02  0.46668686263E+00 -0.45623501362E+01  0.72461618305E+02  0.70000062543E+02 0.  0.
        -12    1    1    2    0    0 -0.18156115663E+02 -0.46668686263E+00  0.45623501362E+01  0.18726381695E+02  0.00000000000E+00 0.  1.
         11    1    3    3    0    0  0.23283752906E+02 -0.56650697053E+01  0.48593983439E+01  0.24450765155E+02  0.51100000000E-03 0. -1.
        -11    1    3    3    0    0  0.18751665265E+01  0.21989730591E+02  0.79609251884E+01  0.23461475467E+02  0.51100000000E-03 0.  1.
         12    1    3    3    0    0 -0.70028037687E+01 -0.15857974024E+02 -0.17382673669E+02  0.24549377683E+02  0.00000000000E+00 0. -1.
</event>
<event>
 7    1  0.1788006E-013  0.7246159E+02  0.7816164E-02  0.1226708E+00
        -11   -1    0    0    0    0  0.00000000000E+00  0.00000000000E+00  0.45593999997E+02  0.45594000000E+02  0.51100000000E-03 0.  1.
         11   -1    0    0    0    0 -0.00000000000E+00 -0.00000000000E+00 -0.45593999997E+02  0.45594000000E+02  0.51100000000E-03 0. -1.
    9900012    2    1    2    0    0  0.96757185040E+01  0.80713976744E+01 -0.13853205063E+02  0.72461594058E+02  0.70000030957E+02 0.  0.
        -12    1    1    2    0    0 -0.96757185040E+01 -0.80713976744E+01  0.13853205063E+02  0.18726405942E+02  0.00000000000E+00 0.  1.
         11    1    3    3    0    0  0.18017287585E+02 -0.76539293318E+01 -0.63400045041E+01  0.20576708763E+02  0.51100000000E-03 0. -1.
        -11    1    3    3    0    0 -0.73945586337E+00  0.13254850194E+01  0.19922851034E+02  0.19980583052E+02  0.51100000000E-03 0.  1.
        -12    1    3    3    0    0 -0.76021132179E+01  0.14399841987E+02 -0.27436051593E+02  0.31904302243E+02  0.00000000000E+00 0.  1.
</event>
<event>
 7    1  0.1788006E-013  0.7246161E+02  0.7816164E-02  0.1226708E+00
        -11   -1    0    0    0    0  0.00000000000E+00  0.00000000000E+00  0.45593999997E+02  0.45594000000E+02  0.51100000000E-03 0. -1.
         11   -1    0    0    0    0 -0.00000000000E+00 -0.00000000000E+00 -0.45593999997E+02  0.45594000000E+02  0.51100000000E-03 0.  1.
    9900012    2    1    2    0    0  0.78146666061E+01 -0.87544748076E+01  0.14593421937E+02  0.72461606670E+02  0.70000047386E+02 0.  0.
        -12    1    1    2    0    0 -0.78146666061E+01  0.87544748076E+01 -0.14593421937E+02  0.18726393330E+02  0.00000000000E+00 0.  1.
         11    1    3    3    0    0  0.25187194371E+02  0.49117677442E+01  0.27310365639E+02  0.37475008929E+02  0.51100000000E-03 0. -1.
        -11    1    3    3    0    0 -0.82721088552E+01  0.61095459197E+01 -0.71244793358E+01  0.12510497285E+02  0.51100000000E-03 0.  1.
        -12    1    3    3    0    0 -0.91004189097E+01 -0.19775788471E+02 -0.55924643665E+01  0.22476100456E+02  0.00000000000E+00 0.  1.
</event>
<event>
 7    1  0.1788006E-013  0.7246161E+02  0.7816164E-02  0.1226708E+00
        -11   -1    0    0    0    0  0.00000000000E+00  0.00000000000E+00  0.45593999997E+02  0.45594000000E+02  0.51100000000E-03 0.  1.
         11   -1    0    0    0    0 -0.00000000000E+00 -0.00000000000E+00 -0.45593999997E+02  0.45594000000E+02  0.51100000000E-03 0. -1.
    9900012    2    1    2    0    0  0.22813748589E+01  0.98208258073E+01 -0.15780511168E+02  0.72461606233E+02  0.70000046817E+02 0.  0.
        -12    1    1    2    0    0 -0.22813748589E+01 -0.98208258073E+01  0.15780511168E+02  0.18726393767E+02  0.00000000000E+00 0.  1.
         11    1    3    3    0    0  0.77273130006E+01  0.51273504871E+00 -0.26263229717E+01  0.81775201652E+01  0.51100000000E-03 0. -1.
        -11    1    3    3    0    0  0.12570278849E+01  0.64890540948E+01  0.24786600981E+02  0.25652748987E+02  0.51100000000E-03 0.  1.
         12    1    3    3    0    0 -0.67029660266E+01  0.28190366638E+01 -0.37940789177E+02  0.38631337081E+02  0.00000000000E+00 0. -1.
</event>
<event>
 7    1  0.1788006E-013  0.7246159E+02  0.7816164E-02  0.1226708E+00
        -11   -1    0    0    0    0  0.00000000000E+00  0.00000000000E+00  0.45593999997E+02  0.45594000000E+02  0.51100000000E-03 0.  1.
         11   -1    0    0    0    0 -0.00000000000E+00 -0.00000000000E+00 -0.45593999997E+02  0.45594000000E+02  0.51100000000E-03 0. -1.
    9900012    2    1    2    0    0 -0.17741814355E+01 -0.33210526217E+01 -0.18343977340E+02  0.72461585102E+02  0.70000019290E+02 0.  0.
        -12    1    1    2    0    0  0.17741814355E+01  0.33210526217E+01  0.18343977340E+02  0.18726414898E+02  0.00000000000E+00 0.  1.
         11    1    3    3    0    0 -0.13995288188E+02  0.97162916127E+01 -0.23771213928E+02  0.29246282260E+02  0.51100000000E-03 0. -1.
        -11    1    3    3    0    0  0.12273972970E+02 -0.12653978048E+02 -0.14779717396E+02  0.23004643433E+02  0.51100000000E-03 0.  1.
        -12    1    3    3    0    0 -0.52866217636E-01 -0.38336618617E+00  0.20206953984E+02  0.20210659410E+02  0.00000000000E+00 0.  1.
</event>
<event>
 7    1  0.1788006E-013  0.7246084E+02  0.7816164E-02  0.1226710E+00
        -11   -1    0    0    0    0  0.00000000000E+00  0.00000000000E+00  0.45593999997E+02  0.45594000000E+02  0.51100000000E-03 0. -1.
         11   -1    0    0    0    0 -0.00000000000E+00 -0.00000000000E+00 -0.45593999997E+02  0.45594000000E+02  0.51100000000E-03 0.  1.
    9900012    2    1    2    0    0 -0.11203397441E+01 -0.43779163706E+01  0.18173752693E+02  0.72460837912E+02  0.69999045930E+02 0.  0.
        -12    1    1    2    0    0  0.11203397441E+01  0.43779163706E+01 -0.18173752693E+02  0.18727162088E+02  0.00000000000E+00 0.  1.
         11    1    3    3    0    0 -0.14646181510E+02 -0.44144670256E+00  0.54695671489E+01  0.15640385963E+02  0.51100000000E-03 0. -1.
        -11    1    3    3    0    0  0.70044763165E+01 -0.24149548498E+02 -0.87573267667E+01  0.26626192996E+02  0.51100000000E-03 0.  1.
         12    1    3    3    0    0  0.65213654490E+01  0.20213078829E+02  0.21461512311E+02  0.30194258954E+02  0.00000000000E+00 0. -1.
</event>
<event>
 7    1  0.1788006E-013  0.7246159E+02  0.7816164E-02  0.1226708E+00
        -11   -1    0    0    0    0  0.00000000000E+00  0.00000000000E+00  0.45593999997E+02  0.45594000000E+02  0.51100000000E-03 0.  1.
         11   -1    0    0    0    0 -0.00000000000E+00 -0.00000000000E+00 -0.45593999997E+02  0.45594000000E+02  0.51100000000E-03 0. -1.
    9900012    2    1    2    0    0  0.10213863560E+02 -0.15304046618E+02  0.34844579719E+01  0.72461593536E+02  0.70000030277E+02 0.  0.
        -12    1    1    2    0    0 -0.10213863560E+02  0.15304046618E+02 -0.34844579719E+01  0.18726406464E+02  0.00000000000E+00 0.  1.
         11    1    3    3    0    0 -0.99559982809E+01  0.12536114681E+01  0.15389597305E+01  0.10151937785E+02  0.51100000000E-03 0. -1.
        -11    1    3    3    0    0 -0.49421737620E+01 -0.30141455889E+02  0.10832474984E+02  0.32407945926E+02  0.51100000000E-03 0.  1.
         12    1    3    3    0    0  0.25112035603E+02  0.13583797803E+02 -0.88869767422E+01  0.29901709825E+02  0.00000000000E+00 0. -1.
</event>
<event>
 7    1  0.1788006E-013  0.7246158E+02  0.7816164E-02  0.1226708E+00
        -11   -1    0    0    0    0  0.00000000000E+00  0.00000000000E+00  0.45593999997E+02  0.45594000000E+02  0.51100000000E-03 0.  1.
         11   -1    0    0    0    0 -0.00000000000E+00 -0.00000000000E+00 -0.45593999997E+02  0.45594000000E+02  0.51100000000E-03 0. -1.
    9900012    2    1    2    0    0 -0.84778890316E+01 -0.46641323944E+00 -0.16690921164E+02  0.72461575006E+02  0.70000006138E+02 0.  0.
        -12    1    1    2    0    0  0.84778890316E+01  0.46641323944E+00  0.16690921164E+02  0.18726424994E+02  0.00000000000E+00 0.  1.
         11    1    3    3    0    0  0.88922921157E+01  0.50882660089E+01  0.24422409896E+01  0.10532229173E+02  0.51100000000E-03 0. -1.
        -11    1    3    3    0    0  0.10771136749E+02  0.60625414500E+01  0.12810555799E+02  0.17801183552E+02  0.51100000000E-03 0.  1.
         12    1    3    3    0    0 -0.28141317896E+02 -0.11617220698E+02 -0.31943717953E+02  0.44128162281E+02  0.00000000000E+00 0. -1.
</event>
<event>
 7    1  0.1788006E-013  0.7246153E+02  0.7816164E-02  0.1226708E+00
        -11   -1    0    0    0    0  0.00000000000E+00  0.00000000000E+00  0.45593999997E+02  0.45594000000E+02  0.51100000000E-03 0. -1.
         11   -1    0    0    0    0 -0.00000000000E+00 -0.00000000000E+00 -0.45593999997E+02  0.45594000000E+02  0.51100000000E-03 0.  1.
    9900012    2    1    2    0    0 -0.11166683226E+02 -0.91887870521E+01  0.11897571248E+02  0.72461526136E+02  0.69999942476E+02 0.  0.
        -12    1    1    2    0    0  0.11166683226E+02  0.91887870521E+01 -0.11897571248E+02  0.18726473864E+02  0.00000000000E+00 0.  1.
         11    1    3    3    0    0 -0.14112983082E+01  0.11280129283E+01  0.83678561149E+01  0.85606770936E+01  0.51100000000E-03 0. -1.
        -11    1    3    3    0    0  0.20837682728E+02 -0.50817443804E+01 -0.16413539319E+02  0.27008099168E+02  0.51100000000E-03 0.  1.
         12    1    3    3    0    0 -0.30593067646E+02 -0.52350556001E+01  0.19943254453E+02  0.36892749874E+02  0.00000000000E+00 0. -1.
</event>
<event>
 7    1  0.1788006E-013  0.7246231E+02  0.7816164E-02  0.1226706E+00
        -11   -1    0    0    0    0  0.00000000000E+00  0.00000000000E+00  0.45593999997E+02  0.45594000000E+02  0.51100000000E-03 0.  1.
         11   -1    0    0    0    0 -0.00000000000E+00 -0.00000000000E+00 -0.45593999997E+02  0.45594000000E+02  0.51100000000E-03 0. -1.
    9900012    2    1    2    0    0 -0.10668134874E+02 -0.15343947442E+02  0.11855853940E+01  0.72462310760E+02  0.70000964587E+02 0.  0.
        -12    1    1    2    0    0  0.10668134874E+02  0.15343947442E+02 -0.11855853940E+01  0.18725689240E+02  0.00000000000E+00 0.  1.
         11    1    3    3    0    0  0.10520979349E+02  0.78819291715E+01 -0.15518963188E+02  0.20338486488E+02  0.51100000000E-03 0. -1.
        -11    1    3    3    0    0  0.82605635713E+01  0.38990586255E+01  0.49827926990E+01  0.10405181018E+02  0.51100000000E-03 0.  1.
        -12    1    3    3    0    0 -0.29449677794E+02 -0.27124935239E+02  0.11721755883E+02  0.41718643253E+02  0.00000000000E+00 0.  1.
</event>
<event>
 7    1  0.1788006E-013  0.7246155E+02  0.7816164E-02  0.1226708E+00
        -11   -1    0    0    0    0  0.00000000000E+00  0.00000000000E+00  0.45593999997E+02  0.45594000000E+02  0.51100000000E-03 0.  1.
         11   -1    0    0    0    0 -0.00000000000E+00 -0.00000000000E+00 -0.45593999997E+02  0.45594000000E+02  0.51100000000E-03 0. -1.
    9900012    2    1    2    0    0 -0.98166086948E+00  0.98096537666E+01  0.15921270197E+02  0.72461553200E+02  0.69999977731E+02 0.  0.
        -12    1    1    2    0    0  0.98166086948E+00 -0.98096537666E+01 -0.15921270197E+02  0.18726446800E+02  0.00000000000E+00 0.  1.
         11    1    3    3    0    0 -0.56197910846E+01  0.45694854788E+01  0.23566353459E+01  0.76168221582E+01  0.51100000000E-03 0. -1.
        -11    1    3    3    0    0 -0.32920732716E+01  0.26512128677E+02  0.27392171967E+02  0.38263060499E+02  0.51100000000E-03 0.  1.
         12    1    3    3    0    0  0.79302034868E+01 -0.21271960389E+02 -0.13827537115E+02  0.26581670543E+02  0.00000000000E+00 0. -1.
</event>
<event>
 7    1  0.1788006E-013  0.7246151E+02  0.7816164E-02  0.1226708E+00
        -11   -1    0    0    0    0  0.00000000000E+00  0.00000000000E+00  0.45593999997E+02  0.45594000000E+02  0.51100000000E-03 0. -1.
         11   -1    0    0    0    0 -0.00000000000E+00 -0.00000000000E+00 -0.45593999997E+02  0.45594000000E+02  0.51100000000E-03 0.  1.
    9900012    2    1    2    0    0 -0.87893732367E+01 -0.36119813932E+01  0.16136358058E+02  0.72461506926E+02  0.69999917451E+02 0.  0.
        -12    1    1    2    0    0  0.87893732367E+01  0.36119813932E+01 -0.16136358058E+02  0.18726493074E+02  0.00000000000E+00 0.  1.
         11    1    3    3    0    0  0.15529737571E+02  0.11199923383E+02  0.13147975205E+02  0.23226714900E+02  0.51100000000E-03 0. -1.
        -11    1    3    3    0    0  0.90324061713E+01 -0.72628450449E+01  0.87958776902E+01  0.14549939656E+02  0.51100000000E-03 0.  1.
        -12    1    3    3    0    0 -0.33351516979E+02 -0.75490597310E+01 -0.58074948372E+01  0.34684852370E+02  0.00000000000E+00 0.  1.
</event>
<event>
 7    1  0.1788006E-013  0.7246136E+02  0.7816164E-02  0.1226709E+00
        -11   -1    0    0    0    0  0.00000000000E+00  0.00000000000E+00  0.45593999997E+02  0.45594000000E+02  0.51100000000E-03 0.  1.
         11   -1    0    0    0    0 -0.00000000000E+00 -0.00000000000E+00 -0.45593999997E+02  0.45594000000E+02  0.51100000000E-03 0. -1.
    9900012    2    1    2    0    0  0.76688365347E+01  0.17078025240E+02  0.46605811190E+00  0.72461355611E+02  0.69999720335E+02 0.  0.
        -12    1    1    2    0    0 -0.76688365347E+01 -0.17078025240E+02 -0.46605811190E+00  0.18726644389E+02  0.00000000000E+00 0.  1.
         11    1    3    3    0    0 -0.16749265073E+02  0.91280875814E+01 -0.63787273184E+01  0.20113379274E+02  0.51100000000E-03 0. -1.
        -11    1    3    3    0    0 -0.20436386651E+01 -0.16026929027E+02  0.12678817535E+01  0.16206370273E+02  0.51100000000E-03 0.  1.
         12    1    3    3    0    0  0.26461740273E+02  0.23976866685E+02  0.55769036768E+01  0.36141606064E+02  0.00000000000E+00 0. -1.
</event>
<event>
 7    1  0.1788006E-013  0.7246159E+02  0.7816164E-02  0.1226708E+00
        -11   -1    0    0    0    0  0.00000000000E+00  0.00000000000E+00  0.45593999997E+02  0.45594000000E+02  0.51100000000E-03 0.  1.
         11   -1    0    0    0    0 -0.00000000000E+00 -0.00000000000E+00 -0.45593999997E+02  0.45594000000E+02  0.51100000000E-03 0. -1.
    9900012    2    1    2    0    0  0.74305757492E+01 -0.17001189022E+02 -0.25346994855E+01  0.72461585885E+02  0.70000020310E+02 0.  0.
        -12    1    1    2    0    0 -0.74305757492E+01  0.17001189022E+02  0.25346994855E+01  0.18726414115E+02  0.00000000000E+00 0.  1.
         11    1    3    3    0    0  0.30900582042E+01 -0.52239459276E+01 -0.81142675113E+01  0.10133084835E+02  0.51100000000E-03 0. -1.
        -11    1    3    3    0    0 -0.24057986008E+02  0.92382948912E+01 -0.30790620210E+01  0.25954063389E+02  0.51100000000E-03 0.  1.
         12    1    3    3    0    0  0.28398503553E+02 -0.21015537986E+02  0.86586300468E+01  0.36374437661E+02  0.00000000000E+00 0. -1.
</event>
<event>
 7    1  0.1788006E-013  0.7246156E+02  0.7816164E-02  0.1226708E+00
        -11   -1    0    0    0    0  0.00000000000E+00  0.00000000000E+00  0.45593999997E+02  0.45594000000E+02  0.51100000000E-03 0.  1.
         11   -1    0    0    0    0 -0.00000000000E+00 -0.00000000000E+00 -0.45593999997E+02  0.45594000000E+02  0.51100000000E-03 0. -1.
    9900012    2    1    2    0    0  0.43139380912E+01 -0.16916213119E+02 -0.67757880440E+01  0.72461557953E+02  0.69999983923E+02 0.  0.
        -12    1    1    2    0    0 -0.43139380912E+01  0.16916213119E+02  0.67757880440E+01  0.18726442047E+02  0.00000000000E+00 0.  1.
         11    1    3    3    0    0 -0.24652821083E+02 -0.15200686229E+01 -0.33703979166E+01  0.24928533417E+02  0.51100000000E-03 0. -1.
        -11    1    3    3    0    0  0.16026353475E+02  0.83855316859E+01  0.57065515813E+01  0.18966440852E+02  0.51100000000E-03 0.  1.
         12    1    3    3    0    0  0.12940405699E+02 -0.23781676182E+02 -0.91119417087E+01  0.28566583684E+02  0.00000000000E+00 0. -1.
</event>
<event>
 7    1  0.1788006E-013  0.7246156E+02  0.7816164E-02  0.1226708E+00
        -11   -1    0    0    0    0  0.00000000000E+00  0.00000000000E+00  0.45593999997E+02  0.45594000000E+02  0.51100000000E-03 0.  1.
         11   -1    0    0    0    0 -0.00000000000E+00 -0.00000000000E+00 -0.45593999997E+02  0.45594000000E+02  0.51100000000E-03 0. -1.
    9900012    2    1    2    0    0  0.65901162830E+01  0.17028714682E+02 -0.41560632055E+01  0.72461558327E+02  0.69999984411E+02 0.  0.
        -12    1    1    2    0    0 -0.65901162830E+01 -0.17028714682E+02  0.41560632055E+01  0.18726441673E+02  0.00000000000E+00 0.  1.
         11    1    3    3    0    0  0.20292020091E+02  0.15318047004E+02 -0.11936194643E+02  0.28087032350E+02  0.51100000000E-03 0. -1.
        -11    1    3    3    0    0  0.55392847787E+01  0.74248017590E+01  0.19173921751E+02  0.21294380306E+02  0.51100000000E-03 0.  1.
         12    1    3    3    0    0 -0.19241188587E+02 -0.57141340805E+01 -0.11393790314E+02  0.23080145672E+02  0.00000000000E+00 0. -1.
</event>
<event>
 7    1  0.1788006E-013  0.7246161E+02  0.7816164E-02  0.1226708E+00
        -11   -1    0    0    0    0  0.00000000000E+00  0.00000000000E+00  0.45593999997E+02  0.45594000000E+02  0.51100000000E-03 0. -1.
         11   -1    0    0    0    0 -0.00000000000E+00 -0.00000000000E+00 -0.45593999997E+02  0.45594000000E+02  0.51100000000E-03 0.  1.
    9900012    2    1    2    0    0  0.94540466315E+01  0.90958846538E+01  0.13362774492E+02  0.72461605326E+02  0.70000045635E+02 0.  0.
        -12    1    1    2    0    0 -0.94540466315E+01 -0.90958846538E+01 -0.13362774492E+02  0.18726394674E+02  0.00000000000E+00 0.  1.
         11    1    3    3    0    0  0.12328066363E+02 -0.47740356206E+01  0.59802527741E+01  0.14509860780E+02  0.51100000000E-03 0. -1.
        -11    1    3    3    0    0  0.25381805103E+02  0.92679152871E+01 -0.36601646830E+01  0.27267693152E+02  0.51100000000E-03 0.  1.
        -12    1    3    3    0    0 -0.28255824835E+02  0.46020049873E+01  0.11042686401E+02  0.30684051394E+02  0.00000000000E+00 0.  1.
</event>
<event>
 7    1  0.1788006E-013  0.7246151E+02  0.7816164E-02  0.1226708E+00
        -11   -1    0    0    0    0  0.00000000000E+00  0.00000000000E+00  0.45593999997E+02  0.45594000000E+02  0.51100000000E-03 0.  1.
         11   -1    0    0    0    0 -0.00000000000E+00 -0.00000000000E+00 -0.45593999997E+02  0.45594000000E+02  0.51100000000E-03 0. -1.
    9900012    2    1    2    0    0  0.58876847869E+01  0.14995518479E+02 -0.95472983467E+01  0.72461513081E+02  0.69999925469E+02 0.  0.
        -12    1    1    2    0    0 -0.58876847869E+01 -0.14995518479E+02  0.95472983467E+01  0.18726486919E+02  0.00000000000E+00 0.  1.
         11    1    3    3    0    0 -0.14623843560E+02 -0.17885731912E+02 -0.15321626570E+01  0.23153913906E+02  0.51100000000E-03 0. -1.
        -11    1    3    3    0    0  0.66642618591E+01  0.49225447087E+01 -0.15181569807E+02  0.17295198599E+02  0.51100000000E-03 0.  1.
        -12    1    3    3    0    0  0.13847266488E+02  0.27958705683E+02  0.71664341169E+01  0.32012400575E+02  0.00000000000E+00 0.  1.
</event>
<event>
 7    1  0.1788006E-013  0.7246159E+02  0.7816164E-02  0.1226708E+00
        -11   -1    0    0    0    0  0.00000000000E+00  0.00000000000E+00  0.45593999997E+02  0.45594000000E+02  0.51100000000E-03 0. -1.
         11   -1    0    0    0    0 -0.00000000000E+00 -0.00000000000E+00 -0.45593999997E+02  0.45594000000E+02  0.51100000000E-03 0.  1.
    9900012    2    1    2    0    0 -0.20489382060E+01  0.18493321668E+02 -0.21159389873E+01  0.72461593728E+02  0.70000030526E+02 0.  0.
        -12    1    1    2    0    0  0.20489382060E+01 -0.18493321668E+02  0.21159389873E+01  0.18726406272E+02  0.00000000000E+00 0.  1.
         11    1    3    3    0    0  0.15531792991E+02  0.12575206685E+01  0.17233379413E+02  0.23233753851E+02  0.51100000000E-03 0. -1.
        -11    1    3    3    0    0 -0.30224357580E+01 -0.12120781305E+02 -0.56877236800E+01  0.13725839074E+02  0.51100000000E-03 0.  1.
        -12    1    3    3    0    0 -0.14558295439E+02  0.29356582304E+02 -0.13661594720E+02  0.35502000803E+02  0.00000000000E+00 0.  1.
</event>
<event>
 7    1  0.1788006E-013  0.7246158E+02  0.7816164E-02  0.1226708E+00
        -11   -1    0    0    0    0  0.00000000000E+00  0.00000000000E+00  0.45593999997E+02  0.45594000000E+02  0.51100000000E-03 0. -1.
         11   -1    0    0    0    0 -0.00000000000E+00 -0.00000000000E+00 -0.45593999997E+02  0.45594000000E+02  0.51100000000E-03 0.  1.
    9900012    2    1    2    0    0  0.44737978930E+01  0.17251918911E+01  0.18102147452E+02  0.72461577570E+02  0.70000009478E+02 0.  0.
        -12    1    1    2    0    0 -0.44737978930E+01 -0.17251918911E+01 -0.18102147452E+02  0.18726422430E+02  0.00000000000E+00 0.  1.
         11    1    3    3    0    0  0.14776882808E+02  0.17607119277E+02 -0.11113500767E+02  0.25531878393E+02  0.51100000000E-03 0. -1.
        -11    1    3    3    0    0 -0.18849379380E+02 -0.84997263054E+00  0.11123791379E+02  0.21903431041E+02  0.51100000000E-03 0.  1.
        -12    1    3    3    0    0  0.85462944649E+01 -0.15031954755E+02  0.18091856841E+02  0.25026268135E+02  0.00000000000E+00 0.  1.
</event>
<event>
 7    1  0.1788006E-013  0.7246157E+02  0.7816164E-02  0.1226708E+00
        -11   -1    0    0    0    0  0.00000000000E+00  0.00000000000E+00  0.45593999997E+02  0.45594000000E+02  0.51100000000E-03 0.  1.
         11   -1    0    0    0    0 -0.00000000000E+00 -0.00000000000E+00 -0.45593999997E+02  0.45594000000E+02  0.51100000000E-03 0. -1.
    9900012    2    1    2    0    0 -0.17301603035E+02 -0.31337971656E+01 -0.64430524246E+01  0.72461572770E+02  0.70000003225E+02 0.  0.
        -12    1    1    2    0    0  0.17301603035E+02  0.31337971656E+01  0.64430524246E+01  0.18726427230E+02  0.00000000000E+00 0.  1.
         11    1    3    3    0    0  0.10444811854E+02 -0.71192035690E+00 -0.21964829305E+02  0.24332173186E+02  0.51100000000E-03 0. -1.
        -11    1    3    3    0    0 -0.36316576201E+00 -0.81597083291E+01 -0.81073645540E+01  0.11508348694E+02  0.51100000000E-03 0.  1.
        -12    1    3    3    0    0 -0.27383249128E+02  0.57378315204E+01  0.23629141435E+02  0.36621050890E+02  0.00000000000E+00 0.  1.
</event>
<event>
 7    1  0.1788006E-013  0.7246157E+02  0.7816164E-02  0.1226708E+00
        -11   -1    0    0    0    0  0.00000000000E+00  0.00000000000E+00  0.45593999997E+02  0.45594000000E+02  0.51100000000E-03 0.  1.
         11   -1    0    0    0    0 -0.00000000000E+00 -0.00000000000E+00 -0.45593999997E+02  0.45594000000E+02  0.51100000000E-03 0. -1.
    9900012    2    1    2    0    0 -0.27544369088E+01  0.15726300705E+02  0.97865127980E+01  0.72461567096E+02  0.69999995834E+02 0.  0.
        -12    1    1    2    0    0  0.27544369088E+01 -0.15726300705E+02 -0.97865127980E+01  0.18726432904E+02  0.00000000000E+00 0.  1.
         11    1    3    3    0    0  0.12242760911E+02  0.14522517435E+02 -0.14785711854E+02  0.24070853385E+02  0.51100000000E-03 0. -1.
        -11    1    3    3    0    0 -0.98734793212E+01  0.98458667258E+01 -0.67536448271E+01  0.15493172825E+02  0.51100000000E-03 0.  1.
        -12    1    3    3    0    0 -0.51237184988E+01 -0.86420834559E+01  0.31325869479E+02  0.32897540886E+02  0.00000000000E+00 0.  1.
</event>
<event>
 7    1  0.1788006E-013  0.7246155E+02  0.7816164E-02  0.1226708E+00
        -11   -1    0    0    0    0  0.00000000000E+00  0.00000000000E+00  0.45593999997E+02  0.45594000000E+02  0.51100000000E-03 0.  1.
         11   -1    0    0    0    0 -0.00000000000E+00 -0.00000000000E+00 -0.45593999997E+02  0.45594000000E+02  0.51100000000E-03 0. -1.
    9900012    2    1    2    0    0  0.17197481285E+02 -0.60840998946E+01 -0.42320469784E+01  0.72461551973E+02  0.69999976133E+02 0.  0.
        -12    1    1    2    0    0 -0.17197481285E+02  0.60840998946E+01  0.42320469784E+01  0.18726448027E+02  0.00000000000E+00 0.  1.
         11    1    3    3    0    0  0.11520000294E+02  0.17527974265E+02 -0.19660914493E+02  0.28748771235E+02  0.51100000000E-03 0.  1.
        -11    1    3    3    0    0  0.16755792047E+02 -0.43855130116E+01  0.12435189609E+02  0.21321895610E+02  0.51100000000E-03 0. -1.
        -12    1    3    3    0    0 -0.11078311056E+02 -0.19226561148E+02  0.29936779048E+01  0.22390885128E+02  0.00000000000E+00 0.  1.
</event>
<event>
 7    1  0.1788006E-013  0.7246168E+02  0.7816164E-02  0.1226708E+00
        -11   -1    0    0    0    0  0.00000000000E+00  0.00000000000E+00  0.45593999997E+02  0.45594000000E+02  0.51100000000E-03 0.  1.
         11   -1    0    0    0    0 -0.00000000000E+00 -0.00000000000E+00 -0.45593999997E+02  0.45594000000E+02  0.51100000000E-03 0. -1.
    9900012    2    1    2    0    0  0.93210235303E-01  0.77065920758E+01 -0.17066777513E+02  0.72461677770E+02  0.70000140007E+02 0.  0.
        -12    1    1    2    0    0 -0.93210235303E-01 -0.77065920758E+01  0.17066777513E+02  0.18726322230E+02  0.00000000000E+00 0.  1.
         11    1    3    3    0    0  0.24675111972E+01  0.51086797558E+01  0.24164881302E+01  0.61665740489E+01  0.51100000000E-03 0. -1.
        -11    1    3    3    0    0  0.13726796716E+02  0.21621367775E+02 -0.29824922923E+02  0.39312014959E+02  0.51100000000E-03 0.  1.
         12    1    3    3    0    0 -0.16101097677E+02 -0.19023455455E+02  0.10341657280E+02  0.26983088762E+02  0.00000000000E+00 0. -1.
</event>
<event>
 7    1  0.1788006E-013  0.7246158E+02  0.7816164E-02  0.1226708E+00
        -11   -1    0    0    0    0  0.00000000000E+00  0.00000000000E+00  0.45593999997E+02  0.45594000000E+02  0.51100000000E-03 0.  1.
         11   -1    0    0    0    0 -0.00000000000E+00 -0.00000000000E+00 -0.45593999997E+02  0.45594000000E+02  0.51100000000E-03 0. -1.
    9900012    2    1    2    0    0  0.13132128102E+02  0.10102490737E+02 -0.87273028508E+01  0.72461576887E+02  0.70000008588E+02 0.  0.
        -12    1    1    2    0    0 -0.13132128102E+02 -0.10102490737E+02  0.87273028508E+01  0.18726423113E+02  0.00000000000E+00 0.  1.
         11    1    3    3    0    0  0.29941528109E+02  0.14563757218E+02  0.92290799056E+01  0.34551035382E+02  0.51100000000E-03 0. -1.
        -11    1    3    3    0    0  0.76284449569E+01 -0.46140828019E+01 -0.55726127981E+01  0.10513655227E+02  0.51100000000E-03 0.  1.
        -12    1    3    3    0    0 -0.24437844965E+02  0.15281632038E+00 -0.12383769958E+02  0.27396886278E+02  0.00000000000E+00 0.  1.
</event>
<event>
 7    1  0.1788006E-013  0.7246161E+02  0.7816164E-02  0.1226708E+00
        -11   -1    0    0    0    0  0.00000000000E+00  0.00000000000E+00  0.45593999997E+02  0.45594000000E+02  0.51100000000E-03 0.  1.
         11   -1    0    0    0    0 -0.00000000000E+00 -0.00000000000E+00 -0.45593999997E+02  0.45594000000E+02  0.51100000000E-03 0. -1.
    9900012    2    1    2    0    0 -0.56423887061E+01  0.14978634317E+02 -0.97201657738E+01  0.72461610626E+02  0.70000052540E+02 0.  0.
        -12    1    1    2    0    0  0.56423887061E+01 -0.14978634317E+02  0.97201657738E+01  0.18726389374E+02  0.00000000000E+00 0.  1.
         11    1    3    3    0    0  0.20664701208E+02 -0.68172418104E+01 -0.13519263338E+02  0.25617867658E+02  0.51100000000E-03 0. -1.
        -11    1    3    3    0    0 -0.74381855427E+01  0.16083783746E+02  0.15818849573E+02  0.23753961897E+02  0.51100000000E-03 0.  1.
        -12    1    3    3    0    0 -0.18868904371E+02  0.57120923810E+01 -0.12019752009E+02  0.23089781071E+02  0.00000000000E+00 0.  1.
</event>
<event>
 7    1  0.1788006E-013  0.7246159E+02  0.7816164E-02  0.1226708E+00
        -11   -1    0    0    0    0  0.00000000000E+00  0.00000000000E+00  0.45593999997E+02  0.45594000000E+02  0.51100000000E-03 0.  1.
         11   -1    0    0    0    0 -0.00000000000E+00 -0.00000000000E+00 -0.45593999997E+02  0.45594000000E+02  0.51100000000E-03 0. -1.
    9900012    2    1    2    0    0 -0.27344404354E+01  0.35679493238E+01 -0.18178864944E+02  0.72461586635E+02  0.70000021287E+02 0.  0.
        -12    1    1    2    0    0  0.27344404354E+01 -0.35679493238E+01  0.18178864944E+02  0.18726413365E+02  0.00000000000E+00 0.  1.
         11    1    3    3    0    0 -0.55391873562E+01  0.10090930418E+02 -0.19712603806E+02  0.22827532113E+02  0.51100000000E-03 0. -1.
        -11    1    3    3    0    0  0.64459194244E+01 -0.13516916507E+02 -0.20981801110E+02  0.25777759545E+02  0.51100000000E-03 0.  1.
        -12    1    3    3    0    0 -0.36411725036E+01  0.69939354130E+01  0.22515539973E+02  0.23856294977E+02  0.00000000000E+00 0.  1.
</event>
<event>
 7    1  0.1788006E-013  0.7246154E+02  0.7816164E-02  0.1226708E+00
        -11   -1    0    0    0    0  0.00000000000E+00  0.00000000000E+00  0.45593999997E+02  0.45594000000E+02  0.51100000000E-03 0. -1.
         11   -1    0    0    0    0 -0.00000000000E+00 -0.00000000000E+00 -0.45593999997E+02  0.45594000000E+02  0.51100000000E-03 0.  1.
    9900012    2    1    2    0    0  0.14072942101E+02  0.12350046392E+02  0.32981022641E+00  0.72461544915E+02  0.69999966939E+02 0.  0.
        -12    1    1    2    0    0 -0.14072942101E+02 -0.12350046392E+02 -0.32981022641E+00  0.18726455085E+02  0.00000000000E+00 0.  1.
         11    1    3    3    0    0  0.22583168683E+01  0.17572609902E+02  0.23217543955E+02  0.29205324196E+02  0.51100000000E-03 0. -1.
        -11    1    3    3    0    0 -0.19448451325E+01  0.13159962202E+02 -0.52462389080E+01  0.14300001772E+02  0.51100000000E-03 0.  1.
        -12    1    3    3    0    0  0.13759470365E+02 -0.18382525711E+02 -0.17641494820E+02  0.28956218948E+02  0.00000000000E+00 0.  1.
</event>
<event>
 7    1  0.1788006E-013  0.7246158E+02  0.7816164E-02  0.1226708E+00
        -11   -1    0    0    0    0  0.00000000000E+00  0.00000000000E+00  0.45593999997E+02  0.45594000000E+02  0.51100000000E-03 0.  1.
         11   -1    0    0    0    0 -0.00000000000E+00 -0.00000000000E+00 -0.45593999997E+02  0.45594000000E+02  0.51100000000E-03 0. -1.
    9900012    2    1    2    0    0 -0.14711508139E+02  0.11178665286E+02 -0.30475581224E+01  0.72461584438E+02  0.70000018424E+02 0.  0.
        -12    1    1    2    0    0  0.14711508139E+02 -0.11178665286E+02  0.30475581224E+01  0.18726415562E+02  0.00000000000E+00 0.  1.
         11    1    3    3    0    0 -0.26427211160E+02  0.26018986860E+02 -0.10203210658E+02  0.38464147916E+02  0.51100000000E-03 0. -1.
        -11    1    3    3    0    0  0.87847137949E+01 -0.66901763967E+01 -0.99245406583E+01  0.14846756017E+02  0.51100000000E-03 0.  1.
         12    1    3    3    0    0  0.29309892255E+01 -0.81501451777E+01  0.17080193194E+02  0.19150680505E+02  0.00000000000E+00 0. -1.
</event>
<event>
 7    1  0.1788006E-013  0.7246153E+02  0.7816164E-02  0.1226708E+00
        -11   -1    0    0    0    0  0.00000000000E+00  0.00000000000E+00  0.45593999997E+02  0.45594000000E+02  0.51100000000E-03 0. -1.
         11   -1    0    0    0    0 -0.00000000000E+00 -0.00000000000E+00 -0.45593999997E+02  0.45594000000E+02  0.51100000000E-03 0.  1.
    9900012    2    1    2    0    0  0.51887291139E+01 -0.17847911803E+02 -0.22824745541E+01  0.72461533285E+02  0.69999951788E+02 0.  0.
        -12    1    1    2    0    0 -0.51887291139E+01  0.17847911803E+02  0.22824745541E+01  0.18726466715E+02  0.00000000000E+00 0.  1.
         11    1    3    3    0    0 -0.14999697126E+02  0.56893464405E+01  0.13003226924E+02  0.20650508165E+02  0.51100000000E-03 0. -1.
        -11    1    3    3    0    0  0.37699193834E+01  0.68054862943E+01  0.72244049261E+01  0.10616918699E+02  0.51100000000E-03 0.  1.
        -12    1    3    3    0    0  0.16418506856E+02 -0.30342744538E+02 -0.22510106404E+02  0.41194106421E+02  0.00000000000E+00 0.  1.
</event>
<event>
 7    1  0.1788006E-013  0.7246162E+02  0.7816164E-02  0.1226708E+00
        -11   -1    0    0    0    0  0.00000000000E+00  0.00000000000E+00  0.45593999997E+02  0.45594000000E+02  0.51100000000E-03 0. -1.
         11   -1    0    0    0    0 -0.00000000000E+00 -0.00000000000E+00 -0.45593999997E+02  0.45594000000E+02  0.51100000000E-03 0.  1.
    9900012    2    1    2    0    0 -0.12584080958E+02  0.86589280564E+01  0.10832419001E+02  0.72461616739E+02  0.70000060503E+02 0.  0.
        -12    1    1    2    0    0  0.12584080958E+02 -0.86589280564E+01 -0.10832419001E+02  0.18726383261E+02  0.00000000000E+00 0.  1.
         11    1    3    3    0    0  0.13318939277E+02 -0.49318125507E+01 -0.43754979342E+01  0.14861423247E+02  0.51100000000E-03 0. -1.
        -11    1    3    3    0    0 -0.28554429136E+01  0.14874075293E+02 -0.13826699211E+02  0.20507785872E+02  0.51100000000E-03 0.  1.
         12    1    3    3    0    0 -0.23047577321E+02 -0.12833346861E+01  0.29034616146E+02  0.37092407619E+02  0.00000000000E+00 0. -1.
</event>
<event>
 7    1  0.1788006E-013  0.7246157E+02  0.7816164E-02  0.1226708E+00
        -11   -1    0    0    0    0  0.00000000000E+00  0.00000000000E+00  0.45593999997E+02  0.45594000000E+02  0.51100000000E-03 0.  1.
         11   -1    0    0    0    0 -0.00000000000E+00 -0.00000000000E+00 -0.45593999997E+02  0.45594000000E+02  0.51100000000E-03 0. -1.
    9900012    2    1    2    0    0  0.20224898648E+01 -0.11982134423E+02 -0.14248411171E+02  0.72461568640E+02  0.69999997845E+02 0.  0.
        -12    1    1    2    0    0 -0.20224898648E+01  0.11982134423E+02  0.14248411171E+02  0.18726431360E+02  0.00000000000E+00 0.  1.
         11    1    3    3    0    0 -0.30743942787E+01 -0.13060634568E+02 -0.18732469027E+02  0.23042080453E+02  0.51100000000E-03 0. -1.
        -11    1    3    3    0    0  0.14007495797E+02  0.12311195317E+02  0.20641257012E+02  0.27817925155E+02  0.51100000000E-03 0.  1.
         12    1    3    3    0    0 -0.89106116531E+01 -0.11232695172E+02 -0.16157199156E+02  0.21601563032E+02  0.00000000000E+00 0. -1.
</event>
<event>
 7    1  0.1788006E-013  0.7246156E+02  0.7816164E-02  0.1226708E+00
        -11   -1    0    0    0    0  0.00000000000E+00  0.00000000000E+00  0.45593999997E+02  0.45594000000E+02  0.51100000000E-03 0.  1.
         11   -1    0    0    0    0 -0.00000000000E+00 -0.00000000000E+00 -0.45593999997E+02  0.45594000000E+02  0.51100000000E-03 0. -1.
    9900012    2    1    2    0    0  0.10548547053E+02  0.13431918352E+02 -0.76805666140E+01  0.72461564700E+02  0.69999992712E+02 0.  0.
        -12    1    1    2    0    0 -0.10548547053E+02 -0.13431918352E+02  0.76805666140E+01  0.18726435300E+02  0.00000000000E+00 0.  1.
         11    1    3    3    0    0  0.16497733117E+02  0.16962598337E+02 -0.48529422386E+01  0.24154833657E+02  0.51100000000E-03 0.  1.
        -11    1    3    3    0    0  0.19972133908E+02 -0.86234344668E+01 -0.15336136387E+00  0.21754844858E+02  0.51100000000E-03 0. -1.
        -12    1    3    3    0    0 -0.25921319972E+02  0.50927544811E+01 -0.26742630116E+01  0.26551886185E+02  0.00000000000E+00 0.  1.
</event>
<event>
 7    1  0.1788006E-013  0.7246156E+02  0.7816164E-02  0.1226708E+00
        -11   -1    0    0    0    0  0.00000000000E+00  0.00000000000E+00  0.45593999997E+02  0.45594000000E+02  0.51100000000E-03 0.  1.
         11   -1    0    0    0    0 -0.00000000000E+00 -0.00000000000E+00 -0.45593999997E+02  0.45594000000E+02  0.51100000000E-03 0. -1.
    9900012    2    1    2    0    0 -0.15179912779E+02  0.10837400677E+02 -0.16735024508E+01  0.72461558376E+02  0.69999984475E+02 0.  0.
        -12    1    1    2    0    0  0.15179912779E+02 -0.10837400677E+02  0.16735024508E+01  0.18726441624E+02  0.00000000000E+00 0.  1.
         11    1    3    3    0    0  0.54149972762E+01  0.31406096379E+02  0.64990415442E+01  0.32525415086E+02  0.51100000000E-03 0. -1.
        -11    1    3    3    0    0 -0.39856043119E+00  0.57630579171E+01 -0.74877334013E-01  0.57773085299E+01  0.51100000000E-03 0.  1.
        -12    1    3    3    0    0 -0.20196349624E+02 -0.26331753619E+02 -0.80976666610E+01  0.34158834760E+02  0.00000000000E+00 0.  1.
</event>
<event>
 7    1  0.1788006E-013  0.7246155E+02  0.7816164E-02  0.1226708E+00
        -11   -1    0    0    0    0  0.00000000000E+00  0.00000000000E+00  0.45593999997E+02  0.45594000000E+02  0.51100000000E-03 0. -1.
         11   -1    0    0    0    0 -0.00000000000E+00 -0.00000000000E+00 -0.45593999997E+02  0.45594000000E+02  0.51100000000E-03 0.  1.
    9900012    2    1    2    0    0  0.12099936378E+02  0.14126420998E+02  0.21715273884E+01  0.72461554481E+02  0.69999979401E+02 0.  0.
        -12    1    1    2    0    0 -0.12099936378E+02 -0.14126420998E+02 -0.21715273884E+01  0.18726445519E+02  0.00000000000E+00 0.  1.
         11    1    3    3    0    0 -0.97828177576E+00 -0.97202341060E+01  0.79549776841E+01  0.12598478342E+02  0.51100000000E-03 0. -1.
        -11    1    3    3    0    0  0.65447314734E+01 -0.16781628925E+02 -0.50463762514E+01  0.18706215357E+02  0.51100000000E-03 0.  1.
         12    1    3    3    0    0  0.65334866808E+01  0.40628284029E+02 -0.73707404426E+00  0.41156860783E+02  0.00000000000E+00 0. -1.
</event>
<event>
 7    1  0.1788006E-013  0.7246155E+02  0.7816164E-02  0.1226708E+00
        -11   -1    0    0    0    0  0.00000000000E+00  0.00000000000E+00  0.45593999997E+02  0.45594000000E+02  0.51100000000E-03 0. -1.
         11   -1    0    0    0    0 -0.00000000000E+00 -0.00000000000E+00 -0.45593999997E+02  0.45594000000E+02  0.51100000000E-03 0.  1.
    9900012    2    1    2    0    0  0.60247529244E+01  0.30837816819E+01  0.17460602386E+02  0.72461548309E+02  0.69999971360E+02 0.  0.
        -12    1    1    2    0    0 -0.60247529244E+01 -0.30837816819E+01 -0.17460602386E+02  0.18726451691E+02  0.00000000000E+00 0.  1.
         11    1    3    3    0    0 -0.13182448000E+01  0.26987762321E+02  0.14833373021E+02  0.30823790161E+02  0.51100000000E-03 0. -1.
        -11    1    3    3    0    0  0.54596590542E+01  0.47507445122E+01  0.96621541849E+01  0.12072061720E+02  0.51100000000E-03 0.  1.
         12    1    3    3    0    0  0.18833386702E+01 -0.28654725152E+02 -0.70349248195E+01  0.29565696428E+02  0.00000000000E+00 0. -1.
</event>
<event>
 7    1  0.1788006E-013  0.7246131E+02  0.7816164E-02  0.1226709E+00
        -11   -1    0    0    0    0  0.00000000000E+00  0.00000000000E+00  0.45593999997E+02  0.45594000000E+02  0.51100000000E-03 0.  1.
         11   -1    0    0    0    0 -0.00000000000E+00 -0.00000000000E+00 -0.45593999997E+02  0.45594000000E+02  0.51100000000E-03 0. -1.
    9900012    2    1    2    0    0  0.10427287157E+02  0.77903113896E+01 -0.13463715321E+02  0.72461310510E+02  0.69999661582E+02 0.  0.
        -12    1    1    2    0    0 -0.10427287157E+02 -0.77903113896E+01  0.13463715321E+02  0.18726689490E+02  0.00000000000E+00 0.  1.
         11    1    3    3    0    0  0.14543180779E+02  0.19562747365E+01  0.83570810590E+01  0.16887034142E+02  0.51100000000E-03 0. -1.
        -11    1    3    3    0    0 -0.11229401344E+02  0.14688175423E+02  0.10537214823E+02  0.21280856380E+02  0.51100000000E-03 0.  1.
         12    1    3    3    0    0  0.71135077219E+01 -0.88541387694E+01 -0.32358011203E+02  0.34293419988E+02  0.00000000000E+00 0. -1.
</event>
<event>
 7    1  0.1788006E-013  0.7246160E+02  0.7816164E-02  0.1226708E+00
        -11   -1    0    0    0    0  0.00000000000E+00  0.00000000000E+00  0.45593999997E+02  0.45594000000E+02  0.51100000000E-03 0. -1.
         11   -1    0    0    0    0 -0.00000000000E+00 -0.00000000000E+00 -0.45593999997E+02  0.45594000000E+02  0.51100000000E-03 0.  1.
    9900012    2    1    2    0    0 -0.10130932062E+02 -0.50872914891E+01  0.14905092862E+02  0.72461598521E+02  0.70000036770E+02 0.  0.
        -12    1    1    2    0    0  0.10130932062E+02  0.50872914891E+01 -0.14905092862E+02  0.18726401479E+02  0.00000000000E+00 0.  1.
         11    1    3    3    0    0 -0.12936098052E+02 -0.22036068296E+02  0.30683476849E+02  0.39930022421E+02  0.51100000000E-03 0. -1.
        -11    1    3    3    0    0 -0.78414141486E+01  0.11937528140E+02 -0.20154324957E+01  0.14424088268E+02  0.51100000000E-03 0.  1.
        -12    1    3    3    0    0  0.10646580138E+02  0.50112486666E+01 -0.13762951492E+02  0.18107487832E+02  0.00000000000E+00 0.  1.
</event>
<event>
 7    1  0.1788006E-013  0.7246158E+02  0.7816164E-02  0.1226708E+00
        -11   -1    0    0    0    0  0.00000000000E+00  0.00000000000E+00  0.45593999997E+02  0.45594000000E+02  0.51100000000E-03 0.  1.
         11   -1    0    0    0    0 -0.00000000000E+00 -0.00000000000E+00 -0.45593999997E+02  0.45594000000E+02  0.51100000000E-03 0. -1.
    9900012    2    1    2    0    0  0.10171223413E+02  0.15672372974E+02 -0.12656290048E+01  0.72461578101E+02  0.70000010170E+02 0.  0.
        -12    1    1    2    0    0 -0.10171223413E+02 -0.15672372974E+02  0.12656290048E+01  0.18726421899E+02  0.00000000000E+00 0.  1.
         11    1    3    3    0    0  0.18427476371E+02  0.32508090669E+02  0.12137158381E+02  0.39289419163E+02  0.51100000000E-03 0. -1.
        -11    1    3    3    0    0 -0.20405177085E+01 -0.11135576900E+01  0.65908744673E+01  0.69888017394E+01  0.51100000000E-03 0.  1.
        -12    1    3    3    0    0 -0.62157352496E+01 -0.15722160005E+02 -0.19993661853E+02  0.26183357199E+02  0.00000000000E+00 0.  1.
</event>
<event>
 7    1  0.1788006E-013  0.7246158E+02  0.7816164E-02  0.1226708E+00
        -11   -1    0    0    0    0  0.00000000000E+00  0.00000000000E+00  0.45593999997E+02  0.45594000000E+02  0.51100000000E-03 0. -1.
         11   -1    0    0    0    0 -0.00000000000E+00 -0.00000000000E+00 -0.45593999997E+02  0.45594000000E+02  0.51100000000E-03 0.  1.
    9900012    2    1    2    0    0  0.15121871603E+02 -0.22710328893E+01  0.10809735034E+02  0.72461575818E+02  0.70000007195E+02 0.  0.
        -12    1    1    2    0    0 -0.15121871603E+02  0.22710328893E+01 -0.10809735034E+02  0.18726424182E+02  0.00000000000E+00 0.  1.
         11    1    3    3    0    0  0.81188644397E+01 -0.21039374955E+01 -0.61326150840E+01  0.10389970202E+02  0.51100000000E-03 0. -1.
        -11    1    3    3    0    0  0.25182595068E+02  0.19627141581E+02  0.37957936925E+01  0.32152695548E+02  0.51100000000E-03 0.  1.
         12    1    3    3    0    0 -0.18179587905E+02 -0.19794236975E+02  0.13146556425E+02  0.29918910068E+02  0.00000000000E+00 0. -1.
</event>
<event>
 7    1  0.1788006E-013  0.7246157E+02  0.7816164E-02  0.1226708E+00
        -11   -1    0    0    0    0  0.00000000000E+00  0.00000000000E+00  0.45593999997E+02  0.45594000000E+02  0.51100000000E-03 0. -1.
         11   -1    0    0    0    0 -0.00000000000E+00 -0.00000000000E+00 -0.45593999997E+02  0.45594000000E+02  0.51100000000E-03 0.  1.
    9900012    2    1    2    0    0 -0.10932103071E+02  0.14930922389E+02  0.28698053167E+01  0.72461572057E+02  0.70000002296E+02 0.  0.
        -12    1    1    2    0    0  0.10932103071E+02 -0.14930922389E+02 -0.28698053167E+01  0.18726427943E+02  0.00000000000E+00 0.  1.
         11    1    3    3    0    0 -0.34735874178E+02 -0.13247965196E+01 -0.70667686277E+01  0.35472175854E+02  0.51100000000E-03 0. -1.
        -11    1    3    3    0    0 -0.27645767495E+01  0.36900227537E+01 -0.23014148464E+01  0.51532187110E+01  0.51100000000E-03 0.  1.
         12    1    3    3    0    0  0.26568347856E+02  0.12565696155E+02  0.12237988791E+02  0.31836177492E+02  0.00000000000E+00 0. -1.
</event>
<event>
 7    1  0.1788006E-013  0.7246157E+02  0.7816164E-02  0.1226708E+00
        -11   -1    0    0    0    0  0.00000000000E+00  0.00000000000E+00  0.45593999997E+02  0.45594000000E+02  0.51100000000E-03 0.  1.
         11   -1    0    0    0    0 -0.00000000000E+00 -0.00000000000E+00 -0.45593999997E+02  0.45594000000E+02  0.51100000000E-03 0. -1.
    9900012    2    1    2    0    0 -0.55274778161E+01  0.77461987378E+01 -0.16128319104E+02  0.72461567264E+02  0.69999996052E+02 0.  0.
        -12    1    1    2    0    0  0.55274778161E+01 -0.77461987378E+01  0.16128319104E+02  0.18726432736E+02  0.00000000000E+00 0.  1.
         11    1    3    3    0    0 -0.26614036454E+02  0.22457432791E+02 -0.18406006416E+02  0.39388123799E+02  0.51100000000E-03 0. -1.
        -11    1    3    3    0    0  0.32154182024E+01  0.52630469433E+01  0.93275086440E+00  0.62376759919E+01  0.51100000000E-03 0.  1.
        -12    1    3    3    0    0  0.17871140436E+02 -0.19974280997E+02  0.13449364467E+01  0.26835767473E+02  0.00000000000E+00 0.  1.
</event>
<event>
 7    1  0.1788006E-013  0.7246149E+02  0.7816164E-02  0.1226708E+00
        -11   -1    0    0    0    0  0.00000000000E+00  0.00000000000E+00  0.45593999997E+02  0.45594000000E+02  0.51100000000E-03 0. -1.
         11   -1    0    0    0    0 -0.00000000000E+00 -0.00000000000E+00 -0.45593999997E+02  0.45594000000E+02  0.51100000000E-03 0.  1.
    9900012    2    1    2    0    0  0.87591292035E+01  0.16409461383E+02  0.21654780172E+01  0.72461493056E+02  0.69999899383E+02 0.  0.
        -12    1    1    2    0    0 -0.87591292035E+01 -0.16409461383E+02 -0.21654780172E+01  0.18726506944E+02  0.00000000000E+00 0.  1.
         11    1    3    3    0    0 -0.19781028701E+01 -0.19333757180E+02  0.61824007928E+01  0.20394340820E+02  0.51100000000E-03 0. -1.
        -11    1    3    3    0    0  0.79799945255E+01 -0.59271984243E+01 -0.26306075997E+01  0.10282611069E+02  0.51100000000E-03 0.  1.
        -12    1    3    3    0    0  0.27572375480E+01  0.41670416987E+02 -0.13863151758E+01  0.41784541167E+02  0.00000000000E+00 0.  1.
</event>
<event>
 7    1  0.1788006E-013  0.7246147E+02  0.7816164E-02  0.1226708E+00
        -11   -1    0    0    0    0  0.00000000000E+00  0.00000000000E+00  0.45593999997E+02  0.45594000000E+02  0.51100000000E-03 0. -1.
         11   -1    0    0    0    0 -0.00000000000E+00 -0.00000000000E+00 -0.45593999997E+02  0.45594000000E+02  0.51100000000E-03 0.  1.
    9900012    2    1    2    0    0  0.12894907076E+02  0.25560240183E+01  0.13336833464E+02  0.72461467643E+02  0.69999866277E+02 0.  0.
        -12    1    1    2    0    0 -0.12894907076E+02 -0.25560240183E+01 -0.13336833464E+02  0.18726532357E+02  0.00000000000E+00 0.  1.
         11    1    3    3    0    0  0.17265515578E+01  0.29125007993E+02  0.58759300997E+01  0.29761949292E+02  0.51100000000E-03 0. -1.
        -11    1    3    3    0    0  0.90615384512E+01  0.36871150346E+01 -0.35881704558E+01  0.10420233388E+02  0.51100000000E-03 0.  1.
        -12    1    3    3    0    0  0.21068170666E+01 -0.30256099009E+02  0.11049073821E+02  0.32279284962E+02  0.00000000000E+00 0.  1.
</event>
<event>
 7    1  0.1788006E-013  0.7246159E+02  0.7816164E-02  0.1226708E+00
        -11   -1    0    0    0    0  0.00000000000E+00  0.00000000000E+00  0.45593999997E+02  0.45594000000E+02  0.51100000000E-03 0.  1.
         11   -1    0    0    0    0 -0.00000000000E+00 -0.00000000000E+00 -0.45593999997E+02  0.45594000000E+02  0.51100000000E-03 0. -1.
    9900012    2    1    2    0    0 -0.43224857690E+01  0.17492017382E+02 -0.51013603853E+01  0.72461589957E+02  0.70000025614E+02 0.  0.
        -12    1    1    2    0    0  0.43224857690E+01 -0.17492017382E+02  0.51013603853E+01  0.18726410043E+02  0.00000000000E+00 0.  1.
         11    1    3    3    0    0  0.25804842354E+02  0.14252203864E+01 -0.19680892641E+02  0.32484745304E+02  0.51100000000E-03 0. -1.
        -11    1    3    3    0    0 -0.42488081269E+01 -0.23542294598E+01  0.45765992069E+01  0.66738315390E+01  0.51100000000E-03 0.  1.
        -12    1    3    3    0    0 -0.25878519996E+02  0.18421026456E+02  0.10002933048E+02  0.33303013114E+02  0.00000000000E+00 0.  1.
</event>
<event>
 7    1  0.1788006E-013  0.7246161E+02  0.7816164E-02  0.1226708E+00
        -11   -1    0    0    0    0  0.00000000000E+00  0.00000000000E+00  0.45593999997E+02  0.45594000000E+02  0.51100000000E-03 0. -1.
         11   -1    0    0    0    0 -0.00000000000E+00 -0.00000000000E+00 -0.45593999997E+02  0.45594000000E+02  0.51100000000E-03 0.  1.
    9900012    2    1    2    0    0 -0.13243407351E+01  0.12708139727E+02  0.13690398586E+02  0.72461609340E+02  0.70000050864E+02 0.  0.
        -12    1    1    2    0    0  0.13243407351E+01 -0.12708139727E+02 -0.13690398586E+02  0.18726390660E+02  0.00000000000E+00 0.  1.
         11    1    3    3    0    0 -0.15087789875E+02  0.23951900828E+02  0.18903602350E+02  0.34039405674E+02  0.51100000000E-03 0. -1.
        -11    1    3    3    0    0  0.31583617564E+01  0.70668163562E+01  0.97919559567E+01  0.12481888644E+02  0.51100000000E-03 0.  1.
        -12    1    3    3    0    0  0.10605087383E+02 -0.18310577457E+02 -0.15005159720E+02  0.25940315022E+02  0.00000000000E+00 0.  1.
</event>
<event>
 7    1  0.1788006E-013  0.7246154E+02  0.7816164E-02  0.1226708E+00
        -11   -1    0    0    0    0  0.00000000000E+00  0.00000000000E+00  0.45593999997E+02  0.45594000000E+02  0.51100000000E-03 0. -1.
         11   -1    0    0    0    0 -0.00000000000E+00 -0.00000000000E+00 -0.45593999997E+02  0.45594000000E+02  0.51100000000E-03 0.  1.
    9900012    2    1    2    0    0  0.93036620193E+01  0.15450678047E+02 -0.50396976979E+01  0.72461544597E+02  0.69999966524E+02 0.  0.
        -12    1    1    2    0    0 -0.93036620193E+01 -0.15450678047E+02  0.50396976979E+01  0.18726455403E+02  0.00000000000E+00 0.  1.
         11    1    3    3    0    0  0.95154602528E+01 -0.24107323411E+02 -0.15614186505E+02  0.30257393251E+02  0.51100000000E-03 0.  1.
        -11    1    3    3    0    0 -0.47431970109E+01  0.23393111644E+02  0.82569322855E+01  0.25256930164E+02  0.51100000000E-03 0. -1.
        -12    1    3    3    0    0  0.45313987774E+01  0.16164889813E+02  0.23175565217E+01  0.16947221182E+02  0.00000000000E+00 0.  1.
</event>
<event>
 7    1  0.1788006E-013  0.7246164E+02  0.7816164E-02  0.1226708E+00
        -11   -1    0    0    0    0  0.00000000000E+00  0.00000000000E+00  0.45593999997E+02  0.45594000000E+02  0.51100000000E-03 0. -1.
         11   -1    0    0    0    0 -0.00000000000E+00 -0.00000000000E+00 -0.45593999997E+02  0.45594000000E+02  0.51100000000E-03 0.  1.
    9900012    2    1    2    0    0  0.48428702470E+01  0.10220259708E+02  0.14925457459E+02  0.72461644746E+02  0.70000096988E+02 0.  0.
        -12    1    1    2    0    0 -0.48428702470E+01 -0.10220259708E+02 -0.14925457459E+02  0.18726355254E+02  0.00000000000E+00 0.  1.
         11    1    3    3    0    0 -0.12000603736E+01  0.27590880424E+02 -0.55115443089E+00  0.27622465476E+02  0.51100000000E-03 0. -1.
        -11    1    3    3    0    0  0.35810870176E+01  0.22692005725E+01 -0.10995986439E+02  0.11784955388E+02  0.51100000000E-03 0.  1.
         12    1    3    3    0    0  0.24618436030E+01 -0.19639821289E+02  0.26472598329E+02  0.33054223882E+02  0.00000000000E+00 0. -1.
</event>
<event>
 7    1  0.1788006E-013  0.7246151E+02  0.7816164E-02  0.1226708E+00
        -11   -1    0    0    0    0  0.00000000000E+00  0.00000000000E+00  0.45593999997E+02  0.45594000000E+02  0.51100000000E-03 0.  1.
         11   -1    0    0    0    0 -0.00000000000E+00 -0.00000000000E+00 -0.45593999997E+02  0.45594000000E+02  0.51100000000E-03 0. -1.
    9900012    2    1    2    0    0 -0.18228731315E+02  0.31782755733E+01 -0.28797909215E+01  0.72461514031E+02  0.69999926707E+02 0.  0.
        -12    1    1    2    0    0  0.18228731315E+02 -0.31782755733E+01  0.28797909215E+01  0.18726485969E+02  0.00000000000E+00 0.  1.
         11    1    3    3    0    0  0.95786237972E+01  0.10110627347E-01 -0.96067073028E+01  0.13566096031E+02  0.51100000000E-03 0. -1.
        -11    1    3    3    0    0  0.11540347754E+02  0.11862442872E+02 -0.43344480947E+01  0.17108027873E+02  0.51100000000E-03 0.  1.
        -12    1    3    3    0    0 -0.39347702866E+02 -0.86942779261E+01  0.11061364476E+02  0.41787390126E+02  0.00000000000E+00 0.  1.
</event>
<event>
 7    1  0.1788006E-013  0.7246157E+02  0.7816164E-02  0.1226708E+00
        -11   -1    0    0    0    0  0.00000000000E+00  0.00000000000E+00  0.45593999997E+02  0.45594000000E+02  0.51100000000E-03 0.  1.
         11   -1    0    0    0    0 -0.00000000000E+00 -0.00000000000E+00 -0.45593999997E+02  0.45594000000E+02  0.51100000000E-03 0. -1.
    9900012    2    1    2    0    0 -0.12112563269E+02  0.49135428090E+01 -0.13409773876E+02  0.72461571422E+02  0.70000001469E+02 0.  0.
        -12    1    1    2    0    0  0.12112563269E+02 -0.49135428090E+01  0.13409773876E+02  0.18726428578E+02  0.00000000000E+00 0.  1.
         11    1    3    3    0    0 -0.16975112183E+02  0.11042019364E+02 -0.33324566213E+01  0.20522813955E+02  0.51100000000E-03 0. -1.
        -11    1    3    3    0    0 -0.13194006001E+02 -0.15612824536E+02  0.10487823118E+02  0.22974692998E+02  0.51100000000E-03 0.  1.
         12    1    3    3    0    0  0.18056554915E+02  0.94843479810E+01 -0.20565140372E+02  0.28964064469E+02  0.00000000000E+00 0. -1.
</event>
<event>
 7    1  0.1788006E-013  0.7246159E+02  0.7816164E-02  0.1226708E+00
        -11   -1    0    0    0    0  0.00000000000E+00  0.00000000000E+00  0.45593999997E+02  0.45594000000E+02  0.51100000000E-03 0.  1.
         11   -1    0    0    0    0 -0.00000000000E+00 -0.00000000000E+00 -0.45593999997E+02  0.45594000000E+02  0.51100000000E-03 0. -1.
    9900012    2    1    2    0    0 -0.13107499519E+02 -0.13317895736E+02 -0.12269575934E+01  0.72461593099E+02  0.70000029707E+02 0.  0.
        -12    1    1    2    0    0  0.13107499519E+02  0.13317895736E+02  0.12269575934E+01  0.18726406901E+02  0.00000000000E+00 0.  1.
         11    1    3    3    0    0 -0.23294664412E+02  0.16392987109E+01 -0.18997539714E+02  0.30103740727E+02  0.51100000000E-03 0. -1.
        -11    1    3    3    0    0  0.15606146959E+02 -0.42150675237E+01 -0.47294178924E+01  0.16842981060E+02  0.51100000000E-03 0.  1.
        -12    1    3    3    0    0 -0.54189820663E+01 -0.10742126923E+02  0.22500000013E+02  0.25514871311E+02  0.00000000000E+00 0.  1.
</event>
<event>
 7    1  0.1788006E-013  0.7246152E+02  0.7816164E-02  0.1226708E+00
        -11   -1    0    0    0    0  0.00000000000E+00  0.00000000000E+00  0.45593999997E+02  0.45594000000E+02  0.51100000000E-03 0. -1.
         11   -1    0    0    0    0 -0.00000000000E+00 -0.00000000000E+00 -0.45593999997E+02  0.45594000000E+02  0.51100000000E-03 0.  1.
    9900012    2    1    2    0    0  0.10155570766E+02  0.89575169215E+01  0.12934778555E+02  0.72461515460E+02  0.69999928568E+02 0.  0.
        -12    1    1    2    0    0 -0.10155570766E+02 -0.89575169215E+01 -0.12934778555E+02  0.18726484540E+02  0.00000000000E+00 0.  1.
         11    1    3    3    0    0  0.29728752400E+02  0.76593304771E+01  0.91054899375E+01  0.32021461707E+02  0.51100000000E-03 0. -1.
        -11    1    3    3    0    0 -0.60584886498E+01  0.16662021053E+02 -0.45896800147E+01  0.18313748748E+02  0.51100000000E-03 0.  1.
        -12    1    3    3    0    0 -0.13514692984E+02 -0.15363834609E+02  0.84189686317E+01  0.22126305005E+02  0.00000000000E+00 0.  1.
</event>
<event>
 7    1  0.1788006E-013  0.7246157E+02  0.7816164E-02  0.1226708E+00
        -11   -1    0    0    0    0  0.00000000000E+00  0.00000000000E+00  0.45593999997E+02  0.45594000000E+02  0.51100000000E-03 0. -1.
         11   -1    0    0    0    0 -0.00000000000E+00 -0.00000000000E+00 -0.45593999997E+02  0.45594000000E+02  0.51100000000E-03 0.  1.
    9900012    2    1    2    0    0  0.13245521904E+02  0.13130445903E+02 -0.16812751957E+01  0.72461570912E+02  0.70000000804E+02 0.  0.
        -12    1    1    2    0    0 -0.13245521904E+02 -0.13130445903E+02  0.16812751957E+01  0.18726429088E+02  0.00000000000E+00 0.  1.
         11    1    3    3    0    0  0.14059243506E+02  0.39435913379E+02 -0.87396220774E+01  0.42769552094E+02  0.51100000000E-03 0. -1.
        -11    1    3    3    0    0 -0.23944669885E+01 -0.47599726421E+01  0.60546179127E+01  0.80653090482E+01  0.51100000000E-03 0.  1.
        -12    1    3    3    0    0  0.15807453863E+01 -0.21545494834E+02  0.10037289690E+01  0.21626709770E+02  0.00000000000E+00 0.  1.
</event>
<event>
 7    1  0.1788006E-013  0.7246157E+02  0.7816164E-02  0.1226708E+00
        -11   -1    0    0    0    0  0.00000000000E+00  0.00000000000E+00  0.45593999997E+02  0.45594000000E+02  0.51100000000E-03 0.  1.
         11   -1    0    0    0    0 -0.00000000000E+00 -0.00000000000E+00 -0.45593999997E+02  0.45594000000E+02  0.51100000000E-03 0. -1.
    9900012    2    1    2    0    0 -0.18363536076E+02  0.17717096652E+01 -0.32125834781E+01  0.72461572018E+02  0.70000002246E+02 0.  0.
        -12    1    1    2    0    0  0.18363536076E+02 -0.17717096652E+01  0.32125834781E+01  0.18726427982E+02  0.00000000000E+00 0.  1.
         11    1    3    3    0    0  0.16548057320E+01 -0.11660958415E+02 -0.43184505925E+01  0.12544534625E+02  0.51100000000E-03 0. -1.
        -11    1    3    3    0    0  0.56701629726E+01 -0.14132262829E+01  0.22559080210E+02  0.23303649003E+02  0.51100000000E-03 0.  1.
         12    1    3    3    0    0 -0.25688504781E+02  0.14845894363E+02 -0.21453213096E+02  0.36613388391E+02  0.00000000000E+00 0. -1.
</event>
<event>
 7    1  0.1788006E-013  0.7246162E+02  0.7816164E-02  0.1226708E+00
        -11   -1    0    0    0    0  0.00000000000E+00  0.00000000000E+00  0.45593999997E+02  0.45594000000E+02  0.51100000000E-03 0.  1.
         11   -1    0    0    0    0 -0.00000000000E+00 -0.00000000000E+00 -0.45593999997E+02  0.45594000000E+02  0.51100000000E-03 0. -1.
    9900012    2    1    2    0    0  0.12034195025E+02  0.14320203073E+02 -0.88721677277E+00  0.72461622359E+02  0.70000067824E+02 0.  0.
        -12    1    1    2    0    0 -0.12034195025E+02 -0.14320203073E+02  0.88721677277E+00  0.18726377641E+02  0.00000000000E+00 0.  1.
         11    1    3    3    0    0 -0.47213645721E+01 -0.42509921784E+01 -0.15114826014E+01  0.65304515801E+01  0.51100000000E-03 0. -1.
        -11    1    3    3    0    0  0.40847681349E+00  0.25076485144E+02  0.25300777834E+02  0.35624799224E+02  0.51100000000E-03 0.  1.
         12    1    3    3    0    0  0.16347082783E+02 -0.65052898929E+01 -0.24676512005E+02  0.30306371555E+02  0.00000000000E+00 0. -1.
</event>
<event>
 7    1  0.1788006E-013  0.7246157E+02  0.7816164E-02  0.1226708E+00
        -11   -1    0    0    0    0  0.00000000000E+00  0.00000000000E+00  0.45593999997E+02  0.45594000000E+02  0.51100000000E-03 0. -1.
         11   -1    0    0    0    0 -0.00000000000E+00 -0.00000000000E+00 -0.45593999997E+02  0.45594000000E+02  0.51100000000E-03 0.  1.
    9900012    2    1    2    0    0  0.16106577758E+02  0.13291078217E+01  0.94599545721E+01  0.72461571745E+02  0.70000001890E+02 0.  0.
        -12    1    1    2    0    0 -0.16106577758E+02 -0.13291078217E+01 -0.94599545721E+01  0.18726428255E+02  0.00000000000E+00 0.  1.
         11    1    3    3    0    0 -0.40684039388E+00  0.59462778367E+00  0.87428738886E+01  0.87725107808E+01  0.51100000000E-03 0. -1.
        -11    1    3    3    0    0 -0.13220364004E+02 -0.17815652242E+02  0.13974555390E+02  0.26219528748E+02  0.51100000000E-03 0.  1.
         12    1    3    3    0    0  0.29733782156E+02  0.18550132280E+02 -0.13257474706E+02  0.37469532216E+02  0.00000000000E+00 0. -1.
</event>
<event>
 7    1  0.1788006E-013  0.7246161E+02  0.7816164E-02  0.1226708E+00
        -11   -1    0    0    0    0  0.00000000000E+00  0.00000000000E+00  0.45593999997E+02  0.45594000000E+02  0.51100000000E-03 0. -1.
         11   -1    0    0    0    0 -0.00000000000E+00 -0.00000000000E+00 -0.45593999997E+02  0.45594000000E+02  0.51100000000E-03 0.  1.
    9900012    2    1    2    0    0  0.12933669601E+02 -0.72275769137E+01  0.11452505702E+02  0.72461613155E+02  0.70000055834E+02 0.  0.
        -12    1    1    2    0    0 -0.12933669601E+02  0.72275769137E+01 -0.11452505702E+02  0.18726386845E+02  0.00000000000E+00 0.  1.
         11    1    3    3    0    0  0.77907049141E+01 -0.21072206655E+02 -0.31672129881E+01  0.22688415871E+02  0.51100000000E-03 0. -1.
        -11    1    3    3    0    0  0.16121588606E+02  0.23802504916E+02 -0.28985295370E+00  0.28749763032E+02  0.51100000000E-03 0.  1.
         12    1    3    3    0    0 -0.10978623918E+02 -0.99578751743E+01  0.14909571644E+02  0.21023434252E+02  0.00000000000E+00 0. -1.
</event>
<event>
 7    1  0.1788006E-013  0.7246157E+02  0.7816164E-02  0.1226708E+00
        -11   -1    0    0    0    0  0.00000000000E+00  0.00000000000E+00  0.45593999997E+02  0.45594000000E+02  0.51100000000E-03 0. -1.
         11   -1    0    0    0    0 -0.00000000000E+00 -0.00000000000E+00 -0.45593999997E+02  0.45594000000E+02  0.51100000000E-03 0.  1.
    9900012    2    1    2    0    0 -0.14061387228E+02 -0.79610961533E+01 -0.94645411258E+01  0.72461569441E+02  0.69999998889E+02 0.  0.
        -12    1    1    2    0    0  0.14061387228E+02  0.79610961533E+01  0.94645411258E+01  0.18726430559E+02  0.00000000000E+00 0.  1.
         11    1    3    3    0    0  0.71691775349E+00  0.14522243500E+02 -0.13580098749E+02  0.19895441931E+02  0.51100000000E-03 0. -1.
        -11    1    3    3    0    0 -0.16979077118E+02 -0.24181221332E+02 -0.15078394201E+02  0.33171953467E+02  0.51100000000E-03 0.  1.
        -12    1    3    3    0    0  0.22007721365E+01  0.16978816778E+01  0.19193951824E+02  0.19394174043E+02  0.00000000000E+00 0.  1.
</event>
<event>
 7    1  0.1788006E-013  0.7246155E+02  0.7816164E-02  0.1226708E+00
        -11   -1    0    0    0    0  0.00000000000E+00  0.00000000000E+00  0.45593999997E+02  0.45594000000E+02  0.51100000000E-03 0.  1.
         11   -1    0    0    0    0 -0.00000000000E+00 -0.00000000000E+00 -0.45593999997E+02  0.45594000000E+02  0.51100000000E-03 0. -1.
    9900012    2    1    2    0    0 -0.16556767405E+02  0.62687762488E+01 -0.61037644399E+01  0.72461546975E+02  0.69999969623E+02 0.  0.
        -12    1    1    2    0    0  0.16556767405E+02 -0.62687762488E+01  0.61037644399E+01  0.18726453025E+02  0.00000000000E+00 0.  1.
         11    1    3    3    0    0  0.11178305759E+02  0.16219429559E+02 -0.66584669865E+01  0.20793258468E+02  0.51100000000E-03 0. -1.
        -11    1    3    3    0    0 -0.22925140528E+02 -0.20064968711E+02  0.14534672321E+02  0.33755321615E+02  0.51100000000E-03 0.  1.
         12    1    3    3    0    0 -0.48099326362E+01  0.10114315401E+02 -0.13979969774E+02  0.17912966892E+02  0.00000000000E+00 0. -1.
</event>
<event>
 7    1  0.1788006E-013  0.7246154E+02  0.7816164E-02  0.1226708E+00
        -11   -1    0    0    0    0  0.00000000000E+00  0.00000000000E+00  0.45593999997E+02  0.45594000000E+02  0.51100000000E-03 0. -1.
         11   -1    0    0    0    0 -0.00000000000E+00 -0.00000000000E+00 -0.45593999997E+02  0.45594000000E+02  0.51100000000E-03 0.  1.
    9900012    2    1    2    0    0 -0.38627937899E+01 -0.16981380481E+02  0.68841665762E+01  0.72461542557E+02  0.69999963867E+02 0.  0.
        -12    1    1    2    0    0  0.38627937899E+01  0.16981380481E+02 -0.68841665762E+01  0.18726457443E+02  0.00000000000E+00 0.  1.
         11    1    3    3    0    0 -0.47233565940E+01  0.29175232415E+01  0.13741425612E+02  0.14820553886E+02  0.51100000000E-03 0. -1.
        -11    1    3    3    0    0 -0.12446808655E+02 -0.32597874731E+02 -0.14416238072E+02  0.37754104453E+02  0.51100000000E-03 0.  1.
         12    1    3    3    0    0  0.13307371459E+02  0.12698971008E+02  0.75589790363E+01  0.19886884218E+02  0.00000000000E+00 0. -1.
</event>
<event>
 7    1  0.1788006E-013  0.7246157E+02  0.7816164E-02  0.1226708E+00
        -11   -1    0    0    0    0  0.00000000000E+00  0.00000000000E+00  0.45593999997E+02  0.45594000000E+02  0.51100000000E-03 0. -1.
         11   -1    0    0    0    0 -0.00000000000E+00 -0.00000000000E+00 -0.45593999997E+02  0.45594000000E+02  0.51100000000E-03 0.  1.
    9900012    2    1    2    0    0  0.19742900269E+01  0.98614446770E+01  0.15796616947E+02  0.72461574308E+02  0.70000005229E+02 0.  0.
        -12    1    1    2    0    0 -0.19742900269E+01 -0.98614446770E+01 -0.15796616947E+02  0.18726425692E+02  0.00000000000E+00 0.  1.
         11    1    3    3    0    0  0.30732191255E+02  0.28245370215E+01 -0.25900175236E+01  0.30970207939E+02  0.51100000000E-03 0. -1.
        -11    1    3    3    0    0 -0.66731161194E+01 -0.24549237218E+01  0.15785398726E+02  0.17312883712E+02  0.51100000000E-03 0.  1.
        -12    1    3    3    0    0 -0.22084785109E+02  0.94918313773E+01  0.26012357441E+01  0.24178482657E+02  0.00000000000E+00 0.  1.
</event>
<event>
 7    1  0.1788006E-013  0.7246155E+02  0.7816164E-02  0.1226708E+00
        -11   -1    0    0    0    0  0.00000000000E+00  0.00000000000E+00  0.45593999997E+02  0.45594000000E+02  0.51100000000E-03 0.  1.
         11   -1    0    0    0    0 -0.00000000000E+00 -0.00000000000E+00 -0.45593999997E+02  0.45594000000E+02  0.51100000000E-03 0. -1.
    9900012    2    1    2    0    0 -0.16122312068E+02 -0.92840828933E+01 -0.21346349931E+01  0.72461553243E+02  0.69999977787E+02 0.  0.
        -12    1    1    2    0    0  0.16122312068E+02  0.92840828933E+01  0.21346349931E+01  0.18726446757E+02  0.00000000000E+00 0.  1.
         11    1    3    3    0    0 -0.80316383645E+01 -0.55002301344E+00  0.11674830506E+01  0.81346639186E+01  0.51100000000E-03 0. -1.
        -11    1    3    3    0    0 -0.27266661085E+02  0.16540728380E+02 -0.61297221379E+01  0.32475221259E+02  0.51100000000E-03 0.  1.
         12    1    3    3    0    0  0.19175987381E+02 -0.25274788260E+02  0.28276040943E+01  0.31851668065E+02  0.00000000000E+00 0. -1.
</event>
<event>
 7    1  0.1788006E-013  0.7246154E+02  0.7816164E-02  0.1226708E+00
        -11   -1    0    0    0    0  0.00000000000E+00  0.00000000000E+00  0.45593999997E+02  0.45594000000E+02  0.51100000000E-03 0.  1.
         11   -1    0    0    0    0 -0.00000000000E+00 -0.00000000000E+00 -0.45593999997E+02  0.45594000000E+02  0.51100000000E-03 0. -1.
    9900012    2    1    2    0    0  0.50855897246E+01  0.15557196444E+02 -0.90989346787E+01  0.72461542879E+02  0.69999964286E+02 0.  0.
        -12    1    1    2    0    0 -0.50855897246E+01 -0.15557196444E+02  0.90989346787E+01  0.18726457121E+02  0.00000000000E+00 0.  1.
         11    1    3    3    0    0 -0.92550664753E+01  0.26895210186E+02 -0.21421487369E+02  0.35607424897E+02  0.51100000000E-03 0. -1.
        -11    1    3    3    0    0  0.75779087154E+00  0.90350116360E+01 -0.74910795160E+00  0.90976285510E+01  0.51100000000E-03 0.  1.
        -12    1    3    3    0    0  0.13582865328E+02 -0.20373025379E+02  0.13071660641E+02  0.27756489431E+02  0.00000000000E+00 0.  1.
</event>
<event>
 7    1  0.1788006E-013  0.7246159E+02  0.7816164E-02  0.1226708E+00
        -11   -1    0    0    0    0  0.00000000000E+00  0.00000000000E+00  0.45593999997E+02  0.45594000000E+02  0.51100000000E-03 0.  1.
         11   -1    0    0    0    0 -0.00000000000E+00 -0.00000000000E+00 -0.45593999997E+02  0.45594000000E+02  0.51100000000E-03 0. -1.
    9900012    2    1    2    0    0  0.18463141864E+01 -0.72594129644E+01 -0.17163052932E+02  0.72461592480E+02  0.70000028901E+02 0.  0.
        -12    1    1    2    0    0 -0.18463141864E+01  0.72594129644E+01  0.17163052932E+02  0.18726407520E+02  0.00000000000E+00 0.  1.
         11    1    3    3    0    0 -0.82370348644E+01 -0.23075123065E+02  0.52229047725E+01  0.25051722143E+02  0.51100000000E-03 0. -1.
        -11    1    3    3    0    0  0.45748767580E+00  0.60541449364E+01  0.10305075427E+02  0.11960624804E+02  0.51100000000E-03 0.  1.
        -12    1    3    3    0    0  0.96258613750E+01  0.97615651642E+01 -0.32691033131E+02  0.35449245533E+02  0.00000000000E+00 0.  1.
</event>
<event>
 7    1  0.1788006E-013  0.7246160E+02  0.7816164E-02  0.1226708E+00
        -11   -1    0    0    0    0  0.00000000000E+00  0.00000000000E+00  0.45593999997E+02  0.45594000000E+02  0.51100000000E-03 0.  1.
         11   -1    0    0    0    0 -0.00000000000E+00 -0.00000000000E+00 -0.45593999997E+02  0.45594000000E+02  0.51100000000E-03 0. -1.
    9900012    2    1    2    0    0 -0.97432012534E+01 -0.13623224988E+01 -0.15933994786E+02  0.72461599302E+02  0.70000037788E+02 0.  0.
        -12    1    1    2    0    0  0.97432012534E+01  0.13623224988E+01  0.15933994786E+02  0.18726400698E+02  0.00000000000E+00 0.  1.
         11    1    3    3    0    0 -0.75045178828E+01 -0.11850760220E+02  0.11391210357E+02  0.18069808524E+02  0.51100000000E-03 0. -1.
        -11    1    3    3    0    0 -0.14182466167E+02  0.28240829158E+01  0.78553526415E+01  0.16456741970E+02  0.51100000000E-03 0.  1.
        -12    1    3    3    0    0  0.11943782796E+02  0.76643548051E+01 -0.35180557784E+02  0.37935048808E+02  0.00000000000E+00 0.  1.
</event>
<event>
 7    1  0.1788006E-013  0.7246150E+02  0.7816164E-02  0.1226708E+00
        -11   -1    0    0    0    0  0.00000000000E+00  0.00000000000E+00  0.45593999997E+02  0.45594000000E+02  0.51100000000E-03 0.  1.
         11   -1    0    0    0    0 -0.00000000000E+00 -0.00000000000E+00 -0.45593999997E+02  0.45594000000E+02  0.51100000000E-03 0. -1.
    9900012    2    1    2    0    0 -0.61924013068E+01  0.63682939767E+01 -0.16485772541E+02  0.72461502773E+02  0.69999912041E+02 0.  0.
        -12    1    1    2    0    0  0.61924013068E+01 -0.63682939767E+01  0.16485772541E+02  0.18726497227E+02  0.00000000000E+00 0.  1.
         11    1    3    3    0    0 -0.13576184589E+02  0.25059495829E+01 -0.99950294313E+01  0.17043860622E+02  0.51100000000E-03 0. -1.
        -11    1    3    3    0    0 -0.17207415090E+02 -0.39415003434E+01  0.13951773989E+02  0.22500723471E+02  0.51100000000E-03 0.  1.
         12    1    3    3    0    0  0.24591198373E+02  0.78038447372E+01 -0.20442517098E+02  0.32916918680E+02  0.00000000000E+00 0. -1.
</event>
<event>
 7    1  0.1788006E-013  0.7246164E+02  0.7816164E-02  0.1226708E+00
        -11   -1    0    0    0    0  0.00000000000E+00  0.00000000000E+00  0.45593999997E+02  0.45594000000E+02  0.51100000000E-03 0.  1.
         11   -1    0    0    0    0 -0.00000000000E+00 -0.00000000000E+00 -0.45593999997E+02  0.45594000000E+02  0.51100000000E-03 0. -1.
    9900012    2    1    2    0    0 -0.16173681958E+02  0.15294849939E+01 -0.93139340115E+01  0.72461636787E+02  0.70000086619E+02 0.  0.
        -12    1    1    2    0    0  0.16173681958E+02 -0.15294849939E+01  0.93139340115E+01  0.18726363213E+02  0.00000000000E+00 0.  1.
         11    1    3    3    0    0 -0.97600776433E+01  0.22968047139E+02  0.11529696982E+02  0.27490438660E+02  0.51100000000E-03 0. -1.
        -11    1    3    3    0    0 -0.95771152324E+01 -0.10493986154E+02  0.62941792732E+01  0.15539033900E+02  0.51100000000E-03 0.  1.
         12    1    3    3    0    0  0.31635109181E+01 -0.10944575991E+02 -0.27137810267E+02  0.29432164226E+02  0.00000000000E+00 0. -1.
</event>
<event>
 7    1  0.1788006E-013  0.7246144E+02  0.7816164E-02  0.1226708E+00
        -11   -1    0    0    0    0  0.00000000000E+00  0.00000000000E+00  0.45593999997E+02  0.45594000000E+02  0.51100000000E-03 0. -1.
         11   -1    0    0    0    0 -0.00000000000E+00 -0.00000000000E+00 -0.45593999997E+02  0.45594000000E+02  0.51100000000E-03 0.  1.
    9900012    2    1    2    0    0  0.17293833265E+02 -0.70671343715E+01  0.12895148707E+01  0.72461443835E+02  0.69999835263E+02 0.  0.
        -12    1    1    2    0    0 -0.17293833265E+02  0.70671343715E+01 -0.12895148707E+01  0.18726556165E+02  0.00000000000E+00 0.  1.
         11    1    3    3    0    0 -0.75114211656E+01 -0.24627337795E+02  0.85543047513E+01  0.27131224536E+02  0.51100000000E-03 0. -1.
        -11    1    3    3    0    0 -0.81633277963E+00 -0.79759335848E+01 -0.41348873099E+01  0.90210425718E+01  0.51100000000E-03 0.  1.
        -12    1    3    3    0    0  0.25621587210E+02  0.25536137008E+02 -0.31299025707E+01  0.36309176727E+02  0.00000000000E+00 0.  1.
</event>
<event>
 7    1  0.1788006E-013  0.7246161E+02  0.7816164E-02  0.1226708E+00
        -11   -1    0    0    0    0  0.00000000000E+00  0.00000000000E+00  0.45593999997E+02  0.45594000000E+02  0.51100000000E-03 0. -1.
         11   -1    0    0    0    0 -0.00000000000E+00 -0.00000000000E+00 -0.45593999997E+02  0.45594000000E+02  0.51100000000E-03 0.  1.
    9900012    2    1    2    0    0 -0.84914306282E+01 -0.13680894209E+02  0.95606799221E+01  0.72461605231E+02  0.70000045511E+02 0.  0.
        -12    1    1    2    0    0  0.84914306282E+01  0.13680894209E+02 -0.95606799221E+01  0.18726394769E+02  0.00000000000E+00 0.  1.
         11    1    3    3    0    0  0.61403522021E+00  0.96322346704E+01  0.27258761679E+02  0.28917072337E+02  0.51100000000E-03 0. -1.
        -11    1    3    3    0    0 -0.30943075958E+01  0.76412066454E+01 -0.32913629445E+01  0.88767025853E+01  0.51100000000E-03 0.  1.
        -12    1    3    3    0    0 -0.60111582527E+01 -0.30954335525E+02 -0.14406718813E+02  0.34667830308E+02  0.00000000000E+00 0.  1.
</event>
<event>
 7    1  0.1788006E-013  0.7246159E+02  0.7816164E-02  0.1226708E+00
        -11   -1    0    0    0    0  0.00000000000E+00  0.00000000000E+00  0.45593999997E+02  0.45594000000E+02  0.51100000000E-03 0.  1.
         11   -1    0    0    0    0 -0.00000000000E+00 -0.00000000000E+00 -0.45593999997E+02  0.45594000000E+02  0.51100000000E-03 0. -1.
    9900012    2    1    2    0    0  0.15283642680E+02 -0.52719994246E+01 -0.94495918515E+01  0.72461588233E+02  0.70000023368E+02 0.  0.
        -12    1    1    2    0    0 -0.15283642680E+02  0.52719994246E+01  0.94495918515E+01  0.18726411767E+02  0.00000000000E+00 0.  1.
         11    1    3    3    0    0 -0.26176045119E+01  0.98771231961E+01 -0.55404966981E+01  0.11623533023E+02  0.51100000000E-03 0. -1.
        -11    1    3    3    0    0 -0.83858183955E+00 -0.48635319033E+00  0.24081187033E+02  0.24100691445E+02  0.51100000000E-03 0.  1.
         12    1    3    3    0    0  0.18739829032E+02 -0.14662769430E+02 -0.27990282187E+02  0.36737363765E+02  0.00000000000E+00 0. -1.
</event>
<event>
 7    1  0.1788006E-013  0.7246126E+02  0.7816164E-02  0.1226709E+00
        -11   -1    0    0    0    0  0.00000000000E+00  0.00000000000E+00  0.45593999997E+02  0.45594000000E+02  0.51100000000E-03 0.  1.
         11   -1    0    0    0    0 -0.00000000000E+00 -0.00000000000E+00 -0.45593999997E+02  0.45594000000E+02  0.51100000000E-03 0. -1.
    9900012    2    1    2    0    0  0.16485074752E+01  0.18423214591E+02 -0.29254390840E+01  0.72461264925E+02  0.69999602198E+02 0.  0.
        -12    1    1    2    0    0 -0.16485074752E+01 -0.18423214591E+02  0.29254390840E+01  0.18726735075E+02  0.00000000000E+00 0.  1.
         11    1    3    3    0    0 -0.62892131064E+01 -0.78759326251E+01 -0.73163245676E+01  0.12454441844E+02  0.51100000000E-03 0. -1.
        -11    1    3    3    0    0  0.23763676883E+02 -0.23686472574E+01  0.11487431907E+02  0.26500640010E+02  0.51100000000E-03 0.  1.
        -12    1    3    3    0    0 -0.15825956302E+02  0.28667794473E+02 -0.70965464237E+01  0.33506183071E+02  0.00000000000E+00 0.  1.
</event>
<event>
 7    1  0.1788006E-013  0.7246159E+02  0.7816164E-02  0.1226708E+00
        -11   -1    0    0    0    0  0.00000000000E+00  0.00000000000E+00  0.45593999997E+02  0.45594000000E+02  0.51100000000E-03 0. -1.
         11   -1    0    0    0    0 -0.00000000000E+00 -0.00000000000E+00 -0.45593999997E+02  0.45594000000E+02  0.51100000000E-03 0.  1.
    9900012    2    1    2    0    0  0.10285188901E+02  0.12584731765E+02 -0.93015012867E+01  0.72461587890E+02  0.70000022921E+02 0.  0.
        -12    1    1    2    0    0 -0.10285188901E+02 -0.12584731765E+02  0.93015012867E+01  0.18726412110E+02  0.00000000000E+00 0.  1.
         11    1    3    3    0    0 -0.22589764306E+02 -0.49178969771E+01  0.10437039002E+02  0.25365625273E+02  0.51100000000E-03 0. -1.
        -11    1    3    3    0    0  0.24495302883E+01 -0.39469779161E+01 -0.55983783771E+01  0.72746597184E+01  0.51100000000E-03 0.  1.
        -12    1    3    3    0    0  0.30425422919E+02  0.21449606659E+02 -0.14140161912E+02  0.39821302898E+02  0.00000000000E+00 0.  1.
</event>
<event>
 7    1  0.1788006E-013  0.7246159E+02  0.7816164E-02  0.1226708E+00
        -11   -1    0    0    0    0  0.00000000000E+00  0.00000000000E+00  0.45593999997E+02  0.45594000000E+02  0.51100000000E-03 0. -1.
         11   -1    0    0    0    0 -0.00000000000E+00 -0.00000000000E+00 -0.45593999997E+02  0.45594000000E+02  0.51100000000E-03 0.  1.
    9900012    2    1    2    0    0  0.17458883921E+02  0.54185678128E+01 -0.40626382325E+01  0.72461587255E+02  0.70000022094E+02 0.  0.
        -12    1    1    2    0    0 -0.17458883921E+02 -0.54185678128E+01  0.40626382325E+01  0.18726412745E+02  0.00000000000E+00 0.  1.
         11    1    3    3    0    0 -0.16777814351E+01 -0.26654645672E+01  0.85614450344E+00  0.32638375534E+01  0.51100000000E-03 0. -1.
        -11    1    3    3    0    0 -0.12142742210E+02 -0.73024577077E+00 -0.27199389004E+02  0.29795741470E+02  0.51100000000E-03 0.  1.
         12    1    3    3    0    0  0.31279407566E+02  0.88142781508E+01  0.22280606268E+02  0.39402008231E+02  0.00000000000E+00 0. -1.
</event>
<event>
 7    1  0.1788006E-013  0.7246155E+02  0.7816164E-02  0.1226708E+00
        -11   -1    0    0    0    0  0.00000000000E+00  0.00000000000E+00  0.45593999997E+02  0.45594000000E+02  0.51100000000E-03 0.  1.
         11   -1    0    0    0    0 -0.00000000000E+00 -0.00000000000E+00 -0.45593999997E+02  0.45594000000E+02  0.51100000000E-03 0. -1.
    9900012    2    1    2    0    0 -0.13565990003E+02  0.86905182875E+01 -0.95456093884E+01  0.72461552086E+02  0.69999976281E+02 0.  0.
        -12    1    1    2    0    0  0.13565990003E+02 -0.86905182875E+01  0.95456093884E+01  0.18726447914E+02  0.00000000000E+00 0.  1.
         11    1    3    3    0    0  0.81785838738E+01 -0.13401287888E+02 -0.17758290033E+01  0.15799915194E+02  0.51100000000E-03 0. -1.
        -11    1    3    3    0    0 -0.11776643990E+02  0.86843062047E+01 -0.27291676652E+02  0.30966790803E+02  0.51100000000E-03 0.  1.
        -12    1    3    3    0    0 -0.99679298870E+01  0.13407499971E+02  0.19521896266E+02  0.25694846089E+02  0.00000000000E+00 0.  1.
</event>
<event>
 7    1  0.1788006E-013  0.7246158E+02  0.7816164E-02  0.1226708E+00
        -11   -1    0    0    0    0  0.00000000000E+00  0.00000000000E+00  0.45593999997E+02  0.45594000000E+02  0.51100000000E-03 0.  1.
         11   -1    0    0    0    0 -0.00000000000E+00 -0.00000000000E+00 -0.45593999997E+02  0.45594000000E+02  0.51100000000E-03 0. -1.
    9900012    2    1    2    0    0  0.11893839646E+02 -0.25483768218E+01 -0.14238016475E+02  0.72461581253E+02  0.70000014275E+02 0.  0.
        -12    1    1    2    0    0 -0.11893839646E+02  0.25483768218E+01  0.14238016475E+02  0.18726418747E+02  0.00000000000E+00 0.  1.
         11    1    3    3    0    0  0.39139429822E+01  0.17614832154E+02 -0.19157562193E+02  0.26317550245E+02  0.51100000000E-03 0. -1.
        -11    1    3    3    0    0 -0.92178285186E+01 -0.43905615430E+01 -0.13137282123E+02  0.16638316474E+02  0.51100000000E-03 0.  1.
         12    1    3    3    0    0  0.17197725182E+02 -0.15772647433E+02  0.18056827840E+02  0.29505714534E+02  0.00000000000E+00 0. -1.
</event>
<event>
 7    1  0.1788006E-013  0.7246178E+02  0.7816164E-02  0.1226707E+00
        -11   -1    0    0    0    0  0.00000000000E+00  0.00000000000E+00  0.45593999997E+02  0.45594000000E+02  0.51100000000E-03 0.  1.
         11   -1    0    0    0    0 -0.00000000000E+00 -0.00000000000E+00 -0.45593999997E+02  0.45594000000E+02  0.51100000000E-03 0. -1.
    9900012    2    1    2    0    0 -0.16710076347E+02 -0.45574678782E+01  0.71185721822E+01  0.72461782152E+02  0.70000275984E+02 0.  0.
        -12    1    1    2    0    0  0.16710076347E+02  0.45574678782E+01 -0.71185721822E+01  0.18726217848E+02  0.00000000000E+00 0.  1.
         11    1    3    3    0    0 -0.10076541653E+02 -0.26298590505E+02  0.11189683764E+02  0.30304481141E+02  0.51100000000E-03 0. -1.
        -11    1    3    3    0    0 -0.11710639767E+02 -0.63901409995E+01 -0.20854617364E+01  0.13502671464E+02  0.51100000000E-03 0.  1.
        -12    1    3    3    0    0  0.50771050736E+01  0.28131263627E+02 -0.19856498456E+01  0.28654629547E+02  0.00000000000E+00 0.  1.
</event>
<event>
 7    1  0.1788006E-013  0.7246156E+02  0.7816164E-02  0.1226708E+00
        -11   -1    0    0    0    0  0.00000000000E+00  0.00000000000E+00  0.45593999997E+02  0.45594000000E+02  0.51100000000E-03 0.  1.
         11   -1    0    0    0    0 -0.00000000000E+00 -0.00000000000E+00 -0.45593999997E+02  0.45594000000E+02  0.51100000000E-03 0. -1.
    9900012    2    1    2    0    0  0.70948648562E+01 -0.16784490387E+02 -0.43154758715E+01  0.72461559952E+02  0.69999986527E+02 0.  0.
        -12    1    1    2    0    0 -0.70948648562E+01  0.16784490387E+02  0.43154758715E+01  0.18726440048E+02  0.00000000000E+00 0.  1.
         11    1    3    3    0    0 -0.91274852027E+00 -0.33983935792E+01 -0.14920573243E+02  0.15329895464E+02  0.51100000000E-03 0. -1.
        -11    1    3    3    0    0  0.20002735377E+02  0.13318344059E+02 -0.40885644154E+01  0.24376301407E+02  0.51100000000E-03 0.  1.
        -12    1    3    3    0    0 -0.11995122001E+02 -0.26704440867E+02  0.14693661786E+02  0.32755363081E+02  0.00000000000E+00 0.  1.
</event>
<event>
 7    1  0.1788006E-013  0.7246154E+02  0.7816164E-02  0.1226708E+00
        -11   -1    0    0    0    0  0.00000000000E+00  0.00000000000E+00  0.45593999997E+02  0.45594000000E+02  0.51100000000E-03 0.  1.
         11   -1    0    0    0    0 -0.00000000000E+00 -0.00000000000E+00 -0.45593999997E+02  0.45594000000E+02  0.51100000000E-03 0. -1.
    9900012    2    1    2    0    0 -0.15949787190E+02 -0.73016817500E+01 -0.65551438639E+01  0.72461543345E+02  0.69999964893E+02 0.  0.
        -12    1    1    2    0    0  0.15949787190E+02  0.73016817500E+01  0.65551438639E+01  0.18726456655E+02  0.00000000000E+00 0.  1.
         11    1    3    3    0    0  0.83250919436E+01 -0.94767600135E+01 -0.18884089898E+02  0.22709579207E+02  0.51100000000E-03 0.  1.
        -11    1    3    3    0    0 -0.13203823030E+02  0.17976047180E+02 -0.60452385976E+01  0.23108962002E+02  0.51100000000E-03 0. -1.
        -12    1    3    3    0    0 -0.11071056104E+02 -0.15800968917E+02  0.18374184631E+02  0.26643002136E+02  0.00000000000E+00 0.  1.
</event>
<event>
 7    1  0.1788006E-013  0.7246159E+02  0.7816164E-02  0.1226708E+00
        -11   -1    0    0    0    0  0.00000000000E+00  0.00000000000E+00  0.45593999997E+02  0.45594000000E+02  0.51100000000E-03 0.  1.
         11   -1    0    0    0    0 -0.00000000000E+00 -0.00000000000E+00 -0.45593999997E+02  0.45594000000E+02  0.51100000000E-03 0. -1.
    9900012    2    1    2    0    0 -0.13177010870E+02  0.56290507949E+01 -0.12056471378E+02  0.72461592699E+02  0.70000029186E+02 0.  0.
        -12    1    1    2    0    0  0.13177010870E+02 -0.56290507949E+01  0.12056471378E+02  0.18726407301E+02  0.00000000000E+00 0.  1.
         11    1    3    3    0    0 -0.63355439897E+01  0.38414816999E+00 -0.49010494210E+01  0.80191628709E+01  0.51100000000E-03 0. -1.
        -11    1    3    3    0    0 -0.33539642087E+02 -0.70477047927E+01 -0.35572586276E+00  0.34273959143E+02  0.51100000000E-03 0.  1.
         12    1    3    3    0    0  0.26698175207E+02  0.12292607418E+02 -0.67996960945E+01  0.30168470685E+02  0.00000000000E+00 0. -1.
</event>
<event>
 7    1  0.1788006E-013  0.7246127E+02  0.7816164E-02  0.1226709E+00
        -11   -1    0    0    0    0  0.00000000000E+00  0.00000000000E+00  0.45593999997E+02  0.45594000000E+02  0.51100000000E-03 0. -1.
         11   -1    0    0    0    0 -0.00000000000E+00 -0.00000000000E+00 -0.45593999997E+02  0.45594000000E+02  0.51100000000E-03 0.  1.
    9900012    2    1    2    0    0 -0.13117222872E+02 -0.50222572353E+01  0.12385705476E+02  0.72461273011E+02  0.69999612732E+02 0.  0.
        -12    1    1    2    0    0  0.13117222872E+02  0.50222572353E+01 -0.12385705476E+02  0.18726726989E+02  0.00000000000E+00 0.  1.
         11    1    3    3    0    0  0.16201773244E+01 -0.52042213492E+01 -0.61270457083E+01  0.82005843564E+01  0.51100000000E-03 0. -1.
        -11    1    3    3    0    0 -0.24006449062E+02 -0.14861740905E+02 -0.10638557201E+02  0.30172169940E+02  0.51100000000E-03 0.  1.
         12    1    3    3    0    0  0.92690488654E+01  0.15043705019E+02  0.29151308385E+02  0.34088518714E+02  0.00000000000E+00 0. -1.
</event>
<event>
 7    1  0.1788006E-013  0.7246163E+02  0.7816164E-02  0.1226708E+00
        -11   -1    0    0    0    0  0.00000000000E+00  0.00000000000E+00  0.45593999997E+02  0.45594000000E+02  0.51100000000E-03 0.  1.
         11   -1    0    0    0    0 -0.00000000000E+00 -0.00000000000E+00 -0.45593999997E+02  0.45594000000E+02  0.51100000000E-03 0. -1.
    9900012    2    1    2    0    0  0.86219858916E+01 -0.12225921548E+02 -0.11263448074E+02  0.72461626594E+02  0.70000073341E+02 0.  0.
        -12    1    1    2    0    0 -0.86219858916E+01  0.12225921548E+02  0.11263448074E+02  0.18726373406E+02  0.00000000000E+00 0.  1.
         11    1    3    3    0    0  0.43895374954E+01  0.11233085379E+02 -0.17441218896E+02  0.21204866503E+02  0.51100000000E-03 0. -1.
        -11    1    3    3    0    0 -0.20013706244E+02 -0.60188447788E+01  0.83605775920E+00  0.20915877292E+02  0.51100000000E-03 0.  1.
        -12    1    3    3    0    0  0.24246154640E+02 -0.17440162148E+02  0.53417130632E+01  0.30340882799E+02  0.00000000000E+00 0.  1.
</event>
<event>
 7    1  0.1788006E-013  0.7246156E+02  0.7816164E-02  0.1226708E+00
        -11   -1    0    0    0    0  0.00000000000E+00  0.00000000000E+00  0.45593999997E+02  0.45594000000E+02  0.51100000000E-03 0.  1.
         11   -1    0    0    0    0 -0.00000000000E+00 -0.00000000000E+00 -0.45593999997E+02  0.45594000000E+02  0.51100000000E-03 0. -1.
    9900012    2    1    2    0    0  0.16571244128E+02  0.64380758799E+01 -0.58842695455E+01  0.72461559306E+02  0.69999985686E+02 0.  0.
        -12    1    1    2    0    0 -0.16571244128E+02 -0.64380758799E+01  0.58842695455E+01  0.18726440694E+02  0.00000000000E+00 0.  1.
         11    1    3    3    0    0  0.92919425819E+01  0.89158897897E+01 -0.28549174151E+01  0.13190293454E+02  0.51100000000E-03 0. -1.
        -11    1    3    3    0    0  0.66203709328E+01 -0.30412280315E+02 -0.35336707437E+01  0.31324478199E+02  0.51100000000E-03 0.  1.
         12    1    3    3    0    0  0.65893061323E+00  0.27934466405E+02  0.50431861325E+00  0.27946787654E+02  0.00000000000E+00 0. -1.
</event>
<event>
 7    1  0.1788006E-013  0.7246105E+02  0.7816164E-02  0.1226709E+00
        -11   -1    0    0    0    0  0.00000000000E+00  0.00000000000E+00  0.45593999997E+02  0.45594000000E+02  0.51100000000E-03 0. -1.
         11   -1    0    0    0    0 -0.00000000000E+00 -0.00000000000E+00 -0.45593999997E+02  0.45594000000E+02  0.51100000000E-03 0.  1.
    9900012    2    1    2    0    0 -0.74435413524E+01  0.15670029262E+02  0.70528409494E+01  0.72461049090E+02  0.69999321031E+02 0.  0.
        -12    1    1    2    0    0  0.74435413524E+01 -0.15670029262E+02 -0.70528409494E+01  0.18726950910E+02  0.00000000000E+00 0.  1.
         11    1    3    3    0    0  0.39791916370E+01 -0.95307989880E+01 -0.13771582163E+02  0.17214138694E+02  0.51100000000E-03 0. -1.
        -11    1    3    3    0    0 -0.15626317954E+02  0.12370420607E+02 -0.94807622438E+01  0.22070205522E+02  0.51100000000E-03 0.  1.
         12    1    3    3    0    0  0.42035849644E+01  0.12830407643E+02  0.30305185356E+02  0.33176704874E+02  0.00000000000E+00 0. -1.
</event>
<event>
 7    1  0.1788006E-013  0.7246161E+02  0.7816164E-02  0.1226708E+00
        -11   -1    0    0    0    0  0.00000000000E+00  0.00000000000E+00  0.45593999997E+02  0.45594000000E+02  0.51100000000E-03 0.  1.
         11   -1    0    0    0    0 -0.00000000000E+00 -0.00000000000E+00 -0.45593999997E+02  0.45594000000E+02  0.51100000000E-03 0. -1.
    9900012    2    1    2    0    0 -0.14301949405E+02 -0.11544120119E+02 -0.35868248464E+01  0.72461607432E+02  0.70000048379E+02 0.  0.
        -12    1    1    2    0    0  0.14301949405E+02  0.11544120119E+02  0.35868248464E+01  0.18726392568E+02  0.00000000000E+00 0.  1.
         11    1    3    3    0    0  0.16469562619E+00 -0.51596827025E+01 -0.23957745382E+02  0.24507611354E+02  0.51100000000E-03 0. -1.
        -11    1    3    3    0    0 -0.17286673886E+02 -0.11747033440E+02 -0.53130709406E+01  0.21565032153E+02  0.51100000000E-03 0.  1.
        -12    1    3    3    0    0  0.28200288545E+01  0.53625960236E+01  0.25683991476E+02  0.26388963925E+02  0.00000000000E+00 0.  1.
</event>
<event>
 7    1  0.1788006E-013  0.7246151E+02  0.7816164E-02  0.1226708E+00
        -11   -1    0    0    0    0  0.00000000000E+00  0.00000000000E+00  0.45593999997E+02  0.45594000000E+02  0.51100000000E-03 0.  1.
         11   -1    0    0    0    0 -0.00000000000E+00 -0.00000000000E+00 -0.45593999997E+02  0.45594000000E+02  0.51100000000E-03 0. -1.
    9900012    2    1    2    0    0  0.18176333373E+02 -0.75249812903E+00 -0.44425150916E+01  0.72461513713E+02  0.69999926292E+02 0.  0.
        -12    1    1    2    0    0 -0.18176333373E+02  0.75249812903E+00  0.44425150916E+01  0.18726486287E+02  0.00000000000E+00 0.  1.
         11    1    3    3    0    0  0.14285161986E+02 -0.37515087930E+00 -0.20568045200E+02  0.25044981029E+02  0.51100000000E-03 0. -1.
        -11    1    3    3    0    0  0.48316935308E+01 -0.17334533110E+02 -0.64937733559E+01  0.19131136745E+02  0.51100000000E-03 0.  1.
         12    1    3    3    0    0 -0.94052214404E+00  0.16957185860E+02  0.22619303464E+02  0.28285395938E+02  0.00000000000E+00 0. -1.
</event>
<event>
 7    1  0.1788006E-013  0.7246166E+02  0.7816164E-02  0.1226708E+00
        -11   -1    0    0    0    0  0.00000000000E+00  0.00000000000E+00  0.45593999997E+02  0.45594000000E+02  0.51100000000E-03 0. -1.
         11   -1    0    0    0    0 -0.00000000000E+00 -0.00000000000E+00 -0.45593999997E+02  0.45594000000E+02  0.51100000000E-03 0.  1.
    9900012    2    1    2    0    0 -0.14616073032E+02  0.54078811155E+01  0.10382720181E+02  0.72461664336E+02  0.70000122507E+02 0.  0.
        -12    1    1    2    0    0  0.14616073032E+02 -0.54078811155E+01 -0.10382720181E+02  0.18726335664E+02  0.00000000000E+00 0.  1.
         11    1    3    3    0    0 -0.10216574286E+02 -0.49587653638E+01  0.10385228651E+02  0.15388980423E+02  0.51100000000E-03 0. -1.
        -11    1    3    3    0    0 -0.21813615526E+02 -0.69858124909E+01 -0.15822515678E+02  0.27838595531E+02  0.51100000000E-03 0.  1.
        -12    1    3    3    0    0  0.17414116779E+02  0.17352458970E+02  0.15820007208E+02  0.29234088383E+02  0.00000000000E+00 0.  1.
</event>
<event>
 7    1  0.1788006E-013  0.7246161E+02  0.7816164E-02  0.1226708E+00
        -11   -1    0    0    0    0  0.00000000000E+00  0.00000000000E+00  0.45593999997E+02  0.45594000000E+02  0.51100000000E-03 0.  1.
         11   -1    0    0    0    0 -0.00000000000E+00 -0.00000000000E+00 -0.45593999997E+02  0.45594000000E+02  0.51100000000E-03 0. -1.
    9900012    2    1    2    0    0  0.73850024800E+01  0.16191616855E+02 -0.58284632196E+01  0.72461609491E+02  0.70000051061E+02 0.  0.
        -12    1    1    2    0    0 -0.73850024800E+01 -0.16191616855E+02  0.58284632196E+01  0.18726390509E+02  0.00000000000E+00 0.  1.
         11    1    3    3    0    0  0.17441588316E+02 -0.10928183703E+02  0.12844453553E+02  0.24261372372E+02  0.51100000000E-03 0. -1.
        -11    1    3    3    0    0 -0.95832734717E+00 -0.57065872580E+01  0.42169669501E+01  0.71600516728E+01  0.51100000000E-03 0.  1.
        -12    1    3    3    0    0 -0.90982584890E+01  0.32826387816E+02 -0.22889883723E+02  0.41040185446E+02  0.00000000000E+00 0.  1.
</event>
<event>
 7    1  0.1788006E-013  0.7246160E+02  0.7816164E-02  0.1226708E+00
        -11   -1    0    0    0    0  0.00000000000E+00  0.00000000000E+00  0.45593999997E+02  0.45594000000E+02  0.51100000000E-03 0. -1.
         11   -1    0    0    0    0 -0.00000000000E+00 -0.00000000000E+00 -0.45593999997E+02  0.45594000000E+02  0.51100000000E-03 0.  1.
    9900012    2    1    2    0    0 -0.18270540054E+02 -0.40202414844E+01 -0.83852020390E+00  0.72461599076E+02  0.70000037493E+02 0.  0.
        -12    1    1    2    0    0  0.18270540054E+02  0.40202414844E+01  0.83852020390E+00  0.18726400924E+02  0.00000000000E+00 0.  1.
         11    1    3    3    0    0 -0.45493388594E+01 -0.17804332436E+00  0.16838941871E+02  0.17443570365E+02  0.51100000000E-03 0. -1.
        -11    1    3    3    0    0  0.14282674786E+02  0.12684303328E+02 -0.10191277939E+02  0.21650600367E+02  0.51100000000E-03 0.  1.
         12    1    3    3    0    0 -0.28003875980E+02 -0.16526501488E+02 -0.74861841356E+01  0.33367428344E+02  0.00000000000E+00 0. -1.
</event>
<event>
 7    1  0.1788006E-013  0.7246142E+02  0.7816164E-02  0.1226708E+00
        -11   -1    0    0    0    0  0.00000000000E+00  0.00000000000E+00  0.45593999997E+02  0.45594000000E+02  0.51100000000E-03 0. -1.
         11   -1    0    0    0    0 -0.00000000000E+00 -0.00000000000E+00 -0.45593999997E+02  0.45594000000E+02  0.51100000000E-03 0.  1.
    9900012    2    1    2    0    0 -0.99216777061E+01  0.30277365990E+01  0.15590952340E+02  0.72461423370E+02  0.69999808603E+02 0.  0.
        -12    1    1    2    0    0  0.99216777061E+01 -0.30277365990E+01 -0.15590952340E+02  0.18726576630E+02  0.00000000000E+00 0.  1.
         11    1    3    3    0    0 -0.12278587420E+02 -0.19047145504E+02  0.11586658435E+02  0.25452074863E+02  0.51100000000E-03 0. -1.
        -11    1    3    3    0    0  0.15209682489E+02 -0.55974662993E+01  0.29933648314E+01  0.16481089275E+02  0.51100000000E-03 0.  1.
        -12    1    3    3    0    0 -0.12852772776E+02  0.27672348403E+02  0.10109290742E+01  0.30528259232E+02  0.00000000000E+00 0.  1.
</event>
<event>
 7    1  0.1788006E-013  0.7246149E+02  0.7816164E-02  0.1226708E+00
        -11   -1    0    0    0    0  0.00000000000E+00  0.00000000000E+00  0.45593999997E+02  0.45594000000E+02  0.51100000000E-03 0.  1.
         11   -1    0    0    0    0 -0.00000000000E+00 -0.00000000000E+00 -0.45593999997E+02  0.45594000000E+02  0.51100000000E-03 0. -1.
    9900012    2    1    2    0    0 -0.21454764983E+01 -0.18430038924E+02 -0.25323400980E+01  0.72461490702E+02  0.69999896316E+02 0.  0.
        -12    1    1    2    0    0  0.21454764983E+01  0.18430038924E+02  0.25323400980E+01  0.18726509298E+02  0.00000000000E+00 0.  1.
         11    1    3    3    0    0 -0.33641011445E+01 -0.61597634519E+01 -0.71251712539E+01  0.10001396300E+02  0.51100000000E-03 0. -1.
        -11    1    3    3    0    0 -0.10567434775E+02 -0.19226042997E+02  0.27863255314E+02  0.35463677249E+02  0.51100000000E-03 0.  1.
         12    1    3    3    0    0  0.11786059422E+02  0.69557675254E+01 -0.23270424158E+02  0.26996417152E+02  0.00000000000E+00 0. -1.
</event>
<event>
 7    1  0.1788006E-013  0.7246157E+02  0.7816164E-02  0.1226708E+00
        -11   -1    0    0    0    0  0.00000000000E+00  0.00000000000E+00  0.45593999997E+02  0.45594000000E+02  0.51100000000E-03 0.  1.
         11   -1    0    0    0    0 -0.00000000000E+00 -0.00000000000E+00 -0.45593999997E+02  0.45594000000E+02  0.51100000000E-03 0. -1.
    9900012    2    1    2    0    0  0.67223082235E+01  0.15780767592E+02 -0.75137959636E+01  0.72461569923E+02  0.69999999517E+02 0.  0.
        -12    1    1    2    0    0 -0.67223082235E+01 -0.15780767592E+02  0.75137959636E+01  0.18726430077E+02  0.00000000000E+00 0.  1.
         11    1    3    3    0    0  0.11531310590E+02  0.38154498650E+02 -0.10652267220E+02  0.41257819723E+02  0.51100000000E-03 0.  1.
        -11    1    3    3    0    0  0.46435687495E+01 -0.65304414507E+01 -0.65646912808E+01  0.10358791828E+02  0.51100000000E-03 0. -1.
        -12    1    3    3    0    0 -0.94525711161E+01 -0.15843289607E+02  0.97031625374E+01  0.20844958372E+02  0.00000000000E+00 0.  1.
</event>
<event>
 7    1  0.1788006E-013  0.7246153E+02  0.7816164E-02  0.1226708E+00
        -11   -1    0    0    0    0  0.00000000000E+00  0.00000000000E+00  0.45593999997E+02  0.45594000000E+02  0.51100000000E-03 0.  1.
         11   -1    0    0    0    0 -0.00000000000E+00 -0.00000000000E+00 -0.45593999997E+02  0.45594000000E+02  0.51100000000E-03 0. -1.
    9900012    2    1    2    0    0  0.13910296713E+02  0.96873576902E+01 -0.79586177572E+01  0.72461525418E+02  0.69999941541E+02 0.  0.
        -12    1    1    2    0    0 -0.13910296713E+02 -0.96873576902E+01  0.79586177572E+01  0.18726474582E+02  0.00000000000E+00 0.  1.
         11    1    3    3    0    0 -0.80441293426E+01  0.23429333951E+02 -0.69907492291E+01  0.25739313924E+02  0.51100000000E-03 0. -1.
        -11    1    3    3    0    0  0.20384219225E+02 -0.32697197701E+01 -0.17517128975E+02  0.27075030352E+02  0.51100000000E-03 0.  1.
        -12    1    3    3    0    0  0.15702068305E+01 -0.10472256490E+02  0.16549260447E+02  0.19647181142E+02  0.00000000000E+00 0.  1.
</event>
<event>
 7    1  0.1788006E-013  0.7246149E+02  0.7816164E-02  0.1226708E+00
        -11   -1    0    0    0    0  0.00000000000E+00  0.00000000000E+00  0.45593999997E+02  0.45594000000E+02  0.51100000000E-03 0.  1.
         11   -1    0    0    0    0 -0.00000000000E+00 -0.00000000000E+00 -0.45593999997E+02  0.45594000000E+02  0.51100000000E-03 0. -1.
    9900012    2    1    2    0    0  0.10819937407E+01  0.41061546775E+00 -0.18690720047E+02  0.72461485872E+02  0.69999890024E+02 0.  0.
        -12    1    1    2    0    0 -0.10819937407E+01 -0.41061546775E+00  0.18690720047E+02  0.18726514128E+02  0.00000000000E+00 0.  1.
         11    1    3    3    0    0  0.11943483767E+02  0.12389974294E+02  0.10299510887E+02  0.20055876751E+02  0.51100000000E-03 0. -1.
        -11    1    3    3    0    0  0.13942381281E+02 -0.12193817114E+02 -0.15605156568E+02  0.24219828310E+02  0.51100000000E-03 0.  1.
         12    1    3    3    0    0 -0.24803871307E+02  0.21445828737E+00 -0.13385074366E+02  0.28185780811E+02  0.00000000000E+00 0. -1.
</event>
<event>
 7    1  0.1788006E-013  0.7246161E+02  0.7816164E-02  0.1226708E+00
        -11   -1    0    0    0    0  0.00000000000E+00  0.00000000000E+00  0.45593999997E+02  0.45594000000E+02  0.51100000000E-03 0. -1.
         11   -1    0    0    0    0 -0.00000000000E+00 -0.00000000000E+00 -0.45593999997E+02  0.45594000000E+02  0.51100000000E-03 0.  1.
    9900012    2    1    2    0    0 -0.17367984861E+02  0.65144413872E+01  0.25676658046E+01  0.72461608132E+02  0.70000049290E+02 0.  0.
        -12    1    1    2    0    0  0.17367984861E+02 -0.65144413872E+01 -0.25676658046E+01  0.18726391868E+02  0.00000000000E+00 0.  1.
         11    1    3    3    0    0  0.78148477587E+01  0.11225372479E+02  0.50924107997E+01  0.14594981356E+02  0.51100000000E-03 0. -1.
        -11    1    3    3    0    0  0.90119904149E+01  0.14213650502E+02 -0.75812542309E+01  0.18458581956E+02  0.51100000000E-03 0.  1.
         12    1    3    3    0    0 -0.34194823035E+02 -0.18924581594E+02  0.50565092359E+01  0.39408044820E+02  0.00000000000E+00 0. -1.
</event>
<event>
 7    1  0.1788006E-013  0.7246137E+02  0.7816164E-02  0.1226709E+00
        -11   -1    0    0    0    0  0.00000000000E+00  0.00000000000E+00  0.45593999997E+02  0.45594000000E+02  0.51100000000E-03 0. -1.
         11   -1    0    0    0    0 -0.00000000000E+00 -0.00000000000E+00 -0.45593999997E+02  0.45594000000E+02  0.51100000000E-03 0.  1.
    9900012    2    1    2    0    0  0.13049522932E+02  0.13076720875E+02 -0.30652640566E+01  0.72461374000E+02  0.69999744290E+02 0.  0.
        -12    1    1    2    0    0 -0.13049522932E+02 -0.13076720875E+02  0.30652640566E+01  0.18726626000E+02  0.00000000000E+00 0.  1.
         11    1    3    3    0    0  0.15797841412E+02  0.41804058972E+01 -0.12703729935E+02  0.20698607230E+02  0.51100000000E-03 0. -1.
        -11    1    3    3    0    0  0.30959970014E+01  0.29380464889E+02  0.61727744976E+01  0.30181120916E+02  0.51100000000E-03 0.  1.
        -12    1    3    3    0    0 -0.58443154806E+01 -0.20484149911E+02  0.34656913810E+01  0.21581645854E+02  0.00000000000E+00 0.  1.
</event>
<event>
 7    1  0.1788006E-013  0.7246154E+02  0.7816164E-02  0.1226708E+00
        -11   -1    0    0    0    0  0.00000000000E+00  0.00000000000E+00  0.45593999997E+02  0.45594000000E+02  0.51100000000E-03 0.  1.
         11   -1    0    0    0    0 -0.00000000000E+00 -0.00000000000E+00 -0.45593999997E+02  0.45594000000E+02  0.51100000000E-03 0. -1.
    9900012    2    1    2    0    0  0.17288736759E+02 -0.13872761020E+01 -0.70608427818E+01  0.72461535985E+02  0.69999955306E+02 0.  0.
        -12    1    1    2    0    0 -0.17288736759E+02  0.13872761020E+01  0.70608427818E+01  0.18726464015E+02  0.00000000000E+00 0.  1.
         11    1    3    3    0    0 -0.12975039544E+00  0.42458307291E+01 -0.15451539773E+01  0.45201122575E+01  0.51100000000E-03 0. -1.
        -11    1    3    3    0    0  0.15761238633E+01  0.29306971852E+02 -0.27534937106E+01  0.29478203701E+02  0.51100000000E-03 0.  1.
         12    1    3    3    0    0  0.15842363291E+02 -0.34940078684E+02 -0.27621950939E+01  0.38463220026E+02  0.00000000000E+00 0. -1.
</event>
<event>
 7    1  0.1788006E-013  0.7246163E+02  0.7816164E-02  0.1226708E+00
        -11   -1    0    0    0    0  0.00000000000E+00  0.00000000000E+00  0.45593999997E+02  0.45594000000E+02  0.51100000000E-03 0. -1.
         11   -1    0    0    0    0 -0.00000000000E+00 -0.00000000000E+00 -0.45593999997E+02  0.45594000000E+02  0.51100000000E-03 0.  1.
    9900012    2    1    2    0    0 -0.83554469757E+01  0.91555082412E+01  0.14037104199E+02  0.72461625027E+02  0.70000071300E+02 0.  0.
        -12    1    1    2    0    0  0.83554469757E+01 -0.91555082412E+01 -0.14037104199E+02  0.18726374973E+02  0.00000000000E+00 0.  1.
         11    1    3    3    0    0  0.34000959628E+01  0.14555102027E+02  0.10012777336E+02  0.17990757567E+02  0.51100000000E-03 0. -1.
        -11    1    3    3    0    0 -0.11698718819E+02 -0.23500115181E+02  0.17806521557E+02  0.31720460995E+02  0.51100000000E-03 0.  1.
         12    1    3    3    0    0 -0.56824119453E-01  0.18100521395E+02 -0.13782194694E+02  0.22750406465E+02  0.00000000000E+00 0. -1.
</event>
<event>
 7    1  0.1788006E-013  0.7246146E+02  0.7816164E-02  0.1226708E+00
        -11   -1    0    0    0    0  0.00000000000E+00  0.00000000000E+00  0.45593999997E+02  0.45594000000E+02  0.51100000000E-03 0.  1.
         11   -1    0    0    0    0 -0.00000000000E+00 -0.00000000000E+00 -0.45593999997E+02  0.45594000000E+02  0.51100000000E-03 0. -1.
    9900012    2    1    2    0    0  0.29713271146E+01  0.14062484229E+02 -0.12004205739E+02  0.72461462601E+02  0.69999859710E+02 0.  0.
        -12    1    1    2    0    0 -0.29713271146E+01 -0.14062484229E+02  0.12004205739E+02  0.18726537399E+02  0.00000000000E+00 0.  1.
         11    1    3    3    0    0  0.64617785489E+01  0.19569056872E+02  0.57472181675E+01  0.21394697610E+02  0.51100000000E-03 0. -1.
        -11    1    3    3    0    0  0.40418037389E+01  0.42981594204E+01 -0.31805551960E+02  0.32348160498E+02  0.51100000000E-03 0.  1.
        -12    1    3    3    0    0 -0.75322551732E+01 -0.98047320640E+01  0.14054128053E+02  0.18718604493E+02  0.00000000000E+00 0.  1.
</event>
<event>
 7    1  0.1788006E-013  0.7246150E+02  0.7816164E-02  0.1226708E+00
        -11   -1    0    0    0    0  0.00000000000E+00  0.00000000000E+00  0.45593999997E+02  0.45594000000E+02  0.51100000000E-03 0. -1.
         11   -1    0    0    0    0 -0.00000000000E+00 -0.00000000000E+00 -0.45593999997E+02  0.45594000000E+02  0.51100000000E-03 0.  1.
    9900012    2    1    2    0    0 -0.13071099585E+02  0.25292470740E+01  0.13169320587E+02  0.72461501666E+02  0.69999910599E+02 0.  0.
        -12    1    1    2    0    0  0.13071099585E+02 -0.25292470740E+01 -0.13169320587E+02  0.18726498334E+02  0.00000000000E+00 0.  1.
         11    1    3    3    0    0 -0.18607698600E+02  0.77381411098E+01  0.63774929243E+01  0.21137589534E+02  0.51100000000E-03 0. -1.
        -11    1    3    3    0    0 -0.58962247952E+01  0.12279075352E+02 -0.15592117185E+02  0.20703991811E+02  0.51100000000E-03 0.  1.
         12    1    3    3    0    0  0.11432823810E+02 -0.17487969387E+02  0.22383944848E+02  0.30619920322E+02  0.00000000000E+00 0. -1.
</event>
<event>
 7    1  0.1788006E-013  0.7246183E+02  0.7816164E-02  0.1226707E+00
        -11   -1    0    0    0    0  0.00000000000E+00  0.00000000000E+00  0.45593999997E+02  0.45594000000E+02  0.51100000000E-03 0. -1.
         11   -1    0    0    0    0 -0.00000000000E+00 -0.00000000000E+00 -0.45593999997E+02  0.45594000000E+02  0.51100000000E-03 0.  1.
    9900012    2    1    2    0    0  0.95261651068E+01 -0.16122073606E+02 -0.15704912837E-01  0.72461833130E+02  0.70000342392E+02 0.  0.
        -12    1    1    2    0    0 -0.95261651068E+01  0.16122073606E+02  0.15704912837E-01  0.18726166870E+02  0.00000000000E+00 0.  1.
         11    1    3    3    0    0  0.15490698911E+01 -0.46589956724E+01  0.10378544442E+02  0.11481291007E+02  0.51100000000E-03 0. -1.
        -11    1    3    3    0    0 -0.24988590497E+02 -0.99831873535E+01 -0.70199053979E+01  0.27809580307E+02  0.51100000000E-03 0.  1.
         12    1    3    3    0    0  0.32965685713E+02 -0.14798905797E+01 -0.33743439567E+01  0.33170961816E+02  0.00000000000E+00 0. -1.
</event>
<event>
 7    1  0.1788006E-013  0.7246155E+02  0.7816164E-02  0.1226708E+00
        -11   -1    0    0    0    0  0.00000000000E+00  0.00000000000E+00  0.45593999997E+02  0.45594000000E+02  0.51100000000E-03 0.  1.
         11   -1    0    0    0    0 -0.00000000000E+00 -0.00000000000E+00 -0.45593999997E+02  0.45594000000E+02  0.51100000000E-03 0. -1.
    9900012    2    1    2    0    0 -0.81741733070E+01  0.10312225410E+02  0.13323693515E+02  0.72461550495E+02  0.69999974208E+02 0.  0.
        -12    1    1    2    0    0  0.81741733070E+01 -0.10312225410E+02 -0.13323693515E+02  0.18726449505E+02  0.00000000000E+00 0.  1.
         11    1    3    3    0    0  0.75595436999E+01  0.12429299995E+02 -0.80900302150E+01  0.16645803930E+02  0.51100000000E-03 0. -1.
        -11    1    3    3    0    0 -0.55258250936E+01  0.23205463474E+02  0.65870211841E+01  0.24747062985E+02  0.51100000000E-03 0.  1.
         12    1    3    3    0    0 -0.10207891913E+02 -0.25322538059E+02  0.14826702546E+02  0.31068683581E+02  0.00000000000E+00 0. -1.
</event>
<event>
 7    1  0.1788006E-013  0.7246161E+02  0.7816164E-02  0.1226708E+00
        -11   -1    0    0    0    0  0.00000000000E+00  0.00000000000E+00  0.45593999997E+02  0.45594000000E+02  0.51100000000E-03 0.  1.
         11   -1    0    0    0    0 -0.00000000000E+00 -0.00000000000E+00 -0.45593999997E+02  0.45594000000E+02  0.51100000000E-03 0. -1.
    9900012    2    1    2    0    0 -0.73066174891E+01 -0.51071408647E+01 -0.16468395850E+02  0.72461611965E+02  0.70000054284E+02 0.  0.
        -12    1    1    2    0    0  0.73066174891E+01  0.51071408647E+01  0.16468395850E+02  0.18726388035E+02  0.00000000000E+00 0.  1.
         11    1    3    3    0    0 -0.12011925803E+02  0.14910853928E+02  0.11077598063E+02  0.22120874881E+02  0.51100000000E-03 0. -1.
        -11    1    3    3    0    0  0.15024427207E+02 -0.18398685275E+02 -0.33532519458E+01  0.23989358716E+02  0.51100000000E-03 0.  1.
         12    1    3    3    0    0 -0.10319118893E+02 -0.16193095185E+01 -0.24192741968E+02  0.26351378369E+02  0.00000000000E+00 0. -1.
</event>
<event>
 7    1  0.1788006E-013  0.7246159E+02  0.7816164E-02  0.1226708E+00
        -11   -1    0    0    0    0  0.00000000000E+00  0.00000000000E+00  0.45593999997E+02  0.45594000000E+02  0.51100000000E-03 0. -1.
         11   -1    0    0    0    0 -0.00000000000E+00 -0.00000000000E+00 -0.45593999997E+02  0.45594000000E+02  0.51100000000E-03 0.  1.
    9900012    2    1    2    0    0  0.88920893241E+01 -0.13779293081E+02  0.90410299964E+01  0.72461591008E+02  0.70000026983E+02 0.  0.
        -12    1    1    2    0    0 -0.88920893241E+01  0.13779293081E+02 -0.90410299964E+01  0.18726408992E+02  0.00000000000E+00 0.  1.
         11    1    3    3    0    0  0.10397924168E+02 -0.37473549489E+01  0.75779477392E+01  0.13400924905E+02  0.51100000000E-03 0. -1.
        -11    1    3    3    0    0 -0.18574375918E+01 -0.28861930549E+02 -0.16277401761E+02  0.33187571736E+02  0.51100000000E-03 0.  1.
         12    1    3    3    0    0  0.35160274830E+00  0.18829992417E+02  0.17740484018E+02  0.25873094367E+02  0.00000000000E+00 0. -1.
</event>
<event>
 7    1  0.1788006E-013  0.7246160E+02  0.7816164E-02  0.1226708E+00
        -11   -1    0    0    0    0  0.00000000000E+00  0.00000000000E+00  0.45593999997E+02  0.45594000000E+02  0.51100000000E-03 0.  1.
         11   -1    0    0    0    0 -0.00000000000E+00 -0.00000000000E+00 -0.45593999997E+02  0.45594000000E+02  0.51100000000E-03 0. -1.
    9900012    2    1    2    0    0 -0.13722892459E+02  0.12734489890E+02 -0.43937271864E+00  0.72461599957E+02  0.70000038641E+02 0.  0.
        -12    1    1    2    0    0  0.13722892459E+02 -0.12734489890E+02  0.43937271864E+00  0.18726400043E+02  0.00000000000E+00 0.  1.
         11    1    3    3    0    0 -0.72347572347E+01  0.55168851351E+01 -0.12548118733E+02  0.15499452179E+02  0.51100000000E-03 0. -1.
        -11    1    3    3    0    0 -0.16058869627E+02 -0.20629743826E+02  0.42618767857E+01  0.26488435553E+02  0.51100000000E-03 0.  1.
         12    1    3    3    0    0  0.95707344034E+01  0.27847348582E+02  0.78468692290E+01  0.30473712225E+02  0.00000000000E+00 0. -1.
</event>
<event>
 7    1  0.1788006E-013  0.7246157E+02  0.7816164E-02  0.1226708E+00
        -11   -1    0    0    0    0  0.00000000000E+00  0.00000000000E+00  0.45593999997E+02  0.45594000000E+02  0.51100000000E-03 0.  1.
         11   -1    0    0    0    0 -0.00000000000E+00 -0.00000000000E+00 -0.45593999997E+02  0.45594000000E+02  0.51100000000E-03 0. -1.
    9900012    2    1    2    0    0  0.44184762965E+00  0.18020438452E+02 -0.50742397678E+01  0.72461565728E+02  0.69999994052E+02 0.  0.
        -12    1    1    2    0    0 -0.44184762965E+00 -0.18020438452E+02  0.50742397678E+01  0.18726434272E+02  0.00000000000E+00 0.  1.
         11    1    3    3    0    0  0.22984751407E+01  0.15370171941E+02  0.30356952873E+02  0.34103808606E+02  0.51100000000E-03 0. -1.
        -11    1    3    3    0    0  0.14991475019E+01 -0.15865775718E+01  0.31486307964E+00  0.22054048707E+01  0.51100000000E-03 0.  1.
         12    1    3    3    0    0 -0.33557750130E+01  0.42368440822E+01 -0.35746055720E+02  0.36152352251E+02  0.00000000000E+00 0. -1.
</event>
<event>
 7    1  0.1788006E-013  0.7246153E+02  0.7816164E-02  0.1226708E+00
        -11   -1    0    0    0    0  0.00000000000E+00  0.00000000000E+00  0.45593999997E+02  0.45594000000E+02  0.51100000000E-03 0.  1.
         11   -1    0    0    0    0 -0.00000000000E+00 -0.00000000000E+00 -0.45593999997E+02  0.45594000000E+02  0.51100000000E-03 0. -1.
    9900012    2    1    2    0    0  0.39786593631E+01 -0.18297061162E+02  0.26201033216E+00  0.72461526041E+02  0.69999942352E+02 0.  0.
        -12    1    1    2    0    0 -0.39786593631E+01  0.18297061162E+02 -0.26201033216E+00  0.18726473959E+02  0.00000000000E+00 0.  1.
         11    1    3    3    0    0  0.95207315103E+01  0.41629895141E+01 -0.13784363239E+00  0.10392007088E+02  0.51100000000E-03 0. -1.
        -11    1    3    3    0    0 -0.25294325428E+02  0.66431493930E+01  0.49079409166E+01  0.26608686872E+02  0.51100000000E-03 0.  1.
         12    1    3    3    0    0  0.19752253281E+02 -0.29103200070E+02 -0.45080869520E+01  0.35460832082E+02  0.00000000000E+00 0. -1.
</event>
<event>
 7    1  0.1788006E-013  0.7246156E+02  0.7816164E-02  0.1226708E+00
        -11   -1    0    0    0    0  0.00000000000E+00  0.00000000000E+00  0.45593999997E+02  0.45594000000E+02  0.51100000000E-03 0. -1.
         11   -1    0    0    0    0 -0.00000000000E+00 -0.00000000000E+00 -0.45593999997E+02  0.45594000000E+02  0.51100000000E-03 0.  1.
    9900012    2    1    2    0    0  0.13540126526E+02 -0.11793664587E+02  0.53154572291E+01  0.72461557832E+02  0.69999983765E+02 0.  0.
        -12    1    1    2    0    0 -0.13540126526E+02  0.11793664587E+02 -0.53154572291E+01  0.18726442168E+02  0.00000000000E+00 0.  1.
         11    1    3    3    0    0  0.21973569303E+02 -0.12799258201E+01 -0.21665499791E+02  0.30884783299E+02  0.51100000000E-03 0.  1.
        -11    1    3    3    0    0 -0.27674223068E+01  0.81148709868E+01  0.18398161542E+02  0.20297835002E+02  0.51100000000E-03 0. -1.
        -12    1    3    3    0    0 -0.56660204702E+01 -0.18628609754E+02  0.85827954774E+01  0.21278939531E+02  0.00000000000E+00 0.  1.
</event>
<event>
 7    1  0.1788006E-013  0.7246157E+02  0.7816164E-02  0.1226708E+00
        -11   -1    0    0    0    0  0.00000000000E+00  0.00000000000E+00  0.45593999997E+02  0.45594000000E+02  0.51100000000E-03 0. -1.
         11   -1    0    0    0    0 -0.00000000000E+00 -0.00000000000E+00 -0.45593999997E+02  0.45594000000E+02  0.51100000000E-03 0.  1.
    9900012    2    1    2    0    0 -0.12161606728E+02  0.12231135778E+02 -0.72920450305E+01  0.72461567308E+02  0.69999996110E+02 0.  0.
        -12    1    1    2    0    0  0.12161606728E+02 -0.12231135778E+02  0.72920450305E+01  0.18726432692E+02  0.00000000000E+00 0.  1.
         11    1    3    3    0    0  0.38892923376E+01 -0.22884682934E+01  0.14841423142E+02  0.15512302316E+02  0.51100000000E-03 0. -1.
        -11    1    3    3    0    0  0.11615378864E+02  0.14885721286E+02 -0.22378255846E+02  0.29279481883E+02  0.51100000000E-03 0.  1.
         12    1    3    3    0    0 -0.27666277930E+02 -0.36611721417E+00  0.24478767432E+00  0.27669783109E+02  0.00000000000E+00 0. -1.
</event>
<event>
 7    1  0.1788006E-013  0.7246156E+02  0.7816164E-02  0.1226708E+00
        -11   -1    0    0    0    0  0.00000000000E+00  0.00000000000E+00  0.45593999997E+02  0.45594000000E+02  0.51100000000E-03 0. -1.
         11   -1    0    0    0    0 -0.00000000000E+00 -0.00000000000E+00 -0.45593999997E+02  0.45594000000E+02  0.51100000000E-03 0.  1.
    9900012    2    1    2    0    0  0.71097234955E+01 -0.16816098255E+02  0.41653745094E+01  0.72461556838E+02  0.69999982470E+02 0.  0.
        -12    1    1    2    0    0 -0.71097234955E+01  0.16816098255E+02 -0.41653745094E+01  0.18726443162E+02  0.00000000000E+00 0.  1.
         11    1    3    3    0    0 -0.34553580199E+01  0.17277019454E+02 -0.23638351514E+01  0.17777024980E+02  0.51100000000E-03 0. -1.
        -11    1    3    3    0    0 -0.15154341731E+02 -0.14636591345E+02  0.76524129956E+01  0.22415247142E+02  0.51100000000E-03 0.  1.
        -12    1    3    3    0    0  0.25719423247E+02 -0.19456526364E+02 -0.11232033348E+01  0.32269284715E+02  0.00000000000E+00 0.  1.
</event>
<event>
 7    1  0.1788006E-013  0.7246138E+02  0.7816164E-02  0.1226709E+00
        -11   -1    0    0    0    0  0.00000000000E+00  0.00000000000E+00  0.45593999997E+02  0.45594000000E+02  0.51100000000E-03 0. -1.
         11   -1    0    0    0    0 -0.00000000000E+00 -0.00000000000E+00 -0.45593999997E+02  0.45594000000E+02  0.51100000000E-03 0.  1.
    9900012    2    1    2    0    0  0.79654270570E+01  0.82426320803E+00  0.16928050016E+02  0.72461379499E+02  0.69999751453E+02 0.  0.
        -12    1    1    2    0    0 -0.79654270570E+01 -0.82426320803E+00 -0.16928050016E+02  0.18726620501E+02  0.00000000000E+00 0.  1.
         11    1    3    3    0    0  0.24807829321E+02  0.16578718707E+02  0.22832742219E+02  0.37571484228E+02  0.51100000000E-03 0. -1.
        -11    1    3    3    0    0 -0.85205884912E+00 -0.15546110471E+02  0.40055032369E+01  0.16076430310E+02  0.51100000000E-03 0.  1.
        -12    1    3    3    0    0 -0.15990343415E+02 -0.20834502778E+00 -0.99101954395E+01  0.18813464961E+02  0.00000000000E+00 0.  1.
</event>
<event>
 7    1  0.1788006E-013  0.7246159E+02  0.7816164E-02  0.1226708E+00
        -11   -1    0    0    0    0  0.00000000000E+00  0.00000000000E+00  0.45593999997E+02  0.45594000000E+02  0.51100000000E-03 0. -1.
         11   -1    0    0    0    0 -0.00000000000E+00 -0.00000000000E+00 -0.45593999997E+02  0.45594000000E+02  0.51100000000E-03 0.  1.
    9900012    2    1    2    0    0 -0.33627931841E+01  0.83654945316E+00  0.18402993532E+02  0.72461591804E+02  0.70000028021E+02 0.  0.
        -12    1    1    2    0    0  0.33627931841E+01 -0.83654945316E+00 -0.18402993532E+02  0.18726408196E+02  0.00000000000E+00 0.  1.
         11    1    3    3    0    0  0.52864053175E+01  0.98028411978E+01  0.16774923924E+02  0.20135536984E+02  0.51100000000E-03 0. -1.
        -11    1    3    3    0    0 -0.78035482330E+01  0.20933919771E+02  0.17989176060E+01  0.22413399269E+02  0.51100000000E-03 0.  1.
         12    1    3    3    0    0 -0.84565026863E+00 -0.29900211515E+02 -0.17084799827E+00  0.29912655551E+02  0.00000000000E+00 0. -1.
</event>
<event>
 7    1  0.1788006E-013  0.7246151E+02  0.7816164E-02  0.1226708E+00
        -11   -1    0    0    0    0  0.00000000000E+00  0.00000000000E+00  0.45593999997E+02  0.45594000000E+02  0.51100000000E-03 0. -1.
         11   -1    0    0    0    0 -0.00000000000E+00 -0.00000000000E+00 -0.45593999997E+02  0.45594000000E+02  0.51100000000E-03 0.  1.
    9900012    2    1    2    0    0 -0.14060528302E+02  0.10065613385E+02  0.71879401421E+01  0.72461507738E+02  0.69999918509E+02 0.  0.
        -12    1    1    2    0    0  0.14060528302E+02 -0.10065613385E+02 -0.71879401421E+01  0.18726492262E+02  0.00000000000E+00 0.  1.
         11    1    3    3    0    0  0.10425491935E+01  0.11203581961E+02  0.95249883108E+01  0.14742203369E+02  0.51100000000E-03 0. -1.
        -11    1    3    3    0    0 -0.20827707330E+02  0.23008850752E+02 -0.84422542728E+01  0.32163212884E+02  0.51100000000E-03 0.  1.
         12    1    3    3    0    0  0.57246298346E+01 -0.24146819329E+02  0.61052061040E+01  0.25556091485E+02  0.00000000000E+00 0. -1.
</event>
<event>
 7    1  0.1788006E-013  0.7246157E+02  0.7816164E-02  0.1226708E+00
        -11   -1    0    0    0    0  0.00000000000E+00  0.00000000000E+00  0.45593999997E+02  0.45594000000E+02  0.51100000000E-03 0.  1.
         11   -1    0    0    0    0 -0.00000000000E+00 -0.00000000000E+00 -0.45593999997E+02  0.45594000000E+02  0.51100000000E-03 0. -1.
    9900012    2    1    2    0    0 -0.20275564970E+01  0.48919385094E+01 -0.17962103075E+02  0.72461569624E+02  0.69999999127E+02 0.  0.
        -12    1    1    2    0    0  0.20275564970E+01 -0.48919385094E+01  0.17962103075E+02  0.18726430376E+02  0.00000000000E+00 0.  1.
         11    1    3    3    0    0 -0.18370886450E+02 -0.14618147138E+02  0.55268553413E+01  0.24118993033E+02  0.51100000000E-03 0. -1.
        -11    1    3    3    0    0 -0.71558795549E+01 -0.43003547635E+01 -0.76710895364E+01  0.11337781010E+02  0.51100000000E-03 0.  1.
        -12    1    3    3    0    0  0.23499209508E+02  0.23810440411E+02 -0.15817868880E+02  0.37004795581E+02  0.00000000000E+00 0.  1.
</event>
<event>
 7    1  0.1788006E-013  0.7246154E+02  0.7816164E-02  0.1226708E+00
        -11   -1    0    0    0    0  0.00000000000E+00  0.00000000000E+00  0.45593999997E+02  0.45594000000E+02  0.51100000000E-03 0. -1.
         11   -1    0    0    0    0 -0.00000000000E+00 -0.00000000000E+00 -0.45593999997E+02  0.45594000000E+02  0.51100000000E-03 0.  1.
    9900012    2    1    2    0    0 -0.68456746715E+00 -0.83238264157E+01  0.16760834257E+02  0.72461540543E+02  0.69999961243E+02 0.  0.
        -12    1    1    2    0    0  0.68456746715E+00  0.83238264157E+01 -0.16760834257E+02  0.18726459457E+02  0.00000000000E+00 0.  1.
         11    1    3    3    0    0  0.61782223114E+01  0.52929398340E+01  0.41190886979E+01  0.91188011809E+01  0.51100000000E-03 0. -1.
        -11    1    3    3    0    0  0.87412540679E+01 -0.32423539112E+01 -0.22035502649E+02  0.23926674629E+02  0.51100000000E-03 0.  1.
         12    1    3    3    0    0 -0.15604043846E+02 -0.10374412338E+02  0.34677248208E+02  0.39416064733E+02  0.00000000000E+00 0. -1.
</event>
<event>
 7    1  0.1788006E-013  0.7246153E+02  0.7816164E-02  0.1226708E+00
        -11   -1    0    0    0    0  0.00000000000E+00  0.00000000000E+00  0.45593999997E+02  0.45594000000E+02  0.51100000000E-03 0. -1.
         11   -1    0    0    0    0 -0.00000000000E+00 -0.00000000000E+00 -0.45593999997E+02  0.45594000000E+02  0.51100000000E-03 0.  1.
    9900012    2    1    2    0    0 -0.43081301039E+00  0.18547970718E+02 -0.25432240385E+01  0.72461526597E+02  0.69999943076E+02 0.  0.
        -12    1    1    2    0    0  0.43081301039E+00 -0.18547970718E+02  0.25432240385E+01  0.18726473403E+02  0.00000000000E+00 0.  1.
         11    1    3    3    0    0 -0.90828924142E+01  0.61937967940E+01 -0.40784566630E+01  0.11725862968E+02  0.51100000000E-03 0. -1.
        -11    1    3    3    0    0 -0.11941274461E+02 -0.63757610819E+01 -0.20956104179E+02  0.24947999274E+02  0.51100000000E-03 0.  1.
        -12    1    3    3    0    0  0.20593353865E+02  0.18729935006E+02  0.22491336804E+02  0.35787664355E+02  0.00000000000E+00 0.  1.
</event>
<event>
 7    1  0.1788006E-013  0.7246148E+02  0.7816164E-02  0.1226708E+00
        -11   -1    0    0    0    0  0.00000000000E+00  0.00000000000E+00  0.45593999997E+02  0.45594000000E+02  0.51100000000E-03 0.  1.
         11   -1    0    0    0    0 -0.00000000000E+00 -0.00000000000E+00 -0.45593999997E+02  0.45594000000E+02  0.51100000000E-03 0. -1.
    9900012    2    1    2    0    0  0.65557948259E+01  0.14497110248E+02 -0.98761320911E+01  0.72461477728E+02  0.69999879415E+02 0.  0.
        -12    1    1    2    0    0 -0.65557948259E+01 -0.14497110248E+02  0.98761320911E+01  0.18726522272E+02  0.00000000000E+00 0.  1.
         11    1    3    3    0    0  0.38869972793E+01  0.82878800883E+01  0.44821061643E+01  0.10192496266E+02  0.51100000000E-03 0. -1.
        -11    1    3    3    0    0 -0.13470701222E+02  0.83302230598E+01  0.19248707783E+02  0.24927197179E+02  0.51100000000E-03 0.  1.
         12    1    3    3    0    0  0.16139498768E+02 -0.21209929006E+01 -0.33606946038E+02  0.37341784283E+02  0.00000000000E+00 0. -1.
</event>
<event>
 7    1  0.1788006E-013  0.7246165E+02  0.7816164E-02  0.1226708E+00
        -11   -1    0    0    0    0  0.00000000000E+00  0.00000000000E+00  0.45593999997E+02  0.45594000000E+02  0.51100000000E-03 0.  1.
         11   -1    0    0    0    0 -0.00000000000E+00 -0.00000000000E+00 -0.45593999997E+02  0.45594000000E+02  0.51100000000E-03 0. -1.
    9900012    2    1    2    0    0 -0.56115669973E+01  0.87926217166E+01 -0.15552369965E+02  0.72461652456E+02  0.70000107030E+02 0.  0.
        -12    1    1    2    0    0  0.56115669973E+01 -0.87926217166E+01  0.15552369965E+02  0.18726347544E+02  0.00000000000E+00 0.  1.
         11    1    3    3    0    0 -0.16147078643E+02 -0.12960329853E+02 -0.21822201346E+02  0.30081668346E+02  0.51100000000E-03 0. -1.
        -11    1    3    3    0    0  0.72634841908E+01  0.10350356477E+02 -0.14018066014E+02  0.18878407158E+02  0.51100000000E-03 0.  1.
        -12    1    3    3    0    0  0.32720274545E+01  0.11402595093E+02  0.20287897395E+02  0.23501576952E+02  0.00000000000E+00 0.  1.
</event>
<event>
 7    1  0.1788006E-013  0.7246152E+02  0.7816164E-02  0.1226708E+00
        -11   -1    0    0    0    0  0.00000000000E+00  0.00000000000E+00  0.45593999997E+02  0.45594000000E+02  0.51100000000E-03 0. -1.
         11   -1    0    0    0    0 -0.00000000000E+00 -0.00000000000E+00 -0.45593999997E+02  0.45594000000E+02  0.51100000000E-03 0.  1.
    9900012    2    1    2    0    0  0.72067888725E+01 -0.16591889241E+02 -0.48427732500E+01  0.72461520161E+02  0.69999934691E+02 0.  0.
        -12    1    1    2    0    0 -0.72067888725E+01  0.16591889241E+02  0.48427732500E+01  0.18726479839E+02  0.00000000000E+00 0.  1.
         11    1    3    3    0    0  0.14115673317E+02 -0.10058507739E+02  0.72341585002E+01  0.18781875854E+02  0.51100000000E-03 0. -1.
        -11    1    3    3    0    0 -0.11737044009E+01  0.16881419620E+02  0.11100473672E+02  0.20238093448E+02  0.51100000000E-03 0.  1.
         12    1    3    3    0    0 -0.57351800436E+01 -0.23414801122E+02 -0.23177405422E+02  0.33441550858E+02  0.00000000000E+00 0. -1.
</event>
<event>
 7    1  0.1788006E-013  0.7246160E+02  0.7816164E-02  0.1226708E+00
        -11   -1    0    0    0    0  0.00000000000E+00  0.00000000000E+00  0.45593999997E+02  0.45594000000E+02  0.51100000000E-03 0.  1.
         11   -1    0    0    0    0 -0.00000000000E+00 -0.00000000000E+00 -0.45593999997E+02  0.45594000000E+02  0.51100000000E-03 0. -1.
    9900012    2    1    2    0    0 -0.60409077269E+01 -0.15987248651E+02 -0.76546221497E+01  0.72461603501E+02  0.70000043257E+02 0.  0.
        -12    1    1    2    0    0  0.60409077269E+01  0.15987248651E+02  0.76546221497E+01  0.18726396499E+02  0.00000000000E+00 0.  1.
         11    1    3    3    0    0 -0.17338228018E+02 -0.17573122228E+02  0.43461749386E+01  0.25066272409E+02  0.51100000000E-03 0. -1.
        -11    1    3    3    0    0 -0.16390021350E+02  0.37891640515E+01 -0.99504819589E+01  0.19544888220E+02  0.51100000000E-03 0.  1.
         12    1    3    3    0    0  0.27687341640E+02 -0.22032904752E+01 -0.20503151294E+01  0.27850442872E+02  0.00000000000E+00 0. -1.
</event>
<event>
 7    1  0.1788006E-013  0.7246156E+02  0.7816164E-02  0.1226708E+00
        -11   -1    0    0    0    0  0.00000000000E+00  0.00000000000E+00  0.45593999997E+02  0.45594000000E+02  0.51100000000E-03 0.  1.
         11   -1    0    0    0    0 -0.00000000000E+00 -0.00000000000E+00 -0.45593999997E+02  0.45594000000E+02  0.51100000000E-03 0. -1.
    9900012    2    1    2    0    0  0.56183426059E+01  0.16490480074E+02 -0.68686043803E+01  0.72461563264E+02  0.69999990841E+02 0.  0.
        -12    1    1    2    0    0 -0.56183426059E+01 -0.16490480074E+02  0.68686043803E+01  0.18726436736E+02  0.00000000000E+00 0.  1.
         11    1    3    3    0    0 -0.15097735974E+02  0.17790721096E+02  0.15869778658E+02  0.28218810456E+02  0.51100000000E-03 0. -1.
        -11    1    3    3    0    0  0.22696091839E+02  0.51924111096E+01 -0.31290170015E+01  0.23491795707E+02  0.51100000000E-03 0.  1.
        -12    1    3    3    0    0 -0.19800132588E+01 -0.64926521313E+01 -0.19609366037E+02  0.20750957100E+02  0.00000000000E+00 0.  1.
</event>
<event>
 7    1  0.1788006E-013  0.7246181E+02  0.7816164E-02  0.1226707E+00
        -11   -1    0    0    0    0  0.00000000000E+00  0.00000000000E+00  0.45593999997E+02  0.45594000000E+02  0.51100000000E-03 0.  1.
         11   -1    0    0    0    0 -0.00000000000E+00 -0.00000000000E+00 -0.45593999997E+02  0.45594000000E+02  0.51100000000E-03 0. -1.
    9900012    2    1    2    0    0  0.82190467151E+01 -0.13463802512E+02 -0.10091760267E+02  0.72461806252E+02  0.70000307378E+02 0.  0.
        -12    1    1    2    0    0 -0.82190467151E+01  0.13463802512E+02  0.10091760267E+02  0.18726193748E+02  0.00000000000E+00 0.  1.
         11    1    3    3    0    0  0.67998238867E+01 -0.27215744626E+02  0.56835555906E+01  0.28622319347E+02  0.51100000000E-03 0. -1.
        -11    1    3    3    0    0 -0.61317333925E+01 -0.85639856174E+01 -0.17275224072E+02  0.20232977315E+02  0.51100000000E-03 0.  1.
        -12    1    3    3    0    0  0.75509562210E+01  0.22315927731E+02  0.14999082140E+01  0.23606509589E+02  0.00000000000E+00 0.  1.
</event>
<event>
 7    1  0.1788006E-013  0.7246156E+02  0.7816164E-02  0.1226708E+00
        -11   -1    0    0    0    0  0.00000000000E+00  0.00000000000E+00  0.45593999997E+02  0.45594000000E+02  0.51100000000E-03 0.  1.
         11   -1    0    0    0    0 -0.00000000000E+00 -0.00000000000E+00 -0.45593999997E+02  0.45594000000E+02  0.51100000000E-03 0. -1.
    9900012    2    1    2    0    0 -0.41629593551E+01 -0.60359922545E+01 -0.17231259369E+02  0.72461555262E+02  0.69999980417E+02 0.  0.
        -12    1    1    2    0    0  0.41629593551E+01  0.60359922545E+01  0.17231259369E+02  0.18726444738E+02  0.00000000000E+00 0.  1.
         11    1    3    3    0    0  0.11152158404E+02 -0.22621349762E+00  0.34870533388E+01  0.11686802422E+02  0.51100000000E-03 0. -1.
        -11    1    3    3    0    0 -0.49988102129E+01 -0.28314759519E+02 -0.41248744327E+00  0.28755588263E+02  0.51100000000E-03 0.  1.
         12    1    3    3    0    0 -0.10316307546E+02  0.22504980763E+02 -0.20305825264E+02  0.32019164577E+02  0.00000000000E+00 0. -1.
</event>
<event>
 7    1  0.1788006E-013  0.7246158E+02  0.7816164E-02  0.1226708E+00
        -11   -1    0    0    0    0  0.00000000000E+00  0.00000000000E+00  0.45593999997E+02  0.45594000000E+02  0.51100000000E-03 0. -1.
         11   -1    0    0    0    0 -0.00000000000E+00 -0.00000000000E+00 -0.45593999997E+02  0.45594000000E+02  0.51100000000E-03 0.  1.
    9900012    2    1    2    0    0  0.86382351236E+01 -0.16570097208E+02 -0.12212975063E+01  0.72461580290E+02  0.70000013022E+02 0.  0.
        -12    1    1    2    0    0 -0.86382351236E+01  0.16570097208E+02  0.12212975063E+01  0.18726419710E+02  0.00000000000E+00 0.  1.
         11    1    3    3    0    0  0.15128159208E+01 -0.20854415475E+02  0.29408148798E+02  0.36083714786E+02  0.51100000000E-03 0. -1.
        -11    1    3    3    0    0  0.10516293679E+02  0.52374714191E+01 -0.99354581310E+01  0.15386255820E+02  0.51100000000E-03 0.  1.
        -12    1    3    3    0    0 -0.33908744764E+01 -0.95315315202E+00 -0.20693988173E+02  0.20991609684E+02  0.00000000000E+00 0.  1.
</event>
<event>
 7    1  0.1788006E-013  0.7246162E+02  0.7816164E-02  0.1226708E+00
        -11   -1    0    0    0    0  0.00000000000E+00  0.00000000000E+00  0.45593999997E+02  0.45594000000E+02  0.51100000000E-03 0.  1.
         11   -1    0    0    0    0 -0.00000000000E+00 -0.00000000000E+00 -0.45593999997E+02  0.45594000000E+02  0.51100000000E-03 0. -1.
    9900012    2    1    2    0    0 -0.16257842616E+02  0.29297065908E+01 -0.88191088815E+01  0.72461619979E+02  0.70000064723E+02 0.  0.
        -12    1    1    2    0    0  0.16257842616E+02 -0.29297065908E+01  0.88191088815E+01  0.18726380021E+02  0.00000000000E+00 0.  1.
         11    1    3    3    0    0  0.67423540340E+01 -0.14602096703E+02 -0.28631605237E+01  0.16336408861E+02  0.51100000000E-03 0. -1.
        -11    1    3    3    0    0  0.71880653318E+01  0.78374011791E+01  0.14803302290E+02  0.18227202182E+02  0.51100000000E-03 0.  1.
        -12    1    3    3    0    0 -0.30188261982E+02  0.96944021144E+01 -0.20759250647E+02  0.37898008935E+02  0.00000000000E+00 0.  1.
</event>
<event>
 7    1  0.1788006E-013  0.7246154E+02  0.7816164E-02  0.1226708E+00
        -11   -1    0    0    0    0  0.00000000000E+00  0.00000000000E+00  0.45593999997E+02  0.45594000000E+02  0.51100000000E-03 0.  1.
         11   -1    0    0    0    0 -0.00000000000E+00 -0.00000000000E+00 -0.45593999997E+02  0.45594000000E+02  0.51100000000E-03 0. -1.
    9900012    2    1    2    0    0 -0.12154912277E+02 -0.54097923009E+01  0.13178489377E+02  0.72461539377E+02  0.69999959724E+02 0.  0.
        -12    1    1    2    0    0  0.12154912277E+02  0.54097923009E+01 -0.13178489377E+02  0.18726460623E+02  0.00000000000E+00 0.  1.
         11    1    3    3    0    0 -0.58809301647E+01  0.43920437178E+01  0.41425654788E+01  0.84282997472E+01  0.51100000000E-03 0. -1.
        -11    1    3    3    0    0 -0.18653952108E+02 -0.30645287779E+02 -0.46786368481E+01  0.36180011543E+02  0.51100000000E-03 0.  1.
         12    1    3    3    0    0  0.12379969995E+02  0.20843451760E+02  0.13714560747E+02  0.27853228086E+02  0.00000000000E+00 0. -1.
</event>
<event>
 7    1  0.1788006E-013  0.7246141E+02  0.7816164E-02  0.1226708E+00
        -11   -1    0    0    0    0  0.00000000000E+00  0.00000000000E+00  0.45593999997E+02  0.45594000000E+02  0.51100000000E-03 0. -1.
         11   -1    0    0    0    0 -0.00000000000E+00 -0.00000000000E+00 -0.45593999997E+02  0.45594000000E+02  0.51100000000E-03 0.  1.
    9900012    2    1    2    0    0  0.78059527306E+01  0.14491315377E+02  0.89305166592E+01  0.72461408020E+02  0.69999788607E+02 0.  0.
        -12    1    1    2    0    0 -0.78059527306E+01 -0.14491315377E+02 -0.89305166592E+01  0.18726591980E+02  0.00000000000E+00 0.  1.
         11    1    3    3    0    0  0.64012556356E+01  0.20866965869E+01  0.20209625305E+02  0.21301627440E+02  0.51100000000E-03 0.  1.
        -11    1    3    3    0    0  0.72333647251E+01 -0.17370006830E+02 -0.86419807157E+01  0.20705615989E+02  0.51100000000E-03 0. -1.
        -12    1    3    3    0    0 -0.58286676301E+01  0.29774625621E+02 -0.26371279305E+01  0.30454164591E+02  0.00000000000E+00 0.  1.
</event>
<event>
 7    1  0.1788006E-013  0.7246165E+02  0.7816164E-02  0.1226708E+00
        -11   -1    0    0    0    0  0.00000000000E+00  0.00000000000E+00  0.45593999997E+02  0.45594000000E+02  0.51100000000E-03 0.  1.
         11   -1    0    0    0    0 -0.00000000000E+00 -0.00000000000E+00 -0.45593999997E+02  0.45594000000E+02  0.51100000000E-03 0. -1.
    9900012    2    1    2    0    0  0.89889523803E+01  0.42616590923E+01 -0.15865469759E+02  0.72461651349E+02  0.70000105589E+02 0.  0.
        -12    1    1    2    0    0 -0.89889523803E+01 -0.42616590923E+01  0.15865469759E+02  0.18726348651E+02  0.00000000000E+00 0.  1.
         11    1    3    3    0    0  0.11810769117E+02  0.13665651948E+02 -0.10311627787E+02  0.20798412877E+02  0.51100000000E-03 0. -1.
        -11    1    3    3    0    0 -0.68823123433E+01 -0.62327318640E+01  0.21870107509E+02  0.23759519616E+02  0.51100000000E-03 0.  1.
         12    1    3    3    0    0  0.40604956068E+01 -0.31712609919E+01 -0.27423949481E+02  0.27903718856E+02  0.00000000000E+00 0. -1.
</event>
<event>
 7    1  0.1788006E-013  0.7246177E+02  0.7816164E-02  0.1226707E+00
        -11   -1    0    0    0    0  0.00000000000E+00  0.00000000000E+00  0.45593999997E+02  0.45594000000E+02  0.51100000000E-03 0.  1.
         11   -1    0    0    0    0 -0.00000000000E+00 -0.00000000000E+00 -0.45593999997E+02  0.45594000000E+02  0.51100000000E-03 0. -1.
    9900012    2    1    2    0    0  0.59299287930E+01 -0.16118701576E+02  0.74629244893E+01  0.72461766051E+02  0.70000255009E+02 0.  0.
        -12    1    1    2    0    0 -0.59299287930E+01  0.16118701576E+02 -0.74629244893E+01  0.18726233949E+02  0.00000000000E+00 0.  1.
         11    1    3    3    0    0 -0.44395416055E+00 -0.25448099414E+02  0.18205762034E+02  0.31293012488E+02  0.51100000000E-03 0. -1.
        -11    1    3    3    0    0  0.72669074293E+01 -0.84517578293E+01  0.91873366073E+01  0.14444629043E+02  0.51100000000E-03 0.  1.
        -12    1    3    3    0    0 -0.89302447574E+00  0.17781155668E+02 -0.19930174152E+02  0.26724124519E+02  0.00000000000E+00 0.  1.
</event>
<event>
 7    1  0.1788006E-013  0.7246156E+02  0.7816164E-02  0.1226708E+00
        -11   -1    0    0    0    0  0.00000000000E+00  0.00000000000E+00  0.45593999997E+02  0.45594000000E+02  0.51100000000E-03 0.  1.
         11   -1    0    0    0    0 -0.00000000000E+00 -0.00000000000E+00 -0.45593999997E+02  0.45594000000E+02  0.51100000000E-03 0. -1.
    9900012    2    1    2    0    0  0.16920601645E+02 -0.74097190784E+01 -0.30771390350E+01  0.72461561964E+02  0.69999989149E+02 0.  0.
        -12    1    1    2    0    0 -0.16920601645E+02  0.74097190784E+01  0.30771390350E+01  0.18726438036E+02  0.00000000000E+00 0.  1.
         11    1    3    3    0    0 -0.14788902919E+02  0.12328185485E+01 -0.12281214426E+02  0.19262910454E+02  0.51100000000E-03 0. -1.
        -11    1    3    3    0    0 -0.87856401237E+01 -0.79092071679E+01  0.32636588851E+01  0.12263543533E+02  0.51100000000E-03 0.  1.
        -12    1    3    3    0    0  0.40495144688E+02 -0.73333045897E+00  0.59404165057E+01  0.40935107977E+02  0.00000000000E+00 0.  1.
</event>
<event>
 7    1  0.1788006E-013  0.7246146E+02  0.7816164E-02  0.1226708E+00
        -11   -1    0    0    0    0  0.00000000000E+00  0.00000000000E+00  0.45593999997E+02  0.45594000000E+02  0.51100000000E-03 0. -1.
         11   -1    0    0    0    0 -0.00000000000E+00 -0.00000000000E+00 -0.45593999997E+02  0.45594000000E+02  0.51100000000E-03 0.  1.
    9900012    2    1    2    0    0  0.13409041143E+02 -0.11597816698E+02  0.60308932776E+01  0.72461457066E+02  0.69999852499E+02 0.  0.
        -12    1    1    2    0    0 -0.13409041143E+02  0.11597816698E+02 -0.60308932776E+01  0.18726542934E+02  0.00000000000E+00 0.  1.
         11    1    3    3    0    0  0.33340880938E+02 -0.19278465757E+02 -0.14166916323E+01  0.38539338332E+02  0.51100000000E-03 0. -1.
        -11    1    3    3    0    0 -0.21066838875E+01 -0.84152668487E+01 -0.31835287228E+00  0.86807938548E+01  0.51100000000E-03 0.  1.
        -12    1    3    3    0    0 -0.17825155908E+02  0.16095915907E+02  0.77659377822E+01  0.25241324879E+02  0.00000000000E+00 0.  1.
</event>
<event>
 7    1  0.1788006E-013  0.7246154E+02  0.7816164E-02  0.1226708E+00
        -11   -1    0    0    0    0  0.00000000000E+00  0.00000000000E+00  0.45593999997E+02  0.45594000000E+02  0.51100000000E-03 0. -1.
         11   -1    0    0    0    0 -0.00000000000E+00 -0.00000000000E+00 -0.45593999997E+02  0.45594000000E+02  0.51100000000E-03 0.  1.
    9900012    2    1    2    0    0  0.83983959111E+01  0.15263838681E+02  0.68674950518E+01  0.72461539751E+02  0.69999960212E+02 0.  0.
        -12    1    1    2    0    0 -0.83983959111E+01 -0.15263838681E+02 -0.68674950518E+01  0.18726460249E+02  0.00000000000E+00 0.  1.
         11    1    3    3    0    0  0.63230206844E+01  0.10892163500E+02  0.28363698786E+02  0.31034162231E+02  0.51100000000E-03 0. -1.
        -11    1    3    3    0    0  0.61867767664E+01  0.18259373181E+02 -0.59418317988E+01  0.20173900989E+02  0.51100000000E-03 0.  1.
        -12    1    3    3    0    0 -0.41114015396E+01 -0.13887698000E+02 -0.15554371935E+02  0.21253476531E+02  0.00000000000E+00 0.  1.
</event>
<event>
 7    1  0.1788006E-013  0.7246078E+02  0.7816164E-02  0.1226710E+00
        -11   -1    0    0    0    0  0.00000000000E+00  0.00000000000E+00  0.45593999997E+02  0.45594000000E+02  0.51100000000E-03 0.  1.
         11   -1    0    0    0    0 -0.00000000000E+00 -0.00000000000E+00 -0.45593999997E+02  0.45594000000E+02  0.51100000000E-03 0. -1.
    9900012    2    1    2    0    0 -0.64799816535E+01  0.72795440851E+01 -0.15991465348E+02  0.72460776813E+02  0.69998966335E+02 0.  0.
        -12    1    1    2    0    0  0.64799816535E+01 -0.72795440851E+01  0.15991465348E+02  0.18727223187E+02  0.00000000000E+00 0.  1.
         11    1    3    3    0    0  0.18703859407E+02 -0.10268674935E+02 -0.10021381789E+02  0.23573462513E+02  0.51100000000E-03 0. -1.
        -11    1    3    3    0    0 -0.34604536192E+01  0.40069792905E+01 -0.19309325319E+02  0.20022004566E+02  0.51100000000E-03 0.  1.
        -12    1    3    3    0    0 -0.21723387441E+02  0.13541239730E+02  0.13339241760E+02  0.28865309734E+02  0.00000000000E+00 0.  1.
</event>
<event>
 7    1  0.1788006E-013  0.7246151E+02  0.7816164E-02  0.1226708E+00
        -11   -1    0    0    0    0  0.00000000000E+00  0.00000000000E+00  0.45593999997E+02  0.45594000000E+02  0.51100000000E-03 0. -1.
         11   -1    0    0    0    0 -0.00000000000E+00 -0.00000000000E+00 -0.45593999997E+02  0.45594000000E+02  0.51100000000E-03 0.  1.
    9900012    2    1    2    0    0  0.17310603183E+02 -0.59393609932E+01  0.39684382649E+01  0.72461508235E+02  0.69999919156E+02 0.  0.
        -12    1    1    2    0    0 -0.17310603183E+02  0.59393609932E+01 -0.39684382649E+01  0.18726491765E+02  0.00000000000E+00 0.  1.
         11    1    3    3    0    0 -0.28734857290E+01  0.21314432057E+02  0.21892780109E+02  0.30689668543E+02  0.51100000000E-03 0. -1.
        -11    1    3    3    0    0  0.75422949503E+00 -0.15045509142E+01  0.29167529108E+01  0.33674891817E+01  0.51100000000E-03 0.  1.
        -12    1    3    3    0    0  0.19429859417E+02 -0.25749242135E+02 -0.20841094755E+02  0.38404350510E+02  0.00000000000E+00 0.  1.
</event>
<event>
 7    1  0.1788006E-013  0.7246187E+02  0.7816164E-02  0.1226707E+00
        -11   -1    0    0    0    0  0.00000000000E+00  0.00000000000E+00  0.45593999997E+02  0.45594000000E+02  0.51100000000E-03 0.  1.
         11   -1    0    0    0    0 -0.00000000000E+00 -0.00000000000E+00 -0.45593999997E+02  0.45594000000E+02  0.51100000000E-03 0. -1.
    9900012    2    1    2    0    0 -0.93567051040E+01  0.65718528619E+01 -0.14830068796E+02  0.72461865296E+02  0.70000384294E+02 0.  0.
        -12    1    1    2    0    0  0.93567051040E+01 -0.65718528619E+01  0.14830068796E+02  0.18726134704E+02  0.00000000000E+00 0.  1.
         11    1    3    3    0    0 -0.28884642861E+02  0.85172921022E+01 -0.25450046498E+02  0.39428057586E+02  0.51100000000E-03 0. -1.
        -11    1    3    3    0    0  0.53673098811E+01 -0.10354569723E+02 -0.25592465568E+01  0.11940472047E+02  0.51100000000E-03 0.  1.
        -12    1    3    3    0    0  0.14160627876E+02  0.84091304828E+01  0.13179224259E+02  0.21093335663E+02  0.00000000000E+00 0.  1.
</event>
<event>
 7    1  0.1788006E-013  0.7246151E+02  0.7816164E-02  0.1226708E+00
        -11   -1    0    0    0    0  0.00000000000E+00  0.00000000000E+00  0.45593999997E+02  0.45594000000E+02  0.51100000000E-03 0.  1.
         11   -1    0    0    0    0 -0.00000000000E+00 -0.00000000000E+00 -0.45593999997E+02  0.45594000000E+02  0.51100000000E-03 0. -1.
    9900012    2    1    2    0    0 -0.11095354915E+02  0.14414638225E+02 -0.44489031489E+01  0.72461509804E+02  0.69999921200E+02 0.  0.
        -12    1    1    2    0    0  0.11095354915E+02 -0.14414638225E+02  0.44489031489E+01  0.18726490196E+02  0.00000000000E+00 0.  1.
         11    1    3    3    0    0 -0.11773874868E+02 -0.15935368691E+01 -0.92681488519E+01  0.15068578983E+02  0.51100000000E-03 0. -1.
        -11    1    3    3    0    0 -0.49169230785E+01 -0.18415954628E+02  0.10949782939E+02  0.21982294331E+02  0.51100000000E-03 0.  1.
         12    1    3    3    0    0  0.55954430320E+01  0.34424129721E+02 -0.61305372358E+01  0.35410636489E+02  0.00000000000E+00 0. -1.
</event>
<event>
 7    1  0.1788006E-013  0.7246156E+02  0.7816164E-02  0.1226708E+00
        -11   -1    0    0    0    0  0.00000000000E+00  0.00000000000E+00  0.45593999997E+02  0.45594000000E+02  0.51100000000E-03 0. -1.
         11   -1    0    0    0    0 -0.00000000000E+00 -0.00000000000E+00 -0.45593999997E+02  0.45594000000E+02  0.51100000000E-03 0.  1.
    9900012    2    1    2    0    0 -0.39745483750E+01 -0.14665506411E+02  0.10945560991E+02  0.72461563647E+02  0.69999991340E+02 0.  0.
        -12    1    1    2    0    0  0.39745483750E+01  0.14665506411E+02 -0.10945560991E+02  0.18726436353E+02  0.00000000000E+00 0.  1.
         11    1    3    3    0    0 -0.71041370762E+01  0.14206125972E+02 -0.15430342309E+02  0.22144485606E+02  0.51100000000E-03 0. -1.
        -11    1    3    3    0    0 -0.76320635810E+01  0.27305767080E+00  0.15712166004E+02  0.17469834453E+02  0.51100000000E-03 0.  1.
        -12    1    3    3    0    0  0.10761652282E+02 -0.29144690054E+02  0.10663737296E+02  0.32847243588E+02  0.00000000000E+00 0.  1.
</event>
<event>
 7    1  0.1788006E-013  0.7246147E+02  0.7816164E-02  0.1226708E+00
        -11   -1    0    0    0    0  0.00000000000E+00  0.00000000000E+00  0.45593999997E+02  0.45594000000E+02  0.51100000000E-03 0. -1.
         11   -1    0    0    0    0 -0.00000000000E+00 -0.00000000000E+00 -0.45593999997E+02  0.45594000000E+02  0.51100000000E-03 0.  1.
    9900012    2    1    2    0    0  0.66989737976E+01  0.15563158428E+02  0.79746320469E+01  0.72461470517E+02  0.69999870022E+02 0.  0.
        -12    1    1    2    0    0 -0.66989737976E+01 -0.15563158428E+02 -0.79746320469E+01  0.18726529483E+02  0.00000000000E+00 0.  1.
         11    1    3    3    0    0  0.18836763435E+00  0.22607221496E+02  0.24203744122E+02  0.33120132486E+02  0.51100000000E-03 0. -1.
        -11    1    3    3    0    0  0.17671382071E+02 -0.32103732974E+01  0.15226156106E+01  0.18025054773E+02  0.51100000000E-03 0.  1.
        -12    1    3    3    0    0 -0.11160775908E+02 -0.38336897705E+01 -0.17751727686E+02  0.21316283258E+02  0.00000000000E+00 0.  1.
</event>
<event>
 7    1  0.1788006E-013  0.7246154E+02  0.7816164E-02  0.1226708E+00
        -11   -1    0    0    0    0  0.00000000000E+00  0.00000000000E+00  0.45593999997E+02  0.45594000000E+02  0.51100000000E-03 0. -1.
         11   -1    0    0    0    0 -0.00000000000E+00 -0.00000000000E+00 -0.45593999997E+02  0.45594000000E+02  0.51100000000E-03 0.  1.
    9900012    2    1    2    0    0 -0.12018898711E+02 -0.14284016746E+02 -0.14809429709E+01  0.72461541373E+02  0.69999962324E+02 0.  0.
        -12    1    1    2    0    0  0.12018898711E+02  0.14284016746E+02  0.14809429709E+01  0.18726458627E+02  0.00000000000E+00 0.  1.
         11    1    3    3    0    0 -0.68922876626E+01 -0.27442645185E+02  0.19390756180E+02  0.34301659282E+02  0.51100000000E-03 0. -1.
        -11    1    3    3    0    0 -0.11319186320E+02 -0.52825612127E+01 -0.83534628696E+01  0.15026968227E+02  0.51100000000E-03 0.  1.
        -12    1    3    3    0    0  0.61925752717E+01  0.18441189651E+02 -0.12518236281E+02  0.23132913864E+02  0.00000000000E+00 0.  1.
</event>
<event>
 7    1  0.1788006E-013  0.7246158E+02  0.7816164E-02  0.1226708E+00
        -11   -1    0    0    0    0  0.00000000000E+00  0.00000000000E+00  0.45593999997E+02  0.45594000000E+02  0.51100000000E-03 0. -1.
         11   -1    0    0    0    0 -0.00000000000E+00 -0.00000000000E+00 -0.45593999997E+02  0.45594000000E+02  0.51100000000E-03 0.  1.
    9900012    2    1    2    0    0 -0.13891547125E+02  0.12213626093E+02  0.29207974591E+01  0.72461580116E+02  0.70000012795E+02 0.  0.
        -12    1    1    2    0    0  0.13891547125E+02 -0.12213626093E+02 -0.29207974591E+01  0.18726419884E+02  0.00000000000E+00 0.  1.
         11    1    3    3    0    0 -0.69736767533E+01  0.22414622190E+02  0.16646152665E+01  0.23533346546E+02  0.51100000000E-03 0. -1.
        -11    1    3    3    0    0  0.50979869919E+01  0.14067780044E+02 -0.11617420536E+02  0.18943504610E+02  0.51100000000E-03 0.  1.
         12    1    3    3    0    0 -0.12015857364E+02 -0.24268776142E+02  0.12873602729E+02  0.29984728960E+02  0.00000000000E+00 0. -1.
</event>
<event>
 7    1  0.1788006E-013  0.7246126E+02  0.7816164E-02  0.1226709E+00
        -11   -1    0    0    0    0  0.00000000000E+00  0.00000000000E+00  0.45593999997E+02  0.45594000000E+02  0.51100000000E-03 0. -1.
         11   -1    0    0    0    0 -0.00000000000E+00 -0.00000000000E+00 -0.45593999997E+02  0.45594000000E+02  0.51100000000E-03 0.  1.
    9900012    2    1    2    0    0 -0.73652823330E+00  0.18675682346E+02  0.11692931759E+01  0.72461258920E+02  0.69999594376E+02 0.  0.
        -12    1    1    2    0    0  0.73652823330E+00 -0.18675682346E+02 -0.11692931759E+01  0.18726741080E+02  0.00000000000E+00 0.  1.
         11    1    3    3    0    0  0.24336295306E+01  0.36105488465E+02 -0.12460374326E+02  0.38272572145E+02  0.51100000000E-03 0. -1.
        -11    1    3    3    0    0 -0.55714549224E+01 -0.10310661325E+02 -0.60028997678E+01  0.13167598597E+02  0.51100000000E-03 0.  1.
        -12    1    3    3    0    0  0.24012971585E+01 -0.71191447930E+01  0.19632567270E+02  0.21021088179E+02  0.00000000000E+00 0.  1.
</event>
<event>
 7    1  0.1788006E-013  0.7246160E+02  0.7816164E-02  0.1226708E+00
        -11   -1    0    0    0    0  0.00000000000E+00  0.00000000000E+00  0.45593999997E+02  0.45594000000E+02  0.51100000000E-03 0. -1.
         11   -1    0    0    0    0 -0.00000000000E+00 -0.00000000000E+00 -0.45593999997E+02  0.45594000000E+02  0.51100000000E-03 0.  1.
    9900012    2    1    2    0    0  0.16831787840E+02  0.92913160167E+00  0.81550958032E+01  0.72461602722E+02  0.70000042244E+02 0.  0.
        -12    1    1    2    0    0 -0.16831787840E+02 -0.92913160167E+00 -0.81550958032E+01  0.18726397278E+02  0.00000000000E+00 0.  1.
         11    1    3    3    0    0  0.14813878420E+02  0.34280285286E+01  0.17361614411E+02  0.23078735422E+02  0.51100000000E-03 0. -1.
        -11    1    3    3    0    0  0.22858343787E+02 -0.11425460983E+02 -0.75688704939E+01  0.26652070091E+02  0.51100000000E-03 0.  1.
         12    1    3    3    0    0 -0.20840434367E+02  0.89265640558E+01 -0.16376481137E+01  0.22730797210E+02  0.00000000000E+00 0. -1.
</event>
<event>
 7    1  0.1788006E-013  0.7246160E+02  0.7816164E-02  0.1226708E+00
        -11   -1    0    0    0    0  0.00000000000E+00  0.00000000000E+00  0.45593999997E+02  0.45594000000E+02  0.51100000000E-03 0.  1.
         11   -1    0    0    0    0 -0.00000000000E+00 -0.00000000000E+00 -0.45593999997E+02  0.45594000000E+02  0.51100000000E-03 0. -1.
    9900012    2    1    2    0    0  0.80707293903E+01 -0.15707409144E+02 -0.62304783949E+01  0.72461595221E+02  0.70000032472E+02 0.  0.
        -12    1    1    2    0    0 -0.80707293903E+01  0.15707409144E+02  0.62304783949E+01  0.18726404779E+02  0.00000000000E+00 0.  1.
         11    1    3    3    0    0 -0.89679024812E+01  0.13592584084E+02 -0.81625773291E+01  0.18215633009E+02  0.51100000000E-03 0. -1.
        -11    1    3    3    0    0 -0.34805990961E+01 -0.48416635367E+01  0.17672158082E+02  0.18651044137E+02  0.51100000000E-03 0.  1.
         12    1    3    3    0    0  0.20519230968E+02 -0.24458329692E+02 -0.15740059147E+02  0.35594918075E+02  0.00000000000E+00 0. -1.
</event>
<event>
 7    1  0.2175578E-013  0.7246166E+02  0.7816164E-02  0.1226708E+00
        -11   -1    0    0    0    0  0.00000000000E+00  0.00000000000E+00  0.45593999997E+02  0.45594000000E+02  0.51100000000E-03 0. -1.
         11   -1    0    0    0    0 -0.00000000000E+00 -0.00000000000E+00 -0.45593999997E+02  0.45594000000E+02  0.51100000000E-03 0.  1.
    9900012    2    1    2    0    0 -0.42138111555E+01  0.45343869665E+01  0.17673675305E+02  0.72461663775E+02  0.70000121776E+02 0.  0.
        -12    1    1    2    0    0  0.42138111555E+01 -0.45343869665E+01 -0.17673675305E+02  0.18726336225E+02  0.00000000000E+00 0.  1.
         11    1    3    3    0    0  0.81648587656E+00 -0.66425877583E+01  0.26701345160E+01  0.72055700612E+01  0.51100000000E-03 0. -1.
        -11    1    3    3    0    0 -0.16019454997E+02 -0.11765309224E+02 -0.15739573042E+02  0.25353098417E+02  0.51100000000E-03 0.  1.
         12    1    3    3    0    0  0.10989157965E+02  0.22942283949E+02  0.30743113832E+02  0.39902995297E+02  0.00000000000E+00 0. -1.
</event>
<event>
 7    1  0.1788006E-013  0.7246174E+02  0.7816164E-02  0.1226708E+00
        -11   -1    0    0    0    0  0.00000000000E+00  0.00000000000E+00  0.45593999997E+02  0.45594000000E+02  0.51100000000E-03 0.  1.
         11   -1    0    0    0    0 -0.00000000000E+00 -0.00000000000E+00 -0.45593999997E+02  0.45594000000E+02  0.51100000000E-03 0. -1.
    9900012    2    1    2    0    0  0.14327668466E+02 -0.60041655325E+01 -0.10456607732E+02  0.72461742161E+02  0.70000223888E+02 0.  0.
        -12    1    1    2    0    0 -0.14327668466E+02  0.60041655325E+01  0.10456607732E+02  0.18726257839E+02  0.00000000000E+00 0.  1.
         11    1    3    3    0    0  0.25601564180E+00 -0.29107493824E+02 -0.16529103348E+02  0.33474213934E+02  0.51100000000E-03 0. -1.
        -11    1    3    3    0    0  0.37300247864E+01 -0.11270610916E+01  0.11453835272E+02  0.12098499672E+02  0.51100000000E-03 0.  1.
        -12    1    3    3    0    0  0.10341628038E+02  0.24230389383E+02 -0.53813396555E+01  0.26889028555E+02  0.00000000000E+00 0.  1.
</event>
<event>
 7    1  0.1788006E-013  0.7246160E+02  0.7816164E-02  0.1226708E+00
        -11   -1    0    0    0    0  0.00000000000E+00  0.00000000000E+00  0.45593999997E+02  0.45594000000E+02  0.51100000000E-03 0.  1.
         11   -1    0    0    0    0 -0.00000000000E+00 -0.00000000000E+00 -0.45593999997E+02  0.45594000000E+02  0.51100000000E-03 0. -1.
    9900012    2    1    2    0    0  0.11954451060E+02 -0.10525961032E+01 -0.14375718691E+02  0.72461597607E+02  0.70000035580E+02 0.  0.
        -12    1    1    2    0    0 -0.11954451060E+02  0.10525961032E+01  0.14375718691E+02  0.18726402393E+02  0.00000000000E+00 0.  1.
         11    1    3    3    0    0  0.16636921662E+02 -0.11076545505E+02  0.33681421471E+00  0.19989759048E+02  0.51100000000E-03 0. -1.
        -11    1    3    3    0    0 -0.19094783559E+01 -0.17383072631E+02 -0.17554627155E+02  0.24778665349E+02  0.51100000000E-03 0.  1.
        -12    1    3    3    0    0 -0.27729922463E+01  0.27407022033E+02  0.28420942489E+01  0.27693173210E+02  0.00000000000E+00 0.  1.
</event>
<event>
 7    1  0.1788006E-013  0.7246156E+02  0.7816164E-02  0.1226708E+00
        -11   -1    0    0    0    0  0.00000000000E+00  0.00000000000E+00  0.45593999997E+02  0.45594000000E+02  0.51100000000E-03 0. -1.
         11   -1    0    0    0    0 -0.00000000000E+00 -0.00000000000E+00 -0.45593999997E+02  0.45594000000E+02  0.51100000000E-03 0.  1.
    9900012    2    1    2    0    0  0.37252050209E+00 -0.17758626900E+02  0.59305954194E+01  0.72461559790E+02  0.69999986316E+02 0.  0.
        -12    1    1    2    0    0 -0.37252050209E+00  0.17758626900E+02 -0.59305954194E+01  0.18726440210E+02  0.00000000000E+00 0.  1.
         11    1    3    3    0    0 -0.28498758039E+01 -0.10228640953E+02 -0.46197735051E+00  0.10628278844E+02  0.51100000000E-03 0. -1.
        -11    1    3    3    0    0  0.19395295420E+02 -0.43618837025E+01 -0.21596169849E+02  0.29352990754E+02  0.51100000000E-03 0.  1.
         12    1    3    3    0    0 -0.16172899114E+02 -0.31681022444E+01  0.27988742618E+02  0.32480290192E+02  0.00000000000E+00 0. -1.
</event>
<event>
 7    1  0.1788006E-013  0.7246160E+02  0.7816164E-02  0.1226708E+00
        -11   -1    0    0    0    0  0.00000000000E+00  0.00000000000E+00  0.45593999997E+02  0.45594000000E+02  0.51100000000E-03 0.  1.
         11   -1    0    0    0    0 -0.00000000000E+00 -0.00000000000E+00 -0.45593999997E+02  0.45594000000E+02  0.51100000000E-03 0. -1.
    9900012    2    1    2    0    0 -0.75835223239E+01 -0.16461580232E+02 -0.47100377322E+01  0.72461604457E+02  0.70000044504E+02 0.  0.
        -12    1    1    2    0    0  0.75835223239E+01  0.16461580232E+02  0.47100377322E+01  0.18726395543E+02  0.00000000000E+00 0.  1.
         11    1    3    3    0    0  0.23507236457E+01  0.25482055749E+01  0.47164137657E+00  0.34988139647E+01  0.51100000000E-03 0. -1.
        -11    1    3    3    0    0  0.66220552382E+01 -0.44437776310E+01  0.28004604157E+02  0.29117977771E+02  0.51100000000E-03 0.  1.
         12    1    3    3    0    0 -0.16556301208E+02 -0.14566008176E+02 -0.33186283265E+02  0.39844812722E+02  0.00000000000E+00 0. -1.
</event>
<event>
 7    1  0.1788006E-013  0.7246156E+02  0.7816164E-02  0.1226708E+00
        -11   -1    0    0    0    0  0.00000000000E+00  0.00000000000E+00  0.45593999997E+02  0.45594000000E+02  0.51100000000E-03 0. -1.
         11   -1    0    0    0    0 -0.00000000000E+00 -0.00000000000E+00 -0.45593999997E+02  0.45594000000E+02  0.51100000000E-03 0.  1.
    9900012    2    1    2    0    0  0.46616809017E-01  0.12179539122E+02  0.14224499081E+02  0.72461555584E+02  0.69999980837E+02 0.  0.
        -12    1    1    2    0    0 -0.46616809017E-01 -0.12179539122E+02 -0.14224499081E+02  0.18726444416E+02  0.00000000000E+00 0.  1.
         11    1    3    3    0    0  0.25344043981E+02 -0.15590652838E+01 -0.62273867833E+01  0.26144437196E+02  0.51100000000E-03 0. -1.
        -11    1    3    3    0    0  0.45597926011E+01 -0.27660817706E+01 -0.17506566952E+01  0.56131734386E+01  0.51100000000E-03 0.  1.
        -12    1    3    3    0    0 -0.29857219773E+02  0.16504686176E+02  0.22202542560E+02  0.40703944950E+02  0.00000000000E+00 0.  1.
</event>
<event>
 7    1  0.1788006E-013  0.7246156E+02  0.7816164E-02  0.1226708E+00
        -11   -1    0    0    0    0  0.00000000000E+00  0.00000000000E+00  0.45593999997E+02  0.45594000000E+02  0.51100000000E-03 0.  1.
         11   -1    0    0    0    0 -0.00000000000E+00 -0.00000000000E+00 -0.45593999997E+02  0.45594000000E+02  0.51100000000E-03 0. -1.
    9900012    2    1    2    0    0 -0.19287457852E+01  0.18327604904E+02 -0.33254013788E+01  0.72461562641E+02  0.69999990031E+02 0.  0.
        -12    1    1    2    0    0  0.19287457852E+01 -0.18327604904E+02  0.33254013788E+01  0.18726437359E+02  0.00000000000E+00 0.  1.
         11    1    3    3    0    0 -0.75711922389E+01  0.45455351870E+01 -0.23737231233E+02  0.25326685313E+02  0.51100000000E-03 0. -1.
        -11    1    3    3    0    0 -0.16090171053E+02 -0.53279156263E+00  0.48512991358E+01  0.16814058847E+02  0.51100000000E-03 0.  1.
        -12    1    3    3    0    0  0.21732617506E+02  0.14314861279E+02  0.15560530719E+02  0.30320818481E+02  0.00000000000E+00 0.  1.
</event>
<event>
 7    1  0.1788006E-013  0.7246146E+02  0.7816164E-02  0.1226708E+00
        -11   -1    0    0    0    0  0.00000000000E+00  0.00000000000E+00  0.45593999997E+02  0.45594000000E+02  0.51100000000E-03 0.  1.
         11   -1    0    0    0    0 -0.00000000000E+00 -0.00000000000E+00 -0.45593999997E+02  0.45594000000E+02  0.51100000000E-03 0. -1.
    9900012    2    1    2    0    0 -0.77340857221E+01 -0.16610391970E+02  0.38680636933E+01  0.72461464813E+02  0.69999862591E+02 0.  0.
        -12    1    1    2    0    0  0.77340857221E+01  0.16610391970E+02 -0.38680636933E+01  0.18726535187E+02  0.00000000000E+00 0.  1.
         11    1    3    3    0    0  0.15898696976E+01  0.15848021085E+02 -0.10530575256E+02  0.19093990506E+02  0.51100000000E-03 0. -1.
        -11    1    3    3    0    0 -0.62866612913E+01 -0.15603115717E+02 -0.12860307445E+02  0.21174674452E+02  0.51100000000E-03 0.  1.
        -12    1    3    3    0    0 -0.30372941284E+01 -0.16855297338E+02  0.27258946395E+02  0.32192799855E+02  0.00000000000E+00 0.  1.
</event>
<event>
 7    1  0.1788006E-013  0.7246146E+02  0.7816164E-02  0.1226708E+00
        -11   -1    0    0    0    0  0.00000000000E+00  0.00000000000E+00  0.45593999997E+02  0.45594000000E+02  0.51100000000E-03 0.  1.
         11   -1    0    0    0    0 -0.00000000000E+00 -0.00000000000E+00 -0.45593999997E+02  0.45594000000E+02  0.51100000000E-03 0. -1.
    9900012    2    1    2    0    0 -0.18315654250E+02  0.12078523074E+01 -0.37095849980E+01  0.72461464852E+02  0.69999862641E+02 0.  0.
        -12    1    1    2    0    0  0.18315654250E+02 -0.12078523074E+01  0.37095849980E+01  0.18726535148E+02  0.00000000000E+00 0.  1.
         11    1    3    3    0    0 -0.48134604070E+01 -0.17513268414E+02 -0.13583818636E+02  0.22680478404E+02  0.51100000000E-03 0. -1.
        -11    1    3    3    0    0 -0.17401529372E+02 -0.95865440665E+01  0.11363835458E+01  0.19899910036E+02  0.51100000000E-03 0.  1.
         12    1    3    3    0    0  0.38993355288E+01  0.28307664788E+02  0.87378500921E+01  0.29881076412E+02  0.00000000000E+00 0. -1.
</event>
<event>
 7    1  0.1788006E-013  0.7246151E+02  0.7816164E-02  0.1226708E+00
        -11   -1    0    0    0    0  0.00000000000E+00  0.00000000000E+00  0.45593999997E+02  0.45594000000E+02  0.51100000000E-03 0.  1.
         11   -1    0    0    0    0 -0.00000000000E+00 -0.00000000000E+00 -0.45593999997E+02  0.45594000000E+02  0.51100000000E-03 0. -1.
    9900012    2    1    2    0    0  0.14946340719E+02  0.26099141621E+01 -0.10976193690E+02  0.72461505914E+02  0.69999916133E+02 0.  0.
        -12    1    1    2    0    0 -0.14946340719E+02 -0.26099141621E+01  0.10976193690E+02  0.18726494086E+02  0.00000000000E+00 0.  1.
         11    1    3    3    0    0 -0.96425960191E+01 -0.62267484265E+01 -0.15759600922E+02  0.19496591380E+02  0.51100000000E-03 0. -1.
        -11    1    3    3    0    0  0.63881721062E+01 -0.15722458792E+02  0.12923696130E+02  0.21331347244E+02  0.51100000000E-03 0.  1.
         12    1    3    3    0    0  0.18200764632E+02  0.24559121381E+02 -0.81402888986E+01  0.31633567290E+02  0.00000000000E+00 0. -1.
</event>
<event>
 7    1  0.1788006E-013  0.7246191E+02  0.7816164E-02  0.1226707E+00
        -11   -1    0    0    0    0  0.00000000000E+00  0.00000000000E+00  0.45593999997E+02  0.45594000000E+02  0.51100000000E-03 0.  1.
         11   -1    0    0    0    0 -0.00000000000E+00 -0.00000000000E+00 -0.45593999997E+02  0.45594000000E+02  0.51100000000E-03 0. -1.
    9900012    2    1    2    0    0 -0.10398193836E+02  0.15433535108E+02 -0.20856469428E+01  0.72461912204E+02  0.70000445399E+02 0.  0.
        -12    1    1    2    0    0  0.10398193836E+02 -0.15433535108E+02  0.20856469428E+01  0.18726087796E+02  0.00000000000E+00 0.  1.
         11    1    3    3    0    0 -0.32896647907E+01  0.64406834725E+01  0.54857526774E+01  0.90773223324E+01  0.51100000000E-03 0. -1.
        -11    1    3    3    0    0  0.44291883074E+01  0.34511345364E+02 -0.21630976089E+01  0.34861578556E+02  0.51100000000E-03 0.  1.
         12    1    3    3    0    0 -0.11537717353E+02 -0.25518493728E+02 -0.54083020112E+01  0.28523011316E+02  0.00000000000E+00 0. -1.
</event>
<event>
 7    1  0.1788006E-013  0.7246138E+02  0.7816164E-02  0.1226709E+00
        -11   -1    0    0    0    0  0.00000000000E+00  0.00000000000E+00  0.45593999997E+02  0.45594000000E+02  0.51100000000E-03 0.  1.
         11   -1    0    0    0    0 -0.00000000000E+00 -0.00000000000E+00 -0.45593999997E+02  0.45594000000E+02  0.51100000000E-03 0. -1.
    9900012    2    1    2    0    0 -0.17376487433E+02 -0.63241805298E+00  0.69529919114E+01  0.72461378184E+02  0.69999749741E+02 0.  0.
        -12    1    1    2    0    0  0.17376487433E+02  0.63241805298E+00 -0.69529919114E+01  0.18726621816E+02  0.00000000000E+00 0.  1.
         11    1    3    3    0    0  0.21165176118E+02 -0.12326972252E+02 -0.22274995047E+01  0.24594322095E+02  0.51100000000E-03 0. -1.
        -11    1    3    3    0    0 -0.98352084690E+01  0.59695471622E+01 -0.79187827690E+01  0.13966887261E+02  0.51100000000E-03 0.  1.
         12    1    3    3    0    0 -0.28706455082E+02  0.57250070368E+01  0.17099274185E+02  0.33900168829E+02  0.00000000000E+00 0. -1.
</event>
<event>
 7    1  0.1788006E-013  0.7246157E+02  0.7816164E-02  0.1226708E+00
        -11   -1    0    0    0    0  0.00000000000E+00  0.00000000000E+00  0.45593999997E+02  0.45594000000E+02  0.51100000000E-03 0. -1.
         11   -1    0    0    0    0 -0.00000000000E+00 -0.00000000000E+00 -0.45593999997E+02  0.45594000000E+02  0.51100000000E-03 0.  1.
    9900012    2    1    2    0    0 -0.16164765746E+02  0.28000055041E+01 -0.90299142845E+01  0.72461573901E+02  0.70000004698E+02 0.  0.
        -12    1    1    2    0    0  0.16164765746E+02 -0.28000055041E+01  0.90299142845E+01  0.18726426099E+02  0.00000000000E+00 0.  1.
         11    1    3    3    0    0 -0.10988417097E+02 -0.15121744963E+02 -0.23864367703E+02  0.30313701971E+02  0.51100000000E-03 0. -1.
        -11    1    3    3    0    0  0.28640220907E+01  0.11896510796E+02 -0.97136184244E+01  0.15623187089E+02  0.51100000000E-03 0.  1.
        -12    1    3    3    0    0 -0.80403707400E+01  0.60252396709E+01  0.24548071843E+02  0.26524684842E+02  0.00000000000E+00 0.  1.
</event>
<event>
 7    1  0.1788006E-013  0.7246095E+02  0.7816164E-02  0.1226710E+00
        -11   -1    0    0    0    0  0.00000000000E+00  0.00000000000E+00  0.45593999997E+02  0.45594000000E+02  0.51100000000E-03 0. -1.
         11   -1    0    0    0    0 -0.00000000000E+00 -0.00000000000E+00 -0.45593999997E+02  0.45594000000E+02  0.51100000000E-03 0.  1.
    9900012    2    1    2    0    0  0.33463539591E+01  0.83993818417E+01  0.16399840572E+02  0.72460948151E+02  0.69999189539E+02 0.  0.
        -12    1    1    2    0    0 -0.33463539591E+01 -0.83993818417E+01 -0.16399840572E+02  0.18727051849E+02  0.00000000000E+00 0.  1.
         11    1    3    3    0    0 -0.29900155916E+02 -0.56092768864E+01  0.18928253541E+02  0.35829625918E+02  0.51100000000E-03 0. -1.
        -11    1    3    3    0    0  0.43548479747E+01  0.35068905807E+01 -0.18268846024E+01  0.58822181224E+01  0.51100000000E-03 0.  1.
        -12    1    3    3    0    0  0.28891661901E+02  0.10501768147E+02 -0.70152836652E+00  0.30749104111E+02  0.00000000000E+00 0.  1.
</event>
<event>
 7    1  0.1788006E-013  0.7246147E+02  0.7816164E-02  0.1226708E+00
        -11   -1    0    0    0    0  0.00000000000E+00  0.00000000000E+00  0.45593999997E+02  0.45594000000E+02  0.51100000000E-03 0. -1.
         11   -1    0    0    0    0 -0.00000000000E+00 -0.00000000000E+00 -0.45593999997E+02  0.45594000000E+02  0.51100000000E-03 0.  1.
    9900012    2    1    2    0    0 -0.26587473546E+01 -0.17340752421E+02  0.65507537551E+01  0.72461467839E+02  0.69999866532E+02 0.  0.
        -12    1    1    2    0    0  0.26587473546E+01  0.17340752421E+02 -0.65507537551E+01  0.18726532161E+02  0.00000000000E+00 0.  1.
         11    1    3    3    0    0  0.20812417399E+01  0.32108246937E+01 -0.82183615903E+01  0.90654525471E+01  0.51100000000E-03 0. -1.
        -11    1    3    3    0    0 -0.29004775937E+02 -0.12522237266E+02  0.19885978797E+02  0.37330089824E+02  0.51100000000E-03 0.  1.
        -12    1    3    3    0    0  0.24264786842E+02 -0.80293398485E+01 -0.51168634519E+01  0.26065925468E+02  0.00000000000E+00 0.  1.
</event>
<event>
 7    1  0.1788006E-013  0.7246156E+02  0.7816164E-02  0.1226708E+00
        -11   -1    0    0    0    0  0.00000000000E+00  0.00000000000E+00  0.45593999997E+02  0.45594000000E+02  0.51100000000E-03 0.  1.
         11   -1    0    0    0    0 -0.00000000000E+00 -0.00000000000E+00 -0.45593999997E+02  0.45594000000E+02  0.51100000000E-03 0. -1.
    9900012    2    1    2    0    0  0.68158096522E+01 -0.17268418600E+02 -0.24548035247E+01  0.72461558734E+02  0.69999984940E+02 0.  0.
        -12    1    1    2    0    0 -0.68158096522E+01  0.17268418600E+02  0.24548035247E+01  0.18726441266E+02  0.00000000000E+00 0.  1.
         11    1    3    3    0    0  0.44227335711E+01 -0.13285323685E+02 -0.22226098034E+02  0.26268989926E+02  0.51100000000E-03 0. -1.
        -11    1    3    3    0    0  0.44352709284E+01 -0.88183566706E+01 -0.11113912693E+02  0.14864524822E+02  0.51100000000E-03 0.  1.
        -12    1    3    3    0    0 -0.20421948472E+01  0.48352617557E+01  0.30885207202E+02  0.31328043986E+02  0.00000000000E+00 0.  1.
</event>
<event>
 7    1  0.1788006E-013  0.7246158E+02  0.7816164E-02  0.1226708E+00
        -11   -1    0    0    0    0  0.00000000000E+00  0.00000000000E+00  0.45593999997E+02  0.45594000000E+02  0.51100000000E-03 0.  1.
         11   -1    0    0    0    0 -0.00000000000E+00 -0.00000000000E+00 -0.45593999997E+02  0.45594000000E+02  0.51100000000E-03 0. -1.
    9900012    2    1    2    0    0  0.17449716454E+02  0.41564931469E+00 -0.67833158452E+01  0.72461581695E+02  0.70000014851E+02 0.  0.
        -12    1    1    2    0    0 -0.17449716454E+02 -0.41564931469E+00  0.67833158452E+01  0.18726418305E+02  0.00000000000E+00 0.  1.
         11    1    3    3    0    0  0.62194656839E+01 -0.21197529659E+01 -0.59881797246E+01  0.88900732677E+01  0.51100000000E-03 0. -1.
        -11    1    3    3    0    0 -0.58399707825E+01 -0.17030362537E+02  0.22411082391E+02  0.28747088915E+02  0.51100000000E-03 0.  1.
         12    1    3    3    0    0  0.17070221553E+02  0.19565764818E+02 -0.23206218511E+02  0.34824419512E+02  0.00000000000E+00 0. -1.
</event>
<event>
 7    1  0.1788006E-013  0.7246157E+02  0.7816164E-02  0.1226708E+00
        -11   -1    0    0    0    0  0.00000000000E+00  0.00000000000E+00  0.45593999997E+02  0.45594000000E+02  0.51100000000E-03 0.  1.
         11   -1    0    0    0    0 -0.00000000000E+00 -0.00000000000E+00 -0.45593999997E+02  0.45594000000E+02  0.51100000000E-03 0. -1.
    9900012    2    1    2    0    0 -0.14751432581E+02  0.47258617157E+01 -0.10523340256E+02  0.72461568885E+02  0.69999998165E+02 0.  0.
        -12    1    1    2    0    0  0.14751432581E+02 -0.47258617157E+01  0.10523340256E+02  0.18726431115E+02  0.00000000000E+00 0.  1.
         11    1    3    3    0    0 -0.80208772017E+01  0.17213803491E+02 -0.45977824771E+00  0.18996339069E+02  0.51100000000E-03 0. -1.
        -11    1    3    3    0    0 -0.73853897403E+01  0.69530367106E+01  0.17203290033E+02  0.19971026247E+02  0.51100000000E-03 0.  1.
        -12    1    3    3    0    0  0.65483436136E+00 -0.19440978486E+02 -0.27266852042E+02  0.33494203570E+02  0.00000000000E+00 0.  1.
</event>
<event>
 7    1  0.1788006E-013  0.7246151E+02  0.7816164E-02  0.1226708E+00
        -11   -1    0    0    0    0  0.00000000000E+00  0.00000000000E+00  0.45593999997E+02  0.45594000000E+02  0.51100000000E-03 0.  1.
         11   -1    0    0    0    0 -0.00000000000E+00 -0.00000000000E+00 -0.45593999997E+02  0.45594000000E+02  0.51100000000E-03 0. -1.
    9900012    2    1    2    0    0 -0.96773928354E+01 -0.12572012062E+02  0.99485676736E+01  0.72461510256E+02  0.69999921789E+02 0.  0.
        -12    1    1    2    0    0  0.96773928354E+01  0.12572012062E+02 -0.99485676736E+01  0.18726489744E+02  0.00000000000E+00 0.  1.
         11    1    3    3    0    0  0.78872091296E+01 -0.22929487319E+02  0.71393734408E+01  0.25277264685E+02  0.51100000000E-03 0. -1.
        -11    1    3    3    0    0 -0.11766252248E+02  0.52943145947E+01  0.22558528166E+02  0.25987721183E+02  0.51100000000E-03 0.  1.
        -12    1    3    3    0    0 -0.57983497170E+01  0.50631606623E+01 -0.19749333933E+02  0.21196524388E+02  0.00000000000E+00 0.  1.
</event>
<event>
 7    1  0.1788006E-013  0.7246146E+02  0.7816164E-02  0.1226708E+00
        -11   -1    0    0    0    0  0.00000000000E+00  0.00000000000E+00  0.45593999997E+02  0.45594000000E+02  0.51100000000E-03 0.  1.
         11   -1    0    0    0    0 -0.00000000000E+00 -0.00000000000E+00 -0.45593999997E+02  0.45594000000E+02  0.51100000000E-03 0. -1.
    9900012    2    1    2    0    0  0.52768367250E+00  0.15825237673E+02 -0.99983396756E+01  0.72461457507E+02  0.69999853073E+02 0.  0.
        -12    1    1    2    0    0 -0.52768367250E+00 -0.15825237673E+02  0.99983396756E+01  0.18726542493E+02  0.00000000000E+00 0.  1.
         11    1    3    3    0    0 -0.41927539221E+01  0.18527286779E+02 -0.25999281646E+02  0.32199412839E+02  0.51100000000E-03 0. -1.
        -11    1    3    3    0    0 -0.43220624989E+00  0.14908641716E+02 -0.13918797215E+01  0.14979710594E+02  0.51100000000E-03 0.  1.
        -12    1    3    3    0    0  0.51526438445E+01 -0.17610690822E+02  0.17392821691E+02  0.25282334073E+02  0.00000000000E+00 0.  1.
</event>
<event>
 7    1  0.1788006E-013  0.7246154E+02  0.7816164E-02  0.1226708E+00
        -11   -1    0    0    0    0  0.00000000000E+00  0.00000000000E+00  0.45593999997E+02  0.45594000000E+02  0.51100000000E-03 0. -1.
         11   -1    0    0    0    0 -0.00000000000E+00 -0.00000000000E+00 -0.45593999997E+02  0.45594000000E+02  0.51100000000E-03 0.  1.
    9900012    2    1    2    0    0  0.14495354285E+02 -0.81915238737E-01  0.11855725685E+02  0.72461541779E+02  0.69999962854E+02 0.  0.
        -12    1    1    2    0    0 -0.14495354285E+02  0.81915238737E-01 -0.11855725685E+02  0.18726458221E+02  0.00000000000E+00 0.  1.
         11    1    3    3    0    0 -0.60337861995E+01  0.11527698329E+02  0.23624010547E+02  0.26970136805E+02  0.51100000000E-03 0. -1.
        -11    1    3    3    0    0  0.11323809064E+02  0.87027585067E+01 -0.17380139914E+02  0.22495242186E+02  0.51100000000E-03 0.  1.
         12    1    3    3    0    0  0.92053314213E+01 -0.20312372074E+02  0.56118550522E+01  0.22996162788E+02  0.00000000000E+00 0. -1.
</event>
<event>
 7    1  0.1788006E-013  0.7246111E+02  0.7816164E-02  0.1226709E+00
        -11   -1    0    0    0    0  0.00000000000E+00  0.00000000000E+00  0.45593999997E+02  0.45594000000E+02  0.51100000000E-03 0. -1.
         11   -1    0    0    0    0 -0.00000000000E+00 -0.00000000000E+00 -0.45593999997E+02  0.45594000000E+02  0.51100000000E-03 0.  1.
    9900012    2    1    2    0    0  0.16302222749E+02 -0.75961900654E+01  0.52184271766E+01  0.72461106177E+02  0.69999395399E+02 0.  0.
        -12    1    1    2    0    0 -0.16302222749E+02  0.75961900654E+01 -0.52184271766E+01  0.18726893823E+02  0.00000000000E+00 0.  1.
         11    1    3    3    0    0 -0.24121987667E+00  0.16204723774E+02  0.19215059684E+02  0.25137020081E+02  0.51100000000E-03 0. -1.
        -11    1    3    3    0    0 -0.79828332313E+01 -0.85580491319E+01 -0.14257780704E+02  0.18445870600E+02  0.51100000000E-03 0.  1.
        -12    1    3    3    0    0  0.24526275857E+02 -0.15242864707E+02  0.26114819578E+00  0.28878215496E+02  0.00000000000E+00 0.  1.
</event>
<event>
 7    1  0.1788006E-013  0.7246160E+02  0.7816164E-02  0.1226708E+00
        -11   -1    0    0    0    0  0.00000000000E+00  0.00000000000E+00  0.45593999997E+02  0.45594000000E+02  0.51100000000E-03 0. -1.
         11   -1    0    0    0    0 -0.00000000000E+00 -0.00000000000E+00 -0.45593999997E+02  0.45594000000E+02  0.51100000000E-03 0.  1.
    9900012    2    1    2    0    0 -0.81601971227E+00 -0.11747944606E+02  0.14560148449E+02  0.72461601161E+02  0.70000040209E+02 0.  0.
        -12    1    1    2    0    0  0.81601971227E+00  0.11747944606E+02 -0.14560148449E+02  0.18726398839E+02  0.00000000000E+00 0.  1.
         11    1    3    3    0    0 -0.78856449827E+01 -0.89810715334E+01  0.16960965126E+02  0.20748912765E+02  0.51100000000E-03 0. -1.
        -11    1    3    3    0    0 -0.14183130914E+02  0.16567220409E+02  0.42557258234E+01  0.22220377970E+02  0.51100000000E-03 0.  1.
         12    1    3    3    0    0  0.21252756184E+02 -0.19334093482E+02 -0.66565425002E+01  0.29492310425E+02  0.00000000000E+00 0. -1.
</event>
<event>
 7    1  0.1788006E-013  0.7246160E+02  0.7816164E-02  0.1226708E+00
        -11   -1    0    0    0    0  0.00000000000E+00  0.00000000000E+00  0.45593999997E+02  0.45594000000E+02  0.51100000000E-03 0.  1.
         11   -1    0    0    0    0 -0.00000000000E+00 -0.00000000000E+00 -0.45593999997E+02  0.45594000000E+02  0.51100000000E-03 0. -1.
    9900012    2    1    2    0    0  0.12510392197E+02  0.13514151546E+02 -0.33964211366E+01  0.72461604686E+02  0.70000044801E+02 0.  0.
        -12    1    1    2    0    0 -0.12510392197E+02 -0.13514151546E+02  0.33964211366E+01  0.18726395314E+02  0.00000000000E+00 0.  1.
         11    1    3    3    0    0  0.21602733542E+01 -0.25722018050E+01  0.43512469748E+01  0.54969403842E+01  0.51100000000E-03 0. -1.
        -11    1    3    3    0    0 -0.25338634619E+02  0.87307239965E+01 -0.13608164346E+02  0.30057512921E+02  0.51100000000E-03 0.  1.
         12    1    3    3    0    0  0.35688753462E+02  0.73556293544E+01  0.58604962345E+01  0.36907151380E+02  0.00000000000E+00 0. -1.
</event>
<event>
 7    1  0.1788006E-013  0.7246131E+02  0.7816164E-02  0.1226709E+00
        -11   -1    0    0    0    0  0.00000000000E+00  0.00000000000E+00  0.45593999997E+02  0.45594000000E+02  0.51100000000E-03 0.  1.
         11   -1    0    0    0    0 -0.00000000000E+00 -0.00000000000E+00 -0.45593999997E+02  0.45594000000E+02  0.51100000000E-03 0. -1.
    9900012    2    1    2    0    0 -0.93604507430E+01  0.30142643004E+01 -0.15936915450E+02  0.72461305111E+02  0.69999654549E+02 0.  0.
        -12    1    1    2    0    0  0.93604507430E+01 -0.30142643004E+01  0.15936915450E+02  0.18726694889E+02  0.00000000000E+00 0.  1.
         11    1    3    3    0    0 -0.16052935371E+01  0.62386374221E+01 -0.16950011825E+02  0.18132855962E+02  0.51100000000E-03 0. -1.
        -11    1    3    3    0    0  0.20720263088E+02  0.11726777508E+01  0.11426957948E+02  0.23691345334E+02  0.51100000000E-03 0.  1.
         12    1    3    3    0    0 -0.28475420294E+02 -0.43970508725E+01 -0.10413861574E+02  0.30637103815E+02  0.00000000000E+00 0. -1.
</event>
<event>
 7    1  0.1788006E-013  0.7246155E+02  0.7816164E-02  0.1226708E+00
        -11   -1    0    0    0    0  0.00000000000E+00  0.00000000000E+00  0.45593999997E+02  0.45594000000E+02  0.51100000000E-03 0.  1.
         11   -1    0    0    0    0 -0.00000000000E+00 -0.00000000000E+00 -0.45593999997E+02  0.45594000000E+02  0.51100000000E-03 0. -1.
    9900012    2    1    2    0    0 -0.12425234244E+02  0.63730493927E+01 -0.12477081324E+02  0.72461554450E+02  0.69999979359E+02 0.  0.
        -12    1    1    2    0    0  0.12425234244E+02 -0.63730493927E+01  0.12477081324E+02  0.18726445550E+02  0.00000000000E+00 0.  1.
         11    1    3    3    0    0 -0.29196658353E+01  0.48851523816E+01 -0.38907172702E+02  0.39321206114E+02  0.51100000000E-03 0. -1.
        -11    1    3    3    0    0  0.13586470677E+01  0.70471427800E+01  0.13933262413E+02  0.15673032411E+02  0.51100000000E-03 0.  1.
        -12    1    3    3    0    0 -0.10864215476E+02 -0.55592457689E+01  0.12496828965E+02  0.17467315925E+02  0.00000000000E+00 0.  1.
</event>
<event>
 7    1  0.1788006E-013  0.7246148E+02  0.7816164E-02  0.1226708E+00
        -11   -1    0    0    0    0  0.00000000000E+00  0.00000000000E+00  0.45593999997E+02  0.45594000000E+02  0.51100000000E-03 0. -1.
         11   -1    0    0    0    0 -0.00000000000E+00 -0.00000000000E+00 -0.45593999997E+02  0.45594000000E+02  0.51100000000E-03 0.  1.
    9900012    2    1    2    0    0 -0.16488440828E+02 -0.59682798515E+01  0.65721661981E+01  0.72461483670E+02  0.69999887155E+02 0.  0.
        -12    1    1    2    0    0  0.16488440828E+02  0.59682798515E+01 -0.65721661981E+01  0.18726516330E+02  0.00000000000E+00 0.  1.
         11    1    3    3    0    0  0.28650551351E+01  0.36856627440E+01  0.11805452403E+02  0.12694934324E+02  0.51100000000E-03 0. -1.
        -11    1    3    3    0    0  0.17197180960E+02  0.71714528596E+01 -0.58344426093E+01  0.19524689239E+02  0.51100000000E-03 0.  1.
        -12    1    3    3    0    0 -0.36550676923E+02 -0.16825395455E+02  0.60115640442E+00  0.40241860106E+02  0.00000000000E+00 0.  1.
</event>
<event>
 7    1  0.1788006E-013  0.7246157E+02  0.7816164E-02  0.1226708E+00
        -11   -1    0    0    0    0  0.00000000000E+00  0.00000000000E+00  0.45593999997E+02  0.45594000000E+02  0.51100000000E-03 0.  1.
         11   -1    0    0    0    0 -0.00000000000E+00 -0.00000000000E+00 -0.45593999997E+02  0.45594000000E+02  0.51100000000E-03 0. -1.
    9900012    2    1    2    0    0  0.18381830220E+02 -0.24758563179E+01 -0.25802543937E+01  0.72461567893E+02  0.69999996872E+02 0.  0.
        -12    1    1    2    0    0 -0.18381830220E+02  0.24758563179E+01  0.25802543937E+01  0.18726432107E+02  0.00000000000E+00 0.  1.
         11    1    3    3    0    0 -0.43034012163E+01  0.19993932593E+01 -0.55316736095E+01  0.72880895039E+01  0.51100000000E-03 0. -1.
        -11    1    3    3    0    0  0.29052607338E+02  0.22304153872E+02  0.71816743786E+01  0.37324331477E+02  0.51100000000E-03 0.  1.
         12    1    3    3    0    0 -0.63673759022E+01 -0.26779403449E+02 -0.42302551627E+01  0.27849146912E+02  0.00000000000E+00 0. -1.
</event>
<event>
 7    1  0.1788006E-013  0.7246161E+02  0.7816164E-02  0.1226708E+00
        -11   -1    0    0    0    0  0.00000000000E+00  0.00000000000E+00  0.45593999997E+02  0.45594000000E+02  0.51100000000E-03 0.  1.
         11   -1    0    0    0    0 -0.00000000000E+00 -0.00000000000E+00 -0.45593999997E+02  0.45594000000E+02  0.51100000000E-03 0. -1.
    9900012    2    1    2    0    0  0.95391528091E+01  0.14436906125E+02 -0.71594716050E+01  0.72461608772E+02  0.70000050124E+02 0.  0.
        -12    1    1    2    0    0 -0.95391528091E+01 -0.14436906125E+02  0.71594716050E+01  0.18726391228E+02  0.00000000000E+00 0.  1.
         11    1    3    3    0    0  0.13087875806E+01  0.31134278001E+02  0.92590356647E+01  0.32508244082E+02  0.51100000000E-03 0. -1.
        -11    1    3    3    0    0 -0.65230534971E+01  0.52741491666E+01  0.72642849896E+00  0.84198916254E+01  0.51100000000E-03 0.  1.
        -12    1    3    3    0    0  0.14753418726E+02 -0.21971521043E+02 -0.17144935769E+02  0.31533473065E+02  0.00000000000E+00 0.  1.
</event>
<event>
 7    1  0.1788006E-013  0.7246159E+02  0.7816164E-02  0.1226708E+00
        -11   -1    0    0    0    0  0.00000000000E+00  0.00000000000E+00  0.45593999997E+02  0.45594000000E+02  0.51100000000E-03 0.  1.
         11   -1    0    0    0    0 -0.00000000000E+00 -0.00000000000E+00 -0.45593999997E+02  0.45594000000E+02  0.51100000000E-03 0. -1.
    9900012    2    1    2    0    0  0.27958795137E+01  0.18553325042E+00 -0.18515587544E+02  0.72461592258E+02  0.70000028611E+02 0.  0.
        -12    1    1    2    0    0 -0.27958795137E+01 -0.18553325042E+00  0.18515587544E+02  0.18726407742E+02  0.00000000000E+00 0.  1.
         11    1    3    3    0    0  0.11722045886E+02  0.92200958891E+01 -0.22109832624E+02  0.26669481189E+02  0.51100000000E-03 0. -1.
        -11    1    3    3    0    0 -0.15682083965E+00  0.68619633910E+01  0.20109867205E+02  0.21248950412E+02  0.51100000000E-03 0.  1.
         12    1    3    3    0    0 -0.87693455328E+01 -0.15896526030E+02 -0.16515622124E+02  0.24543160657E+02  0.00000000000E+00 0. -1.
</event>
<event>
 7    1  0.1788006E-013  0.7246156E+02  0.7816164E-02  0.1226708E+00
        -11   -1    0    0    0    0  0.00000000000E+00  0.00000000000E+00  0.45593999997E+02  0.45594000000E+02  0.51100000000E-03 0.  1.
         11   -1    0    0    0    0 -0.00000000000E+00 -0.00000000000E+00 -0.45593999997E+02  0.45594000000E+02  0.51100000000E-03 0. -1.
    9900012    2    1    2    0    0 -0.18539505428E+02 -0.10906992278E+01  0.24035073329E+01  0.72461555228E+02  0.69999980373E+02 0.  0.
        -12    1    1    2    0    0  0.18539505428E+02  0.10906992278E+01 -0.24035073329E+01  0.18726444772E+02  0.00000000000E+00 0.  1.
         11    1    3    3    0    0  0.14074846249E+01  0.15601157438E+02  0.13576441712E+02  0.20729131583E+02  0.51100000000E-03 0. -1.
        -11    1    3    3    0    0  0.60302498089E+01 -0.93677823146E+01  0.11844290130E+02  0.16260580162E+02  0.51100000000E-03 0.  1.
         12    1    3    3    0    0 -0.25977239862E+02 -0.73240743512E+01 -0.23017224509E+02  0.35471843482E+02  0.00000000000E+00 0. -1.
</event>
<event>
 7    1  0.1788006E-013  0.7246164E+02  0.7816164E-02  0.1226708E+00
        -11   -1    0    0    0    0  0.00000000000E+00  0.00000000000E+00  0.45593999997E+02  0.45594000000E+02  0.51100000000E-03 0. -1.
         11   -1    0    0    0    0 -0.00000000000E+00 -0.00000000000E+00 -0.45593999997E+02  0.45594000000E+02  0.51100000000E-03 0.  1.
    9900012    2    1    2    0    0 -0.47132596942E+00  0.18158241898E+02  0.45533038733E+01  0.72461642288E+02  0.70000093785E+02 0.  0.
        -12    1    1    2    0    0  0.47132596942E+00 -0.18158241898E+02 -0.45533038733E+01  0.18726357712E+02  0.00000000000E+00 0.  1.
         11    1    3    3    0    0  0.33078388305E+01  0.30811047104E+01 -0.20845995488E+02  0.21330507076E+02  0.51100000000E-03 0. -1.
        -11    1    3    3    0    0 -0.19796203022E+02  0.71818451136E+01  0.12487929493E+01  0.21095687649E+02  0.51100000000E-03 0.  1.
         12    1    3    3    0    0  0.16017038222E+02  0.78952920737E+01  0.24150506412E+02  0.30035447563E+02  0.00000000000E+00 0. -1.
</event>
<event>
 7    1  0.1788006E-013  0.7246155E+02  0.7816164E-02  0.1226708E+00
        -11   -1    0    0    0    0  0.00000000000E+00  0.00000000000E+00  0.45593999997E+02  0.45594000000E+02  0.51100000000E-03 0. -1.
         11   -1    0    0    0    0 -0.00000000000E+00 -0.00000000000E+00 -0.45593999997E+02  0.45594000000E+02  0.51100000000E-03 0.  1.
    9900012    2    1    2    0    0  0.58438769977E+01  0.11378940985E+02 -0.13676572756E+02  0.72461552428E+02  0.69999976726E+02 0.  0.
        -12    1    1    2    0    0 -0.58438769977E+01 -0.11378940985E+02  0.13676572756E+02  0.18726447572E+02  0.00000000000E+00 0.  1.
         11    1    3    3    0    0 -0.80359682436E+01 -0.51249391766E-01 -0.68191525177E+01  0.10539461724E+02  0.51100000000E-03 0. -1.
        -11    1    3    3    0    0  0.11008439727E+01 -0.17393890295E+02 -0.21063929421E+02  0.27339502555E+02  0.51100000000E-03 0.  1.
         12    1    3    3    0    0  0.12779001269E+02  0.28824080671E+02  0.14206509182E+02  0.34582588149E+02  0.00000000000E+00 0. -1.
</event>
<event>
 7    1  0.1788006E-013  0.7246158E+02  0.7816164E-02  0.1226708E+00
        -11   -1    0    0    0    0  0.00000000000E+00  0.00000000000E+00  0.45593999997E+02  0.45594000000E+02  0.51100000000E-03 0. -1.
         11   -1    0    0    0    0 -0.00000000000E+00 -0.00000000000E+00 -0.45593999997E+02  0.45594000000E+02  0.51100000000E-03 0.  1.
    9900012    2    1    2    0    0  0.30437848716E+01  0.13286852854E+02  0.12840309393E+02  0.72461584689E+02  0.70000018751E+02 0.  0.
        -12    1    1    2    0    0 -0.30437848716E+01 -0.13286852854E+02 -0.12840309393E+02  0.18726415311E+02  0.00000000000E+00 0.  1.
         11    1    3    3    0    0  0.89375376344E+01  0.83310402000E+01 -0.84379390806E+01  0.14848724725E+02  0.51100000000E-03 0. -1.
        -11    1    3    3    0    0 -0.32894260861E+00  0.11322707912E+02 -0.15879181744E+02  0.19505392353E+02  0.51100000000E-03 0.  1.
         12    1    3    3    0    0 -0.55648101541E+01 -0.63668952585E+01  0.37157430218E+02  0.38107467611E+02  0.00000000000E+00 0. -1.
</event>
<event>
 7    1  0.2188069E-013  0.7246221E+02  0.7816164E-02  0.1226706E+00
        -11   -1    0    0    0    0  0.00000000000E+00  0.00000000000E+00  0.45593999997E+02  0.45594000000E+02  0.51100000000E-03 0. -1.
         11   -1    0    0    0    0 -0.00000000000E+00 -0.00000000000E+00 -0.45593999997E+02  0.45594000000E+02  0.51100000000E-03 0.  1.
    9900012    2    1    2    0    0 -0.52966225662E+01  0.10987847489E+02  0.14208030442E+02  0.72462212110E+02  0.70000836079E+02 0.  0.
        -12    1    1    2    0    0  0.52966225662E+01 -0.10987847489E+02 -0.14208030442E+02  0.18725787890E+02  0.00000000000E+00 0.  1.
         11    1    3    3    0    0 -0.56376989364E+01  0.23937736490E+01 -0.18905658647E+01  0.64099954079E+01  0.51100000000E-03 0. -1.
        -11    1    3    3    0    0 -0.49217307224E+01 -0.10424654013E+02 -0.21042994179E+02  0.23993841895E+02  0.51100000000E-03 0.  1.
         12    1    3    3    0    0  0.52628070926E+01  0.19018727853E+02  0.37141590486E+02  0.42058374808E+02  0.00000000000E+00 0. -1.
</event>
<event>
 7    1  0.1788006E-013  0.7246156E+02  0.7816164E-02  0.1226708E+00
        -11   -1    0    0    0    0  0.00000000000E+00  0.00000000000E+00  0.45593999997E+02  0.45594000000E+02  0.51100000000E-03 0.  1.
         11   -1    0    0    0    0 -0.00000000000E+00 -0.00000000000E+00 -0.45593999997E+02  0.45594000000E+02  0.51100000000E-03 0. -1.
    9900012    2    1    2    0    0 -0.13861856218E+02  0.93294522277E+01 -0.84551662698E+01  0.72461559513E+02  0.69999985955E+02 0.  0.
        -12    1    1    2    0    0  0.13861856218E+02 -0.93294522277E+01  0.84551662698E+01  0.18726440487E+02  0.00000000000E+00 0.  1.
         11    1    3    3    0    0 -0.14871525316E+02 -0.75624840309E+00 -0.83596035695E+01  0.17076801486E+02  0.51100000000E-03 0. -1.
        -11    1    3    3    0    0 -0.20528844129E+02  0.76400174004E+01  0.17040900920E+02  0.27752398303E+02  0.51100000000E-03 0.  1.
        -12    1    3    3    0    0  0.21538513228E+02  0.24456832304E+01 -0.17136463620E+02  0.27632359724E+02  0.00000000000E+00 0.  1.
</event>
<event>
 7    1  0.1788006E-013  0.7246151E+02  0.7816164E-02  0.1226708E+00
        -11   -1    0    0    0    0  0.00000000000E+00  0.00000000000E+00  0.45593999997E+02  0.45594000000E+02  0.51100000000E-03 0.  1.
         11   -1    0    0    0    0 -0.00000000000E+00 -0.00000000000E+00 -0.45593999997E+02  0.45594000000E+02  0.51100000000E-03 0. -1.
    9900012    2    1    2    0    0 -0.10710499063E+02  0.14625011120E+02 -0.46984712219E+01  0.72461511480E+02  0.69999923384E+02 0.  0.
        -12    1    1    2    0    0  0.10710499063E+02 -0.14625011120E+02  0.46984712219E+01  0.18726488520E+02  0.00000000000E+00 0.  1.
         11    1    3    3    0    0 -0.20200259504E+01  0.75212922685E+01  0.41380570102E+01  0.88189488211E+01  0.51100000000E-03 0. -1.
        -11    1    3    3    0    0  0.18400538488E+01 -0.25891066014E+02 -0.12510073176E+02  0.28813799275E+02  0.51100000000E-03 0.  1.
         12    1    3    3    0    0 -0.10530526962E+02  0.32994784866E+02  0.36735449442E+01  0.34828763384E+02  0.00000000000E+00 0. -1.
</event>
<event>
 7    1  0.1788006E-013  0.7246157E+02  0.7816164E-02  0.1226708E+00
        -11   -1    0    0    0    0  0.00000000000E+00  0.00000000000E+00  0.45593999997E+02  0.45594000000E+02  0.51100000000E-03 0. -1.
         11   -1    0    0    0    0 -0.00000000000E+00 -0.00000000000E+00 -0.45593999997E+02  0.45594000000E+02  0.51100000000E-03 0.  1.
    9900012    2    1    2    0    0 -0.12150132123E+02  0.59875019313E+01  0.12930707935E+02  0.72461572213E+02  0.70000002499E+02 0.  0.
        -12    1    1    2    0    0  0.12150132123E+02 -0.59875019313E+01 -0.12930707935E+02  0.18726427787E+02  0.00000000000E+00 0.  1.
         11    1    3    3    0    0 -0.89317694421E+00  0.25071091269E+01 -0.13792109499E+02  0.14046552813E+02  0.51100000000E-03 0. -1.
        -11    1    3    3    0    0  0.11005744738E+02  0.11784339934E+02 -0.66547846326E+01  0.17443716453E+02  0.51100000000E-03 0.  1.
         12    1    3    3    0    0 -0.22262699917E+02 -0.83039471295E+01  0.33377602066E+02  0.40971302947E+02  0.00000000000E+00 0. -1.
</event>
<event>
 7    1  0.1788006E-013  0.7246159E+02  0.7816164E-02  0.1226708E+00
        -11   -1    0    0    0    0  0.00000000000E+00  0.00000000000E+00  0.45593999997E+02  0.45594000000E+02  0.51100000000E-03 0.  1.
         11   -1    0    0    0    0 -0.00000000000E+00 -0.00000000000E+00 -0.45593999997E+02  0.45594000000E+02  0.51100000000E-03 0. -1.
    9900012    2    1    2    0    0 -0.46503357341E+01  0.77362640565E+01 -0.16407409728E+02  0.72461588225E+02  0.70000023358E+02 0.  0.
        -12    1    1    2    0    0  0.46503357341E+01 -0.77362640565E+01  0.16407409728E+02  0.18726411775E+02  0.00000000000E+00 0.  1.
         11    1    3    3    0    0 -0.12359037256E+02  0.62789472335E+01 -0.25341379278E+02  0.28885229517E+02  0.51100000000E-03 0. -1.
        -11    1    3    3    0    0 -0.39817611643E+01 -0.69831137268E+01 -0.14199586311E+02  0.16317063184E+02  0.51100000000E-03 0.  1.
        -12    1    3    3    0    0  0.11690462686E+02  0.84404305498E+01  0.23133555861E+02  0.27259295524E+02  0.00000000000E+00 0.  1.
</event>
<event>
 7    1  0.1788006E-013  0.7246157E+02  0.7816164E-02  0.1226708E+00
        -11   -1    0    0    0    0  0.00000000000E+00  0.00000000000E+00  0.45593999997E+02  0.45594000000E+02  0.51100000000E-03 0. -1.
         11   -1    0    0    0    0 -0.00000000000E+00 -0.00000000000E+00 -0.45593999997E+02  0.45594000000E+02  0.51100000000E-03 0.  1.
    9900012    2    1    2    0    0  0.54331324539E+01 -0.23725180026E+01  0.17763206208E+02  0.72461567753E+02  0.69999996689E+02 0.  0.
        -12    1    1    2    0    0 -0.54331324539E+01  0.23725180026E+01 -0.17763206208E+02  0.18726432247E+02  0.00000000000E+00 0.  1.
         11    1    3    3    0    0 -0.71028175067E+01  0.27824516560E+00  0.27059324153E+02  0.27977391958E+02  0.51100000000E-03 0. -1.
        -11    1    3    3    0    0  0.15981930965E+02  0.15408503847E+02  0.29480841087E+01  0.22394983999E+02  0.51100000000E-03 0.  1.
        -12    1    3    3    0    0 -0.34459810042E+01 -0.18059267015E+02 -0.12244202054E+02  0.22089191795E+02  0.00000000000E+00 0.  1.
</event>
<event>
 7    1  0.1788006E-013  0.7246151E+02  0.7816164E-02  0.1226708E+00
        -11   -1    0    0    0    0  0.00000000000E+00  0.00000000000E+00  0.45593999997E+02  0.45594000000E+02  0.51100000000E-03 0.  1.
         11   -1    0    0    0    0 -0.00000000000E+00 -0.00000000000E+00 -0.45593999997E+02  0.45594000000E+02  0.51100000000E-03 0. -1.
    9900012    2    1    2    0    0 -0.78269653825E+01  0.16931920625E+02  0.16522591342E+01  0.72461513853E+02  0.69999926475E+02 0.  0.
        -12    1    1    2    0    0  0.78269653825E+01 -0.16931920625E+02 -0.16522591342E+01  0.18726486147E+02  0.00000000000E+00 0.  1.
         11    1    3    3    0    0  0.14461277640E+01 -0.26148270763E+01 -0.25765113186E+01  0.39455059225E+01  0.51100000000E-03 0. -1.
        -11    1    3    3    0    0 -0.28700681129E+02 -0.27905652731E+01  0.19884599926E+02  0.35027327422E+02  0.51100000000E-03 0.  1.
         12    1    3    3    0    0  0.19427587983E+02  0.22337312975E+02 -0.15655829473E+02  0.33488680509E+02  0.00000000000E+00 0. -1.
</event>
<event>
 7    1  0.1788006E-013  0.7246172E+02  0.7816164E-02  0.1226708E+00
        -11   -1    0    0    0    0  0.00000000000E+00  0.00000000000E+00  0.45593999997E+02  0.45594000000E+02  0.51100000000E-03 0.  1.
         11   -1    0    0    0    0 -0.00000000000E+00 -0.00000000000E+00 -0.45593999997E+02  0.45594000000E+02  0.51100000000E-03 0. -1.
    9900012    2    1    2    0    0  0.91520720778E+01 -0.27259019163E+01 -0.16108469187E+02  0.72461715155E+02  0.70000188707E+02 0.  0.
        -12    1    1    2    0    0 -0.91520720778E+01  0.27259019163E+01  0.16108469187E+02  0.18726284845E+02  0.00000000000E+00 0.  1.
         11    1    3    3    0    0  0.14461597165E+02 -0.71789331861E+01 -0.37012885362E+01  0.16564251005E+02  0.51100000000E-03 0. -1.
        -11    1    3    3    0    0  0.17919391920E+02 -0.78270000524E+01 -0.20572356386E+02  0.28382888932E+02  0.51100000000E-03 0.  1.
         12    1    3    3    0    0 -0.23228917007E+02  0.12280031322E+02  0.81651757357E+01  0.27514575218E+02  0.00000000000E+00 0. -1.
</event>
<event>
 7    1  0.1788006E-013  0.7246157E+02  0.7816164E-02  0.1226708E+00
        -11   -1    0    0    0    0  0.00000000000E+00  0.00000000000E+00  0.45593999997E+02  0.45594000000E+02  0.51100000000E-03 0. -1.
         11   -1    0    0    0    0 -0.00000000000E+00 -0.00000000000E+00 -0.45593999997E+02  0.45594000000E+02  0.51100000000E-03 0.  1.
    9900012    2    1    2    0    0  0.97409480052E+01 -0.15277104689E+02 -0.47332170984E+01  0.72461565747E+02  0.69999994077E+02 0.  0.
        -12    1    1    2    0    0 -0.97409480052E+01  0.15277104689E+02  0.47332170984E+01  0.18726434253E+02  0.00000000000E+00 0.  1.
         11    1    3    3    0    0  0.68117320485E+01 -0.60434850754E+01  0.17057214927E+02  0.19335769617E+02  0.51100000000E-03 0. -1.
        -11    1    3    3    0    0  0.12016327201E+02  0.66446617767E+01  0.96271473425E+01  0.16769782818E+02  0.51100000000E-03 0.  1.
        -12    1    3    3    0    0 -0.90871112447E+01 -0.15878281390E+02 -0.31417579367E+02  0.36356013313E+02  0.00000000000E+00 0.  1.
</event>
<event>
 7    1  0.1788006E-013  0.7246157E+02  0.7816164E-02  0.1226708E+00
        -11   -1    0    0    0    0  0.00000000000E+00  0.00000000000E+00  0.45593999997E+02  0.45594000000E+02  0.51100000000E-03 0.  1.
         11   -1    0    0    0    0 -0.00000000000E+00 -0.00000000000E+00 -0.45593999997E+02  0.45594000000E+02  0.51100000000E-03 0. -1.
    9900012    2    1    2    0    0 -0.86673695815E+01 -0.93094626231E+01 -0.13743712772E+02  0.72461574005E+02  0.70000004834E+02 0.  0.
        -12    1    1    2    0    0  0.86673695815E+01  0.93094626231E+01  0.13743712772E+02  0.18726425995E+02  0.00000000000E+00 0.  1.
         11    1    3    3    0    0 -0.18112815694E+02 -0.18576509946E+02 -0.18807340400E+02  0.32044919524E+02  0.51100000000E-03 0. -1.
        -11    1    3    3    0    0 -0.52094329669E-01 -0.12000024661E+02 -0.73010455623E+01  0.14046656978E+02  0.51100000000E-03 0.  1.
        -12    1    3    3    0    0  0.94975404421E+01  0.21267071984E+02  0.12364673190E+02  0.26369997503E+02  0.00000000000E+00 0.  1.
</event>
<event>
 7    1  0.1788006E-013  0.7246157E+02  0.7816164E-02  0.1226708E+00
        -11   -1    0    0    0    0  0.00000000000E+00  0.00000000000E+00  0.45593999997E+02  0.45594000000E+02  0.51100000000E-03 0. -1.
         11   -1    0    0    0    0 -0.00000000000E+00 -0.00000000000E+00 -0.45593999997E+02  0.45594000000E+02  0.51100000000E-03 0.  1.
    9900012    2    1    2    0    0  0.64133537296E+00  0.10594725922E+02  0.15427882065E+02  0.72461572860E+02  0.70000003343E+02 0.  0.
        -12    1    1    2    0    0 -0.64133537296E+00 -0.10594725922E+02 -0.15427882065E+02  0.18726427140E+02  0.00000000000E+00 0.  1.
         11    1    3    3    0    0  0.13033513277E+02  0.13842409700E+02  0.10055989343E+02  0.21508316916E+02  0.51100000000E-03 0. -1.
        -11    1    3    3    0    0 -0.42165228010E+01  0.14490516214E+02  0.21054611695E+02  0.25904648204E+02  0.51100000000E-03 0.  1.
        -12    1    3    3    0    0 -0.81756551027E+01 -0.17738199992E+02 -0.15682718973E+02  0.25048607740E+02  0.00000000000E+00 0.  1.
</event>
<event>
 7    1  0.1788006E-013  0.7246142E+02  0.7816164E-02  0.1226708E+00
        -11   -1    0    0    0    0  0.00000000000E+00  0.00000000000E+00  0.45593999997E+02  0.45594000000E+02  0.51100000000E-03 0. -1.
         11   -1    0    0    0    0 -0.00000000000E+00 -0.00000000000E+00 -0.45593999997E+02  0.45594000000E+02  0.51100000000E-03 0.  1.
    9900012    2    1    2    0    0  0.12865480794E+02 -0.11657495696E+02 -0.70190475431E+01  0.72461419148E+02  0.69999803104E+02 0.  0.
        -12    1    1    2    0    0 -0.12865480794E+02  0.11657495696E+02  0.70190475431E+01  0.18726580852E+02  0.00000000000E+00 0.  1.
         11    1    3    3    0    0  0.13273384129E+02 -0.16817589714E+02 -0.20158704792E+02  0.29417468096E+02  0.51100000000E-03 0. -1.
        -11    1    3    3    0    0 -0.94694054239E+01  0.95798879984E+01 -0.10672351115E+02  0.17185545430E+02  0.51100000000E-03 0.  1.
         12    1    3    3    0    0  0.90615020897E+01 -0.44197939800E+01  0.23812008365E+02  0.25858405622E+02  0.00000000000E+00 0. -1.
</event>
<event>
 7    1  0.1788006E-013  0.7246153E+02  0.7816164E-02  0.1226708E+00
        -11   -1    0    0    0    0  0.00000000000E+00  0.00000000000E+00  0.45593999997E+02  0.45594000000E+02  0.51100000000E-03 0. -1.
         11   -1    0    0    0    0 -0.00000000000E+00 -0.00000000000E+00 -0.45593999997E+02  0.45594000000E+02  0.51100000000E-03 0.  1.
    9900012    2    1    2    0    0 -0.30301764188E+01 -0.14655843366E+02  0.11256322571E+02  0.72461534457E+02  0.69999953315E+02 0.  0.
        -12    1    1    2    0    0  0.30301764188E+01  0.14655843366E+02 -0.11256322571E+02  0.18726465543E+02  0.00000000000E+00 0.  1.
         11    1    3    3    0    0 -0.42264361605E+01 -0.58674216078E+01 -0.18870747293E+01  0.74733158797E+01  0.51100000000E-03 0. -1.
        -11    1    3    3    0    0  0.64914116365E+01 -0.30591364225E+02 -0.99234749492E+01  0.32809226530E+02  0.51100000000E-03 0.  1.
         12    1    3    3    0    0 -0.52951518948E+01  0.21802942467E+02  0.23066872250E+02  0.32178992047E+02  0.00000000000E+00 0. -1.
</event>
<event>
 7    1  0.1788006E-013  0.7246160E+02  0.7816164E-02  0.1226708E+00
        -11   -1    0    0    0    0  0.00000000000E+00  0.00000000000E+00  0.45593999997E+02  0.45594000000E+02  0.51100000000E-03 0. -1.
         11   -1    0    0    0    0 -0.00000000000E+00 -0.00000000000E+00 -0.45593999997E+02  0.45594000000E+02  0.51100000000E-03 0.  1.
    9900012    2    1    2    0    0 -0.36898903089E+01 -0.16148405232E+02  0.87345169773E+01  0.72461599682E+02  0.70000038283E+02 0.  0.
        -12    1    1    2    0    0  0.36898903089E+01  0.16148405232E+02 -0.87345169773E+01  0.18726400318E+02  0.00000000000E+00 0.  1.
         11    1    3    3    0    0  0.14372953894E+02  0.19678189071E+02 -0.28766299289E+00  0.24369974949E+02  0.51100000000E-03 0. -1.
        -11    1    3    3    0    0  0.28818112685E+00 -0.11538941955E+02 -0.71939560574E+01  0.13600854158E+02  0.51100000000E-03 0.  1.
        -12    1    3    3    0    0 -0.18351025329E+02 -0.24287652348E+02  0.16216136028E+02  0.34490770576E+02  0.00000000000E+00 0.  1.
</event>
<event>
 7    1  0.1788006E-013  0.7246160E+02  0.7816164E-02  0.1226708E+00
        -11   -1    0    0    0    0  0.00000000000E+00  0.00000000000E+00  0.45593999997E+02  0.45594000000E+02  0.51100000000E-03 0.  1.
         11   -1    0    0    0    0 -0.00000000000E+00 -0.00000000000E+00 -0.45593999997E+02  0.45594000000E+02  0.51100000000E-03 0. -1.
    9900012    2    1    2    0    0  0.66047051824E+01  0.14590256347E+02 -0.97046520309E+01  0.72461602005E+02  0.70000041309E+02 0.  0.
        -12    1    1    2    0    0 -0.66047051824E+01 -0.14590256347E+02  0.97046520309E+01  0.18726397995E+02  0.00000000000E+00 0.  1.
         11    1    3    3    0    0  0.27356086252E+02  0.31712297859E+01  0.76406909584E+01  0.28579578583E+02  0.51100000000E-03 0. -1.
        -11    1    3    3    0    0 -0.27533426486E+01  0.24909490477E+01  0.95873985491E+01  0.10281241856E+02  0.51100000000E-03 0.  1.
         12    1    3    3    0    0 -0.17998038421E+02  0.89280775133E+01 -0.26932741538E+02  0.33600781566E+02  0.00000000000E+00 0. -1.
</event>
<event>
 7    1  0.1788006E-013  0.7246157E+02  0.7816164E-02  0.1226708E+00
        -11   -1    0    0    0    0  0.00000000000E+00  0.00000000000E+00  0.45593999997E+02  0.45594000000E+02  0.51100000000E-03 0. -1.
         11   -1    0    0    0    0 -0.00000000000E+00 -0.00000000000E+00 -0.45593999997E+02  0.45594000000E+02  0.51100000000E-03 0.  1.
    9900012    2    1    2    0    0 -0.17477581816E+02 -0.60238966450E+01 -0.29876156893E+01  0.72461573634E+02  0.70000004350E+02 0.  0.
        -12    1    1    2    0    0  0.17477581816E+02  0.60238966450E+01  0.29876156893E+01  0.18726426366E+02  0.00000000000E+00 0.  1.
         11    1    3    3    0    0  0.54486397810E+01  0.40670916823E+01  0.24767203928E+02  0.25683521972E+02  0.51100000000E-03 0.  1.
        -11    1    3    3    0    0 -0.64093361591E+01  0.59722788660E+00  0.52821821674E+01  0.83269273961E+01  0.51100000000E-03 0. -1.
        -12    1    3    3    0    0 -0.16516885438E+02 -0.10688216214E+02 -0.33037001784E+02  0.38451124266E+02  0.00000000000E+00 0.  1.
</event>
<event>
 7    1  0.1788006E-013  0.7246157E+02  0.7816164E-02  0.1226708E+00
        -11   -1    0    0    0    0  0.00000000000E+00  0.00000000000E+00  0.45593999997E+02  0.45594000000E+02  0.51100000000E-03 0. -1.
         11   -1    0    0    0    0 -0.00000000000E+00 -0.00000000000E+00 -0.45593999997E+02  0.45594000000E+02  0.51100000000E-03 0.  1.
    9900012    2    1    2    0    0  0.74823628972E+01 -0.17165592612E+02 -0.18910900338E+00  0.72461572512E+02  0.70000002889E+02 0.  0.
        -12    1    1    2    0    0 -0.74823628972E+01  0.17165592612E+02  0.18910900338E+00  0.18726427488E+02  0.00000000000E+00 0.  1.
         11    1    3    3    0    0 -0.54167103669E+01  0.49774858813E+01  0.75889839029E+01  0.10569238092E+02  0.51100000000E-03 0. -1.
        -11    1    3    3    0    0  0.35399755198E+01  0.73882960869E+01  0.19160768142E+02  0.20838747126E+02  0.51100000000E-03 0.  1.
        -12    1    3    3    0    0  0.93590977443E+01 -0.29531374580E+02 -0.26938861048E+02  0.41053587294E+02  0.00000000000E+00 0.  1.
</event>
<event>
 7    1  0.1788006E-013  0.7246159E+02  0.7816164E-02  0.1226708E+00
        -11   -1    0    0    0    0  0.00000000000E+00  0.00000000000E+00  0.45593999997E+02  0.45594000000E+02  0.51100000000E-03 0.  1.
         11   -1    0    0    0    0 -0.00000000000E+00 -0.00000000000E+00 -0.45593999997E+02  0.45594000000E+02  0.51100000000E-03 0. -1.
    9900012    2    1    2    0    0 -0.61585022318E+01  0.17582865937E+02 -0.18957998446E+01  0.72461591339E+02  0.70000027414E+02 0.  0.
        -12    1    1    2    0    0  0.61585022318E+01 -0.17582865937E+02  0.18957998446E+01  0.18726408661E+02  0.00000000000E+00 0.  1.
         11    1    3    3    0    0 -0.17505183346E+02  0.15536461672E+02  0.11734237812E+02  0.26182158478E+02  0.51100000000E-03 0. -1.
        -11    1    3    3    0    0  0.10697226543E+02  0.73502683275E+01  0.13441810659E+02  0.18685271586E+02  0.51100000000E-03 0.  1.
        -12    1    3    3    0    0  0.64945457092E+00 -0.53038640621E+01 -0.27071848316E+02  0.27594161275E+02  0.00000000000E+00 0.  1.
</event>
<event>
 7    1  0.1788006E-013  0.7246155E+02  0.7816164E-02  0.1226708E+00
        -11   -1    0    0    0    0  0.00000000000E+00  0.00000000000E+00  0.45593999997E+02  0.45594000000E+02  0.51100000000E-03 0. -1.
         11   -1    0    0    0    0 -0.00000000000E+00 -0.00000000000E+00 -0.45593999997E+02  0.45594000000E+02  0.51100000000E-03 0.  1.
    9900012    2    1    2    0    0 -0.69233251074E+01 -0.12600276940E+02  0.11999183158E+02  0.72461553301E+02  0.69999977863E+02 0.  0.
        -12    1    1    2    0    0  0.69233251074E+01  0.12600276940E+02 -0.11999183158E+02  0.18726446699E+02  0.00000000000E+00 0.  1.
         11    1    3    3    0    0 -0.10772118071E+02 -0.41250965926E+01 -0.76249090811E+01  0.13827298666E+02  0.51100000000E-03 0. -1.
        -11    1    3    3    0    0 -0.59104904529E+01 -0.15241359532E+02 -0.14903704086E+02  0.22121332092E+02  0.51100000000E-03 0.  1.
         12    1    3    3    0    0  0.97592834165E+01  0.67661791846E+01  0.34527796325E+02  0.36512922543E+02  0.00000000000E+00 0. -1.
</event>
<event>
 7    1  0.1788006E-013  0.7246159E+02  0.7816164E-02  0.1226708E+00
        -11   -1    0    0    0    0  0.00000000000E+00  0.00000000000E+00  0.45593999997E+02  0.45594000000E+02  0.51100000000E-03 0.  1.
         11   -1    0    0    0    0 -0.00000000000E+00 -0.00000000000E+00 -0.45593999997E+02  0.45594000000E+02  0.51100000000E-03 0. -1.
    9900012    2    1    2    0    0 -0.72385194218E+01  0.11336612824E+02 -0.13029332675E+02  0.72461589140E+02  0.70000024550E+02 0.  0.
        -12    1    1    2    0    0  0.72385194218E+01 -0.11336612824E+02  0.13029332675E+02  0.18726410860E+02  0.00000000000E+00 0.  1.
         11    1    3    3    0    0  0.97661913331E+01 -0.16017552253E+01 -0.11456359233E+02  0.15139097730E+02  0.51100000000E-03 0. -1.
        -11    1    3    3    0    0  0.71611926885E+01 -0.40062523940E+01  0.19434027457E+02  0.21095358789E+02  0.51100000000E-03 0.  1.
         12    1    3    3    0    0 -0.24165903443E+02  0.16944620443E+02 -0.21007000899E+02  0.36227132621E+02  0.00000000000E+00 0. -1.
</event>
<event>
 7    1  0.1788006E-013  0.7246157E+02  0.7816164E-02  0.1226708E+00
        -11   -1    0    0    0    0  0.00000000000E+00  0.00000000000E+00  0.45593999997E+02  0.45594000000E+02  0.51100000000E-03 0.  1.
         11   -1    0    0    0    0 -0.00000000000E+00 -0.00000000000E+00 -0.45593999997E+02  0.45594000000E+02  0.51100000000E-03 0. -1.
    9900012    2    1    2    0    0  0.99584305072E+01  0.90538379954E+01 -0.13020625799E+02  0.72461574372E+02  0.70000005311E+02 0.  0.
        -12    1    1    2    0    0 -0.99584305072E+01 -0.90538379954E+01  0.13020625799E+02  0.18726425628E+02  0.00000000000E+00 0.  1.
         11    1    3    3    0    0 -0.43108960099E+00  0.47103732914E+01 -0.75349904136E+01  0.88966024741E+01  0.51100000000E-03 0. -1.
        -11    1    3    3    0    0 -0.53236863712E+01 -0.21514981820E+02  0.15232320027E+02  0.26893487185E+02  0.51100000000E-03 0.  1.
         12    1    3    3    0    0  0.15713206479E+02  0.25858446524E+02 -0.20717955413E+02  0.36671484712E+02  0.00000000000E+00 0. -1.
</event>
<event>
 7    1  0.1788006E-013  0.7246155E+02  0.7816164E-02  0.1226708E+00
        -11   -1    0    0    0    0  0.00000000000E+00  0.00000000000E+00  0.45593999997E+02  0.45594000000E+02  0.51100000000E-03 0.  1.
         11   -1    0    0    0    0 -0.00000000000E+00 -0.00000000000E+00 -0.45593999997E+02  0.45594000000E+02  0.51100000000E-03 0. -1.
    9900012    2    1    2    0    0 -0.19463087887E+01  0.12240772268E+02 -0.14037638482E+02  0.72461550316E+02  0.69999973974E+02 0.  0.
        -12    1    1    2    0    0  0.19463087887E+01 -0.12240772268E+02  0.14037638482E+02  0.18726449684E+02  0.00000000000E+00 0.  1.
         11    1    3    3    0    0 -0.40201662812E+01  0.38107668259E+01 -0.10593185622E+01  0.56396663737E+01  0.51100000000E-03 0. -1.
        -11    1    3    3    0    0 -0.48626888837E+01 -0.26201060399E+02  0.51200728641E+01  0.27135888701E+02  0.51100000000E-03 0.  1.
         12    1    3    3    0    0  0.69365463761E+01  0.34631065841E+02 -0.18098392784E+02  0.39685995241E+02  0.00000000000E+00 0. -1.
</event>
<event>
 7    1  0.1788006E-013  0.7246157E+02  0.7816164E-02  0.1226708E+00
        -11   -1    0    0    0    0  0.00000000000E+00  0.00000000000E+00  0.45593999997E+02  0.45594000000E+02  0.51100000000E-03 0. -1.
         11   -1    0    0    0    0 -0.00000000000E+00 -0.00000000000E+00 -0.45593999997E+02  0.45594000000E+02  0.51100000000E-03 0.  1.
    9900012    2    1    2    0    0  0.15066178166E+02  0.10622093935E+02 -0.32955579604E+01  0.72461566641E+02  0.69999995240E+02 0.  0.
        -12    1    1    2    0    0 -0.15066178166E+02 -0.10622093935E+02  0.32955579604E+01  0.18726433359E+02  0.00000000000E+00 0.  1.
         11    1    3    3    0    0 -0.11008913297E+02 -0.14623724199E+02 -0.49568233441E+01  0.18963638347E+02  0.51100000000E-03 0. -1.
        -11    1    3    3    0    0 -0.10404738184E+02  0.40534618110E+01  0.17897133489E+01  0.11308943517E+02  0.51100000000E-03 0.  1.
         12    1    3    3    0    0  0.36479829647E+02  0.21192356324E+02 -0.12844796517E+00  0.42188984777E+02  0.00000000000E+00 0. -1.
</event>
<event>
 7    1  0.1788006E-013  0.7246157E+02  0.7816164E-02  0.1226708E+00
        -11   -1    0    0    0    0  0.00000000000E+00  0.00000000000E+00  0.45593999997E+02  0.45594000000E+02  0.51100000000E-03 0. -1.
         11   -1    0    0    0    0 -0.00000000000E+00 -0.00000000000E+00 -0.45593999997E+02  0.45594000000E+02  0.51100000000E-03 0.  1.
    9900012    2    1    2    0    0  0.89158628591E+01 -0.70805952309E+00  0.16452510189E+02  0.72461573477E+02  0.70000004146E+02 0.  0.
        -12    1    1    2    0    0 -0.89158628591E+01  0.70805952309E+00 -0.16452510189E+02  0.18726426523E+02  0.00000000000E+00 0.  1.
         11    1    3    3    0    0  0.14513571480E+02  0.12476086284E+02  0.23745975803E+02  0.30498653301E+02  0.51100000000E-03 0. -1.
        -11    1    3    3    0    0  0.77442360280E+01  0.33419383807E+01 -0.16718839452E+02  0.18725953559E+02  0.51100000000E-03 0.  1.
         12    1    3    3    0    0 -0.13341944649E+02 -0.16526084188E+02  0.94253738377E+01  0.23236966617E+02  0.00000000000E+00 0. -1.
</event>
<event>
 7    1  0.1788006E-013  0.7246199E+02  0.7816164E-02  0.1226707E+00
        -11   -1    0    0    0    0  0.00000000000E+00  0.00000000000E+00  0.45593999997E+02  0.45594000000E+02  0.51100000000E-03 0. -1.
         11   -1    0    0    0    0 -0.00000000000E+00 -0.00000000000E+00 -0.45593999997E+02  0.45594000000E+02  0.51100000000E-03 0.  1.
    9900012    2    1    2    0    0 -0.73902814934E+01 -0.92933930673E+01  0.14480328514E+02  0.72461993241E+02  0.70000550965E+02 0.  0.
        -12    1    1    2    0    0  0.73902814934E+01  0.92933930673E+01 -0.14480328514E+02  0.18726006759E+02  0.00000000000E+00 0.  1.
         11    1    3    3    0    0 -0.10384498229E+02 -0.23578439496E+01 -0.11314064217E+02  0.15537222433E+02  0.51100000000E-03 0.  1.
        -11    1    3    3    0    0  0.13315639925E+02 -0.25863514214E+02  0.13076748510E+02  0.31894027434E+02  0.51100000000E-03 0. -1.
         12    1    3    3    0    0 -0.10321423190E+02  0.18927965096E+02  0.12717644221E+02  0.25030743374E+02  0.00000000000E+00 0. -1.
</event>
<event>
 7    1  0.1788006E-013  0.7246199E+02  0.7816164E-02  0.1226707E+00
        -11   -1    0    0    0    0  0.00000000000E+00  0.00000000000E+00  0.45593999997E+02  0.45594000000E+02  0.51100000000E-03 0.  1.
         11   -1    0    0    0    0 -0.00000000000E+00 -0.00000000000E+00 -0.45593999997E+02  0.45594000000E+02  0.51100000000E-03 0. -1.
    9900012    2    1    2    0    0 -0.74492668330E+00  0.33372375243E+01 -0.18411179551E+02  0.72461985942E+02  0.70000541456E+02 0.  0.
        -12    1    1    2    0    0  0.74492668330E+00 -0.33372375243E+01  0.18411179551E+02  0.18726014058E+02  0.00000000000E+00 0.  1.
         11    1    3    3    0    0  0.65059627163E+01  0.17336180986E+02 -0.12085806292E+02  0.22111929722E+02  0.51100000000E-03 0. -1.
        -11    1    3    3    0    0  0.19386663915E+02 -0.12562042150E+02 -0.84265899267E+00  0.23116178646E+02  0.51100000000E-03 0.  1.
        -12    1    3    3    0    0 -0.26637553315E+02 -0.14369013114E+01 -0.54827142657E+01  0.27233877574E+02  0.00000000000E+00 0.  1.
</event>
<event>
 7    1  0.1788006E-013  0.7246198E+02  0.7816164E-02  0.1226707E+00
        -11   -1    0    0    0    0  0.00000000000E+00  0.00000000000E+00  0.45593999997E+02  0.45594000000E+02  0.51100000000E-03 0.  1.
         11   -1    0    0    0    0 -0.00000000000E+00 -0.00000000000E+00 -0.45593999997E+02  0.45594000000E+02  0.51100000000E-03 0. -1.
    9900012    2    1    2    0    0  0.72174735955E+01 -0.11862068125E+02 -0.12564371117E+02  0.72461975145E+02  0.70000527391E+02 0.  0.
        -12    1    1    2    0    0 -0.72174735955E+01  0.11862068125E+02  0.12564371117E+02  0.18726024855E+02  0.00000000000E+00 0.  1.
         11    1    3    3    0    0  0.22109921723E+02 -0.15278171770E+02 -0.24103611367E+02  0.36100626760E+02  0.51100000000E-03 0. -1.
        -11    1    3    3    0    0 -0.55732584320E+01 -0.13808283269E+02  0.46126663926E+01  0.15588668574E+02  0.51100000000E-03 0.  1.
        -12    1    3    3    0    0 -0.93191896959E+01  0.17224386914E+02  0.69265738569E+01  0.20772679812E+02  0.00000000000E+00 0.  1.
</event>
<event>
 7    1  0.1788006E-013  0.7246154E+02  0.7816164E-02  0.1226708E+00
        -11   -1    0    0    0    0  0.00000000000E+00  0.00000000000E+00  0.45593999997E+02  0.45594000000E+02  0.51100000000E-03 0. -1.
         11   -1    0    0    0    0 -0.00000000000E+00 -0.00000000000E+00 -0.45593999997E+02  0.45594000000E+02  0.51100000000E-03 0.  1.
    9900012    2    1    2    0    0  0.14723223728E+02  0.38626792200E+01  0.10908110806E+02  0.72461535063E+02  0.69999954104E+02 0.  0.
        -12    1    1    2    0    0 -0.14723223728E+02 -0.38626792200E+01 -0.10908110806E+02  0.18726464937E+02  0.00000000000E+00 0.  1.
         11    1    3    3    0    0  0.16545684184E+02 -0.16462080022E+01  0.29626624857E+02  0.33973615742E+02  0.51100000000E-03 0. -1.
        -11    1    3    3    0    0 -0.50126455248E+01  0.11115136828E+02  0.55354825343E+01  0.13390834515E+02  0.51100000000E-03 0.  1.
        -12    1    3    3    0    0  0.31901850686E+01 -0.56062496062E+01 -0.24253996585E+02  0.25097084806E+02  0.00000000000E+00 0.  1.
</event>
<event>
 7    1  0.1788006E-013  0.7246157E+02  0.7816164E-02  0.1226708E+00
        -11   -1    0    0    0    0  0.00000000000E+00  0.00000000000E+00  0.45593999997E+02  0.45594000000E+02  0.51100000000E-03 0. -1.
         11   -1    0    0    0    0 -0.00000000000E+00 -0.00000000000E+00 -0.45593999997E+02  0.45594000000E+02  0.51100000000E-03 0.  1.
    9900012    2    1    2    0    0 -0.11418792733E+02  0.76677025929E+01  0.12708136295E+02  0.72461568984E+02  0.69999998293E+02 0.  0.
        -12    1    1    2    0    0  0.11418792733E+02 -0.76677025929E+01 -0.12708136295E+02  0.18726431016E+02  0.00000000000E+00 0.  1.
         11    1    3    3    0    0 -0.63530831174E+01 -0.18739986825E+02  0.96063976658E+01  0.21996173478E+02  0.51100000000E-03 0. -1.
        -11    1    3    3    0    0 -0.95060146228E+01 -0.99008898365E+01 -0.29655535903E+00  0.13728797431E+02  0.51100000000E-03 0.  1.
        -12    1    3    3    0    0  0.44403050075E+01  0.36308579255E+02  0.33982939878E+01  0.36736598074E+02  0.00000000000E+00 0.  1.
</event>
<event>
 7    1  0.1788006E-013  0.7246156E+02  0.7816164E-02  0.1226708E+00
        -11   -1    0    0    0    0  0.00000000000E+00  0.00000000000E+00  0.45593999997E+02  0.45594000000E+02  0.51100000000E-03 0. -1.
         11   -1    0    0    0    0 -0.00000000000E+00 -0.00000000000E+00 -0.45593999997E+02  0.45594000000E+02  0.51100000000E-03 0.  1.
    9900012    2    1    2    0    0  0.17271244581E+02  0.19532343699E+01 -0.69691235926E+01  0.72461556196E+02  0.69999981635E+02 0.  0.
        -12    1    1    2    0    0 -0.17271244581E+02 -0.19532343699E+01  0.69691235926E+01  0.18726443804E+02  0.00000000000E+00 0.  1.
         11    1    3    3    0    0  0.29341183997E+02 -0.79432452082E+01  0.11721609587E+02  0.32579078476E+02  0.51100000000E-03 0. -1.
        -11    1    3    3    0    0 -0.28748278232E+01 -0.10976704890E+02 -0.11022387316E+02  0.15819156351E+02  0.51100000000E-03 0.  1.
        -12    1    3    3    0    0 -0.91951115930E+01  0.20873184468E+02 -0.76683458632E+01  0.24063321369E+02  0.00000000000E+00 0.  1.
</event>
<event>
 7    1  0.1788006E-013  0.7246159E+02  0.7816164E-02  0.1226708E+00
        -11   -1    0    0    0    0  0.00000000000E+00  0.00000000000E+00  0.45593999997E+02  0.45594000000E+02  0.51100000000E-03 0. -1.
         11   -1    0    0    0    0 -0.00000000000E+00 -0.00000000000E+00 -0.45593999997E+02  0.45594000000E+02  0.51100000000E-03 0.  1.
    9900012    2    1    2    0    0 -0.10645273733E+02 -0.11605537240E+02 -0.10132519611E+02  0.72461593480E+02  0.70000030204E+02 0.  0.
        -12    1    1    2    0    0  0.10645273733E+02  0.11605537240E+02  0.10132519611E+02  0.18726406520E+02  0.00000000000E+00 0.  1.
         11    1    3    3    0    0  0.53345551026E+01  0.13622685788E+00 -0.72397511387E+01  0.89938886312E+01  0.51100000000E-03 0. -1.
        -11    1    3    3    0    0 -0.25389205200E+02  0.13595555242E+01 -0.25293438235E+02  0.35863883642E+02  0.51100000000E-03 0.  1.
         12    1    3    3    0    0  0.94093763639E+01 -0.13101319622E+02  0.22400669762E+02  0.27603821207E+02  0.00000000000E+00 0. -1.
</event>
<event>
 7    1  0.1788006E-013  0.7246133E+02  0.7816164E-02  0.1226709E+00
        -11   -1    0    0    0    0  0.00000000000E+00  0.00000000000E+00  0.45593999997E+02  0.45594000000E+02  0.51100000000E-03 0.  1.
         11   -1    0    0    0    0 -0.00000000000E+00 -0.00000000000E+00 -0.45593999997E+02  0.45594000000E+02  0.51100000000E-03 0. -1.
    9900012    2    1    2    0    0 -0.17766030804E+02 -0.59157772329E+01 -0.24499684293E+00  0.72461326664E+02  0.69999682625E+02 0.  0.
        -12    1    1    2    0    0  0.17766030804E+02  0.59157772329E+01  0.24499684293E+00  0.18726673336E+02  0.00000000000E+00 0.  1.
         11    1    3    3    0    0 -0.21888423108E+02  0.15096103686E+01 -0.41077485585E+01  0.22321639459E+02  0.51100000000E-03 0. -1.
        -11    1    3    3    0    0 -0.16275161235E+02  0.59342788153E+01  0.15387105829E+02  0.23170230131E+02  0.51100000000E-03 0.  1.
        -12    1    3    3    0    0  0.20397553539E+02 -0.13359666417E+02 -0.11524354113E+02  0.26969457074E+02  0.00000000000E+00 0.  1.
</event>
<event>
 7    1  0.1788006E-013  0.7246160E+02  0.7816164E-02  0.1226708E+00
        -11   -1    0    0    0    0  0.00000000000E+00  0.00000000000E+00  0.45593999997E+02  0.45594000000E+02  0.51100000000E-03 0.  1.
         11   -1    0    0    0    0 -0.00000000000E+00 -0.00000000000E+00 -0.45593999997E+02  0.45594000000E+02  0.51100000000E-03 0. -1.
    9900012    2    1    2    0    0  0.46783210962E+00  0.18665735816E+02  0.14316383896E+01  0.72461597544E+02  0.70000035498E+02 0.  0.
        -12    1    1    2    0    0 -0.46783210962E+00 -0.18665735816E+02 -0.14316383896E+01  0.18726402456E+02  0.00000000000E+00 0.  1.
         11    1    3    3    0    0  0.17339710765E+01  0.40975930113E+01 -0.59400500653E+01  0.74216655287E+01  0.51100000000E-03 0. -1.
        -11    1    3    3    0    0 -0.24612354717E+02 -0.10502544371E+02 -0.73537297772E+01  0.27751554639E+02  0.51100000000E-03 0.  1.
        -12    1    3    3    0    0  0.23346215750E+02  0.25070687176E+02  0.14725418232E+02  0.37288377377E+02  0.00000000000E+00 0.  1.
</event>
<event>
 7    1  0.1788006E-013  0.7246162E+02  0.7816164E-02  0.1226708E+00
        -11   -1    0    0    0    0  0.00000000000E+00  0.00000000000E+00  0.45593999997E+02  0.45594000000E+02  0.51100000000E-03 0.  1.
         11   -1    0    0    0    0 -0.00000000000E+00 -0.00000000000E+00 -0.45593999997E+02  0.45594000000E+02  0.51100000000E-03 0. -1.
    9900012    2    1    2    0    0 -0.11005737084E+02 -0.70559444279E+01 -0.13407629797E+02  0.72461624555E+02  0.70000070684E+02 0.  0.
        -12    1    1    2    0    0  0.11005737084E+02  0.70559444279E+01  0.13407629797E+02  0.18726375445E+02  0.00000000000E+00 0.  1.
         11    1    3    3    0    0  0.51452979982E+01 -0.24190002810E+01 -0.15046944485E+02  0.16085278750E+02  0.51100000000E-03 0. -1.
        -11    1    3    3    0    0  0.41171990480E+01  0.21620648537E+02  0.62690619785E+01  0.22884599833E+02  0.51100000000E-03 0.  1.
        -12    1    3    3    0    0 -0.20268234130E+02 -0.26257592684E+02 -0.46297472907E+01  0.33491745972E+02  0.00000000000E+00 0.  1.
</event>
<event>
 7    1  0.1788006E-013  0.7246160E+02  0.7816164E-02  0.1226708E+00
        -11   -1    0    0    0    0  0.00000000000E+00  0.00000000000E+00  0.45593999997E+02  0.45594000000E+02  0.51100000000E-03 0.  1.
         11   -1    0    0    0    0 -0.00000000000E+00 -0.00000000000E+00 -0.45593999997E+02  0.45594000000E+02  0.51100000000E-03 0. -1.
    9900012    2    1    2    0    0 -0.48207053103E+01 -0.10791472803E+02 -0.14525257355E+02  0.72461596550E+02  0.70000034202E+02 0.  0.
        -12    1    1    2    0    0  0.48207053103E+01  0.10791472803E+02  0.14525257355E+02  0.18726403450E+02  0.00000000000E+00 0.  1.
         11    1    3    3    0    0 -0.64390668743E+01 -0.80845586066E+01 -0.90843417518E+01  0.13760339218E+02  0.51100000000E-03 0. -1.
        -11    1    3    3    0    0  0.37024363312E+01 -0.28115315657E+02  0.85523522484E+01  0.29619617461E+02  0.51100000000E-03 0.  1.
         12    1    3    3    0    0 -0.20840747672E+01  0.25408401460E+02 -0.13993267852E+02  0.29081639871E+02  0.00000000000E+00 0. -1.
</event>
<event>
 7    1  0.1788006E-013  0.7246149E+02  0.7816164E-02  0.1226708E+00
        -11   -1    0    0    0    0  0.00000000000E+00  0.00000000000E+00  0.45593999997E+02  0.45594000000E+02  0.51100000000E-03 0. -1.
         11   -1    0    0    0    0 -0.00000000000E+00 -0.00000000000E+00 -0.45593999997E+02  0.45594000000E+02  0.51100000000E-03 0.  1.
    9900012    2    1    2    0    0  0.17051665902E+02 -0.55649661916E+01  0.53809071735E+01  0.72461486156E+02  0.69999890394E+02 0.  0.
        -12    1    1    2    0    0 -0.17051665902E+02  0.55649661916E+01 -0.53809071735E+01  0.18726513844E+02  0.00000000000E+00 0.  1.
         11    1    3    3    0    0  0.14962898787E+02  0.10773741173E+02  0.28541793461E+02  0.33979343919E+02  0.51100000000E-03 0. -1.
        -11    1    3    3    0    0 -0.35908382723E+01 -0.13365161970E+02  0.61926409103E+00  0.13852983875E+02  0.51100000000E-03 0.  1.
        -12    1    3    3    0    0  0.56796053873E+01 -0.29735453948E+01 -0.23780150378E+02  0.24629158361E+02  0.00000000000E+00 0.  1.
</event>
<event>
 7    1  0.1788006E-013  0.7246158E+02  0.7816164E-02  0.1226708E+00
        -11   -1    0    0    0    0  0.00000000000E+00  0.00000000000E+00  0.45593999997E+02  0.45594000000E+02  0.51100000000E-03 0.  1.
         11   -1    0    0    0    0 -0.00000000000E+00 -0.00000000000E+00 -0.45593999997E+02  0.45594000000E+02  0.51100000000E-03 0. -1.
    9900012    2    1    2    0    0 -0.86498880903E+01  0.15308746219E+02 -0.64420822518E+01  0.72461582870E+02  0.70000016383E+02 0.  0.
        -12    1    1    2    0    0  0.86498880903E+01 -0.15308746219E+02  0.64420822518E+01  0.18726417130E+02  0.00000000000E+00 0.  1.
         11    1    3    3    0    0 -0.56466656270E+01  0.44563986944E+01  0.11067549851E+02  0.13199809923E+02  0.51100000000E-03 0. -1.
        -11    1    3    3    0    0  0.25264732112E+02  0.11777454041E+02 -0.49313339139E+01  0.28307828720E+02  0.51100000000E-03 0.  1.
         12    1    3    3    0    0 -0.28267954576E+02 -0.92510651608E+00 -0.12578298189E+02  0.30953944228E+02  0.00000000000E+00 0. -1.
</event>
<event>
 7    1  0.1788006E-013  0.7246158E+02  0.7816164E-02  0.1226708E+00
        -11   -1    0    0    0    0  0.00000000000E+00  0.00000000000E+00  0.45593999997E+02  0.45594000000E+02  0.51100000000E-03 0.  1.
         11   -1    0    0    0    0 -0.00000000000E+00 -0.00000000000E+00 -0.45593999997E+02  0.45594000000E+02  0.51100000000E-03 0. -1.
    9900012    2    1    2    0    0 -0.11379065056E+02 -0.55964634966E+01 -0.13779529150E+02  0.72461576187E+02  0.70000007676E+02 0.  0.
        -12    1    1    2    0    0  0.11379065056E+02  0.55964634966E+01  0.13779529150E+02  0.18726423813E+02  0.00000000000E+00 0.  1.
         11    1    3    3    0    0 -0.33877954948E+01 -0.10607857701E+02  0.24626839287E+00  0.11138422316E+02  0.51100000000E-03 0. -1.
        -11    1    3    3    0    0  0.15163493109E+02 -0.60262617043E+01 -0.27779748888E+02  0.32217414576E+02  0.51100000000E-03 0.  1.
         12    1    3    3    0    0 -0.23154762671E+02  0.11037655908E+02  0.13753951345E+02  0.29105739295E+02  0.00000000000E+00 0. -1.
</event>
<event>
 7    1  0.1788006E-013  0.7246158E+02  0.7816164E-02  0.1226708E+00
        -11   -1    0    0    0    0  0.00000000000E+00  0.00000000000E+00  0.45593999997E+02  0.45594000000E+02  0.51100000000E-03 0.  1.
         11   -1    0    0    0    0 -0.00000000000E+00 -0.00000000000E+00 -0.45593999997E+02  0.45594000000E+02  0.51100000000E-03 0. -1.
    9900012    2    1    2    0    0 -0.13443698622E+02 -0.13009963674E+02 -0.82872147745E+00  0.72461575709E+02  0.70000007053E+02 0.  0.
        -12    1    1    2    0    0  0.13443698622E+02  0.13009963674E+02  0.82872147745E+00  0.18726424291E+02  0.00000000000E+00 0.  1.
         11    1    3    3    0    0 -0.30200130355E+00  0.16362292388E+02 -0.13603613075E+01  0.16421522467E+02  0.51100000000E-03 0. -1.
        -11    1    3    3    0    0 -0.14087355805E+02 -0.35951136047E-02  0.17219720685E+02  0.22247974902E+02  0.51100000000E-03 0.  1.
         12    1    3    3    0    0  0.94565848609E+00 -0.29368660949E+02 -0.16688080855E+02  0.33792078340E+02  0.00000000000E+00 0. -1.
</event>
<event>
 7    1  0.1788006E-013  0.7246161E+02  0.7816164E-02  0.1226708E+00
        -11   -1    0    0    0    0  0.00000000000E+00  0.00000000000E+00  0.45593999997E+02  0.45594000000E+02  0.51100000000E-03 0. -1.
         11   -1    0    0    0    0 -0.00000000000E+00 -0.00000000000E+00 -0.45593999997E+02  0.45594000000E+02  0.51100000000E-03 0.  1.
    9900012    2    1    2    0    0  0.31420199941E+00  0.14757294822E+02  0.11523938710E+02  0.72461611219E+02  0.70000053312E+02 0.  0.
        -12    1    1    2    0    0 -0.31420199941E+00 -0.14757294822E+02 -0.11523938710E+02  0.18726388781E+02  0.00000000000E+00 0.  1.
         11    1    3    3    0    0 -0.17995021914E+02  0.33555952837E+02  0.72774865179E+01  0.38765765757E+02  0.51100000000E-03 0. -1.
        -11    1    3    3    0    0  0.18653732209E+02 -0.51629990869E+01 -0.17899204273E+00  0.19355886012E+02  0.51100000000E-03 0.  1.
        -12    1    3    3    0    0 -0.34450829610E+00 -0.13635658928E+02  0.44254442352E+01  0.14339959450E+02  0.00000000000E+00 0.  1.
</event>
<event>
 7    1  0.1788006E-013  0.7246159E+02  0.7816164E-02  0.1226708E+00
        -11   -1    0    0    0    0  0.00000000000E+00  0.00000000000E+00  0.45593999997E+02  0.45594000000E+02  0.51100000000E-03 0. -1.
         11   -1    0    0    0    0 -0.00000000000E+00 -0.00000000000E+00 -0.45593999997E+02  0.45594000000E+02  0.51100000000E-03 0.  1.
    9900012    2    1    2    0    0 -0.42784707074E+00 -0.15211829473E+02  0.10913091507E+02  0.72461591501E+02  0.70000027625E+02 0.  0.
        -12    1    1    2    0    0  0.42784707074E+00  0.15211829473E+02 -0.10913091507E+02  0.18726408499E+02  0.00000000000E+00 0.  1.
         11    1    3    3    0    0 -0.20321395539E+02  0.70712503987E+01 -0.11502631278E+02  0.24398201274E+02  0.51100000000E-03 0. -1.
        -11    1    3    3    0    0  0.70369641508E+01  0.19868747758E+01 -0.53104087237E+01  0.90369783063E+01  0.51100000000E-03 0.  1.
         12    1    3    3    0    0  0.12856584317E+02 -0.24269954648E+02  0.27726131508E+02  0.39026411920E+02  0.00000000000E+00 0. -1.
</event>
<event>
 7    1  0.1788006E-013  0.7246157E+02  0.7816164E-02  0.1226708E+00
        -11   -1    0    0    0    0  0.00000000000E+00  0.00000000000E+00  0.45593999997E+02  0.45594000000E+02  0.51100000000E-03 0.  1.
         11   -1    0    0    0    0 -0.00000000000E+00 -0.00000000000E+00 -0.45593999997E+02  0.45594000000E+02  0.51100000000E-03 0. -1.
    9900012    2    1    2    0    0 -0.39871973049E+01  0.18001617461E+02  0.32746531849E+01  0.72461566088E+02  0.69999994521E+02 0.  0.
        -12    1    1    2    0    0  0.39871973049E+01 -0.18001617461E+02 -0.32746531849E+01  0.18726433912E+02  0.00000000000E+00 0.  1.
         11    1    3    3    0    0  0.16141670647E+02  0.26887464655E+02  0.17001092455E+02  0.35672488444E+02  0.51100000000E-03 0. -1.
        -11    1    3    3    0    0  0.63139820166E+01 -0.29772391443E+00 -0.22187408561E+01  0.66990909594E+01  0.51100000000E-03 0.  1.
         12    1    3    3    0    0 -0.26442849969E+02 -0.85881232795E+01 -0.11507698414E+02  0.30089986685E+02  0.00000000000E+00 0. -1.
</event>
<event>
 7    1  0.1788006E-013  0.7246167E+02  0.7816164E-02  0.1226708E+00
        -11   -1    0    0    0    0  0.00000000000E+00  0.00000000000E+00  0.45593999997E+02  0.45594000000E+02  0.51100000000E-03 0. -1.
         11   -1    0    0    0    0 -0.00000000000E+00 -0.00000000000E+00 -0.45593999997E+02  0.45594000000E+02  0.51100000000E-03 0.  1.
    9900012    2    1    2    0    0  0.36857154089E+01  0.78265011849E+01  0.16608338515E+02  0.72461667548E+02  0.70000126691E+02 0.  0.
        -12    1    1    2    0    0 -0.36857154089E+01 -0.78265011849E+01 -0.16608338515E+02  0.18726332452E+02  0.00000000000E+00 0.  1.
         11    1    3    3    0    0  0.16565328773E+00 -0.97896827844E+01 -0.43222233460E+00  0.98006196966E+01  0.51100000000E-03 0. -1.
        -11    1    3    3    0    0 -0.10038277720E+02  0.58420651853E+01 -0.19072011402E+02  0.22330211920E+02  0.51100000000E-03 0.  1.
         12    1    3    3    0    0  0.13558339841E+02  0.11774118784E+02  0.36112572251E+02  0.40330835932E+02  0.00000000000E+00 0. -1.
</event>
<event>
 7    1  0.1788006E-013  0.7246147E+02  0.7816164E-02  0.1226708E+00
        -11   -1    0    0    0    0  0.00000000000E+00  0.00000000000E+00  0.45593999997E+02  0.45594000000E+02  0.51100000000E-03 0.  1.
         11   -1    0    0    0    0 -0.00000000000E+00 -0.00000000000E+00 -0.45593999997E+02  0.45594000000E+02  0.51100000000E-03 0. -1.
    9900012    2    1    2    0    0 -0.18037532736E+01  0.57338889688E+01  0.17735611487E+02  0.72461470066E+02  0.69999869433E+02 0.  0.
        -12    1    1    2    0    0  0.18037532736E+01 -0.57338889688E+01 -0.17735611487E+02  0.18726529934E+02  0.00000000000E+00 0.  1.
         11    1    3    3    0    0 -0.29825010596E+02  0.51715140634E+01 -0.42792336284E+01  0.30571026405E+02  0.51100000000E-03 0. -1.
        -11    1    3    3    0    0  0.11403441798E+01  0.73169558025E+01  0.19032038248E+01  0.76459408920E+01  0.51100000000E-03 0.  1.
        -12    1    3    3    0    0  0.26880913143E+02 -0.67545808970E+01  0.20111641290E+02  0.34244502768E+02  0.00000000000E+00 0.  1.
</event>
<event>
 7    1  0.1788006E-013  0.7246156E+02  0.7816164E-02  0.1226708E+00
        -11   -1    0    0    0    0  0.00000000000E+00  0.00000000000E+00  0.45593999997E+02  0.45594000000E+02  0.51100000000E-03 0. -1.
         11   -1    0    0    0    0 -0.00000000000E+00 -0.00000000000E+00 -0.45593999997E+02  0.45594000000E+02  0.51100000000E-03 0.  1.
    9900012    2    1    2    0    0  0.11037314151E+02 -0.12497904571E+02  0.85240642187E+01  0.72461558984E+02  0.69999985266E+02 0.  0.
        -12    1    1    2    0    0 -0.11037314151E+02  0.12497904571E+02 -0.85240642187E+01  0.18726441016E+02  0.00000000000E+00 0.  1.
         11    1    3    3    0    0 -0.88619958044E+01 -0.31527711739E+02  0.24081065820E+01  0.32837943826E+02  0.51100000000E-03 0. -1.
        -11    1    3    3    0    0  0.87050287595E+01 -0.44976135303E+01 -0.53429513018E+01  0.11160339692E+02  0.51100000000E-03 0.  1.
         12    1    3    3    0    0  0.11194281196E+02  0.23527420698E+02  0.11458908939E+02  0.28463275466E+02  0.00000000000E+00 0. -1.
</event>
<event>
 7    1  0.1788006E-013  0.7246160E+02  0.7816164E-02  0.1226708E+00
        -11   -1    0    0    0    0  0.00000000000E+00  0.00000000000E+00  0.45593999997E+02  0.45594000000E+02  0.51100000000E-03 0.  1.
         11   -1    0    0    0    0 -0.00000000000E+00 -0.00000000000E+00 -0.45593999997E+02  0.45594000000E+02  0.51100000000E-03 0. -1.
    9900012    2    1    2    0    0  0.90922628031E+01  0.14831097577E+02  0.69316125237E+01  0.72461602845E+02  0.70000042403E+02 0.  0.
        -12    1    1    2    0    0 -0.90922628031E+01 -0.14831097577E+02 -0.69316125237E+01  0.18726397155E+02  0.00000000000E+00 0.  1.
         11    1    3    3    0    0  0.10923962664E+02 -0.80490626308E+01  0.34192911713E+01  0.13993281313E+02  0.51100000000E-03 0. -1.
        -11    1    3    3    0    0 -0.17500851437E+02 -0.11136292681E+02 -0.86438633382E+00  0.20761598678E+02  0.51100000000E-03 0.  1.
         12    1    3    3    0    0  0.15669151575E+02  0.34016452889E+02  0.43767076861E+01  0.37706722854E+02  0.00000000000E+00 0. -1.
</event>
<event>
 7    1  0.1788006E-013  0.7246154E+02  0.7816164E-02  0.1226708E+00
        -11   -1    0    0    0    0  0.00000000000E+00  0.00000000000E+00  0.45593999997E+02  0.45594000000E+02  0.51100000000E-03 0.  1.
         11   -1    0    0    0    0 -0.00000000000E+00 -0.00000000000E+00 -0.45593999997E+02  0.45594000000E+02  0.51100000000E-03 0. -1.
    9900012    2    1    2    0    0  0.11146316127E+02  0.42615284461E+01 -0.14431888922E+02  0.72461537287E+02  0.69999957002E+02 0.  0.
        -12    1    1    2    0    0 -0.11146316127E+02 -0.42615284461E+01  0.14431888922E+02  0.18726462713E+02  0.00000000000E+00 0.  1.
         11    1    3    3    0    0  0.20821314311E+02  0.17483012750E+01 -0.12166522844E+02  0.24178667568E+02  0.51100000000E-03 0. -1.
        -11    1    3    3    0    0  0.18529911562E+02 -0.19717575554E+01  0.39655163157E+01  0.19051791786E+02  0.51100000000E-03 0.  1.
         12    1    3    3    0    0 -0.28204909746E+02  0.44849847265E+01 -0.62308823930E+01  0.29231077933E+02  0.00000000000E+00 0. -1.
</event>
<event>
 7    1  0.1788006E-013  0.7246157E+02  0.7816164E-02  0.1226708E+00
        -11   -1    0    0    0    0  0.00000000000E+00  0.00000000000E+00  0.45593999997E+02  0.45594000000E+02  0.51100000000E-03 0. -1.
         11   -1    0    0    0    0 -0.00000000000E+00 -0.00000000000E+00 -0.45593999997E+02  0.45594000000E+02  0.51100000000E-03 0.  1.
    9900012    2    1    2    0    0 -0.45473388558E+00  0.17754378633E+02 -0.59375411634E+01  0.72461571120E+02  0.70000001075E+02 0.  0.
        -12    1    1    2    0    0  0.45473388558E+00 -0.17754378633E+02  0.59375411634E+01  0.18726428880E+02  0.00000000000E+00 0.  1.
         11    1    3    3    0    0 -0.17921482356E+02  0.32305343920E+01  0.80190196670E+01  0.19897752611E+02  0.51100000000E-03 0. -1.
        -11    1    3    3    0    0 -0.91428652407E+01 -0.10631541112E+02 -0.29690913172E+01  0.14333079039E+02  0.51100000000E-03 0.  1.
        -12    1    3    3    0    0  0.26609613711E+02  0.25155385353E+02 -0.10987469513E+02  0.38230739470E+02  0.00000000000E+00 0.  1.
</event>
<event>
 7    1  0.1788006E-013  0.7246151E+02  0.7816164E-02  0.1226708E+00
        -11   -1    0    0    0    0  0.00000000000E+00  0.00000000000E+00  0.45593999997E+02  0.45594000000E+02  0.51100000000E-03 0.  1.
         11   -1    0    0    0    0 -0.00000000000E+00 -0.00000000000E+00 -0.45593999997E+02  0.45594000000E+02  0.51100000000E-03 0. -1.
    9900012    2    1    2    0    0  0.11870392768E+02  0.11526323871E+02 -0.87703585692E+01  0.72461506578E+02  0.69999916997E+02 0.  0.
        -12    1    1    2    0    0 -0.11870392768E+02 -0.11526323871E+02  0.87703585692E+01  0.18726493422E+02  0.00000000000E+00 0.  1.
         11    1    3    3    0    0 -0.63522216687E+01  0.64338907797E+01 -0.15073920052E+02  0.17577506555E+02  0.51100000000E-03 0. -1.
        -11    1    3    3    0    0 -0.15543167895E+02  0.16496465470E+01 -0.85717195865E+01  0.17826547026E+02  0.51100000000E-03 0.  1.
         12    1    3    3    0    0  0.33765782332E+02  0.34427865447E+01  0.14875281069E+02  0.37057452997E+02  0.00000000000E+00 0. -1.
</event>
<event>
 7    1  0.1788006E-013  0.7246157E+02  0.7816164E-02  0.1226708E+00
        -11   -1    0    0    0    0  0.00000000000E+00  0.00000000000E+00  0.45593999997E+02  0.45594000000E+02  0.51100000000E-03 0. -1.
         11   -1    0    0    0    0 -0.00000000000E+00 -0.00000000000E+00 -0.45593999997E+02  0.45594000000E+02  0.51100000000E-03 0.  1.
    9900012    2    1    2    0    0  0.16397089864E+02  0.89321352841E+01  0.14253048603E+01  0.72461572400E+02  0.70000002742E+02 0.  0.
        -12    1    1    2    0    0 -0.16397089864E+02 -0.89321352841E+01 -0.14253048603E+01  0.18726427600E+02  0.00000000000E+00 0.  1.
         11    1    3    3    0    0 -0.15127059354E+01 -0.18572421528E+02  0.23600503238E+01  0.18782783565E+02  0.51100000000E-03 0. -1.
        -11    1    3    3    0    0  0.18113385058E+01  0.19334057869E+02 -0.19684311686E+02  0.27650657635E+02  0.51100000000E-03 0.  1.
         12    1    3    3    0    0  0.16098457293E+02  0.81704989430E+01  0.18749566222E+02  0.26028131199E+02  0.00000000000E+00 0. -1.
</event>
<event>
 7    1  0.1788006E-013  0.7246178E+02  0.7816164E-02  0.1226707E+00
        -11   -1    0    0    0    0  0.00000000000E+00  0.00000000000E+00  0.45593999997E+02  0.45594000000E+02  0.51100000000E-03 0. -1.
         11   -1    0    0    0    0 -0.00000000000E+00 -0.00000000000E+00 -0.45593999997E+02  0.45594000000E+02  0.51100000000E-03 0.  1.
    9900012    2    1    2    0    0 -0.17081063873E+02  0.61500113748E+01 -0.45919398142E+01  0.72461780568E+02  0.70000273920E+02 0.  0.
        -12    1    1    2    0    0  0.17081063873E+02 -0.61500113748E+01  0.45919398142E+01  0.18726219432E+02  0.00000000000E+00 0.  1.
         11    1    3    3    0    0 -0.67109284845E+01  0.16562084226E+02 -0.13049596835E+02  0.22127611097E+02  0.51100000000E-03 0. -1.
        -11    1    3    3    0    0  0.17691576546E+02  0.37464649869E+01  0.15300326292E+01  0.18148522824E+02  0.51100000000E-03 0.  1.
         12    1    3    3    0    0 -0.28061711935E+02 -0.14158537838E+02  0.69276243917E+01  0.32185646648E+02  0.00000000000E+00 0. -1.
</event>
<event>
 7    1  0.1788006E-013  0.7246159E+02  0.7816164E-02  0.1226708E+00
        -11   -1    0    0    0    0  0.00000000000E+00  0.00000000000E+00  0.45593999997E+02  0.45594000000E+02  0.51100000000E-03 0.  1.
         11   -1    0    0    0    0 -0.00000000000E+00 -0.00000000000E+00 -0.45593999997E+02  0.45594000000E+02  0.51100000000E-03 0. -1.
    9900012    2    1    2    0    0 -0.77751449626E+01  0.13156329784E+02 -0.10822966821E+02  0.72461588080E+02  0.70000023169E+02 0.  0.
        -12    1    1    2    0    0  0.77751449626E+01 -0.13156329784E+02  0.10822966821E+02  0.18726411920E+02  0.00000000000E+00 0.  1.
         11    1    3    3    0    0  0.65224798962E+01  0.47647740009E+01  0.83086045430E+01  0.11587869735E+02  0.51100000000E-03 0. -1.
        -11    1    3    3    0    0  0.21196601271E+02  0.62682160250E+01 -0.93092016131E+01  0.23984321389E+02  0.51100000000E-03 0.  1.
         12    1    3    3    0    0 -0.35494226130E+02  0.21233397579E+01 -0.98223697513E+01  0.36889396956E+02  0.00000000000E+00 0. -1.
</event>
<event>
 7    1  0.1788006E-013  0.7246155E+02  0.7816164E-02  0.1226708E+00
        -11   -1    0    0    0    0  0.00000000000E+00  0.00000000000E+00  0.45593999997E+02  0.45594000000E+02  0.51100000000E-03 0.  1.
         11   -1    0    0    0    0 -0.00000000000E+00 -0.00000000000E+00 -0.45593999997E+02  0.45594000000E+02  0.51100000000E-03 0. -1.
    9900012    2    1    2    0    0  0.88316193906E+01 -0.10586301791E+02 -0.12673298682E+02  0.72461553830E+02  0.69999978552E+02 0.  0.
        -12    1    1    2    0    0 -0.88316193906E+01  0.10586301791E+02  0.12673298682E+02  0.18726446170E+02  0.00000000000E+00 0.  1.
         11    1    3    3    0    0 -0.24859925515E+01  0.15364312802E+02 -0.11491849149E+02  0.19346960070E+02  0.51100000000E-03 0. -1.
        -11    1    3    3    0    0  0.11199679295E+02  0.63202166125E+01 -0.13432861162E+02  0.18596228478E+02  0.51100000000E-03 0.  1.
         12    1    3    3    0    0  0.11793264661E+00 -0.32270831206E+02  0.12251411629E+02  0.34518365282E+02  0.00000000000E+00 0. -1.
</event>
<event>
 7    1  0.1788006E-013  0.7246162E+02  0.7816164E-02  0.1226708E+00
        -11   -1    0    0    0    0  0.00000000000E+00  0.00000000000E+00  0.45593999997E+02  0.45594000000E+02  0.51100000000E-03 0.  1.
         11   -1    0    0    0    0 -0.00000000000E+00 -0.00000000000E+00 -0.45593999997E+02  0.45594000000E+02  0.51100000000E-03 0. -1.
    9900012    2    1    2    0    0 -0.97515690996E+01  0.31500607088E+01 -0.15673589472E+02  0.72461617826E+02  0.70000061919E+02 0.  0.
        -12    1    1    2    0    0  0.97515690996E+01 -0.31500607088E+01  0.15673589472E+02  0.18726382174E+02  0.00000000000E+00 0.  1.
         11    1    3    3    0    0  0.15587566176E+02  0.12685506041E+02 -0.18299151507E+02  0.27180015249E+02  0.51100000000E-03 0. -1.
        -11    1    3    3    0    0  0.27568725749E+01  0.51702920496E+01 -0.96393933322E+01  0.11280521723E+02  0.51100000000E-03 0.  1.
        -12    1    3    3    0    0 -0.28096007850E+02 -0.14705737382E+02  0.12264955367E+02  0.34001080854E+02  0.00000000000E+00 0.  1.
</event>
<event>
 7    1  0.1788006E-013  0.7246171E+02  0.7816164E-02  0.1226708E+00
        -11   -1    0    0    0    0  0.00000000000E+00  0.00000000000E+00  0.45593999997E+02  0.45594000000E+02  0.51100000000E-03 0. -1.
         11   -1    0    0    0    0 -0.00000000000E+00 -0.00000000000E+00 -0.45593999997E+02  0.45594000000E+02  0.51100000000E-03 0.  1.
    9900012    2    1    2    0    0 -0.73358439987E+01  0.17065433512E+02 -0.23728057632E+01  0.72461712720E+02  0.70000185535E+02 0.  0.
        -12    1    1    2    0    0  0.73358439987E+01 -0.17065433512E+02  0.23728057632E+01  0.18726287280E+02  0.00000000000E+00 0.  1.
         11    1    3    3    0    0  0.11321190135E+02  0.23547081047E+02 -0.11200237565E+02  0.28426742580E+02  0.51100000000E-03 0.  1.
        -11    1    3    3    0    0 -0.23984649021E+02  0.20616824594E+01  0.18278221095E+02  0.30225937370E+02  0.51100000000E-03 0. -1.
         12    1    3    3    0    0  0.53276148873E+01 -0.85433299950E+01 -0.94507892931E+01  0.13809032770E+02  0.00000000000E+00 0. -1.
</event>
<event>
 7    1  0.1788006E-013  0.7246151E+02  0.7816164E-02  0.1226708E+00
        -11   -1    0    0    0    0  0.00000000000E+00  0.00000000000E+00  0.45593999997E+02  0.45594000000E+02  0.51100000000E-03 0.  1.
         11   -1    0    0    0    0 -0.00000000000E+00 -0.00000000000E+00 -0.45593999997E+02  0.45594000000E+02  0.51100000000E-03 0. -1.
    9900012    2    1    2    0    0 -0.88985340032E+01 -0.16340222394E+02 -0.21200994131E+01  0.72461505485E+02  0.69999915574E+02 0.  0.
        -12    1    1    2    0    0  0.88985340032E+01  0.16340222394E+02  0.21200994131E+01  0.18726494515E+02  0.00000000000E+00 0.  1.
         11    1    3    3    0    0  0.21545246296E+01 -0.38170348122E+01 -0.12179747234E+02  0.12944418646E+02  0.51100000000E-03 0. -1.
        -11    1    3    3    0    0 -0.18100009422E+02 -0.32590410435E+02  0.46246490031E+01  0.37565044551E+02  0.51100000000E-03 0.  1.
         12    1    3    3    0    0  0.70469507896E+01  0.20067222854E+02  0.54349988177E+01  0.21952042288E+02  0.00000000000E+00 0. -1.
</event>
<event>
 7    1  0.1788006E-013  0.7246159E+02  0.7816164E-02  0.1226708E+00
        -11   -1    0    0    0    0  0.00000000000E+00  0.00000000000E+00  0.45593999997E+02  0.45594000000E+02  0.51100000000E-03 0.  1.
         11   -1    0    0    0    0 -0.00000000000E+00 -0.00000000000E+00 -0.45593999997E+02  0.45594000000E+02  0.51100000000E-03 0. -1.
    9900012    2    1    2    0    0 -0.63756354630E+01 -0.16587703805E+02  0.59057425580E+01  0.72461589766E+02  0.70000025366E+02 0.  0.
        -12    1    1    2    0    0  0.63756354630E+01  0.16587703805E+02 -0.59057425580E+01  0.18726410234E+02  0.00000000000E+00 0.  1.
         11    1    3    3    0    0  0.45598918473E+01 -0.73044352153E+01 -0.74614777759E+01  0.11393903560E+02  0.51100000000E-03 0. -1.
        -11    1    3    3    0    0 -0.33952327286E+02  0.16191713775E+01  0.96132770850E+01  0.35324175018E+02  0.51100000000E-03 0.  1.
         12    1    3    3    0    0  0.23016799976E+02 -0.10902439968E+02  0.37539432489E+01  0.25743511188E+02  0.00000000000E+00 0. -1.
</event>
<event>
 7    1  0.1788006E-013  0.7246161E+02  0.7816164E-02  0.1226708E+00
        -11   -1    0    0    0    0  0.00000000000E+00  0.00000000000E+00  0.45593999997E+02  0.45594000000E+02  0.51100000000E-03 0.  1.
         11   -1    0    0    0    0 -0.00000000000E+00 -0.00000000000E+00 -0.45593999997E+02  0.45594000000E+02  0.51100000000E-03 0. -1.
    9900012    2    1    2    0    0  0.12701735559E+02  0.13389870257E+02  0.31709330193E+01  0.72461614125E+02  0.70000057098E+02 0.  0.
        -12    1    1    2    0    0 -0.12701735559E+02 -0.13389870257E+02 -0.31709330193E+01  0.18726385875E+02  0.00000000000E+00 0.  1.
         11    1    3    3    0    0 -0.13516201444E+00  0.52458911756E+01  0.20759299302E+02  0.21412289713E+02  0.51100000000E-03 0. -1.
        -11    1    3    3    0    0  0.28191417241E+02  0.13930949768E+02 -0.12851871132E+02  0.33970545467E+02  0.51100000000E-03 0.  1.
         12    1    3    3    0    0 -0.15354519668E+02 -0.57869706859E+01 -0.47364951502E+01  0.17078778945E+02  0.00000000000E+00 0. -1.
</event>
<event>
 7    1  0.1788006E-013  0.7246172E+02  0.7816164E-02  0.1226708E+00
        -11   -1    0    0    0    0  0.00000000000E+00  0.00000000000E+00  0.45593999997E+02  0.45594000000E+02  0.51100000000E-03 0. -1.
         11   -1    0    0    0    0 -0.00000000000E+00 -0.00000000000E+00 -0.45593999997E+02  0.45594000000E+02  0.51100000000E-03 0.  1.
    9900012    2    1    2    0    0 -0.17691367559E+02  0.42287080394E+01 -0.44505193233E+01  0.72461719535E+02  0.70000194414E+02 0.  0.
        -12    1    1    2    0    0  0.17691367559E+02 -0.42287080394E+01  0.44505193233E+01  0.18726280465E+02  0.00000000000E+00 0.  1.
         11    1    3    3    0    0 -0.24084266804E+02 -0.74276528139E+01 -0.45277406493E+01  0.25607076550E+02  0.51100000000E-03 0. -1.
        -11    1    3    3    0    0 -0.13095772535E+02 -0.69486761361E+01  0.10283737653E+02  0.18042688788E+02  0.51100000000E-03 0.  1.
        -12    1    3    3    0    0  0.19488671780E+02  0.18605036989E+02 -0.10206516327E+02  0.28811954197E+02  0.00000000000E+00 0.  1.
</event>
<event>
 7    1  0.1788006E-013  0.7246159E+02  0.7816164E-02  0.1226708E+00
        -11   -1    0    0    0    0  0.00000000000E+00  0.00000000000E+00  0.45593999997E+02  0.45594000000E+02  0.51100000000E-03 0.  1.
         11   -1    0    0    0    0 -0.00000000000E+00 -0.00000000000E+00 -0.45593999997E+02  0.45594000000E+02  0.51100000000E-03 0. -1.
    9900012    2    1    2    0    0 -0.13891124270E+02 -0.32461322874E-01 -0.12558421803E+02  0.72461592298E+02  0.70000028664E+02 0.  0.
        -12    1    1    2    0    0  0.13891124270E+02  0.32461322874E-01  0.12558421803E+02  0.18726407702E+02  0.00000000000E+00 0.  1.
         11    1    3    3    0    0  0.27002537585E+01  0.15204963278E+02 -0.10955186827E+02  0.18934053907E+02  0.51100000000E-03 0. -1.
        -11    1    3    3    0    0 -0.56676775495E+01 -0.36924574984E+01 -0.24633449198E+02  0.25545325029E+02  0.51100000000E-03 0.  1.
        -12    1    3    3    0    0 -0.10923700480E+02 -0.11544967103E+02  0.23030214222E+02  0.27982213363E+02  0.00000000000E+00 0.  1.
</event>
<event>
 7    1  0.1788006E-013  0.7246153E+02  0.7816164E-02  0.1226708E+00
        -11   -1    0    0    0    0  0.00000000000E+00  0.00000000000E+00  0.45593999997E+02  0.45594000000E+02  0.51100000000E-03 0.  1.
         11   -1    0    0    0    0 -0.00000000000E+00 -0.00000000000E+00 -0.45593999997E+02  0.45594000000E+02  0.51100000000E-03 0. -1.
    9900012    2    1    2    0    0 -0.14003105558E+02 -0.10404904423E+02 -0.68067363618E+01  0.72461530466E+02  0.69999948116E+02 0.  0.
        -12    1    1    2    0    0  0.14003105558E+02  0.10404904423E+02  0.68067363618E+01  0.18726469534E+02  0.00000000000E+00 0.  1.
         11    1    3    3    0    0  0.31811902294E+01  0.10632159535E+01 -0.99225151101E+01  0.10474096897E+02  0.51100000000E-03 0. -1.
        -11    1    3    3    0    0 -0.22960367468E+02 -0.60541928177E+01 -0.23986965924E+02  0.33752129702E+02  0.51100000000E-03 0.  1.
        -12    1    3    3    0    0  0.57760716807E+01 -0.54139275587E+01  0.27102744672E+02  0.28235303867E+02  0.00000000000E+00 0.  1.
</event>
<event>
 7    1  0.1788006E-013  0.7246157E+02  0.7816164E-02  0.1226708E+00
        -11   -1    0    0    0    0  0.00000000000E+00  0.00000000000E+00  0.45593999997E+02  0.45594000000E+02  0.51100000000E-03 0.  1.
         11   -1    0    0    0    0 -0.00000000000E+00 -0.00000000000E+00 -0.45593999997E+02  0.45594000000E+02  0.51100000000E-03 0. -1.
    9900012    2    1    2    0    0 -0.11145698878E+00  0.17582272751E+01 -0.18643375720E+02  0.72461568305E+02  0.69999997408E+02 0.  0.
        -12    1    1    2    0    0  0.11145698878E+00 -0.17582272751E+01  0.18643375720E+02  0.18726431695E+02  0.00000000000E+00 0.  1.
         11    1    3    3    0    0 -0.10927023167E+02  0.22971990057E+02 -0.20098821581E+02  0.32420283645E+02  0.51100000000E-03 0. -1.
        -11    1    3    3    0    0 -0.71032941864E+01  0.19586936802E+01  0.70744629858E+01  0.10214758736E+02  0.51100000000E-03 0.  1.
        -12    1    3    3    0    0  0.17918860365E+02 -0.23172456462E+02 -0.56190171250E+01  0.29826525924E+02  0.00000000000E+00 0.  1.
</event>
<event>
 7    1  0.1788006E-013  0.7246173E+02  0.7816164E-02  0.1226708E+00
        -11   -1    0    0    0    0  0.00000000000E+00  0.00000000000E+00  0.45593999997E+02  0.45594000000E+02  0.51100000000E-03 0. -1.
         11   -1    0    0    0    0 -0.00000000000E+00 -0.00000000000E+00 -0.45593999997E+02  0.45594000000E+02  0.51100000000E-03 0.  1.
    9900012    2    1    2    0    0 -0.29312007877E+01 -0.18472583501E+02  0.91923260692E+00  0.72461727871E+02  0.70000205273E+02 0.  0.
        -12    1    1    2    0    0  0.29312007877E+01  0.18472583501E+02 -0.91923260692E+00  0.18726272129E+02  0.00000000000E+00 0.  1.
         11    1    3    3    0    0 -0.22617134454E+02 -0.15368331894E+02 -0.24481900734E+00  0.27345572452E+02  0.51100000000E-03 0. -1.
        -11    1    3    3    0    0 -0.49324165553E+01 -0.11905719870E+02  0.11237316926E+02  0.17098309585E+02  0.51100000000E-03 0.  1.
        -12    1    3    3    0    0  0.24618350221E+02  0.88014682625E+01 -0.10073265312E+02  0.28017845835E+02  0.00000000000E+00 0.  1.
</event>
<event>
 7    1  0.1788006E-013  0.7246156E+02  0.7816164E-02  0.1226708E+00
        -11   -1    0    0    0    0  0.00000000000E+00  0.00000000000E+00  0.45593999997E+02  0.45594000000E+02  0.51100000000E-03 0.  1.
         11   -1    0    0    0    0 -0.00000000000E+00 -0.00000000000E+00 -0.45593999997E+02  0.45594000000E+02  0.51100000000E-03 0. -1.
    9900012    2    1    2    0    0  0.32197353797E+01  0.16709640593E+02 -0.78167091519E+01  0.72461555420E+02  0.69999980623E+02 0.  0.
        -12    1    1    2    0    0 -0.32197353797E+01 -0.16709640593E+02  0.78167091519E+01  0.18726444580E+02  0.00000000000E+00 0.  1.
         11    1    3    3    0    0 -0.10648894307E+01 -0.72513605382E+01 -0.51469397646E+01  0.89558477184E+01  0.51100000000E-03 0. -1.
        -11    1    3    3    0    0 -0.12393339627E+02 -0.24257106214E+01  0.20880895429E+02  0.24402678814E+02  0.51100000000E-03 0.  1.
        -12    1    3    3    0    0  0.16677964437E+02  0.26386711752E+02 -0.23550664816E+02  0.39103028887E+02  0.00000000000E+00 0.  1.
</event>
<event>
 7    1  0.1788006E-013  0.7246157E+02  0.7816164E-02  0.1226708E+00
        -11   -1    0    0    0    0  0.00000000000E+00  0.00000000000E+00  0.45593999997E+02  0.45594000000E+02  0.51100000000E-03 0.  1.
         11   -1    0    0    0    0 -0.00000000000E+00 -0.00000000000E+00 -0.45593999997E+02  0.45594000000E+02  0.51100000000E-03 0. -1.
    9900012    2    1    2    0    0  0.17790172789E+01 -0.73517939914E+01 -0.17130828931E+02  0.72461572759E+02  0.70000003210E+02 0.  0.
        -12    1    1    2    0    0 -0.17790172789E+01  0.73517939914E+01  0.17130828931E+02  0.18726427241E+02  0.00000000000E+00 0.  1.
         11    1    3    3    0    0 -0.81301381849E+01 -0.39457219668E+00  0.39798289597E+01  0.90605669212E+01  0.51100000000E-03 0. -1.
        -11    1    3    3    0    0 -0.90427140263E+01  0.17290276650E+02  0.79534854868E+01  0.21070886912E+02  0.51100000000E-03 0.  1.
        -12    1    3    3    0    0  0.18951869490E+02 -0.24247498445E+02 -0.29064143377E+02  0.42330118926E+02  0.00000000000E+00 0.  1.
</event>
<event>
 7    1  0.2286851E-013  0.7246155E+02  0.7816164E-02  0.1226708E+00
        -11   -1    0    0    0    0  0.00000000000E+00  0.00000000000E+00  0.45593999997E+02  0.45594000000E+02  0.51100000000E-03 0. -1.
         11   -1    0    0    0    0 -0.00000000000E+00 -0.00000000000E+00 -0.45593999997E+02  0.45594000000E+02  0.51100000000E-03 0.  1.
    9900012    2    1    2    0    0  0.13887611411E+02 -0.20572156208E+01  0.12392814729E+02  0.72461554963E+02  0.69999980028E+02 0.  0.
        -12    1    1    2    0    0 -0.13887611411E+02  0.20572156208E+01 -0.12392814729E+02  0.18726445037E+02  0.00000000000E+00 0.  1.
         11    1    3    3    0    0 -0.11736884137E+02  0.19055899084E+01  0.58933954387E+01  0.13270939386E+02  0.51100000000E-03 0. -1.
        -11    1    3    3    0    0  0.63981318457E+01  0.32970190322E+01 -0.22513640394E+02  0.23636210138E+02  0.51100000000E-03 0.  1.
         12    1    3    3    0    0  0.19226363702E+02 -0.72598245614E+01  0.29013059685E+02  0.35554405439E+02  0.00000000000E+00 0. -1.
</event>
<event>
 7    1  0.1788006E-013  0.7246157E+02  0.7816164E-02  0.1226708E+00
        -11   -1    0    0    0    0  0.00000000000E+00  0.00000000000E+00  0.45593999997E+02  0.45594000000E+02  0.51100000000E-03 0. -1.
         11   -1    0    0    0    0 -0.00000000000E+00 -0.00000000000E+00 -0.45593999997E+02  0.45594000000E+02  0.51100000000E-03 0.  1.
    9900012    2    1    2    0    0  0.94412503017E+01 -0.54645275040E+01 -0.15221063536E+02  0.72461573665E+02  0.70000004391E+02 0.  0.
        -12    1    1    2    0    0 -0.94412503017E+01  0.54645275040E+01  0.15221063536E+02  0.18726426335E+02  0.00000000000E+00 0.  1.
         11    1    3    3    0    0  0.70806923159E+01 -0.24823922412E+01 -0.11459695268E+02  0.13697557841E+02  0.51100000000E-03 0. -1.
        -11    1    3    3    0    0 -0.15639979335E+01  0.93609693501E+01 -0.28936144826E+02  0.30452821124E+02  0.51100000000E-03 0.  1.
         12    1    3    3    0    0  0.39245559193E+01 -0.12343104613E+02  0.25174776558E+02  0.28311194701E+02  0.00000000000E+00 0. -1.
</event>
<event>
 7    1  0.1788006E-013  0.7246157E+02  0.7816164E-02  0.1226708E+00
        -11   -1    0    0    0    0  0.00000000000E+00  0.00000000000E+00  0.45593999997E+02  0.45594000000E+02  0.51100000000E-03 0. -1.
         11   -1    0    0    0    0 -0.00000000000E+00 -0.00000000000E+00 -0.45593999997E+02  0.45594000000E+02  0.51100000000E-03 0.  1.
    9900012    2    1    2    0    0  0.19956200788E+01  0.42929139572E+01  0.18118154568E+02  0.72461571224E+02  0.70000001211E+02 0.  0.
        -12    1    1    2    0    0 -0.19956200788E+01 -0.42929139572E+01 -0.18118154568E+02  0.18726428776E+02  0.00000000000E+00 0.  1.
         11    1    3    3    0    0 -0.24341935037E+02  0.15707657836E+02  0.50746141501E+01  0.29411086771E+02  0.51100000000E-03 0. -1.
        -11    1    3    3    0    0 -0.63421124183E+01 -0.23349789270E+01  0.43474519581E+01  0.80358481385E+01  0.51100000000E-03 0.  1.
        -12    1    3    3    0    0  0.32679667534E+02 -0.90797649516E+01  0.86960884598E+01  0.35014636314E+02  0.00000000000E+00 0.  1.
</event>
<event>
 7    1  0.1788006E-013  0.7246157E+02  0.7816164E-02  0.1226708E+00
        -11   -1    0    0    0    0  0.00000000000E+00  0.00000000000E+00  0.45593999997E+02  0.45594000000E+02  0.51100000000E-03 0. -1.
         11   -1    0    0    0    0 -0.00000000000E+00 -0.00000000000E+00 -0.45593999997E+02  0.45594000000E+02  0.51100000000E-03 0.  1.
    9900012    2    1    2    0    0 -0.10130416073E+02  0.10271728504E+02  0.11939241974E+02  0.72461568541E+02  0.69999997716E+02 0.  0.
        -12    1    1    2    0    0  0.10130416073E+02 -0.10271728504E+02 -0.11939241974E+02  0.18726431459E+02  0.00000000000E+00 0.  1.
         11    1    3    3    0    0 -0.13794989799E+02  0.30394394373E+02  0.10907886841E+02  0.35115565615E+02  0.51100000000E-03 0. -1.
        -11    1    3    3    0    0  0.16241134818E+01  0.96436030450E+00 -0.12214992777E+02  0.12360169263E+02  0.51100000000E-03 0.  1.
        -12    1    3    3    0    0  0.20404602445E+01 -0.21087026174E+02  0.13246347911E+02  0.24985833663E+02  0.00000000000E+00 0.  1.
</event>
<event>
 7    1  0.1788006E-013  0.7246154E+02  0.7816164E-02  0.1226708E+00
        -11   -1    0    0    0    0  0.00000000000E+00  0.00000000000E+00  0.45593999997E+02  0.45594000000E+02  0.51100000000E-03 0.  1.
         11   -1    0    0    0    0 -0.00000000000E+00 -0.00000000000E+00 -0.45593999997E+02  0.45594000000E+02  0.51100000000E-03 0. -1.
    9900012    2    1    2    0    0 -0.15920384103E+02  0.48712376667E+01 -0.85727884789E+01  0.72461540412E+02  0.69999961072E+02 0.  0.
        -12    1    1    2    0    0  0.15920384103E+02 -0.48712376667E+01  0.85727884789E+01  0.18726459588E+02  0.00000000000E+00 0.  1.
         11    1    3    3    0    0 -0.10689886090E+02  0.87972286844E+00 -0.56440061696E+01  0.12120329321E+02  0.51100000000E-03 0. -1.
        -11    1    3    3    0    0 -0.14645337692E+02  0.29528157188E+02 -0.32683465154E+01  0.33122199085E+02  0.51100000000E-03 0.  1.
        -12    1    3    3    0    0  0.94148396794E+01 -0.25536642389E+02  0.33956420609E+00  0.27219012006E+02  0.00000000000E+00 0.  1.
</event>
<event>
 7    1  0.1788006E-013  0.7246154E+02  0.7816164E-02  0.1226708E+00
        -11   -1    0    0    0    0  0.00000000000E+00  0.00000000000E+00  0.45593999997E+02  0.45594000000E+02  0.51100000000E-03 0. -1.
         11   -1    0    0    0    0 -0.00000000000E+00 -0.00000000000E+00 -0.45593999997E+02  0.45594000000E+02  0.51100000000E-03 0.  1.
    9900012    2    1    2    0    0  0.16636591066E+02  0.85257987166E+01 -0.11023020938E+01  0.72461535412E+02  0.69999954559E+02 0.  0.
        -12    1    1    2    0    0 -0.16636591066E+02 -0.85257987166E+01  0.11023020938E+01  0.18726464588E+02  0.00000000000E+00 0.  1.
         11    1    3    3    0    0 -0.74094484029E+01  0.19076242361E+02 -0.17200834549E+01  0.20536836066E+02  0.51100000000E-03 0. -1.
        -11    1    3    3    0    0  0.26739036647E+02 -0.85836270010E+01 -0.17772662384E+02  0.33234353639E+02  0.51100000000E-03 0.  1.
         12    1    3    3    0    0 -0.26929971781E+01 -0.19668166431E+01  0.18390443745E+02  0.18690345707E+02  0.00000000000E+00 0. -1.
</event>
<event>
 7    1  0.1788006E-013  0.7246159E+02  0.7816164E-02  0.1226708E+00
        -11   -1    0    0    0    0  0.00000000000E+00  0.00000000000E+00  0.45593999997E+02  0.45594000000E+02  0.51100000000E-03 0.  1.
         11   -1    0    0    0    0 -0.00000000000E+00 -0.00000000000E+00 -0.45593999997E+02  0.45594000000E+02  0.51100000000E-03 0. -1.
    9900012    2    1    2    0    0  0.66299625585E+01  0.10044752974E+02 -0.14346603676E+02  0.72461588094E+02  0.70000023187E+02 0.  0.
        -12    1    1    2    0    0 -0.66299625585E+01 -0.10044752974E+02  0.14346603676E+02  0.18726411906E+02  0.00000000000E+00 0.  1.
         11    1    3    3    0    0  0.19678683363E+01 -0.71821261567E+01 -0.22344861049E+01  0.77748550040E+01  0.51100000000E-03 0. -1.
        -11    1    3    3    0    0  0.15832693755E+02 -0.11006182611E+02  0.14647570366E+02  0.24214903780E+02  0.51100000000E-03 0.  1.
         12    1    3    3    0    0 -0.11170599532E+02  0.28233061741E+02 -0.26759687937E+02  0.40471829310E+02  0.00000000000E+00 0. -1.
</event>
<event>
 7    1  0.1788006E-013  0.7246158E+02  0.7816164E-02  0.1226708E+00
        -11   -1    0    0    0    0  0.00000000000E+00  0.00000000000E+00  0.45593999997E+02  0.45594000000E+02  0.51100000000E-03 0.  1.
         11   -1    0    0    0    0 -0.00000000000E+00 -0.00000000000E+00 -0.45593999997E+02  0.45594000000E+02  0.51100000000E-03 0. -1.
    9900012    2    1    2    0    0 -0.35536599312E+01 -0.60437050274E+01 -0.17364447701E+02  0.72461577135E+02  0.70000008911E+02 0.  0.
        -12    1    1    2    0    0  0.35536599312E+01  0.60437050274E+01  0.17364447701E+02  0.18726422865E+02  0.00000000000E+00 0.  1.
         11    1    3    3    0    0 -0.39118885982E+00 -0.33272796880E+00 -0.12535880328E+01  0.13547028612E+01  0.51100000000E-03 0. -1.
        -11    1    3    3    0    0  0.20474047240E+02  0.23230188842E+02 -0.15512705334E+01  0.31003785648E+02  0.51100000000E-03 0.  1.
        -12    1    3    3    0    0 -0.23636518311E+02 -0.28941165900E+02 -0.14559589135E+02  0.40103088626E+02  0.00000000000E+00 0.  1.
</event>
<event>
 7    1  0.1788006E-013  0.7246159E+02  0.7816164E-02  0.1226708E+00
        -11   -1    0    0    0    0  0.00000000000E+00  0.00000000000E+00  0.45593999997E+02  0.45594000000E+02  0.51100000000E-03 0.  1.
         11   -1    0    0    0    0 -0.00000000000E+00 -0.00000000000E+00 -0.45593999997E+02  0.45594000000E+02  0.51100000000E-03 0. -1.
    9900012    2    1    2    0    0  0.17248157565E+02 -0.67226369562E+01  0.28258983980E+01  0.72461588470E+02  0.70000023678E+02 0.  0.
        -12    1    1    2    0    0 -0.17248157565E+02  0.67226369562E+01 -0.28258983980E+01  0.18726411530E+02  0.00000000000E+00 0.  1.
         11    1    3    3    0    0  0.47325262766E+01 -0.14028669546E+01 -0.22846575376E+02  0.23373721298E+02  0.51100000000E-03 0. -1.
        -11    1    3    3    0    0  0.10254798858E+02 -0.20120221498E+02  0.42931473316E+01  0.22987286204E+02  0.51100000000E-03 0.  1.
        -12    1    3    3    0    0  0.22608324300E+01  0.14800451497E+02  0.21379326442E+02  0.26100580969E+02  0.00000000000E+00 0.  1.
</event>
<event>
 7    1  0.1788006E-013  0.7246157E+02  0.7816164E-02  0.1226708E+00
        -11   -1    0    0    0    0  0.00000000000E+00  0.00000000000E+00  0.45593999997E+02  0.45594000000E+02  0.51100000000E-03 0.  1.
         11   -1    0    0    0    0 -0.00000000000E+00 -0.00000000000E+00 -0.45593999997E+02  0.45594000000E+02  0.51100000000E-03 0. -1.
    9900012    2    1    2    0    0  0.15881916887E+02  0.98932527456E+01  0.75334609686E+00  0.72461567765E+02  0.69999996705E+02 0.  0.
        -12    1    1    2    0    0 -0.15881916887E+02 -0.98932527456E+01 -0.75334609686E+00  0.18726432235E+02  0.00000000000E+00 0.  1.
         11    1    3    3    0    0  0.95888740396E+01  0.11743862450E+02 -0.24567993570E+01  0.15359058368E+02  0.51100000000E-03 0. -1.
        -11    1    3    3    0    0  0.23164581397E+02 -0.15990345013E+02  0.15248527203E+02  0.32012599817E+02  0.51100000000E-03 0.  1.
         12    1    3    3    0    0 -0.16871538549E+02  0.14139735308E+02 -0.12038381750E+02  0.25089909580E+02  0.00000000000E+00 0. -1.
</event>
<event>
 7    1  0.1788006E-013  0.7246157E+02  0.7816164E-02  0.1226708E+00
        -11   -1    0    0    0    0  0.00000000000E+00  0.00000000000E+00  0.45593999997E+02  0.45594000000E+02  0.51100000000E-03 0.  1.
         11   -1    0    0    0    0 -0.00000000000E+00 -0.00000000000E+00 -0.45593999997E+02  0.45594000000E+02  0.51100000000E-03 0. -1.
    9900012    2    1    2    0    0 -0.48754624602E+01  0.13781057910E+02 -0.11704335646E+02  0.72461570435E+02  0.70000000183E+02 0.  0.
        -12    1    1    2    0    0  0.48754624602E+01 -0.13781057910E+02  0.11704335646E+02  0.18726429565E+02  0.00000000000E+00 0.  1.
         11    1    3    3    0    0  0.11272567759E+02 -0.11379648925E+01 -0.15787465597E+02  0.19432185112E+02  0.51100000000E-03 0. -1.
        -11    1    3    3    0    0 -0.94173868671E+01 -0.15632996648E+01 -0.20536547621E+02  0.22646873287E+02  0.51100000000E-03 0.  1.
        -12    1    3    3    0    0 -0.67306433524E+01  0.16482322468E+02  0.24619677572E+02  0.30382512036E+02  0.00000000000E+00 0.  1.
</event>
<event>
 7    1  0.1788006E-013  0.7246158E+02  0.7816164E-02  0.1226708E+00
        -11   -1    0    0    0    0  0.00000000000E+00  0.00000000000E+00  0.45593999997E+02  0.45594000000E+02  0.51100000000E-03 0. -1.
         11   -1    0    0    0    0 -0.00000000000E+00 -0.00000000000E+00 -0.45593999997E+02  0.45594000000E+02  0.51100000000E-03 0.  1.
    9900012    2    1    2    0    0 -0.10560022767E+02  0.15165825027E+02  0.30269513784E+01  0.72461581115E+02  0.70000014096E+02 0.  0.
        -12    1    1    2    0    0  0.10560022767E+02 -0.15165825027E+02 -0.30269513784E+01  0.18726418885E+02  0.00000000000E+00 0.  1.
         11    1    3    3    0    0 -0.15789742711E+02  0.10515870821E+02  0.73629587239E+01  0.20349758609E+02  0.51100000000E-03 0. -1.
        -11    1    3    3    0    0 -0.10623156636E+02  0.10666747872E+02 -0.22622500173E+02  0.27173672579E+02  0.51100000000E-03 0.  1.
         12    1    3    3    0    0  0.15852876580E+02 -0.60167936656E+01  0.18286492828E+02  0.24938149928E+02  0.00000000000E+00 0. -1.
</event>
<event>
 7    1  0.1788006E-013  0.7246156E+02  0.7816164E-02  0.1226708E+00
        -11   -1    0    0    0    0  0.00000000000E+00  0.00000000000E+00  0.45593999997E+02  0.45594000000E+02  0.51100000000E-03 0.  1.
         11   -1    0    0    0    0 -0.00000000000E+00 -0.00000000000E+00 -0.45593999997E+02  0.45594000000E+02  0.51100000000E-03 0. -1.
    9900012    2    1    2    0    0 -0.59944145849E+01 -0.35770877657E+00 -0.17737487726E+02  0.72461563270E+02  0.69999990849E+02 0.  0.
        -12    1    1    2    0    0  0.59944145849E+01  0.35770877657E+00  0.17737487726E+02  0.18726436730E+02  0.00000000000E+00 0.  1.
         11    1    3    3    0    0  0.12612246575E+02  0.11475313085E+02 -0.95668215189E+01  0.19551870711E+02  0.51100000000E-03 0. -1.
        -11    1    3    3    0    0 -0.28856115886E+01  0.17828651716E+02  0.10652362207E+01  0.18092050871E+02  0.51100000000E-03 0.  1.
        -12    1    3    3    0    0 -0.15721049572E+02 -0.29661673577E+02 -0.92359024279E+01  0.34817641688E+02  0.00000000000E+00 0.  1.
</event>
<event>
 7    1  0.1788006E-013  0.7246151E+02  0.7816164E-02  0.1226708E+00
        -11   -1    0    0    0    0  0.00000000000E+00  0.00000000000E+00  0.45593999997E+02  0.45594000000E+02  0.51100000000E-03 0.  1.
         11   -1    0    0    0    0 -0.00000000000E+00 -0.00000000000E+00 -0.45593999997E+02  0.45594000000E+02  0.51100000000E-03 0. -1.
    9900012    2    1    2    0    0 -0.16799936778E+02 -0.81988300793E+01  0.11057076476E+01  0.72461513949E+02  0.69999926600E+02 0.  0.
        -12    1    1    2    0    0  0.16799936778E+02  0.81988300793E+01 -0.11057076476E+01  0.18726486051E+02  0.00000000000E+00 0.  1.
         11    1    3    3    0    0  0.56327705904E+01  0.94206220320E+01  0.21216669063E+02  0.23887722168E+02  0.51100000000E-03 0. -1.
        -11    1    3    3    0    0 -0.11239256003E+02  0.23544494320E+01  0.67170646213E+01  0.13303505741E+02  0.51100000000E-03 0.  1.
         12    1    3    3    0    0 -0.11193451366E+02 -0.19973901543E+02 -0.26828026036E+02  0.35270286040E+02  0.00000000000E+00 0. -1.
</event>
<event>
 7    1  0.1788006E-013  0.7246145E+02  0.7816164E-02  0.1226708E+00
        -11   -1    0    0    0    0  0.00000000000E+00  0.00000000000E+00  0.45593999997E+02  0.45594000000E+02  0.51100000000E-03 0. -1.
         11   -1    0    0    0    0 -0.00000000000E+00 -0.00000000000E+00 -0.45593999997E+02  0.45594000000E+02  0.51100000000E-03 0.  1.
    9900012    2    1    2    0    0  0.80866310855E+01 -0.16888971919E+02  0.22919635653E+00  0.72461454516E+02  0.69999849177E+02 0.  0.
        -12    1    1    2    0    0 -0.80866310855E+01  0.16888971919E+02 -0.22919635653E+00  0.18726545484E+02  0.00000000000E+00 0.  1.
         11    1    3    3    0    0  0.70756231240E+01 -0.90360143052E+01 -0.32891719187E+01  0.11938703836E+02  0.51100000000E-03 0. -1.
        -11    1    3    3    0    0  0.86581767553E+01 -0.18670181085E+02 -0.23009985509E+02  0.30870683826E+02  0.51100000000E-03 0.  1.
         12    1    3    3    0    0 -0.76471687937E+01  0.10817223471E+02  0.26528353785E+02  0.29652066854E+02  0.00000000000E+00 0. -1.
</event>
<event>
 7    1  0.1788006E-013  0.7246155E+02  0.7816164E-02  0.1226708E+00
        -11   -1    0    0    0    0  0.00000000000E+00  0.00000000000E+00  0.45593999997E+02  0.45594000000E+02  0.51100000000E-03 0. -1.
         11   -1    0    0    0    0 -0.00000000000E+00 -0.00000000000E+00 -0.45593999997E+02  0.45594000000E+02  0.51100000000E-03 0.  1.
    9900012    2    1    2    0    0  0.27876614239E+00  0.13229466734E+02  0.13250791973E+02  0.72461548426E+02  0.69999971513E+02 0.  0.
        -12    1    1    2    0    0 -0.27876614239E+00 -0.13229466734E+02 -0.13250791973E+02  0.18726451574E+02  0.00000000000E+00 0.  1.
         11    1    3    3    0    0 -0.38685742240E+01 -0.11142521315E+02 -0.58024271048E+01  0.13144953722E+02  0.51100000000E-03 0. -1.
        -11    1    3    3    0    0 -0.21660097829E+00 -0.55895899320E+01  0.27355242196E+02  0.27921312782E+02  0.51100000000E-03 0.  1.
        -12    1    3    3    0    0  0.43639413447E+01  0.29961577981E+02 -0.83020231177E+01  0.31395281923E+02  0.00000000000E+00 0.  1.
</event>
<event>
 7    1  0.1788006E-013  0.7246156E+02  0.7816164E-02  0.1226708E+00
        -11   -1    0    0    0    0  0.00000000000E+00  0.00000000000E+00  0.45593999997E+02  0.45594000000E+02  0.51100000000E-03 0. -1.
         11   -1    0    0    0    0 -0.00000000000E+00 -0.00000000000E+00 -0.45593999997E+02  0.45594000000E+02  0.51100000000E-03 0.  1.
    9900012    2    1    2    0    0 -0.16793502744E+02  0.35640812707E+01  0.74803197316E+01  0.72461558988E+02  0.69999985271E+02 0.  0.
        -12    1    1    2    0    0  0.16793502744E+02 -0.35640812707E+01 -0.74803197316E+01  0.18726441012E+02  0.00000000000E+00 0.  1.
         11    1    3    3    0    0 -0.86446923432E+01 -0.45386208111E+01  0.19797594416E+02  0.22074295674E+02  0.51100000000E-03 0. -1.
        -11    1    3    3    0    0  0.18461213531E+02 -0.17757789519E+01  0.18959406245E+01  0.18643078798E+02  0.51100000000E-03 0.  1.
        -12    1    3    3    0    0 -0.26610023932E+02  0.98784810337E+01 -0.14213215309E+02  0.31744184516E+02  0.00000000000E+00 0.  1.
</event>
<event>
 7    1  0.1788006E-013  0.7246146E+02  0.7816164E-02  0.1226708E+00
        -11   -1    0    0    0    0  0.00000000000E+00  0.00000000000E+00  0.45593999997E+02  0.45594000000E+02  0.51100000000E-03 0.  1.
         11   -1    0    0    0    0 -0.00000000000E+00 -0.00000000000E+00 -0.45593999997E+02  0.45594000000E+02  0.51100000000E-03 0. -1.
    9900012    2    1    2    0    0 -0.10829621788E+02  0.44228957960E+01 -0.14623293592E+02  0.72461456518E+02  0.69999851785E+02 0.  0.
        -12    1    1    2    0    0  0.10829621788E+02 -0.44228957960E+01  0.14623293592E+02  0.18726543482E+02  0.00000000000E+00 0.  1.
         11    1    3    3    0    0 -0.14548681832E+02 -0.20449153402E+02 -0.10987879227E+02  0.27396450648E+02  0.51100000000E-03 0. -1.
        -11    1    3    3    0    0 -0.19013880485E+01 -0.47725917634E+01 -0.12584805667E+02  0.13593021834E+02  0.51100000000E-03 0.  1.
        -12    1    3    3    0    0  0.56204480923E+01  0.29644640962E+02  0.89493913021E+01  0.31471984036E+02  0.00000000000E+00 0.  1.
</event>
<event>
 7    1  0.1788006E-013  0.7246175E+02  0.7816164E-02  0.1226708E+00
        -11   -1    0    0    0    0  0.00000000000E+00  0.00000000000E+00  0.45593999997E+02  0.45594000000E+02  0.51100000000E-03 0.  1.
         11   -1    0    0    0    0 -0.00000000000E+00 -0.00000000000E+00 -0.45593999997E+02  0.45594000000E+02  0.51100000000E-03 0. -1.
    9900012    2    1    2    0    0 -0.12372190761E+02  0.13245228169E+02 -0.47079882357E+01  0.72461753000E+02  0.70000238008E+02 0.  0.
        -12    1    1    2    0    0  0.12372190761E+02 -0.13245228169E+02  0.47079882357E+01  0.18726247000E+02  0.00000000000E+00 0.  1.
         11    1    3    3    0    0  0.42395359797E+01 -0.78159089303E+00  0.97204525294E+01  0.10633519986E+02  0.51100000000E-03 0. -1.
        -11    1    3    3    0    0  0.37080949299E+01  0.15900508383E+02  0.17501323710E+02  0.23934754369E+02  0.51100000000E-03 0.  1.
         12    1    3    3    0    0 -0.20319821670E+02 -0.18736893213E+01 -0.31929764476E+02  0.37893478645E+02  0.00000000000E+00 0. -1.
</event>
<event>
 7    1  0.1788006E-013  0.7246158E+02  0.7816164E-02  0.1226708E+00
        -11   -1    0    0    0    0  0.00000000000E+00  0.00000000000E+00  0.45593999997E+02  0.45594000000E+02  0.51100000000E-03 0. -1.
         11   -1    0    0    0    0 -0.00000000000E+00 -0.00000000000E+00 -0.45593999997E+02  0.45594000000E+02  0.51100000000E-03 0.  1.
    9900012    2    1    2    0    0 -0.60844710592E+00 -0.67218448065E+01  0.17467837546E+02  0.72461581389E+02  0.70000014452E+02 0.  0.
        -12    1    1    2    0    0  0.60844710592E+00  0.67218448065E+01 -0.17467837546E+02  0.18726418611E+02  0.00000000000E+00 0.  1.
         11    1    3    3    0    0 -0.18805302427E+02  0.54689638743E+01  0.75851868437E+01  0.21002000498E+02  0.51100000000E-03 0. -1.
        -11    1    3    3    0    0 -0.92067360998E+00  0.16007245457E+02  0.17088868521E+00  0.16034611009E+02  0.51100000000E-03 0.  1.
         12    1    3    3    0    0  0.19117528931E+02 -0.28198054138E+02  0.97117620167E+01  0.35424969881E+02  0.00000000000E+00 0. -1.
</event>
<event>
 7    1  0.1788006E-013  0.7246167E+02  0.7816164E-02  0.1226708E+00
        -11   -1    0    0    0    0  0.00000000000E+00  0.00000000000E+00  0.45593999997E+02  0.45594000000E+02  0.51100000000E-03 0. -1.
         11   -1    0    0    0    0 -0.00000000000E+00 -0.00000000000E+00 -0.45593999997E+02  0.45594000000E+02  0.51100000000E-03 0.  1.
    9900012    2    1    2    0    0 -0.28452605502E+01  0.15509193876E+02  0.10101724912E+02  0.72461669647E+02  0.70000129425E+02 0.  0.
        -12    1    1    2    0    0  0.28452605502E+01 -0.15509193876E+02 -0.10101724912E+02  0.18726330353E+02  0.00000000000E+00 0.  1.
         11    1    3    3    0    0 -0.11030649694E+02  0.91865821763E+01 -0.12715307146E+01  0.14411291246E+02  0.51100000000E-03 0. -1.
        -11    1    3    3    0    0 -0.13584568028E+02  0.22764671157E+02  0.15111030122E+02  0.30514160204E+02  0.51100000000E-03 0.  1.
         12    1    3    3    0    0  0.21769957172E+02 -0.16442059457E+02 -0.37377744946E+01  0.27536218197E+02  0.00000000000E+00 0. -1.
</event>
<event>
 7    1  0.1788006E-013  0.7246148E+02  0.7816164E-02  0.1226708E+00
        -11   -1    0    0    0    0  0.00000000000E+00  0.00000000000E+00  0.45593999997E+02  0.45594000000E+02  0.51100000000E-03 0. -1.
         11   -1    0    0    0    0 -0.00000000000E+00 -0.00000000000E+00 -0.45593999997E+02  0.45594000000E+02  0.51100000000E-03 0.  1.
    9900012    2    1    2    0    0  0.18717887031E+02 -0.48757201345E+00  0.29269349096E+00  0.72461476274E+02  0.69999877521E+02 0.  0.
        -12    1    1    2    0    0 -0.18717887031E+02  0.48757201345E+00 -0.29269349096E+00  0.18726523726E+02  0.00000000000E+00 0.  1.
         11    1    3    3    0    0  0.58610800188E+01 -0.12958755709E+02 -0.23328542509E+02  0.27322198015E+02  0.51100000000E-03 0. -1.
        -11    1    3    3    0    0  0.97142994411E+01  0.16070055152E+02 -0.21756842133E+01  0.18903647486E+02  0.51100000000E-03 0.  1.
        -12    1    3    3    0    0  0.31425075710E+01 -0.35988714558E+01  0.25796920213E+02  0.26235630773E+02  0.00000000000E+00 0.  1.
</event>
<event>
 7    1  0.1788006E-013  0.7246163E+02  0.7816164E-02  0.1226708E+00
        -11   -1    0    0    0    0  0.00000000000E+00  0.00000000000E+00  0.45593999997E+02  0.45594000000E+02  0.51100000000E-03 0. -1.
         11   -1    0    0    0    0 -0.00000000000E+00 -0.00000000000E+00 -0.45593999997E+02  0.45594000000E+02  0.51100000000E-03 0.  1.
    9900012    2    1    2    0    0  0.51021441049E+01  0.13869627832E+02  0.11501242988E+02  0.72461627128E+02  0.70000074037E+02 0.  0.
        -12    1    1    2    0    0 -0.51021441049E+01 -0.13869627832E+02 -0.11501242988E+02  0.18726372872E+02  0.00000000000E+00 0.  1.
         11    1    3    3    0    0  0.10763034376E+02  0.36178262367E+01  0.20473416504E+01  0.11537902052E+02  0.51100000000E-03 0. -1.
        -11    1    3    3    0    0  0.22108813208E+02 -0.22804728800E+01 -0.10420682003E+02  0.24547724776E+02  0.51100000000E-03 0.  1.
         12    1    3    3    0    0 -0.27769703479E+02  0.12532274475E+02  0.19874583341E+02  0.36376000300E+02  0.00000000000E+00 0. -1.
</event>
<event>
 7    1  0.1788006E-013  0.7246155E+02  0.7816164E-02  0.1226708E+00
        -11   -1    0    0    0    0  0.00000000000E+00  0.00000000000E+00  0.45593999997E+02  0.45594000000E+02  0.51100000000E-03 0.  1.
         11   -1    0    0    0    0 -0.00000000000E+00 -0.00000000000E+00 -0.45593999997E+02  0.45594000000E+02  0.51100000000E-03 0. -1.
    9900012    2    1    2    0    0 -0.42048674753E+01  0.81353928311E+01 -0.16334456149E+02  0.72461548530E+02  0.69999971648E+02 0.  0.
        -12    1    1    2    0    0  0.42048674753E+01 -0.81353928311E+01  0.16334456149E+02  0.18726451470E+02  0.00000000000E+00 0.  1.
         11    1    3    3    0    0 -0.28689895605E+02  0.14203489202E+02  0.51160325094E+01  0.32419484947E+02  0.51100000000E-03 0. -1.
        -11    1    3    3    0    0  0.16503092751E+00 -0.52078270428E+01 -0.13452393678E+02  0.14426212034E+02  0.51100000000E-03 0.  1.
        -12    1    3    3    0    0  0.24319997203E+02 -0.86026932771E+00 -0.79980949797E+01  0.25615851548E+02  0.00000000000E+00 0.  1.
</event>
<event>
 7    1  0.1788006E-013  0.7246158E+02  0.7816164E-02  0.1226708E+00
        -11   -1    0    0    0    0  0.00000000000E+00  0.00000000000E+00  0.45593999997E+02  0.45594000000E+02  0.51100000000E-03 0. -1.
         11   -1    0    0    0    0 -0.00000000000E+00 -0.00000000000E+00 -0.45593999997E+02  0.45594000000E+02  0.51100000000E-03 0.  1.
    9900012    2    1    2    0    0  0.10707108439E+02  0.15097954713E+02  0.28440128899E+01  0.72461579707E+02  0.70000012262E+02 0.  0.
        -12    1    1    2    0    0 -0.10707108439E+02 -0.15097954713E+02 -0.28440128899E+01  0.18726420293E+02  0.00000000000E+00 0.  1.
         11    1    3    3    0    0 -0.13116364691E+02  0.24789053511E+02 -0.75191758785E+01  0.29035740095E+02  0.51100000000E-03 0. -1.
        -11    1    3    3    0    0  0.65380521495E+00  0.10795003923E+02  0.20767552465E-01  0.10814804783E+02  0.51100000000E-03 0.  1.
        -12    1    3    3    0    0  0.23169667916E+02 -0.20486102721E+02  0.10342421216E+02  0.32611034829E+02  0.00000000000E+00 0.  1.
</event>
<event>
 7    1  0.1788006E-013  0.7246158E+02  0.7816164E-02  0.1226708E+00
        -11   -1    0    0    0    0  0.00000000000E+00  0.00000000000E+00  0.45593999997E+02  0.45594000000E+02  0.51100000000E-03 0. -1.
         11   -1    0    0    0    0 -0.00000000000E+00 -0.00000000000E+00 -0.45593999997E+02  0.45594000000E+02  0.51100000000E-03 0.  1.
    9900012    2    1    2    0    0  0.14751753066E+01  0.10329753691E+02  0.15549880645E+02  0.72461581720E+02  0.70000014885E+02 0.  0.
        -12    1    1    2    0    0 -0.14751753066E+01 -0.10329753691E+02 -0.15549880645E+02  0.18726418280E+02  0.00000000000E+00 0.  1.
         11    1    3    3    0    0 -0.34331469986E+01  0.23654074374E+02 -0.17737755924E+02  0.29764571529E+02  0.51100000000E-03 0.  1.
        -11    1    3    3    0    0  0.10105241589E+02 -0.12424916685E+02  0.10138781191E+02  0.18954929346E+02  0.51100000000E-03 0. -1.
        -12    1    3    3    0    0 -0.51969192835E+01 -0.89940399858E+00  0.23148855378E+02  0.23742080846E+02  0.00000000000E+00 0.  1.
</event>
<event>
 7    1  0.1788006E-013  0.7246163E+02  0.7816164E-02  0.1226708E+00
        -11   -1    0    0    0    0  0.00000000000E+00  0.00000000000E+00  0.45593999997E+02  0.45594000000E+02  0.51100000000E-03 0.  1.
         11   -1    0    0    0    0 -0.00000000000E+00 -0.00000000000E+00 -0.45593999997E+02  0.45594000000E+02  0.51100000000E-03 0. -1.
    9900012    2    1    2    0    0  0.15119185637E+02 -0.79117917532E+01 -0.77130183132E+01  0.72461631570E+02  0.70000079823E+02 0.  0.
        -12    1    1    2    0    0 -0.15119185637E+02  0.79117917532E+01  0.77130183132E+01  0.18726368430E+02  0.00000000000E+00 0.  1.
         11    1    3    3    0    0 -0.63793534138E+01  0.58607624012E+01  0.64740039676E+00  0.86869910461E+01  0.51100000000E-03 0. -1.
        -11    1    3    3    0    0 -0.68258059855E+01  0.16835043213E+02  0.68069614581E+01  0.19399614220E+02  0.51100000000E-03 0.  1.
         12    1    3    3    0    0  0.28324345036E+02 -0.30607597367E+02 -0.15167380168E+02  0.44375026304E+02  0.00000000000E+00 0. -1.
</event>
<event>
 7    1  0.1788006E-013  0.7246155E+02  0.7816164E-02  0.1226708E+00
        -11   -1    0    0    0    0  0.00000000000E+00  0.00000000000E+00  0.45593999997E+02  0.45594000000E+02  0.51100000000E-03 0.  1.
         11   -1    0    0    0    0 -0.00000000000E+00 -0.00000000000E+00 -0.45593999997E+02  0.45594000000E+02  0.51100000000E-03 0. -1.
    9900012    2    1    2    0    0 -0.10756371232E+02  0.10869917538E+02 -0.10808572322E+02  0.72461551725E+02  0.69999975809E+02 0.  0.
        -12    1    1    2    0    0  0.10756371232E+02 -0.10869917538E+02  0.10808572322E+02  0.18726448275E+02  0.00000000000E+00 0.  1.
         11    1    3    3    0    0 -0.99553292210E+01 -0.18719381110E+02 -0.11079138438E+02  0.23922188818E+02  0.51100000000E-03 0. -1.
        -11    1    3    3    0    0  0.41935546566E+01 -0.24366157700E+01  0.12877778819E+02  0.13760820638E+02  0.51100000000E-03 0.  1.
         12    1    3    3    0    0 -0.49945966681E+01  0.32025914418E+02 -0.12607212703E+02  0.34778542268E+02  0.00000000000E+00 0. -1.
</event>
<event>
 7    1  0.1788006E-013  0.7246171E+02  0.7816164E-02  0.1226708E+00
        -11   -1    0    0    0    0  0.00000000000E+00  0.00000000000E+00  0.45593999997E+02  0.45594000000E+02  0.51100000000E-03 0. -1.
         11   -1    0    0    0    0 -0.00000000000E+00 -0.00000000000E+00 -0.45593999997E+02  0.45594000000E+02  0.51100000000E-03 0.  1.
    9900012    2    1    2    0    0  0.11405756208E+02 -0.56294811144E+01  0.13743786107E+02  0.72461708620E+02  0.70000180195E+02 0.  0.
        -12    1    1    2    0    0 -0.11405756208E+02  0.56294811144E+01 -0.13743786107E+02  0.18726291380E+02  0.00000000000E+00 0.  1.
         11    1    3    3    0    0 -0.14587703840E+02 -0.34803126180E+01  0.11732298791E+02  0.19041021885E+02  0.51100000000E-03 0. -1.
        -11    1    3    3    0    0  0.36827079639E+01  0.20388477076E+02 -0.41103603739E+01  0.21122201545E+02  0.51100000000E-03 0.  1.
         12    1    3    3    0    0  0.22310752083E+02 -0.22537645572E+02  0.61218476904E+01  0.32298485191E+02  0.00000000000E+00 0. -1.
</event>
<event>
 7    1  0.1788006E-013  0.7246166E+02  0.7816164E-02  0.1226708E+00
        -11   -1    0    0    0    0  0.00000000000E+00  0.00000000000E+00  0.45593999997E+02  0.45594000000E+02  0.51100000000E-03 0.  1.
         11   -1    0    0    0    0 -0.00000000000E+00 -0.00000000000E+00 -0.45593999997E+02  0.45594000000E+02  0.51100000000E-03 0. -1.
    9900012    2    1    2    0    0 -0.16278729672E+02 -0.87475960289E+01  0.30262924276E+01  0.72461657007E+02  0.70000112960E+02 0.  0.
        -12    1    1    2    0    0  0.16278729672E+02  0.87475960289E+01 -0.30262924276E+01  0.18726342993E+02  0.00000000000E+00 0.  1.
         11    1    3    3    0    0  0.12597450765E+02  0.37657959639E+01  0.11104305263E+02  0.17209955858E+02  0.51100000000E-03 0. -1.
        -11    1    3    3    0    0  0.81490815799E-02  0.93884905035E+01  0.10858449394E+02  0.14354432899E+02  0.51100000000E-03 0.  1.
        -12    1    3    3    0    0 -0.28884329518E+02 -0.21901882496E+02 -0.18936462229E+02  0.40897268251E+02  0.00000000000E+00 0.  1.
</event>
<event>
 7    1  0.1788006E-013  0.7246153E+02  0.7816164E-02  0.1226708E+00
        -11   -1    0    0    0    0  0.00000000000E+00  0.00000000000E+00  0.45593999997E+02  0.45594000000E+02  0.51100000000E-03 0. -1.
         11   -1    0    0    0    0 -0.00000000000E+00 -0.00000000000E+00 -0.45593999997E+02  0.45594000000E+02  0.51100000000E-03 0.  1.
    9900012    2    1    2    0    0 -0.17317378801E+02 -0.16903973076E+01 -0.69232733060E+01  0.72461527698E+02  0.69999944511E+02 0.  0.
        -12    1    1    2    0    0  0.17317378801E+02  0.16903973076E+01  0.69232733060E+01  0.18726472302E+02  0.00000000000E+00 0.  1.
         11    1    3    3    0    0  0.52506910960E+00 -0.22773155444E+02  0.11878241695E+02  0.25690171904E+02  0.51100000000E-03 0. -1.
        -11    1    3    3    0    0 -0.59701501901E+01 -0.75220780852E+01 -0.11442359605E+02  0.14938271172E+02  0.51100000000E-03 0.  1.
        -12    1    3    3    0    0 -0.11872297720E+02  0.28604836222E+02 -0.73591553961E+01  0.31833084622E+02  0.00000000000E+00 0.  1.
</event>
<event>
 7    1  0.1788006E-013  0.7246154E+02  0.7816164E-02  0.1226708E+00
        -11   -1    0    0    0    0  0.00000000000E+00  0.00000000000E+00  0.45593999997E+02  0.45594000000E+02  0.51100000000E-03 0. -1.
         11   -1    0    0    0    0 -0.00000000000E+00 -0.00000000000E+00 -0.45593999997E+02  0.45594000000E+02  0.51100000000E-03 0.  1.
    9900012    2    1    2    0    0 -0.12563487630E+02  0.68692234204E+01  0.12068673000E+02  0.72461539582E+02  0.69999959991E+02 0.  0.
        -12    1    1    2    0    0  0.12563487630E+02 -0.68692234204E+01 -0.12068673000E+02  0.18726460418E+02  0.00000000000E+00 0.  1.
         11    1    3    3    0    0  0.55744531445E+01  0.10471153891E+02 -0.71667333834E+01  0.13859352774E+02  0.51100000000E-03 0. -1.
        -11    1    3    3    0    0 -0.30744923440E+02 -0.67823679685E+01 -0.42383105860E+01  0.31768130406E+02  0.51100000000E-03 0.  1.
         12    1    3    3    0    0  0.12606982666E+02  0.31804374976E+01  0.23473716969E+02  0.26834056401E+02  0.00000000000E+00 0. -1.
</event>
<event>
 7    1  0.1788006E-013  0.7246158E+02  0.7816164E-02  0.1226708E+00
        -11   -1    0    0    0    0  0.00000000000E+00  0.00000000000E+00  0.45593999997E+02  0.45594000000E+02  0.51100000000E-03 0.  1.
         11   -1    0    0    0    0 -0.00000000000E+00 -0.00000000000E+00 -0.45593999997E+02  0.45594000000E+02  0.51100000000E-03 0. -1.
    9900012    2    1    2    0    0  0.44570927044E+00 -0.18007922211E+02  0.51180986420E+01  0.72461578750E+02  0.70000011016E+02 0.  0.
        -12    1    1    2    0    0 -0.44570927044E+00  0.18007922211E+02 -0.51180986420E+01  0.18726421250E+02  0.00000000000E+00 0.  1.
         11    1    3    3    0    0 -0.65994229771E+01 -0.12620101067E+02 -0.10707758036E+02  0.17817839852E+02  0.51100000000E-03 0. -1.
        -11    1    3    3    0    0  0.17234520442E+01 -0.27688483020E+02  0.18736650600E+01  0.27805269284E+02  0.51100000000E-03 0.  1.
        -12    1    3    3    0    0  0.53216802033E+01  0.22300661876E+02  0.13952191618E+02  0.26838469615E+02  0.00000000000E+00 0.  1.
</event>
<event>
 7    1  0.1788006E-013  0.7246157E+02  0.7816164E-02  0.1226708E+00
        -11   -1    0    0    0    0  0.00000000000E+00  0.00000000000E+00  0.45593999997E+02  0.45594000000E+02  0.51100000000E-03 0.  1.
         11   -1    0    0    0    0 -0.00000000000E+00 -0.00000000000E+00 -0.45593999997E+02  0.45594000000E+02  0.51100000000E-03 0. -1.
    9900012    2    1    2    0    0  0.88418287290E+01  0.87579007910E-01  0.16507380497E+02  0.72461569047E+02  0.69999998375E+02 0.  0.
        -12    1    1    2    0    0 -0.88418287290E+01 -0.87579007910E-01 -0.16507380497E+02  0.18726430953E+02  0.00000000000E+00 0.  1.
         11    1    3    3    0    0  0.19220835999E+01  0.36292788859E+01  0.32033709210E+01  0.52084216530E+01  0.51100000000E-03 0.  1.
        -11    1    3    3    0    0 -0.27365937152E+02 -0.12770416155E+02  0.33877385118E+01  0.30388399390E+02  0.51100000000E-03 0. -1.
         12    1    3    3    0    0  0.34285682281E+02  0.92287162770E+01  0.99162710644E+01  0.36864748004E+02  0.00000000000E+00 0. -1.
</event>
<event>
 7    1  0.1788006E-013  0.7246161E+02  0.7816164E-02  0.1226708E+00
        -11   -1    0    0    0    0  0.00000000000E+00  0.00000000000E+00  0.45593999997E+02  0.45594000000E+02  0.51100000000E-03 0. -1.
         11   -1    0    0    0    0 -0.00000000000E+00 -0.00000000000E+00 -0.45593999997E+02  0.45594000000E+02  0.51100000000E-03 0.  1.
    9900012    2    1    2    0    0  0.13603330076E+02  0.18781770271E+01  0.12731826597E+02  0.72461613627E+02  0.70000056449E+02 0.  0.
        -12    1    1    2    0    0 -0.13603330076E+02 -0.18781770271E+01 -0.12731826597E+02  0.18726386373E+02  0.00000000000E+00 0.  1.
         11    1    3    3    0    0 -0.91064887118E+01 -0.40389499392E+01  0.46170135543E+01  0.10979893792E+02  0.51100000000E-03 0. -1.
        -11    1    3    3    0    0 -0.12392479719E+02 -0.14471962846E+02 -0.32469109463E+01  0.19327537173E+02  0.51100000000E-03 0.  1.
         12    1    3    3    0    0  0.35102298507E+02  0.20389089813E+02  0.11361723989E+02  0.42154182662E+02  0.00000000000E+00 0. -1.
</event>
<event>
 7    1  0.1788006E-013  0.7246155E+02  0.7816164E-02  0.1226708E+00
        -11   -1    0    0    0    0  0.00000000000E+00  0.00000000000E+00  0.45593999997E+02  0.45594000000E+02  0.51100000000E-03 0. -1.
         11   -1    0    0    0    0 -0.00000000000E+00 -0.00000000000E+00 -0.45593999997E+02  0.45594000000E+02  0.51100000000E-03 0.  1.
    9900012    2    1    2    0    0 -0.61774435264E+01  0.17512485779E+02  0.24149430561E+01  0.72461550346E+02  0.69999974014E+02 0.  0.
        -12    1    1    2    0    0  0.61774435264E+01 -0.17512485779E+02 -0.24149430561E+01  0.18726449654E+02  0.00000000000E+00 0.  1.
         11    1    3    3    0    0 -0.14216909966E+00 -0.14993437984E+02  0.87662878467E+01  0.17368684392E+02  0.51100000000E-03 0. -1.
        -11    1    3    3    0    0  0.14749014845E+02 -0.11316652609E+01  0.11869697965E+01  0.14839912490E+02  0.51100000000E-03 0.  1.
         12    1    3    3    0    0 -0.20784289272E+02  0.33637589023E+02 -0.75383145872E+01  0.40252953465E+02  0.00000000000E+00 0. -1.
</event>
<event>
 7    1  0.1788006E-013  0.7246187E+02  0.7816164E-02  0.1226707E+00
        -11   -1    0    0    0    0  0.00000000000E+00  0.00000000000E+00  0.45593999997E+02  0.45594000000E+02  0.51100000000E-03 0.  1.
         11   -1    0    0    0    0 -0.00000000000E+00 -0.00000000000E+00 -0.45593999997E+02  0.45594000000E+02  0.51100000000E-03 0. -1.
    9900012    2    1    2    0    0  0.66538458901E+01  0.17504126222E+02 -0.39467029823E-02  0.72461865441E+02  0.70000384482E+02 0.  0.
        -12    1    1    2    0    0 -0.66538458901E+01 -0.17504126222E+02  0.39467029823E-02  0.18726134559E+02  0.00000000000E+00 0.  1.
         11    1    3    3    0    0  0.96239183748E+01  0.40545045329E+02  0.88938549806E+01  0.42610106340E+02  0.51100000000E-03 0. -1.
        -11    1    3    3    0    0  0.34829234592E+01 -0.10472493302E+01  0.23395919072E+01  0.43244858117E+01  0.51100000000E-03 0.  1.
        -12    1    3    3    0    0 -0.64529959439E+01 -0.21993669776E+02 -0.11237393591E+02  0.25527273290E+02  0.00000000000E+00 0.  1.
</event>
<event>
 7    1  0.1788006E-013  0.7246158E+02  0.7816164E-02  0.1226708E+00
        -11   -1    0    0    0    0  0.00000000000E+00  0.00000000000E+00  0.45593999997E+02  0.45594000000E+02  0.51100000000E-03 0. -1.
         11   -1    0    0    0    0 -0.00000000000E+00 -0.00000000000E+00 -0.45593999997E+02  0.45594000000E+02  0.51100000000E-03 0.  1.
    9900012    2    1    2    0    0  0.26572870543E+01 -0.12208638224E+02  0.13948717596E+02  0.72461581647E+02  0.70000014789E+02 0.  0.
        -12    1    1    2    0    0 -0.26572870543E+01  0.12208638224E+02 -0.13948717596E+02  0.18726418353E+02  0.00000000000E+00 0.  1.
         11    1    3    3    0    0 -0.60842350926E+01  0.57829068003E+01  0.14312844148E+02  0.16592692235E+02  0.51100000000E-03 0. -1.
        -11    1    3    3    0    0 -0.21154670684E+02 -0.11108294744E+02  0.57761697227E+01  0.24582075600E+02  0.51100000000E-03 0.  1.
        -12    1    3    3    0    0  0.29896192831E+02 -0.68832502806E+01 -0.61402962752E+01  0.31286813813E+02  0.00000000000E+00 0.  1.
</event>
<event>
 7    1  0.1788006E-013  0.7246156E+02  0.7816164E-02  0.1226708E+00
        -11   -1    0    0    0    0  0.00000000000E+00  0.00000000000E+00  0.45593999997E+02  0.45594000000E+02  0.51100000000E-03 0.  1.
         11   -1    0    0    0    0 -0.00000000000E+00 -0.00000000000E+00 -0.45593999997E+02  0.45594000000E+02  0.51100000000E-03 0. -1.
    9900012    2    1    2    0    0  0.37676063455E+01 -0.10210958374E+02 -0.15238800365E+02  0.72461559734E+02  0.69999986243E+02 0.  0.
        -12    1    1    2    0    0 -0.37676063455E+01  0.10210958374E+02  0.15238800365E+02  0.18726440266E+02  0.00000000000E+00 0.  1.
         11    1    3    3    0    0  0.10965877784E+01  0.42382328243E+01 -0.70545720011E+01  0.83025362756E+01  0.51100000000E-03 0. -1.
        -11    1    3    3    0    0 -0.24441737515E+02  0.24338130694E+01  0.10986583364E+02  0.26907749685E+02  0.51100000000E-03 0.  1.
         12    1    3    3    0    0  0.27112756082E+02 -0.16883004267E+02 -0.19170811728E+02  0.37251273774E+02  0.00000000000E+00 0. -1.
</event>
<event>
 7    1  0.1788006E-013  0.7246161E+02  0.7816164E-02  0.1226708E+00
        -11   -1    0    0    0    0  0.00000000000E+00  0.00000000000E+00  0.45593999997E+02  0.45594000000E+02  0.51100000000E-03 0. -1.
         11   -1    0    0    0    0 -0.00000000000E+00 -0.00000000000E+00 -0.45593999997E+02  0.45594000000E+02  0.51100000000E-03 0.  1.
    9900012    2    1    2    0    0  0.12480592124E+02 -0.13105658145E+01  0.13899459367E+02  0.72461608644E+02  0.70000049957E+02 0.  0.
        -12    1    1    2    0    0 -0.12480592124E+02  0.13105658145E+01 -0.13899459367E+02  0.18726391356E+02  0.00000000000E+00 0.  1.
         11    1    3    3    0    0  0.24397430042E+02  0.36508309416E+01  0.25084451413E+02  0.35182280514E+02  0.51100000000E-03 0. -1.
        -11    1    3    3    0    0 -0.32448807002E+01  0.13319844753E+02  0.85199330027E+00  0.13735843908E+02  0.51100000000E-03 0.  1.
        -12    1    3    3    0    0 -0.86719572171E+01 -0.18281241509E+02 -0.12036985346E+02  0.23543484222E+02  0.00000000000E+00 0.  1.
</event>
<event>
 7    1  0.1788006E-013  0.7246154E+02  0.7816164E-02  0.1226708E+00
        -11   -1    0    0    0    0  0.00000000000E+00  0.00000000000E+00  0.45593999997E+02  0.45594000000E+02  0.51100000000E-03 0. -1.
         11   -1    0    0    0    0 -0.00000000000E+00 -0.00000000000E+00 -0.45593999997E+02  0.45594000000E+02  0.51100000000E-03 0.  1.
    9900012    2    1    2    0    0 -0.68790258493E+01  0.12601828723E+02  0.12023034351E+02  0.72461536404E+02  0.69999955851E+02 0.  0.
        -12    1    1    2    0    0  0.68790258493E+01 -0.12601828723E+02 -0.12023034351E+02  0.18726463596E+02  0.00000000000E+00 0.  1.
         11    1    3    3    0    0 -0.30133345662E+02  0.19579063362E+02  0.18299791367E+02  0.40326673645E+02  0.51100000000E-03 0. -1.
        -11    1    3    3    0    0  0.18752453243E+01  0.43355835582E+01 -0.63905679935E+01  0.79468980966E+01  0.51100000000E-03 0.  1.
        -12    1    3    3    0    0  0.21379074489E+02 -0.11312818197E+02  0.11381097723E+00  0.24187964662E+02  0.00000000000E+00 0.  1.
</event>
<event>
 7    1  0.1788006E-013  0.7246168E+02  0.7816164E-02  0.1226708E+00
        -11   -1    0    0    0    0  0.00000000000E+00  0.00000000000E+00  0.45593999997E+02  0.45594000000E+02  0.51100000000E-03 0.  1.
         11   -1    0    0    0    0 -0.00000000000E+00 -0.00000000000E+00 -0.45593999997E+02  0.45594000000E+02  0.51100000000E-03 0. -1.
    9900012    2    1    2    0    0 -0.12331207144E+02  0.15139391665E+01 -0.14011578012E+02  0.72461681627E+02  0.70000145031E+02 0.  0.
        -12    1    1    2    0    0  0.12331207144E+02 -0.15139391665E+01  0.14011578012E+02  0.18726318373E+02  0.00000000000E+00 0.  1.
         11    1    3    3    0    0  0.12257725497E+02  0.17554379774E+02 -0.20172088474E+02  0.29416343031E+02  0.51100000000E-03 0. -1.
        -11    1    3    3    0    0 -0.89467866644E+01 -0.13813113145E+02 -0.10940928597E+02  0.19762363351E+02  0.51100000000E-03 0.  1.
        -12    1    3    3    0    0 -0.15642145976E+02 -0.22273274625E+01  0.17101439059E+02  0.23282975245E+02  0.00000000000E+00 0.  1.
</event>
<event>
 7    1  0.1788006E-013  0.7246158E+02  0.7816164E-02  0.1226708E+00
        -11   -1    0    0    0    0  0.00000000000E+00  0.00000000000E+00  0.45593999997E+02  0.45594000000E+02  0.51100000000E-03 0.  1.
         11   -1    0    0    0    0 -0.00000000000E+00 -0.00000000000E+00 -0.45593999997E+02  0.45594000000E+02  0.51100000000E-03 0. -1.
    9900012    2    1    2    0    0  0.57512006639E+01 -0.80990365295E+01 -0.15874761260E+02  0.72461581580E+02  0.70000014701E+02 0.  0.
        -12    1    1    2    0    0 -0.57512006639E+01  0.80990365295E+01  0.15874761260E+02  0.18726418420E+02  0.00000000000E+00 0.  1.
         11    1    3    3    0    0 -0.17946193390E+02  0.48496657466E+01  0.40899909963E+01  0.19034524991E+02  0.51100000000E-03 0. -1.
        -11    1    3    3    0    0  0.36418207394E+01 -0.25277266158E+02 -0.66881245447E+01  0.26399508573E+02  0.51100000000E-03 0.  1.
        -12    1    3    3    0    0  0.20055573314E+02  0.12328563882E+02 -0.13276627712E+02  0.27027548016E+02  0.00000000000E+00 0.  1.
</event>
<event>
 7    1  0.1788006E-013  0.7246155E+02  0.7816164E-02  0.1226708E+00
        -11   -1    0    0    0    0  0.00000000000E+00  0.00000000000E+00  0.45593999997E+02  0.45594000000E+02  0.51100000000E-03 0.  1.
         11   -1    0    0    0    0 -0.00000000000E+00 -0.00000000000E+00 -0.45593999997E+02  0.45594000000E+02  0.51100000000E-03 0. -1.
    9900012    2    1    2    0    0  0.31808014679E+01 -0.16150964380E+02 -0.89279708833E+01  0.72461553127E+02  0.69999977637E+02 0.  0.
        -12    1    1    2    0    0 -0.31808014679E+01  0.16150964380E+02  0.89279708833E+01  0.18726446873E+02  0.00000000000E+00 0.  1.
         11    1    3    3    0    0 -0.45578614169E+01  0.85368052169E+01  0.76769086760E+00  0.97077542994E+01  0.51100000000E-03 0. -1.
        -11    1    3    3    0    0 -0.66474088352E+01 -0.74299051075E+01  0.21854652736E+02  0.24021186078E+02  0.51100000000E-03 0.  1.
         12    1    3    3    0    0  0.14386071720E+02 -0.17257864489E+02 -0.31550314487E+02  0.38732612750E+02  0.00000000000E+00 0. -1.
</event>
<event>
 7    1  0.1788006E-013  0.7246153E+02  0.7816164E-02  0.1226708E+00
        -11   -1    0    0    0    0  0.00000000000E+00  0.00000000000E+00  0.45593999997E+02  0.45594000000E+02  0.51100000000E-03 0.  1.
         11   -1    0    0    0    0 -0.00000000000E+00 -0.00000000000E+00 -0.45593999997E+02  0.45594000000E+02  0.51100000000E-03 0. -1.
    9900012    2    1    2    0    0  0.13596113030E+02 -0.63982151492E+01 -0.11175380753E+02  0.72461532592E+02  0.69999950885E+02 0.  0.
        -12    1    1    2    0    0 -0.13596113030E+02  0.63982151492E+01  0.11175380753E+02  0.18726467408E+02  0.00000000000E+00 0.  1.
         11    1    3    3    0    0 -0.83032283212E+00 -0.15836300182E+02 -0.33113263825E+02  0.36714657575E+02  0.51100000000E-03 0. -1.
        -11    1    3    3    0    0 -0.27514666174E+01  0.54773617261E+01 -0.16041894199E+01  0.63360463998E+01  0.51100000000E-03 0.  1.
        -12    1    3    3    0    0  0.17177902479E+02  0.39607233068E+01  0.23542072492E+02  0.29410828617E+02  0.00000000000E+00 0.  1.
</event>
<event>
 7    1  0.1788006E-013  0.7246159E+02  0.7816164E-02  0.1226708E+00
        -11   -1    0    0    0    0  0.00000000000E+00  0.00000000000E+00  0.45593999997E+02  0.45594000000E+02  0.51100000000E-03 0. -1.
         11   -1    0    0    0    0 -0.00000000000E+00 -0.00000000000E+00 -0.45593999997E+02  0.45594000000E+02  0.51100000000E-03 0.  1.
    9900012    2    1    2    0    0 -0.36718945161E+01 -0.63799514483E+01  0.17218936170E+02  0.72461592105E+02  0.70000028412E+02 0.  0.
        -12    1    1    2    0    0  0.36718945161E+01  0.63799514483E+01 -0.17218936170E+02  0.18726407895E+02  0.00000000000E+00 0.  1.
         11    1    3    3    0    0 -0.17639898370E+02  0.40180792758E+01  0.27957774451E+02  0.33300872783E+02  0.51100000000E-03 0. -1.
        -11    1    3    3    0    0  0.11303737159E+02 -0.12046560858E+02  0.92465351708E+01  0.18931257623E+02  0.51100000000E-03 0.  1.
        -12    1    3    3    0    0  0.26642666956E+01  0.16485301341E+01 -0.19985373452E+02  0.20229461699E+02  0.00000000000E+00 0.  1.
</event>
<event>
 7    1  0.1788006E-013  0.7246149E+02  0.7816164E-02  0.1226708E+00
        -11   -1    0    0    0    0  0.00000000000E+00  0.00000000000E+00  0.45593999997E+02  0.45594000000E+02  0.51100000000E-03 0.  1.
         11   -1    0    0    0    0 -0.00000000000E+00 -0.00000000000E+00 -0.45593999997E+02  0.45594000000E+02  0.51100000000E-03 0. -1.
    9900012    2    1    2    0    0  0.20741989425E+01 -0.18077210223E+02  0.44265482535E+01  0.72461490444E+02  0.69999895980E+02 0.  0.
        -12    1    1    2    0    0 -0.20741989425E+01  0.18077210223E+02 -0.44265482535E+01  0.18726509556E+02  0.00000000000E+00 0.  1.
         11    1    3    3    0    0 -0.91275215257E+00  0.13227896588E+01  0.14621697630E+01  0.21727470286E+01  0.51100000000E-03 0. -1.
        -11    1    3    3    0    0 -0.10387500989E+01  0.22115196204E+02  0.15159844152E+02  0.26832476216E+02  0.51100000000E-03 0.  1.
         12    1    3    3    0    0  0.40257011940E+01 -0.41515196086E+02 -0.12195465661E+02  0.43456267199E+02  0.00000000000E+00 0. -1.
</event>
<event>
 7    1  0.1788006E-013  0.7246160E+02  0.7816164E-02  0.1226708E+00
        -11   -1    0    0    0    0  0.00000000000E+00  0.00000000000E+00  0.45593999997E+02  0.45594000000E+02  0.51100000000E-03 0.  1.
         11   -1    0    0    0    0 -0.00000000000E+00 -0.00000000000E+00 -0.45593999997E+02  0.45594000000E+02  0.51100000000E-03 0. -1.
    9900012    2    1    2    0    0  0.21482574824E+01  0.92225490789E+01 -0.16155729827E+02  0.72461600774E+02  0.70000039706E+02 0.  0.
        -12    1    1    2    0    0 -0.21482574824E+01 -0.92225490789E+01  0.16155729827E+02  0.18726399226E+02  0.00000000000E+00 0.  1.
         11    1    3    3    0    0 -0.25538486676E+02 -0.11267389163E+02 -0.68854927325E+01  0.28750276010E+02  0.51100000000E-03 0. -1.
        -11    1    3    3    0    0 -0.10392075613E+01  0.11828330038E+02  0.11979802323E+01  0.11934173651E+02  0.51100000000E-03 0.  1.
        -12    1    3    3    0    0  0.28725951719E+02  0.86616082034E+01 -0.10468217327E+02  0.31777151113E+02  0.00000000000E+00 0.  1.
</event>
<event>
 7    1  0.1788006E-013  0.7246149E+02  0.7816164E-02  0.1226708E+00
        -11   -1    0    0    0    0  0.00000000000E+00  0.00000000000E+00  0.45593999997E+02  0.45594000000E+02  0.51100000000E-03 0.  1.
         11   -1    0    0    0    0 -0.00000000000E+00 -0.00000000000E+00 -0.45593999997E+02  0.45594000000E+02  0.51100000000E-03 0. -1.
    9900012    2    1    2    0    0  0.10647321466E+02 -0.13448540523E+02 -0.75135480671E+01  0.72461492019E+02  0.69999898032E+02 0.  0.
        -12    1    1    2    0    0 -0.10647321466E+02  0.13448540523E+02  0.75135480671E+01  0.18726507981E+02  0.00000000000E+00 0.  1.
         11    1    3    3    0    0 -0.26193592605E+02 -0.10491180466E+02 -0.47759016741E+01  0.28617798626E+02  0.51100000000E-03 0. -1.
        -11    1    3    3    0    0 -0.15817686969E+01 -0.47560834455E+00 -0.50087063230E+01  0.52740245353E+01  0.51100000000E-03 0.  1.
        -12    1    3    3    0    0  0.38422682768E+02 -0.24817517127E+01  0.22710599300E+01  0.38569668858E+02  0.00000000000E+00 0.  1.
</event>
<event>
 7    1  0.1788006E-013  0.7246160E+02  0.7816164E-02  0.1226708E+00
        -11   -1    0    0    0    0  0.00000000000E+00  0.00000000000E+00  0.45593999997E+02  0.45594000000E+02  0.51100000000E-03 0.  1.
         11   -1    0    0    0    0 -0.00000000000E+00 -0.00000000000E+00 -0.45593999997E+02  0.45594000000E+02  0.51100000000E-03 0. -1.
    9900012    2    1    2    0    0  0.58005442919E+01  0.58360424844E+01 -0.16821783210E+02  0.72461598949E+02  0.70000037328E+02 0.  0.
        -12    1    1    2    0    0 -0.58005442919E+01 -0.58360424844E+01  0.16821783210E+02  0.18726401051E+02  0.00000000000E+00 0.  1.
         11    1    3    3    0    0  0.78773063845E+01  0.22754734682E+02 -0.28973476148E+02  0.37673495015E+02  0.51100000000E-03 0. -1.
        -11    1    3    3    0    0  0.93915254876E+01 -0.81452058315E+00  0.11683442570E+02  0.15012229192E+02  0.51100000000E-03 0.  1.
        -12    1    3    3    0    0 -0.11468287580E+02 -0.16104171615E+02  0.46825036804E+00  0.19775874742E+02  0.00000000000E+00 0.  1.
</event>
<event>
 7    1  0.1788006E-013  0.7246141E+02  0.7816164E-02  0.1226708E+00
        -11   -1    0    0    0    0  0.00000000000E+00  0.00000000000E+00  0.45593999997E+02  0.45594000000E+02  0.51100000000E-03 0.  1.
         11   -1    0    0    0    0 -0.00000000000E+00 -0.00000000000E+00 -0.45593999997E+02  0.45594000000E+02  0.51100000000E-03 0. -1.
    9900012    2    1    2    0    0  0.15734064396E+02 -0.11942419828E+01 -0.10084543848E+02  0.72461414060E+02  0.69999796476E+02 0.  0.
        -12    1    1    2    0    0 -0.15734064396E+02  0.11942419828E+01  0.10084543848E+02  0.18726585940E+02  0.00000000000E+00 0.  1.
         11    1    3    3    0    0  0.13363547642E+01  0.35910992696E+01  0.43219688793E+00  0.38559865704E+01  0.51100000000E-03 0. -1.
        -11    1    3    3    0    0  0.27308094135E+02  0.14806032805E+01  0.20666408339E+02  0.34278632196E+02  0.51100000000E-03 0.  1.
         12    1    3    3    0    0 -0.12910384503E+02 -0.62659445329E+01 -0.31183149075E+02  0.34326795294E+02  0.00000000000E+00 0. -1.
</event>
<event>
 7    1  0.1788006E-013  0.7246157E+02  0.7816164E-02  0.1226708E+00
        -11   -1    0    0    0    0  0.00000000000E+00  0.00000000000E+00  0.45593999997E+02  0.45594000000E+02  0.51100000000E-03 0. -1.
         11   -1    0    0    0    0 -0.00000000000E+00 -0.00000000000E+00 -0.45593999997E+02  0.45594000000E+02  0.51100000000E-03 0.  1.
    9900012    2    1    2    0    0  0.56278387876E+00 -0.14879361480E+01  0.18658741765E+02  0.72461566172E+02  0.69999994630E+02 0.  0.
        -12    1    1    2    0    0 -0.56278387876E+00  0.14879361480E+01 -0.18658741765E+02  0.18726433828E+02  0.00000000000E+00 0.  1.
         11    1    3    3    0    0  0.28801363227E+01 -0.24436021239E+02  0.25451067569E+02  0.35400157625E+02  0.51100000000E-03 0. -1.
        -11    1    3    3    0    0  0.81413678681E+01 -0.91435318326E+00  0.36807471282E+01  0.89814148212E+01  0.51100000000E-03 0.  1.
        -12    1    3    3    0    0 -0.10458720312E+02  0.23862438274E+02 -0.10473072933E+02  0.28079993725E+02  0.00000000000E+00 0.  1.
</event>
<event>
 7    1  0.1788006E-013  0.7246133E+02  0.7816164E-02  0.1226709E+00
        -11   -1    0    0    0    0  0.00000000000E+00  0.00000000000E+00  0.45593999997E+02  0.45594000000E+02  0.51100000000E-03 0.  1.
         11   -1    0    0    0    0 -0.00000000000E+00 -0.00000000000E+00 -0.45593999997E+02  0.45594000000E+02  0.51100000000E-03 0. -1.
    9900012    2    1    2    0    0  0.50163132585E+01 -0.12962687332E+02  0.12549634797E+02  0.72461334650E+02  0.69999693029E+02 0.  0.
        -12    1    1    2    0    0 -0.50163132585E+01  0.12962687332E+02 -0.12549634797E+02  0.18726665350E+02  0.00000000000E+00 0.  1.
         11    1    3    3    0    0  0.11404364429E+01 -0.14665197572E+02 -0.65697109912E+01  0.16109926067E+02  0.51100000000E-03 0. -1.
        -11    1    3    3    0    0 -0.19914579505E+02 -0.28806432783E+01 -0.64464400126E+01  0.21129249198E+02  0.51100000000E-03 0.  1.
         12    1    3    3    0    0  0.23790456321E+02  0.45831535189E+01  0.25565785801E+02  0.35222159385E+02  0.00000000000E+00 0. -1.
</event>
<event>
 7    1  0.1788006E-013  0.7246171E+02  0.7816164E-02  0.1226708E+00
        -11   -1    0    0    0    0  0.00000000000E+00  0.00000000000E+00  0.45593999997E+02  0.45594000000E+02  0.51100000000E-03 0.  1.
         11   -1    0    0    0    0 -0.00000000000E+00 -0.00000000000E+00 -0.45593999997E+02  0.45594000000E+02  0.51100000000E-03 0. -1.
    9900012    2    1    2    0    0 -0.33948364124E+01 -0.15372841764E+02 -0.10140259894E+02  0.72461707017E+02  0.70000178106E+02 0.  0.
        -12    1    1    2    0    0  0.33948364124E+01  0.15372841764E+02  0.10140259894E+02  0.18726292983E+02  0.00000000000E+00 0.  1.
         11    1    3    3    0    0  0.10091840696E+02  0.10770196002E+02 -0.75030872945E+00  0.14778543027E+02  0.51100000000E-03 0. -1.
        -11    1    3    3    0    0  0.32789460390E+01  0.37355643626E+01 -0.20944502656E+02  0.21526219362E+02  0.51100000000E-03 0.  1.
        -12    1    3    3    0    0 -0.16765623147E+02 -0.29878602128E+02  0.11554551492E+02  0.36156944628E+02  0.00000000000E+00 0.  1.
</event>
<event>
 7    1  0.1788006E-013  0.7246162E+02  0.7816164E-02  0.1226708E+00
        -11   -1    0    0    0    0  0.00000000000E+00  0.00000000000E+00  0.45593999997E+02  0.45594000000E+02  0.51100000000E-03 0. -1.
         11   -1    0    0    0    0 -0.00000000000E+00 -0.00000000000E+00 -0.45593999997E+02  0.45594000000E+02  0.51100000000E-03 0.  1.
    9900012    2    1    2    0    0  0.25853811135E+01 -0.16962897122E+02 -0.75002129543E+01  0.72461621049E+02  0.70000066117E+02 0.  0.
        -12    1    1    2    0    0 -0.25853811135E+01  0.16962897122E+02  0.75002129543E+01  0.18726378951E+02  0.00000000000E+00 0.  1.
         11    1    3    3    0    0 -0.71205555012E+01 -0.14993385105E+02  0.11788729769E+02  0.20358734179E+02  0.51100000000E-03 0. -1.
        -11    1    3    3    0    0 -0.16293042024E+02 -0.99989594713E+01 -0.66312134987E+00  0.19128045877E+02  0.51100000000E-03 0.  1.
        -12    1    3    3    0    0  0.25998978638E+02  0.80294474549E+01 -0.18625821373E+02  0.32974840993E+02  0.00000000000E+00 0.  1.
</event>
<event>
 7    1  0.1788006E-013  0.7246160E+02  0.7816164E-02  0.1226708E+00
        -11   -1    0    0    0    0  0.00000000000E+00  0.00000000000E+00  0.45593999997E+02  0.45594000000E+02  0.51100000000E-03 0.  1.
         11   -1    0    0    0    0 -0.00000000000E+00 -0.00000000000E+00 -0.45593999997E+02  0.45594000000E+02  0.51100000000E-03 0. -1.
    9900012    2    1    2    0    0 -0.54407373361E+01 -0.11441876190E+02 -0.13789844321E+02  0.72461602591E+02  0.70000042073E+02 0.  0.
        -12    1    1    2    0    0  0.54407373361E+01  0.11441876190E+02  0.13789844321E+02  0.18726397409E+02  0.00000000000E+00 0.  1.
         11    1    3    3    0    0 -0.14825603081E+02 -0.11808151918E+02 -0.35341593608E+01  0.19280073680E+02  0.51100000000E-03 0. -1.
        -11    1    3    3    0    0 -0.21314179512E+02 -0.18469605238E+01 -0.36807432937E+01  0.21708371264E+02  0.51100000000E-03 0.  1.
        -12    1    3    3    0    0  0.30699045257E+02  0.22132362517E+01 -0.65749416664E+01  0.31473157648E+02  0.00000000000E+00 0.  1.
</event>
<event>
 7    1  0.1788006E-013  0.7246157E+02  0.7816164E-02  0.1226708E+00
        -11   -1    0    0    0    0  0.00000000000E+00  0.00000000000E+00  0.45593999997E+02  0.45594000000E+02  0.51100000000E-03 0. -1.
         11   -1    0    0    0    0 -0.00000000000E+00 -0.00000000000E+00 -0.45593999997E+02  0.45594000000E+02  0.51100000000E-03 0.  1.
    9900012    2    1    2    0    0  0.35521624322E+01  0.66280095501E+01  0.17150238301E+02  0.72461573691E+02  0.70000004424E+02 0.  0.
        -12    1    1    2    0    0 -0.35521624322E+01 -0.66280095501E+01 -0.17150238301E+02  0.18726426309E+02  0.00000000000E+00 0.  1.
         11    1    3    3    0    0 -0.19362755127E+02 -0.51067952364E+01 -0.11423665609E+01  0.20057433667E+02  0.51100000000E-03 0. -1.
        -11    1    3    3    0    0  0.87100504853E+01 -0.66971968614E+01 -0.10626297738E+02  0.15285144066E+02  0.51100000000E-03 0.  1.
         12    1    3    3    0    0  0.14204867074E+02  0.18432001648E+02  0.28918902599E+02  0.37118995957E+02  0.00000000000E+00 0. -1.
</event>
<event>
 7    1  0.1788006E-013  0.7246157E+02  0.7816164E-02  0.1226708E+00
        -11   -1    0    0    0    0  0.00000000000E+00  0.00000000000E+00  0.45593999997E+02  0.45594000000E+02  0.51100000000E-03 0. -1.
         11   -1    0    0    0    0 -0.00000000000E+00 -0.00000000000E+00 -0.45593999997E+02  0.45594000000E+02  0.51100000000E-03 0.  1.
    9900012    2    1    2    0    0  0.39207929708E+01 -0.13350536203E+02 -0.12532746302E+02  0.72461570434E+02  0.70000000182E+02 0.  0.
        -12    1    1    2    0    0 -0.39207929708E+01  0.13350536203E+02  0.12532746302E+02  0.18726429566E+02  0.00000000000E+00 0.  1.
         11    1    3    3    0    0 -0.76724607350E+00 -0.41032366738E+00  0.69270644053E+01  0.69814936501E+01  0.51100000000E-03 0. -1.
        -11    1    3    3    0    0  0.23530199000E+02  0.15007176016E+02 -0.33073593466E+01  0.28103811539E+02  0.51100000000E-03 0.  1.
        -12    1    3    3    0    0 -0.18842159955E+02 -0.27947388551E+02 -0.16152451361E+02  0.37376265244E+02  0.00000000000E+00 0.  1.
</event>
<event>
 7    1  0.1788006E-013  0.7246160E+02  0.7816164E-02  0.1226708E+00
        -11   -1    0    0    0    0  0.00000000000E+00  0.00000000000E+00  0.45593999997E+02  0.45594000000E+02  0.51100000000E-03 0.  1.
         11   -1    0    0    0    0 -0.00000000000E+00 -0.00000000000E+00 -0.45593999997E+02  0.45594000000E+02  0.51100000000E-03 0. -1.
    9900012    2    1    2    0    0 -0.25662047846E+01  0.45973588266E+01 -0.17971003472E+02  0.72461599359E+02  0.70000037862E+02 0.  0.
        -12    1    1    2    0    0  0.25662047846E+01 -0.45973588266E+01  0.17971003472E+02  0.18726400641E+02  0.00000000000E+00 0.  1.
         11    1    3    3    0    0 -0.10760832733E+02 -0.80678123821E+01 -0.28600641833E+02  0.31605091856E+02  0.51100000000E-03 0. -1.
        -11    1    3    3    0    0  0.73980392176E+01  0.11362447432E+02 -0.12041635875E+02  0.18133868609E+02  0.51100000000E-03 0.  1.
        -12    1    3    3    0    0  0.79658873098E+00  0.13027237766E+01  0.22671274235E+02  0.22722638894E+02  0.00000000000E+00 0.  1.
</event>
<event>
 7    1  0.1788006E-013  0.7246158E+02  0.7816164E-02  0.1226708E+00
        -11   -1    0    0    0    0  0.00000000000E+00  0.00000000000E+00  0.45593999997E+02  0.45594000000E+02  0.51100000000E-03 0. -1.
         11   -1    0    0    0    0 -0.00000000000E+00 -0.00000000000E+00 -0.45593999997E+02  0.45594000000E+02  0.51100000000E-03 0.  1.
    9900012    2    1    2    0    0  0.18016138091E+02  0.46758957448E+01 -0.20575674511E+01  0.72461579719E+02  0.70000012277E+02 0.  0.
        -12    1    1    2    0    0 -0.18016138091E+02 -0.46758957448E+01  0.20575674511E+01  0.18726420281E+02  0.00000000000E+00 0.  1.
         11    1    3    3    0    0  0.27754823867E+01  0.46062474340E+01  0.28419122027E+01  0.60825392010E+01  0.51100000000E-03 0. -1.
        -11    1    3    3    0    0  0.11383664817E+02  0.29273350051E+02 -0.15560308397E+02  0.35051962079E+02  0.51100000000E-03 0.  1.
         12    1    3    3    0    0  0.38569908871E+01 -0.29203701740E+02  0.10660828744E+02  0.31327078439E+02  0.00000000000E+00 0. -1.
</event>
<event>
 7    1  0.1788006E-013  0.7246156E+02  0.7816164E-02  0.1226708E+00
        -11   -1    0    0    0    0  0.00000000000E+00  0.00000000000E+00  0.45593999997E+02  0.45594000000E+02  0.51100000000E-03 0.  1.
         11   -1    0    0    0    0 -0.00000000000E+00 -0.00000000000E+00 -0.45593999997E+02  0.45594000000E+02  0.51100000000E-03 0. -1.
    9900012    2    1    2    0    0 -0.50157566102E+01  0.24197200113E+01 -0.17879221869E+02  0.72461563234E+02  0.69999990802E+02 0.  0.
        -12    1    1    2    0    0  0.50157566102E+01 -0.24197200113E+01  0.17879221869E+02  0.18726436766E+02  0.00000000000E+00 0.  1.
         11    1    3    3    0    0  0.20437623961E+02  0.51285012248E+01 -0.11856834925E+02  0.24178141630E+02  0.51100000000E-03 0. -1.
        -11    1    3    3    0    0 -0.31617180439E+01  0.38006436508E+01  0.15715147475E+02  0.16474441222E+02  0.51100000000E-03 0.  1.
        -12    1    3    3    0    0 -0.22291662527E+02 -0.65094248643E+01 -0.21737534419E+02  0.31808980381E+02  0.00000000000E+00 0.  1.
</event>
<event>
 7    1  0.1788006E-013  0.7246182E+02  0.7816164E-02  0.1226707E+00
        -11   -1    0    0    0    0  0.00000000000E+00  0.00000000000E+00  0.45593999997E+02  0.45594000000E+02  0.51100000000E-03 0.  1.
         11   -1    0    0    0    0 -0.00000000000E+00 -0.00000000000E+00 -0.45593999997E+02  0.45594000000E+02  0.51100000000E-03 0. -1.
    9900012    2    1    2    0    0  0.15485557789E+00 -0.18630323974E+02  0.18859900177E+01  0.72461817528E+02  0.70000322067E+02 0.  0.
        -12    1    1    2    0    0 -0.15485557789E+00  0.18630323974E+02 -0.18859900177E+01  0.18726182472E+02  0.00000000000E+00 0.  1.
         11    1    3    3    0    0  0.72135858606E+01 -0.39639879846E+01  0.58473029757E+01  0.10096532774E+02  0.51100000000E-03 0. -1.
        -11    1    3    3    0    0 -0.12902903056E+01 -0.58675085273E+01  0.28041268721E+02  0.28677608986E+02  0.51100000000E-03 0.  1.
         12    1    3    3    0    0 -0.57684399771E+01 -0.87988274623E+01 -0.32002581679E+02  0.33687675768E+02  0.00000000000E+00 0. -1.
</event>
<event>
 7    1  0.1788006E-013  0.7246165E+02  0.7816164E-02  0.1226708E+00
        -11   -1    0    0    0    0  0.00000000000E+00  0.00000000000E+00  0.45593999997E+02  0.45594000000E+02  0.51100000000E-03 0.  1.
         11   -1    0    0    0    0 -0.00000000000E+00 -0.00000000000E+00 -0.45593999997E+02  0.45594000000E+02  0.51100000000E-03 0. -1.
    9900012    2    1    2    0    0  0.18481831053E+02 -0.26378530184E+01  0.14628256371E+01  0.72461649409E+02  0.70000103061E+02 0.  0.
        -12    1    1    2    0    0 -0.18481831053E+02  0.26378530184E+01 -0.14628256371E+01  0.18726350591E+02  0.00000000000E+00 0.  1.
         11    1    3    3    0    0  0.28666406921E+01  0.20268534939E+01 -0.16565477087E+02  0.16933422434E+02  0.51100000000E-03 0. -1.
        -11    1    3    3    0    0 -0.10910497675E+02  0.15671493773E+02  0.64291663986E+01  0.20148668875E+02  0.51100000000E-03 0.  1.
        -12    1    3    3    0    0  0.26525688036E+02 -0.20336200286E+02  0.11599136326E+02  0.35379558100E+02  0.00000000000E+00 0.  1.
</event>
<event>
 7    1  0.1788006E-013  0.7246161E+02  0.7816164E-02  0.1226708E+00
        -11   -1    0    0    0    0  0.00000000000E+00  0.00000000000E+00  0.45593999997E+02  0.45594000000E+02  0.51100000000E-03 0. -1.
         11   -1    0    0    0    0 -0.00000000000E+00 -0.00000000000E+00 -0.45593999997E+02  0.45594000000E+02  0.51100000000E-03 0.  1.
    9900012    2    1    2    0    0 -0.18561719532E+02 -0.19354003827E+01 -0.15473635677E+01  0.72461613786E+02  0.70000056655E+02 0.  0.
        -12    1    1    2    0    0  0.18561719532E+02  0.19354003827E+01  0.15473635677E+01  0.18726386214E+02  0.00000000000E+00 0.  1.
         11    1    3    3    0    0 -0.11564815680E+02  0.14477145769E+01 -0.30877271591E+01  0.12057151341E+02  0.51100000000E-03 0. -1.
        -11    1    3    3    0    0 -0.58208450964E+01 -0.70828143117E+01 -0.28590565742E+02  0.30024472451E+02  0.51100000000E-03 0.  1.
         12    1    3    3    0    0 -0.11760587563E+01  0.36996993521E+01  0.30130929334E+02  0.30379989994E+02  0.00000000000E+00 0. -1.
</event>
<event>
 7    1  0.1788006E-013  0.7246157E+02  0.7816164E-02  0.1226708E+00
        -11   -1    0    0    0    0  0.00000000000E+00  0.00000000000E+00  0.45593999997E+02  0.45594000000E+02  0.51100000000E-03 0.  1.
         11   -1    0    0    0    0 -0.00000000000E+00 -0.00000000000E+00 -0.45593999997E+02  0.45594000000E+02  0.51100000000E-03 0. -1.
    9900012    2    1    2    0    0 -0.45692543708E+01  0.17314670510E+02 -0.54775105623E+01  0.72461574224E+02  0.70000005119E+02 0.  0.
        -12    1    1    2    0    0  0.45692543708E+01 -0.17314670510E+02  0.54775105623E+01  0.18726425776E+02  0.00000000000E+00 0.  1.
         11    1    3    3    0    0 -0.63782272894E+00  0.82531221332E+01 -0.38375720348E+01  0.91240233539E+01  0.51100000000E-03 0. -1.
        -11    1    3    3    0    0 -0.10344319103E+02  0.33963821132E+02  0.70438023904E+01  0.36196149464E+02  0.51100000000E-03 0.  1.
         12    1    3    3    0    0  0.64128874612E+01 -0.24902272756E+02 -0.86837409180E+01  0.27141401407E+02  0.00000000000E+00 0. -1.
</event>
<event>
 7    1  0.1788006E-013  0.7246153E+02  0.7816164E-02  0.1226708E+00
        -11   -1    0    0    0    0  0.00000000000E+00  0.00000000000E+00  0.45593999997E+02  0.45594000000E+02  0.51100000000E-03 0.  1.
         11   -1    0    0    0    0 -0.00000000000E+00 -0.00000000000E+00 -0.45593999997E+02  0.45594000000E+02  0.51100000000E-03 0. -1.
    9900012    2    1    2    0    0  0.20995603216E+01 -0.11540518761E+02 -0.14597564913E+02  0.72461531348E+02  0.69999949265E+02 0.  0.
        -12    1    1    2    0    0 -0.20995603216E+01  0.11540518761E+02  0.14597564913E+02  0.18726468652E+02  0.00000000000E+00 0.  1.
         11    1    3    3    0    0 -0.45901167469E+01 -0.27164528749E+01  0.42314260342E+01  0.68083224450E+01  0.51100000000E-03 0. -1.
        -11    1    3    3    0    0  0.85886815851E+01 -0.15144904950E+02  0.19856594145E+02  0.26408671467E+02  0.51100000000E-03 0.  1.
         12    1    3    3    0    0 -0.18990045167E+01  0.63208390646E+01 -0.38685585092E+02  0.39244537436E+02  0.00000000000E+00 0. -1.
</event>
<event>
 7    1  0.1788006E-013  0.7246157E+02  0.7816164E-02  0.1226708E+00
        -11   -1    0    0    0    0  0.00000000000E+00  0.00000000000E+00  0.45593999997E+02  0.45594000000E+02  0.51100000000E-03 0. -1.
         11   -1    0    0    0    0 -0.00000000000E+00 -0.00000000000E+00 -0.45593999997E+02  0.45594000000E+02  0.51100000000E-03 0.  1.
    9900012    2    1    2    0    0 -0.91553660033E+00  0.79622225378E+01  0.16924655131E+02  0.72461570914E+02  0.70000000807E+02 0.  0.
        -12    1    1    2    0    0  0.91553660033E+00 -0.79622225378E+01 -0.16924655131E+02  0.18726429086E+02  0.00000000000E+00 0.  1.
         11    1    3    3    0    0 -0.57630335740E+01  0.32970722914E+02 -0.14389948945E+01  0.33501519846E+02  0.51100000000E-03 0. -1.
        -11    1    3    3    0    0  0.32586100528E+01 -0.49595316110E+01 -0.52634899240E+01  0.79322014421E+01  0.51100000000E-03 0.  1.
        -12    1    3    3    0    0  0.15888869209E+01 -0.20048968765E+02  0.23627139949E+02  0.31027849626E+02  0.00000000000E+00 0.  1.
</event>
<event>
 7    1  0.1788006E-013  0.7246153E+02  0.7816164E-02  0.1226708E+00
        -11   -1    0    0    0    0  0.00000000000E+00  0.00000000000E+00  0.45593999997E+02  0.45594000000E+02  0.51100000000E-03 0. -1.
         11   -1    0    0    0    0 -0.00000000000E+00 -0.00000000000E+00 -0.45593999997E+02  0.45594000000E+02  0.51100000000E-03 0.  1.
    9900012    2    1    2    0    0  0.26912165954E+00 -0.20768468264E+01  0.18608998619E+02  0.72461533467E+02  0.69999952026E+02 0.  0.
        -12    1    1    2    0    0 -0.26912165954E+00  0.20768468264E+01 -0.18608998619E+02  0.18726466533E+02  0.00000000000E+00 0.  1.
         11    1    3    3    0    0 -0.19946439423E+01  0.24936771731E+01 -0.31819175765E+01  0.45079518659E+01  0.51100000000E-03 0. -1.
        -11    1    3    3    0    0  0.13847957951E+02  0.40411223864E+01 -0.19475116563E+02  0.24235857215E+02  0.51100000000E-03 0.  1.
         12    1    3    3    0    0 -0.11584192349E+02 -0.86116463859E+01  0.41266032759E+02  0.43717724386E+02  0.00000000000E+00 0. -1.
</event>
<event>
 7    1  0.1788006E-013  0.7246159E+02  0.7816164E-02  0.1226708E+00
        -11   -1    0    0    0    0  0.00000000000E+00  0.00000000000E+00  0.45593999997E+02  0.45594000000E+02  0.51100000000E-03 0. -1.
         11   -1    0    0    0    0 -0.00000000000E+00 -0.00000000000E+00 -0.45593999997E+02  0.45594000000E+02  0.51100000000E-03 0.  1.
    9900012    2    1    2    0    0  0.64942687988E+01  0.51494491124E+01  0.16792438458E+02  0.72461592370E+02  0.70000028757E+02 0.  0.
        -12    1    1    2    0    0 -0.64942687988E+01 -0.51494491124E+01 -0.16792438458E+02  0.18726407630E+02  0.00000000000E+00 0.  1.
         11    1    3    3    0    0 -0.19100833543E+02  0.82529676630E+01  0.12689871288E+02  0.24371831093E+02  0.51100000000E-03 0. -1.
        -11    1    3    3    0    0 -0.26557550590E+01  0.11761723485E+02 -0.74116682600E+01  0.14153586151E+02  0.51100000000E-03 0.  1.
         12    1    3    3    0    0  0.28250857400E+02 -0.14865242035E+02  0.11514235430E+02  0.33936175126E+02  0.00000000000E+00 0. -1.
</event>
<event>
 7    1  0.1788006E-013  0.7246211E+02  0.7816164E-02  0.1226707E+00
        -11   -1    0    0    0    0  0.00000000000E+00  0.00000000000E+00  0.45593999997E+02  0.45594000000E+02  0.51100000000E-03 0.  1.
         11   -1    0    0    0    0 -0.00000000000E+00 -0.00000000000E+00 -0.45593999997E+02  0.45594000000E+02  0.51100000000E-03 0. -1.
    9900012    2    1    2    0    0  0.11370579134E+02 -0.14721980917E+02 -0.21522365066E+01  0.72462111131E+02  0.70000704536E+02 0.  0.
        -12    1    1    2    0    0 -0.11370579134E+02  0.14721980917E+02  0.21522365066E+01  0.18725888869E+02  0.00000000000E+00 0.  1.
         11    1    3    3    0    0  0.13891259121E+01  0.57978808239E+01 -0.11970758221E+02  0.13373262336E+02  0.51100000000E-03 0. -1.
        -11    1    3    3    0    0  0.85466144353E+01 -0.20687484299E+02 -0.19529363319E+02  0.29705431437E+02  0.51100000000E-03 0.  1.
        -12    1    3    3    0    0  0.14348387863E+01  0.16762255753E+00  0.29347885034E+02  0.29383417358E+02  0.00000000000E+00 0.  1.
</event>
<event>
 7    1  0.1788006E-013  0.7246159E+02  0.7816164E-02  0.1226708E+00
        -11   -1    0    0    0    0  0.00000000000E+00  0.00000000000E+00  0.45593999997E+02  0.45594000000E+02  0.51100000000E-03 0.  1.
         11   -1    0    0    0    0 -0.00000000000E+00 -0.00000000000E+00 -0.45593999997E+02  0.45594000000E+02  0.51100000000E-03 0. -1.
    9900012    2    1    2    0    0  0.17799615110E+02  0.37991119592E+00  0.58058554994E+01  0.72461585804E+02  0.70000020204E+02 0.  0.
        -12    1    1    2    0    0 -0.17799615110E+02 -0.37991119592E+00 -0.58058554994E+01  0.18726414196E+02  0.00000000000E+00 0.  1.
         11    1    3    3    0    0  0.13306972712E+02  0.51318470180E+01 -0.96637026283E+01  0.17227841574E+02  0.51100000000E-03 0. -1.
        -11    1    3    3    0    0 -0.21932019138E+02 -0.42598000238E+01  0.17990151445E+02  0.28684576152E+02  0.51100000000E-03 0.  1.
         12    1    3    3    0    0  0.26424661536E+02 -0.49213579822E+00 -0.25205933176E+01  0.26549168078E+02  0.00000000000E+00 0. -1.
</event>
<event>
 7    1  0.1788006E-013  0.7246155E+02  0.7816164E-02  0.1226708E+00
        -11   -1    0    0    0    0  0.00000000000E+00  0.00000000000E+00  0.45593999997E+02  0.45594000000E+02  0.51100000000E-03 0.  1.
         11   -1    0    0    0    0 -0.00000000000E+00 -0.00000000000E+00 -0.45593999997E+02  0.45594000000E+02  0.51100000000E-03 0. -1.
    9900012    2    1    2    0    0  0.14929809490E+02 -0.18353439509E+01  0.11154018316E+02  0.72461552835E+02  0.69999977256E+02 0.  0.
        -12    1    1    2    0    0 -0.14929809490E+02  0.18353439509E+01 -0.11154018316E+02  0.18726447165E+02  0.00000000000E+00 0.  1.
         11    1    3    3    0    0  0.17258226255E+02 -0.26407334023E+02 -0.11596670022E+02  0.33610659315E+02  0.51100000000E-03 0. -1.
        -11    1    3    3    0    0  0.86467097792E+01  0.11741575424E+02  0.97442135364E+01  0.17537955444E+02  0.51100000000E-03 0.  1.
        -12    1    3    3    0    0 -0.10975126545E+02  0.12830414648E+02  0.13006474801E+02  0.21312938077E+02  0.00000000000E+00 0.  1.
</event>
<event>
 7    1  0.1788006E-013  0.7246148E+02  0.7816164E-02  0.1226708E+00
        -11   -1    0    0    0    0  0.00000000000E+00  0.00000000000E+00  0.45593999997E+02  0.45594000000E+02  0.51100000000E-03 0. -1.
         11   -1    0    0    0    0 -0.00000000000E+00 -0.00000000000E+00 -0.45593999997E+02  0.45594000000E+02  0.51100000000E-03 0.  1.
    9900012    2    1    2    0    0  0.44788206911E+01 -0.15520338223E+02  0.94732099841E+01  0.72461482952E+02  0.69999886220E+02 0.  0.
        -12    1    1    2    0    0 -0.44788206911E+01  0.15520338223E+02 -0.94732099841E+01  0.18726517048E+02  0.00000000000E+00 0.  1.
         11    1    3    3    0    0 -0.85297744748E+01  0.16951724180E+01  0.43651445600E+00  0.87075373815E+01  0.51100000000E-03 0. -1.
        -11    1    3    3    0    0  0.11163299681E+01  0.22048249784E+02  0.26618263255E+01  0.22236385290E+02  0.51100000000E-03 0.  1.
         12    1    3    3    0    0  0.11892265198E+02 -0.39263760425E+02  0.63748692026E+01  0.41517560280E+02  0.00000000000E+00 0. -1.
</event>
<event>
 7    1  0.1788006E-013  0.7246157E+02  0.7816164E-02  0.1226708E+00
        -11   -1    0    0    0    0  0.00000000000E+00  0.00000000000E+00  0.45593999997E+02  0.45594000000E+02  0.51100000000E-03 0. -1.
         11   -1    0    0    0    0 -0.00000000000E+00 -0.00000000000E+00 -0.45593999997E+02  0.45594000000E+02  0.51100000000E-03 0.  1.
    9900012    2    1    2    0    0 -0.72343858085E+01 -0.16763018294E+02  0.41646230904E+01  0.72461569325E+02  0.69999998737E+02 0.  0.
        -12    1    1    2    0    0  0.72343858085E+01  0.16763018294E+02 -0.41646230904E+01  0.18726430675E+02  0.00000000000E+00 0.  1.
         11    1    3    3    0    0 -0.20741323388E+02 -0.10250792150E+02  0.23440280147E+02  0.32935208656E+02  0.51100000000E-03 0. -1.
        -11    1    3    3    0    0 -0.72752365925E+01  0.28112053911E+01  0.23213197585E+01  0.81375960154E+01  0.51100000000E-03 0.  1.
        -12    1    3    3    0    0  0.20782174172E+02 -0.93234315348E+01 -0.21596976815E+02  0.31388764653E+02  0.00000000000E+00 0.  1.
</event>
<event>
 7    1  0.1788006E-013  0.7246168E+02  0.7816164E-02  0.1226708E+00
        -11   -1    0    0    0    0  0.00000000000E+00  0.00000000000E+00  0.45593999997E+02  0.45594000000E+02  0.51100000000E-03 0.  1.
         11   -1    0    0    0    0 -0.00000000000E+00 -0.00000000000E+00 -0.45593999997E+02  0.45594000000E+02  0.51100000000E-03 0. -1.
    9900012    2    1    2    0    0  0.16085461498E+02  0.89346492843E+01 -0.34792215433E+01  0.72461681302E+02  0.70000144608E+02 0.  0.
        -12    1    1    2    0    0 -0.16085461498E+02 -0.89346492843E+01  0.34792215433E+01  0.18726318698E+02  0.00000000000E+00 0.  1.
         11    1    3    3    0    0  0.84324637884E+01 -0.11740372008E+02 -0.86530115437E+00  0.14480729497E+02  0.51100000000E-03 0. -1.
        -11    1    3    3    0    0  0.10919268285E+02  0.48530770261E+01  0.24021250747E+02  0.26829149525E+02  0.51100000000E-03 0.  1.
         12    1    3    3    0    0 -0.32662705751E+01  0.15821944266E+02 -0.26635171136E+02  0.31151802280E+02  0.00000000000E+00 0. -1.
</event>
<event>
 7    1  0.1788006E-013  0.7246157E+02  0.7816164E-02  0.1226708E+00
        -11   -1    0    0    0    0  0.00000000000E+00  0.00000000000E+00  0.45593999997E+02  0.45594000000E+02  0.51100000000E-03 0.  1.
         11   -1    0    0    0    0 -0.00000000000E+00 -0.00000000000E+00 -0.45593999997E+02  0.45594000000E+02  0.51100000000E-03 0. -1.
    9900012    2    1    2    0    0  0.72968316435E+00  0.13001246451E+02  0.13457876202E+02  0.72461567380E+02  0.69999996203E+02 0.  0.
        -12    1    1    2    0    0 -0.72968316435E+00 -0.13001246451E+02 -0.13457876202E+02  0.18726432620E+02  0.00000000000E+00 0.  1.
         11    1    3    3    0    0 -0.30469206659E+01  0.19384262877E+02  0.19051152382E+02  0.27349219004E+02  0.51100000000E-03 0. -1.
        -11    1    3    3    0    0  0.82843289101E+00  0.18549351267E+02  0.24969115534E+01  0.18734975341E+02  0.51100000000E-03 0.  1.
         12    1    3    3    0    0  0.29481709392E+01 -0.24932367692E+02 -0.80901877327E+01  0.26377373034E+02  0.00000000000E+00 0. -1.
</event>
<event>
 7    1  0.1788006E-013  0.7246157E+02  0.7816164E-02  0.1226708E+00
        -11   -1    0    0    0    0  0.00000000000E+00  0.00000000000E+00  0.45593999997E+02  0.45594000000E+02  0.51100000000E-03 0.  1.
         11   -1    0    0    0    0 -0.00000000000E+00 -0.00000000000E+00 -0.45593999997E+02  0.45594000000E+02  0.51100000000E-03 0. -1.
    9900012    2    1    2    0    0  0.65676991743E+01  0.26169393968E+01 -0.17340591836E+02  0.72461570296E+02  0.70000000002E+02 0.  0.
        -12    1    1    2    0    0 -0.65676991743E+01 -0.26169393968E+01  0.17340591836E+02  0.18726429704E+02  0.00000000000E+00 0.  1.
         11    1    3    3    0    0 -0.73739138963E+01 -0.30628690962E+01  0.18880632939E+01  0.82049105123E+01  0.51100000000E-03 0. -1.
        -11    1    3    3    0    0 -0.30576066318E+01  0.63201648504E+01  0.20162125542E+02  0.21349584275E+02  0.51100000000E-03 0.  1.
         12    1    3    3    0    0  0.16999219703E+02 -0.64035635735E+00 -0.39390780672E+02  0.42907075509E+02  0.00000000000E+00 0. -1.
</event>
<event>
 7    1  0.1788006E-013  0.7246182E+02  0.7816164E-02  0.1226707E+00
        -11   -1    0    0    0    0  0.00000000000E+00  0.00000000000E+00  0.45593999997E+02  0.45594000000E+02  0.51100000000E-03 0.  1.
         11   -1    0    0    0    0 -0.00000000000E+00 -0.00000000000E+00 -0.45593999997E+02  0.45594000000E+02  0.51100000000E-03 0. -1.
    9900012    2    1    2    0    0 -0.43782558449E-01  0.18652131358E+02 -0.16631454845E+01  0.72461815818E+02  0.70000319840E+02 0.  0.
        -12    1    1    2    0    0  0.43782558449E-01 -0.18652131358E+02  0.16631454845E+01  0.18726184182E+02  0.00000000000E+00 0.  1.
         11    1    3    3    0    0  0.55201398378E+01 -0.13658319616E+02 -0.43476115160E+00  0.14738068262E+02  0.51100000000E-03 0.  1.
        -11    1    3    3    0    0 -0.46074226847E+01 -0.11684121567E+02 -0.50850838635E+01  0.13550096632E+02  0.51100000000E-03 0. -1.
         12    1    3    3    0    0 -0.95649971159E+00  0.43994572541E+02  0.38566995307E+01  0.44173650925E+02  0.00000000000E+00 0. -1.
</event>
<event>
 7    1  0.1788006E-013  0.7246162E+02  0.7816164E-02  0.1226708E+00
        -11   -1    0    0    0    0  0.00000000000E+00  0.00000000000E+00  0.45593999997E+02  0.45594000000E+02  0.51100000000E-03 0.  1.
         11   -1    0    0    0    0 -0.00000000000E+00 -0.00000000000E+00 -0.45593999997E+02  0.45594000000E+02  0.51100000000E-03 0. -1.
    9900012    2    1    2    0    0 -0.12180948670E+02  0.80465791650E+01 -0.11728356459E+02  0.72461620425E+02  0.70000065305E+02 0.  0.
        -12    1    1    2    0    0  0.12180948670E+02 -0.80465791650E+01  0.11728356459E+02  0.18726379575E+02  0.00000000000E+00 0.  1.
         11    1    3    3    0    0 -0.33931860526E+02 -0.43040644773E+01  0.24398271636E+01  0.34290653050E+02  0.51100000000E-03 0. -1.
        -11    1    3    3    0    0 -0.37762631944E+01  0.75865617782E+01 -0.76049918317E+01  0.11386482528E+02  0.51100000000E-03 0.  1.
        -12    1    3    3    0    0  0.25527175051E+02  0.47640818641E+01 -0.65631917905E+01  0.26784484848E+02  0.00000000000E+00 0.  1.
</event>
<event>
 7    1  0.1788006E-013  0.7246143E+02  0.7816164E-02  0.1226708E+00
        -11   -1    0    0    0    0  0.00000000000E+00  0.00000000000E+00  0.45593999997E+02  0.45594000000E+02  0.51100000000E-03 0. -1.
         11   -1    0    0    0    0 -0.00000000000E+00 -0.00000000000E+00 -0.45593999997E+02  0.45594000000E+02  0.51100000000E-03 0.  1.
    9900012    2    1    2    0    0 -0.19631196080E+01 -0.95155682791E+00  0.18599058879E+02  0.72461433572E+02  0.69999821894E+02 0.  0.
        -12    1    1    2    0    0  0.19631196080E+01  0.95155682791E+00 -0.18599058879E+02  0.18726566428E+02  0.00000000000E+00 0.  1.
         11    1    3    3    0    0  0.63257659785E+01  0.16252036093E+02 -0.11966182608E+02  0.21150260491E+02  0.51100000000E-03 0. -1.
        -11    1    3    3    0    0  0.11939512972E+02 -0.64628778280E+01  0.23850798307E+02  0.27444149467E+02  0.51100000000E-03 0.  1.
        -12    1    3    3    0    0 -0.20228398559E+02 -0.10740715093E+02  0.67144431800E+01  0.23867023614E+02  0.00000000000E+00 0.  1.
</event>
<event>
 7    1  0.1788006E-013  0.7246157E+02  0.7816164E-02  0.1226708E+00
        -11   -1    0    0    0    0  0.00000000000E+00  0.00000000000E+00  0.45593999997E+02  0.45594000000E+02  0.51100000000E-03 0.  1.
         11   -1    0    0    0    0 -0.00000000000E+00 -0.00000000000E+00 -0.45593999997E+02  0.45594000000E+02  0.51100000000E-03 0. -1.
    9900012    2    1    2    0    0  0.10246124771E+02 -0.21832518162E+00 -0.15673180205E+02  0.72461566372E+02  0.69999994890E+02 0.  0.
        -12    1    1    2    0    0 -0.10246124771E+02  0.21832518162E+00  0.15673180205E+02  0.18726433628E+02  0.00000000000E+00 0.  1.
         11    1    3    3    0    0 -0.34768114605E+01  0.10769122997E+02 -0.19064314246E+02  0.22170031709E+02  0.51100000000E-03 0. -1.
        -11    1    3    3    0    0 -0.14799391833E+02  0.38568099904E+01  0.88616343844E+01  0.17675563532E+02  0.51100000000E-03 0.  1.
         12    1    3    3    0    0  0.28522328064E+02 -0.14844258169E+02 -0.54705003430E+01  0.32615971131E+02  0.00000000000E+00 0. -1.
</event>
<event>
 7    1  0.1788006E-013  0.7246144E+02  0.7816164E-02  0.1226708E+00
        -11   -1    0    0    0    0  0.00000000000E+00  0.00000000000E+00  0.45593999997E+02  0.45594000000E+02  0.51100000000E-03 0.  1.
         11   -1    0    0    0    0 -0.00000000000E+00 -0.00000000000E+00 -0.45593999997E+02  0.45594000000E+02  0.51100000000E-03 0. -1.
    9900012    2    1    2    0    0 -0.29326244645E+01  0.10710704433E+02 -0.15078611588E+02  0.72461441236E+02  0.69999831878E+02 0.  0.
        -12    1    1    2    0    0  0.29326244645E+01 -0.10710704433E+02  0.15078611588E+02  0.18726558764E+02  0.00000000000E+00 0.  1.
         11    1    3    3    0    0 -0.10899225630E+01  0.12862011052E+02 -0.23849153552E+02  0.27118285065E+02  0.51100000000E-03 0. -1.
        -11    1    3    3    0    0  0.10340193300E+02 -0.18156638257E+02 -0.43301463426E+01  0.21338539732E+02  0.51100000000E-03 0.  1.
         12    1    3    3    0    0 -0.12182895202E+02  0.16005331638E+02  0.13100688306E+02  0.24004616440E+02  0.00000000000E+00 0. -1.
</event>
<event>
 7    1  0.1788006E-013  0.7246138E+02  0.7816164E-02  0.1226709E+00
        -11   -1    0    0    0    0  0.00000000000E+00  0.00000000000E+00  0.45593999997E+02  0.45594000000E+02  0.51100000000E-03 0.  1.
         11   -1    0    0    0    0 -0.00000000000E+00 -0.00000000000E+00 -0.45593999997E+02  0.45594000000E+02  0.51100000000E-03 0. -1.
    9900012    2    1    2    0    0 -0.14404095245E+02 -0.11455614371E+02  0.34607985020E+01  0.72461382935E+02  0.69999755929E+02 0.  0.
        -12    1    1    2    0    0  0.14404095245E+02  0.11455614371E+02 -0.34607985020E+01  0.18726617065E+02  0.00000000000E+00 0.  1.
         11    1    3    3    0    0 -0.24814378975E+00 -0.76365898392E+01 -0.87323820688E+01  0.11603170970E+02  0.51100000000E-03 0. -1.
        -11    1    3    3    0    0 -0.30061046547E+02  0.59501680559E+01 -0.96484355954E+01  0.32127298814E+02  0.51100000000E-03 0.  1.
        -12    1    3    3    0    0  0.15905095092E+02 -0.97691925878E+01  0.21841616166E+02  0.28730913150E+02  0.00000000000E+00 0.  1.
</event>
<event>
 7    1  0.1788006E-013  0.7246160E+02  0.7816164E-02  0.1226708E+00
        -11   -1    0    0    0    0  0.00000000000E+00  0.00000000000E+00  0.45593999997E+02  0.45594000000E+02  0.51100000000E-03 0. -1.
         11   -1    0    0    0    0 -0.00000000000E+00 -0.00000000000E+00 -0.45593999997E+02  0.45594000000E+02  0.51100000000E-03 0.  1.
    9900012    2    1    2    0    0  0.82153666595E+01  0.73169670049E+01  0.15154140303E+02  0.72461595544E+02  0.70000032893E+02 0.  0.
        -12    1    1    2    0    0 -0.82153666595E+01 -0.73169670049E+01 -0.15154140303E+02  0.18726404456E+02  0.00000000000E+00 0.  1.
         11    1    3    3    0    0  0.13070994127E+02  0.11823973053E+02  0.60517731436E+01  0.18635481874E+02  0.51100000000E-03 0. -1.
        -11    1    3    3    0    0  0.22948496364E+02  0.26933187451E+01 -0.16339810340E+01  0.23163707508E+02  0.51100000000E-03 0.  1.
        -12    1    3    3    0    0 -0.27804123831E+02 -0.72003247929E+01  0.10736348194E+02  0.30662406163E+02  0.00000000000E+00 0.  1.
</event>
<event>
 7    1  0.1788006E-013  0.7246182E+02  0.7816164E-02  0.1226707E+00
        -11   -1    0    0    0    0  0.00000000000E+00  0.00000000000E+00  0.45593999997E+02  0.45594000000E+02  0.51100000000E-03 0. -1.
         11   -1    0    0    0    0 -0.00000000000E+00 -0.00000000000E+00 -0.45593999997E+02  0.45594000000E+02  0.51100000000E-03 0.  1.
    9900012    2    1    2    0    0  0.16369698236E+00 -0.14180464178E+02 -0.12229372591E+02  0.72461817395E+02  0.70000321894E+02 0.  0.
        -12    1    1    2    0    0 -0.16369698236E+00  0.14180464178E+02  0.12229372591E+02  0.18726182605E+02  0.00000000000E+00 0.  1.
         11    1    3    3    0    0  0.21233223342E+02 -0.28716613993E+02  0.28432541247E+01  0.35827053842E+02  0.51100000000E-03 0. -1.
        -11    1    3    3    0    0 -0.24114391805E+01 -0.53266720112E+01 -0.89337138996E+00  0.59149460131E+01  0.51100000000E-03 0.  1.
        -12    1    3    3    0    0 -0.18658087179E+02  0.19862821827E+02 -0.14179255325E+02  0.30719817540E+02  0.00000000000E+00 0.  1.
</event>
<event>
 7    1  0.1788006E-013  0.7246160E+02  0.7816164E-02  0.1226708E+00
        -11   -1    0    0    0    0  0.00000000000E+00  0.00000000000E+00  0.45593999997E+02  0.45594000000E+02  0.51100000000E-03 0.  1.
         11   -1    0    0    0    0 -0.00000000000E+00 -0.00000000000E+00 -0.45593999997E+02  0.45594000000E+02  0.51100000000E-03 0. -1.
    9900012    2    1    2    0    0  0.18309014524E+02 -0.12283923488E+01 -0.37348708999E+01  0.72461595613E+02  0.70000032983E+02 0.  0.
        -12    1    1    2    0    0 -0.18309014524E+02  0.12283923488E+01  0.37348708999E+01  0.18726404387E+02  0.00000000000E+00 0.  1.
         11    1    3    3    0    0 -0.26154495437E+00 -0.20633496052E+01 -0.89572027229E+01  0.91955042405E+01  0.51100000000E-03 0. -1.
        -11    1    3    3    0    0 -0.16440918175E+02  0.24999171877E+01 -0.15343657920E+02  0.22627001900E+02  0.51100000000E-03 0.  1.
        -12    1    3    3    0    0  0.35011477654E+02 -0.16649599312E+01  0.20565989743E+02  0.40639089473E+02  0.00000000000E+00 0.  1.
</event>
<event>
 7    1  0.1788006E-013  0.7246155E+02  0.7816164E-02  0.1226708E+00
        -11   -1    0    0    0    0  0.00000000000E+00  0.00000000000E+00  0.45593999997E+02  0.45594000000E+02  0.51100000000E-03 0. -1.
         11   -1    0    0    0    0 -0.00000000000E+00 -0.00000000000E+00 -0.45593999997E+02  0.45594000000E+02  0.51100000000E-03 0.  1.
    9900012    2    1    2    0    0 -0.40058693151E+01  0.47919290243E+01  0.17654191694E+02  0.72461546595E+02  0.69999969128E+02 0.  0.
        -12    1    1    2    0    0  0.40058693151E+01 -0.47919290243E+01 -0.17654191694E+02  0.18726453405E+02  0.00000000000E+00 0.  1.
         11    1    3    3    0    0 -0.30539737712E+01 -0.17648458084E+01  0.15116953784E+01  0.38375330227E+01  0.51100000000E-03 0. -1.
        -11    1    3    3    0    0  0.11201159026E+01 -0.28613254628E+02 -0.25370353498E+01  0.28747339853E+02  0.51100000000E-03 0.  1.
         12    1    3    3    0    0 -0.20720114465E+01  0.35170029460E+02  0.18679531666E+02  0.39876673719E+02  0.00000000000E+00 0. -1.
</event>
<event>
 7    1  0.1788006E-013  0.7246156E+02  0.7816164E-02  0.1226708E+00
        -11   -1    0    0    0    0  0.00000000000E+00  0.00000000000E+00  0.45593999997E+02  0.45594000000E+02  0.51100000000E-03 0. -1.
         11   -1    0    0    0    0 -0.00000000000E+00 -0.00000000000E+00 -0.45593999997E+02  0.45594000000E+02  0.51100000000E-03 0.  1.
    9900012    2    1    2    0    0  0.16959611605E+00  0.12312984299E+02  0.14108200300E+02  0.72461557175E+02  0.69999982909E+02 0.  0.
        -12    1    1    2    0    0 -0.16959611605E+00 -0.12312984299E+02 -0.14108200300E+02  0.18726442825E+02  0.00000000000E+00 0.  1.
         11    1    3    3    0    0 -0.21630995065E+02  0.14868209624E+02  0.54120224210E+01  0.26800253578E+02  0.51100000000E-03 0. -1.
        -11    1    3    3    0    0 -0.89015604725E+00 -0.15059839980E+01 -0.13670983080E+02  0.13782457844E+02  0.51100000000E-03 0.  1.
        -12    1    3    3    0    0  0.22690747228E+02 -0.10492413271E+01  0.22367160959E+02  0.31878845752E+02  0.00000000000E+00 0.  1.
</event>
<event>
 7    1  0.1788006E-013  0.7246145E+02  0.7816164E-02  0.1226708E+00
        -11   -1    0    0    0    0  0.00000000000E+00  0.00000000000E+00  0.45593999997E+02  0.45594000000E+02  0.51100000000E-03 0.  1.
         11   -1    0    0    0    0 -0.00000000000E+00 -0.00000000000E+00 -0.45593999997E+02  0.45594000000E+02  0.51100000000E-03 0. -1.
    9900012    2    1    2    0    0  0.17244093764E+01 -0.25303214007E+01 -0.18474515576E+02  0.72461445595E+02  0.69999837556E+02 0.  0.
        -12    1    1    2    0    0 -0.17244093764E+01  0.25303214007E+01  0.18474515576E+02  0.18726554405E+02  0.00000000000E+00 0.  1.
         11    1    3    3    0    0  0.20995579655E+02 -0.38222166559E+00 -0.22589919078E+02  0.30842582620E+02  0.51100000000E-03 0. -1.
        -11    1    3    3    0    0 -0.11505289874E+02 -0.14988138025E+02 -0.96845860820E+01  0.21232220430E+02  0.51100000000E-03 0.  1.
        -12    1    3    3    0    0 -0.77658804052E+01  0.12840038290E+02  0.13799989584E+02  0.20386642545E+02  0.00000000000E+00 0.  1.
</event>
<event>
 7    1  0.1788006E-013  0.7246156E+02  0.7816164E-02  0.1226708E+00
        -11   -1    0    0    0    0  0.00000000000E+00  0.00000000000E+00  0.45593999997E+02  0.45594000000E+02  0.51100000000E-03 0. -1.
         11   -1    0    0    0    0 -0.00000000000E+00 -0.00000000000E+00 -0.45593999997E+02  0.45594000000E+02  0.51100000000E-03 0.  1.
    9900012    2    1    2    0    0 -0.16563340166E+02 -0.70297505418E+01 -0.51882621553E+01  0.72461556282E+02  0.69999981746E+02 0.  0.
        -12    1    1    2    0    0  0.16563340166E+02  0.70297505418E+01  0.51882621553E+01  0.18726443718E+02  0.00000000000E+00 0.  1.
         11    1    3    3    0    0 -0.74904652374E+01  0.92961142451E+01 -0.19036746415E+01  0.12089201253E+02  0.51100000000E-03 0. -1.
        -11    1    3    3    0    0 -0.27200387888E+02  0.60605901140E+01 -0.11906121197E+02  0.30304250131E+02  0.51100000000E-03 0.  1.
         12    1    3    3    0    0  0.18127512959E+02 -0.22386454901E+02  0.86215336831E+01  0.30068104898E+02  0.00000000000E+00 0. -1.
</event>
<event>
 7    1  0.1788006E-013  0.7246157E+02  0.7816164E-02  0.1226708E+00
        -11   -1    0    0    0    0  0.00000000000E+00  0.00000000000E+00  0.45593999997E+02  0.45594000000E+02  0.51100000000E-03 0. -1.
         11   -1    0    0    0    0 -0.00000000000E+00 -0.00000000000E+00 -0.45593999997E+02  0.45594000000E+02  0.51100000000E-03 0.  1.
    9900012    2    1    2    0    0  0.15655504674E+02  0.40743242478E+01  0.94331384465E+01  0.72461573602E+02  0.70000004309E+02 0.  0.
        -12    1    1    2    0    0 -0.15655504674E+02 -0.40743242478E+01 -0.94331384465E+01  0.18726426398E+02  0.00000000000E+00 0.  1.
         11    1    3    3    0    0  0.86693561515E+01  0.86820104271E+01 -0.45960365733E+01  0.13101854586E+02  0.51100000000E-03 0. -1.
        -11    1    3    3    0    0 -0.23065475850E+02  0.74762633414E+01  0.48480665335E+00  0.24251715970E+02  0.51100000000E-03 0.  1.
         12    1    3    3    0    0  0.30051624373E+02 -0.12083949521E+02  0.13544368366E+02  0.35108003046E+02  0.00000000000E+00 0. -1.
</event>
<event>
 7    1  0.1788006E-013  0.7246155E+02  0.7816164E-02  0.1226708E+00
        -11   -1    0    0    0    0  0.00000000000E+00  0.00000000000E+00  0.45593999997E+02  0.45594000000E+02  0.51100000000E-03 0. -1.
         11   -1    0    0    0    0 -0.00000000000E+00 -0.00000000000E+00 -0.45593999997E+02  0.45594000000E+02  0.51100000000E-03 0.  1.
    9900012    2    1    2    0    0 -0.12553140061E+02  0.51560177461E+01  0.12904038555E+02  0.72461546641E+02  0.69999969187E+02 0.  0.
        -12    1    1    2    0    0  0.12553140061E+02 -0.51560177461E+01 -0.12904038555E+02  0.18726453359E+02  0.00000000000E+00 0.  1.
         11    1    3    3    0    0 -0.37228145924E+01  0.87648476510E+01  0.26389359785E+02  0.28054949883E+02  0.51100000000E-03 0. -1.
        -11    1    3    3    0    0  0.11277855531E+02  0.80308690227E+01  0.49956642897E+01  0.14718748065E+02  0.51100000000E-03 0.  1.
        -12    1    3    3    0    0 -0.20108180999E+02 -0.11639698928E+02 -0.18480985519E+02  0.29687848693E+02  0.00000000000E+00 0.  1.
</event>
<event>
 7    1  0.1788006E-013  0.7246157E+02  0.7816164E-02  0.1226708E+00
        -11   -1    0    0    0    0  0.00000000000E+00  0.00000000000E+00  0.45593999997E+02  0.45594000000E+02  0.51100000000E-03 0.  1.
         11   -1    0    0    0    0 -0.00000000000E+00 -0.00000000000E+00 -0.45593999997E+02  0.45594000000E+02  0.51100000000E-03 0. -1.
    9900012    2    1    2    0    0 -0.55421398371E+01  0.13966199049E+02  0.11176271969E+02  0.72461572552E+02  0.70000002940E+02 0.  0.
        -12    1    1    2    0    0  0.55421398371E+01 -0.13966199049E+02 -0.11176271969E+02  0.18726427448E+02  0.00000000000E+00 0.  1.
         11    1    3    3    0    0  0.15731797684E+01 -0.45424315088E+01  0.45657215035E+01  0.66298108347E+01  0.51100000000E-03 0. -1.
        -11    1    3    3    0    0 -0.19925744737E+02 -0.14391647093E+02  0.15962401663E+02  0.29307901264E+02  0.51100000000E-03 0.  1.
         12    1    3    3    0    0  0.12810425131E+02  0.32900277651E+02 -0.93518511975E+01  0.36523860453E+02  0.00000000000E+00 0. -1.
</event>
<event>
 7    1  0.1788006E-013  0.7246159E+02  0.7816164E-02  0.1226708E+00
        -11   -1    0    0    0    0  0.00000000000E+00  0.00000000000E+00  0.45593999997E+02  0.45594000000E+02  0.51100000000E-03 0. -1.
         11   -1    0    0    0    0 -0.00000000000E+00 -0.00000000000E+00 -0.45593999997E+02  0.45594000000E+02  0.51100000000E-03 0.  1.
    9900012    2    1    2    0    0 -0.49801091227E+00  0.17310330877E+02  0.71262099126E+01  0.72461589835E+02  0.70000025455E+02 0.  0.
        -12    1    1    2    0    0  0.49801091227E+00 -0.17310330877E+02 -0.71262099126E+01  0.18726410165E+02  0.00000000000E+00 0.  1.
         11    1    3    3    0    0  0.26645583305E+02  0.14868522210E+02  0.10194813989E+02  0.32171327217E+02  0.51100000000E-03 0. -1.
        -11    1    3    3    0    0 -0.53300898352E+01  0.91041252004E+00 -0.14599794453E+02  0.15568966149E+02  0.51100000000E-03 0.  1.
        -12    1    3    3    0    0 -0.21813504382E+02  0.15313961476E+01  0.11531190377E+02  0.24721296469E+02  0.00000000000E+00 0.  1.
</event>
<event>
 7    1  0.1788006E-013  0.7246155E+02  0.7816164E-02  0.1226708E+00
        -11   -1    0    0    0    0  0.00000000000E+00  0.00000000000E+00  0.45593999997E+02  0.45594000000E+02  0.51100000000E-03 0. -1.
         11   -1    0    0    0    0 -0.00000000000E+00 -0.00000000000E+00 -0.45593999997E+02  0.45594000000E+02  0.51100000000E-03 0.  1.
    9900012    2    1    2    0    0 -0.11178554493E+02  0.54572099700E+01  0.13997805922E+02  0.72461553678E+02  0.69999978355E+02 0.  0.
        -12    1    1    2    0    0  0.11178554493E+02 -0.54572099700E+01 -0.13997805922E+02  0.18726446322E+02  0.00000000000E+00 0.  1.
         11    1    3    3    0    0  0.13712242627E+00  0.25643731062E+02  0.82786410380E+00  0.25657457095E+02  0.51100000000E-03 0. -1.
        -11    1    3    3    0    0  0.54111844796E+01  0.89773272682E+01  0.70475993963E+01  0.12630992830E+02  0.51100000000E-03 0.  1.
         12    1    3    3    0    0 -0.16726861399E+02 -0.29163848360E+02  0.61223424216E+01  0.34173103754E+02  0.00000000000E+00 0. -1.
</event>
<event>
 7    1  0.1788006E-013  0.7246158E+02  0.7816164E-02  0.1226708E+00
        -11   -1    0    0    0    0  0.00000000000E+00  0.00000000000E+00  0.45593999997E+02  0.45594000000E+02  0.51100000000E-03 0.  1.
         11   -1    0    0    0    0 -0.00000000000E+00 -0.00000000000E+00 -0.45593999997E+02  0.45594000000E+02  0.51100000000E-03 0. -1.
    9900012    2    1    2    0    0  0.85948280683E+01  0.73223912076E+01 -0.14939549588E+02  0.72461584849E+02  0.70000018960E+02 0.  0.
        -12    1    1    2    0    0 -0.85948280683E+01 -0.73223912076E+01  0.14939549588E+02  0.18726415151E+02  0.00000000000E+00 0.  1.
         11    1    3    3    0    0  0.11007794396E+02  0.73574331944E+00  0.20950085617E+02  0.23677393085E+02  0.51100000000E-03 0. -1.
        -11    1    3    3    0    0 -0.29168440093E+01 -0.97127988993E+01 -0.90012622521E+00  0.10181191920E+02  0.51100000000E-03 0.  1.
        -12    1    3    3    0    0  0.50387768141E+00  0.16299446787E+02 -0.34989508979E+02  0.38602999844E+02  0.00000000000E+00 0.  1.
</event>
<event>
 7    1  0.1788006E-013  0.7246155E+02  0.7816164E-02  0.1226708E+00
        -11   -1    0    0    0    0  0.00000000000E+00  0.00000000000E+00  0.45593999997E+02  0.45594000000E+02  0.51100000000E-03 0.  1.
         11   -1    0    0    0    0 -0.00000000000E+00 -0.00000000000E+00 -0.45593999997E+02  0.45594000000E+02  0.51100000000E-03 0. -1.
    9900012    2    1    2    0    0  0.31773395632E+01  0.79385161291E+01 -0.16660264577E+02  0.72461549701E+02  0.69999973173E+02 0.  0.
        -12    1    1    2    0    0 -0.31773395632E+01 -0.79385161291E+01  0.16660264577E+02  0.18726450299E+02  0.00000000000E+00 0.  1.
         11    1    3    3    0    0  0.14814642935E+02  0.81117991078E+01 -0.19110542142E+02  0.25504661364E+02  0.51100000000E-03 0. -1.
        -11    1    3    3    0    0  0.13160740693E+02  0.11117698940E+02 -0.62921105588E+01  0.18341182646E+02  0.51100000000E-03 0.  1.
         12    1    3    3    0    0 -0.24798044065E+02 -0.11290981918E+02  0.87423881239E+01  0.28615705692E+02  0.00000000000E+00 0. -1.
</event>
<event>
 7    1  0.1788006E-013  0.7246159E+02  0.7816164E-02  0.1226708E+00
        -11   -1    0    0    0    0  0.00000000000E+00  0.00000000000E+00  0.45593999997E+02  0.45594000000E+02  0.51100000000E-03 0. -1.
         11   -1    0    0    0    0 -0.00000000000E+00 -0.00000000000E+00 -0.45593999997E+02  0.45594000000E+02  0.51100000000E-03 0.  1.
    9900012    2    1    2    0    0  0.71198122589E+00 -0.99816821456E+01  0.15828376820E+02  0.72461590614E+02  0.70000026470E+02 0.  0.
        -12    1    1    2    0    0 -0.71198122589E+00  0.99816821456E+01 -0.15828376820E+02  0.18726409386E+02  0.00000000000E+00 0.  1.
         11    1    3    3    0    0  0.84329910151E+01  0.17564362396E+02  0.14270499830E+02  0.24150969535E+02  0.51100000000E-03 0. -1.
        -11    1    3    3    0    0 -0.14447568146E+02 -0.11390156330E+00  0.11395995294E+02  0.18401464830E+02  0.51100000000E-03 0.  1.
        -12    1    3    3    0    0  0.67265583570E+01 -0.27432142979E+02 -0.98381183033E+01  0.29909156248E+02  0.00000000000E+00 0.  1.
</event>
<event>
 7    1  0.1788006E-013  0.7246157E+02  0.7816164E-02  0.1226708E+00
        -11   -1    0    0    0    0  0.00000000000E+00  0.00000000000E+00  0.45593999997E+02  0.45594000000E+02  0.51100000000E-03 0.  1.
         11   -1    0    0    0    0 -0.00000000000E+00 -0.00000000000E+00 -0.45593999997E+02  0.45594000000E+02  0.51100000000E-03 0. -1.
    9900012    2    1    2    0    0 -0.15488514569E+01 -0.48163711523E+00 -0.18656054819E+02  0.72461566902E+02  0.69999995581E+02 0.  0.
        -12    1    1    2    0    0  0.15488514569E+01  0.48163711523E+00  0.18656054819E+02  0.18726433098E+02  0.00000000000E+00 0.  1.
         11    1    3    3    0    0  0.27005140216E+02  0.87146289329E+01 -0.22479104394E+02  0.36201277466E+02  0.51100000000E-03 0. -1.
        -11    1    3    3    0    0  0.49245629801E+00  0.85778631407E+00  0.53929947001E+01  0.54829465311E+01  0.51100000000E-03 0.  1.
        -12    1    3    3    0    0 -0.29046447971E+02 -0.10054052362E+02 -0.15699451256E+01  0.30777342906E+02  0.00000000000E+00 0.  1.
</event>
<event>
 7    1  0.1788006E-013  0.7246158E+02  0.7816164E-02  0.1226708E+00
        -11   -1    0    0    0    0  0.00000000000E+00  0.00000000000E+00  0.45593999997E+02  0.45594000000E+02  0.51100000000E-03 0.  1.
         11   -1    0    0    0    0 -0.00000000000E+00 -0.00000000000E+00 -0.45593999997E+02  0.45594000000E+02  0.51100000000E-03 0. -1.
    9900012    2    1    2    0    0  0.11167127731E+01 -0.56766532669E+01 -0.17810320461E+02  0.72461576032E+02  0.70000007474E+02 0.  0.
        -12    1    1    2    0    0 -0.11167127731E+01  0.56766532669E+01  0.17810320461E+02  0.18726423968E+02  0.00000000000E+00 0.  1.
         11    1    3    3    0    0  0.15229706216E+02  0.20715016824E+02  0.31669972434E+00  0.25712957287E+02  0.51100000000E-03 0. -1.
        -11    1    3    3    0    0 -0.16878590619E+01  0.67187162850E+01  0.17244214317E+00  0.69296286542E+01  0.51100000000E-03 0.  1.
        -12    1    3    3    0    0 -0.12425134381E+02 -0.33110386376E+02 -0.18299462328E+02  0.39818990091E+02  0.00000000000E+00 0.  1.
</event>
<event>
 7    1  0.1788006E-013  0.7246153E+02  0.7816164E-02  0.1226708E+00
        -11   -1    0    0    0    0  0.00000000000E+00  0.00000000000E+00  0.45593999997E+02  0.45594000000E+02  0.51100000000E-03 0. -1.
         11   -1    0    0    0    0 -0.00000000000E+00 -0.00000000000E+00 -0.45593999997E+02  0.45594000000E+02  0.51100000000E-03 0.  1.
    9900012    2    1    2    0    0  0.10563070461E+02 -0.15302832477E+02 -0.22193326387E+01  0.72461532721E+02  0.69999951053E+02 0.  0.
        -12    1    1    2    0    0 -0.10563070461E+02  0.15302832477E+02  0.22193326387E+01  0.18726467279E+02  0.00000000000E+00 0.  1.
         11    1    3    3    0    0 -0.71624899566E+01  0.33673713236E+01 -0.50448598587E+01  0.93856839530E+01  0.51100000000E-03 0. -1.
        -11    1    3    3    0    0 -0.47086095488E+01 -0.25395214998E+02 -0.18204719819E+02  0.31599047021E+02  0.51100000000E-03 0.  1.
         12    1    3    3    0    0  0.22434169967E+02  0.67250111970E+01  0.21030247039E+02  0.31476801747E+02  0.00000000000E+00 0. -1.
</event>
<event>
 7    1  0.1788006E-013  0.7246158E+02  0.7816164E-02  0.1226708E+00
        -11   -1    0    0    0    0  0.00000000000E+00  0.00000000000E+00  0.45593999997E+02  0.45594000000E+02  0.51100000000E-03 0.  1.
         11   -1    0    0    0    0 -0.00000000000E+00 -0.00000000000E+00 -0.45593999997E+02  0.45594000000E+02  0.51100000000E-03 0. -1.
    9900012    2    1    2    0    0  0.14289854573E+02 -0.52063378724E+01 -0.10925786467E+02  0.72461582625E+02  0.70000016063E+02 0.  0.
        -12    1    1    2    0    0 -0.14289854573E+02  0.52063378724E+01  0.10925786467E+02  0.18726417375E+02  0.00000000000E+00 0.  1.
         11    1    3    3    0    0 -0.14972090487E+02  0.74019144495E+01 -0.14223172960E+02  0.21937421918E+02  0.51100000000E-03 0. -1.
        -11    1    3    3    0    0  0.23980755453E+02  0.10506264429E+02 -0.19032274548E+01  0.26250342842E+02  0.51100000000E-03 0.  1.
         12    1    3    3    0    0  0.52811896077E+01 -0.23114516751E+02  0.52006139481E+01  0.24273817865E+02  0.00000000000E+00 0. -1.
</event>
<event>
 7    1  0.1788006E-013  0.7246158E+02  0.7816164E-02  0.1226708E+00
        -11   -1    0    0    0    0  0.00000000000E+00  0.00000000000E+00  0.45593999997E+02  0.45594000000E+02  0.51100000000E-03 0. -1.
         11   -1    0    0    0    0 -0.00000000000E+00 -0.00000000000E+00 -0.45593999997E+02  0.45594000000E+02  0.51100000000E-03 0.  1.
    9900012    2    1    2    0    0 -0.68320733831E+01  0.14834551279E+02 -0.91617469529E+01  0.72461581614E+02  0.70000014746E+02 0.  0.
        -12    1    1    2    0    0  0.68320733831E+01 -0.14834551279E+02  0.91617469529E+01  0.18726418386E+02  0.00000000000E+00 0.  1.
         11    1    3    3    0    0  0.20314716499E+01 -0.81414846643E+00  0.17530019079E+01  0.28040561229E+01  0.51100000000E-03 0. -1.
        -11    1    3    3    0    0  0.10386120441E+02 -0.24584193600E+01 -0.33334303870E+02  0.35001301952E+02  0.51100000000E-03 0.  1.
         12    1    3    3    0    0 -0.19249665474E+02  0.18107119105E+02  0.22419555009E+02  0.34656223539E+02  0.00000000000E+00 0. -1.
</event>
<event>
 7    1  0.1788006E-013  0.7246159E+02  0.7816164E-02  0.1226708E+00
        -11   -1    0    0    0    0  0.00000000000E+00  0.00000000000E+00  0.45593999997E+02  0.45594000000E+02  0.51100000000E-03 0. -1.
         11   -1    0    0    0    0 -0.00000000000E+00 -0.00000000000E+00 -0.45593999997E+02  0.45594000000E+02  0.51100000000E-03 0.  1.
    9900012    2    1    2    0    0 -0.61758213502E+01 -0.64193999894E+01  0.16472063447E+02  0.72461592449E+02  0.70000028861E+02 0.  0.
        -12    1    1    2    0    0  0.61758213502E+01  0.64193999894E+01 -0.16472063447E+02  0.18726407551E+02  0.00000000000E+00 0.  1.
         11    1    3    3    0    0  0.71234810884E+01 -0.53338746017E+01  0.99346796237E+01  0.13337618250E+02  0.51100000000E-03 0. -1.
        -11    1    3    3    0    0 -0.16321013913E+02  0.25661734848E+02  0.99330939648E+01  0.31993225635E+02  0.51100000000E-03 0.  1.
         12    1    3    3    0    0  0.30217114744E+01 -0.26747260235E+02 -0.33957101418E+01  0.27130748565E+02  0.00000000000E+00 0. -1.
</event>
<event>
 7    1  0.1788006E-013  0.7246150E+02  0.7816164E-02  0.1226708E+00
        -11   -1    0    0    0    0  0.00000000000E+00  0.00000000000E+00  0.45593999997E+02  0.45594000000E+02  0.51100000000E-03 0. -1.
         11   -1    0    0    0    0 -0.00000000000E+00 -0.00000000000E+00 -0.45593999997E+02  0.45594000000E+02  0.51100000000E-03 0.  1.
    9900012    2    1    2    0    0  0.14513439595E+02 -0.20357980016E+01  0.11657499376E+02  0.72461502888E+02  0.69999912190E+02 0.  0.
        -12    1    1    2    0    0 -0.14513439595E+02  0.20357980016E+01 -0.11657499376E+02  0.18726497112E+02  0.00000000000E+00 0.  1.
         11    1    3    3    0    0  0.56999249968E+01 -0.74011220851E+01  0.50020729693E+01  0.10596531854E+02  0.51100000000E-03 0. -1.
        -11    1    3    3    0    0 -0.20440451967E+02 -0.15350183050E+02  0.44894513957E+01  0.25953715926E+02  0.51100000000E-03 0.  1.
         12    1    3    3    0    0  0.29253966566E+02  0.20715507133E+02  0.21659750113E+01  0.35911255107E+02  0.00000000000E+00 0. -1.
</event>
<event>
 7    1  0.1788006E-013  0.7246157E+02  0.7816164E-02  0.1226708E+00
        -11   -1    0    0    0    0  0.00000000000E+00  0.00000000000E+00  0.45593999997E+02  0.45594000000E+02  0.51100000000E-03 0. -1.
         11   -1    0    0    0    0 -0.00000000000E+00 -0.00000000000E+00 -0.45593999997E+02  0.45594000000E+02  0.51100000000E-03 0.  1.
    9900012    2    1    2    0    0 -0.16726888415E+02  0.45680785163E+01  0.70726904844E+01  0.72461572469E+02  0.70000002833E+02 0.  0.
        -12    1    1    2    0    0  0.16726888415E+02 -0.45680785163E+01 -0.70726904844E+01  0.18726427531E+02  0.00000000000E+00 0.  1.
         11    1    3    3    0    0  0.24396332939E+01 -0.26520765554E+02 -0.29060048725E+01  0.26790813365E+02  0.51100000000E-03 0. -1.
        -11    1    3    3    0    0  0.28422089324E+01  0.45115025532E+01 -0.56680803902E+01  0.77819626364E+01  0.51100000000E-03 0.  1.
         12    1    3    3    0    0 -0.22008730641E+02  0.26577341517E+02  0.15646775747E+02  0.37888796468E+02  0.00000000000E+00 0. -1.
</event>
<event>
 7    1  0.1788006E-013  0.7246145E+02  0.7816164E-02  0.1226708E+00
        -11   -1    0    0    0    0  0.00000000000E+00  0.00000000000E+00  0.45593999997E+02  0.45594000000E+02  0.51100000000E-03 0.  1.
         11   -1    0    0    0    0 -0.00000000000E+00 -0.00000000000E+00 -0.45593999997E+02  0.45594000000E+02  0.51100000000E-03 0. -1.
    9900012    2    1    2    0    0  0.16012405263E+02 -0.11570786527E+01 -0.96409436802E+01  0.72461448039E+02  0.69999840739E+02 0.  0.
        -12    1    1    2    0    0 -0.16012405263E+02  0.11570786527E+01  0.96409436802E+01  0.18726551961E+02  0.00000000000E+00 0.  1.
         11    1    3    3    0    0 -0.27850594700E+01  0.73383509501E+01 -0.13658909968E+02  0.15753532070E+02  0.51100000000E-03 0. -1.
        -11    1    3    3    0    0  0.71940470533E+01  0.18714193019E+02  0.15121204693E+02  0.25112271203E+02  0.51100000000E-03 0.  1.
         12    1    3    3    0    0  0.11603417680E+02 -0.27209622621E+02 -0.11103238405E+02  0.31595644765E+02  0.00000000000E+00 0. -1.
</event>
<event>
 7    1  0.1788006E-013  0.7246154E+02  0.7816164E-02  0.1226708E+00
        -11   -1    0    0    0    0  0.00000000000E+00  0.00000000000E+00  0.45593999997E+02  0.45594000000E+02  0.51100000000E-03 0.  1.
         11   -1    0    0    0    0 -0.00000000000E+00 -0.00000000000E+00 -0.45593999997E+02  0.45594000000E+02  0.51100000000E-03 0. -1.
    9900012    2    1    2    0    0 -0.18283698532E+02 -0.29851783574E+01 -0.27340836218E+01  0.72461544513E+02  0.69999966415E+02 0.  0.
        -12    1    1    2    0    0  0.18283698532E+02  0.29851783574E+01  0.27340836218E+01  0.18726455487E+02  0.00000000000E+00 0.  1.
         11    1    3    3    0    0 -0.31052933485E+02 -0.16106591263E+02 -0.42827531911E+01  0.35242714642E+02  0.51100000000E-03 0. -1.
        -11    1    3    3    0    0 -0.39828273429E+01  0.34474067162E+01  0.13492282039E+02  0.14484101684E+02  0.51100000000E-03 0.  1.
         12    1    3    3    0    0  0.16752062296E+02  0.96740061897E+01 -0.11943612470E+02  0.22734728187E+02  0.00000000000E+00 0. -1.
</event>
<event>
 7    1  0.1788006E-013  0.7246156E+02  0.7816164E-02  0.1226708E+00
        -11   -1    0    0    0    0  0.00000000000E+00  0.00000000000E+00  0.45593999997E+02  0.45594000000E+02  0.51100000000E-03 0. -1.
         11   -1    0    0    0    0 -0.00000000000E+00 -0.00000000000E+00 -0.45593999997E+02  0.45594000000E+02  0.51100000000E-03 0.  1.
    9900012    2    1    2    0    0 -0.98328029041E+01 -0.15876526650E+02 -0.13897773897E+01  0.72461558998E+02  0.69999985284E+02 0.  0.
        -12    1    1    2    0    0  0.98328029041E+01  0.15876526650E+02  0.13897773897E+01  0.18726441002E+02  0.00000000000E+00 0.  1.
         11    1    3    3    0    0 -0.18957073241E+02  0.93769885307E+00  0.29634172583E+02  0.35191392271E+02  0.51100000000E-03 0. -1.
        -11    1    3    3    0    0  0.79769943726E+01 -0.80780724713E+01 -0.13372143344E+02  0.17541434147E+02  0.51100000000E-03 0.  1.
        -12    1    3    3    0    0  0.11472759643E+01 -0.87361530316E+01 -0.17651806629E+02  0.19728732580E+02  0.00000000000E+00 0.  1.
</event>
<event>
 7    1  0.1788006E-013  0.7246156E+02  0.7816164E-02  0.1226708E+00
        -11   -1    0    0    0    0  0.00000000000E+00  0.00000000000E+00  0.45593999997E+02  0.45594000000E+02  0.51100000000E-03 0.  1.
         11   -1    0    0    0    0 -0.00000000000E+00 -0.00000000000E+00 -0.45593999997E+02  0.45594000000E+02  0.51100000000E-03 0. -1.
    9900012    2    1    2    0    0 -0.91700198808E+01  0.16266644442E+02 -0.14094194678E+01  0.72461562826E+02  0.69999990270E+02 0.  0.
        -12    1    1    2    0    0  0.91700198808E+01 -0.16266644442E+02  0.14094194678E+01  0.18726437174E+02  0.00000000000E+00 0.  1.
         11    1    3    3    0    0 -0.27155737810E+01  0.65454360512E+01  0.66697057006E+01  0.97314977498E+01  0.51100000000E-03 0. -1.
        -11    1    3    3    0    0 -0.13593958058E+02 -0.20697481728E+02  0.99150054046E+01  0.26673746980E+02  0.51100000000E-03 0.  1.
        -12    1    3    3    0    0  0.71395119583E+01  0.30418690118E+02 -0.17994130573E+02  0.36056318095E+02  0.00000000000E+00 0.  1.
</event>
<event>
 7    1  0.1788006E-013  0.7246161E+02  0.7816164E-02  0.1226708E+00
        -11   -1    0    0    0    0  0.00000000000E+00  0.00000000000E+00  0.45593999997E+02  0.45594000000E+02  0.51100000000E-03 0.  1.
         11   -1    0    0    0    0 -0.00000000000E+00 -0.00000000000E+00 -0.45593999997E+02  0.45594000000E+02  0.51100000000E-03 0. -1.
    9900012    2    1    2    0    0  0.19890490017E+01  0.18427106277E+02  0.26763993431E+01  0.72461610196E+02  0.70000051979E+02 0.  0.
        -12    1    1    2    0    0 -0.19890490017E+01 -0.18427106277E+02 -0.26763993431E+01  0.18726389804E+02  0.00000000000E+00 0.  1.
         11    1    3    3    0    0 -0.20949205716E+02 -0.35354162521E+01 -0.16315033126E+02  0.26787099402E+02  0.51100000000E-03 0. -1.
        -11    1    3    3    0    0  0.10461800326E+02  0.92724610261E+01 -0.58184547473E+01  0.15142067740E+02  0.51100000000E-03 0.  1.
        -12    1    3    3    0    0  0.12476454391E+02  0.12690061503E+02  0.24809887216E+02  0.30532443054E+02  0.00000000000E+00 0.  1.
</event>
<event>
 7    1  0.1788006E-013  0.7246154E+02  0.7816164E-02  0.1226708E+00
        -11   -1    0    0    0    0  0.00000000000E+00  0.00000000000E+00  0.45593999997E+02  0.45594000000E+02  0.51100000000E-03 0. -1.
         11   -1    0    0    0    0 -0.00000000000E+00 -0.00000000000E+00 -0.45593999997E+02  0.45594000000E+02  0.51100000000E-03 0.  1.
    9900012    2    1    2    0    0 -0.29266180438E+01 -0.18475169441E+02 -0.88510489464E+00  0.72461537715E+02  0.69999957559E+02 0.  0.
        -12    1    1    2    0    0  0.29266180438E+01  0.18475169441E+02  0.88510489464E+00  0.18726462285E+02  0.00000000000E+00 0.  1.
         11    1    3    3    0    0 -0.40885559575E+01 -0.56644542780E+01  0.16992411537E+02  0.18372380962E+02  0.51100000000E-03 0. -1.
        -11    1    3    3    0    0  0.18954208778E+02 -0.21662969327E+02 -0.23701386486E+01  0.28881894466E+02  0.51100000000E-03 0.  1.
         12    1    3    3    0    0 -0.17792270865E+02  0.88522541637E+01 -0.15507377783E+02  0.25207262287E+02  0.00000000000E+00 0. -1.
</event>
<event>
 7    1  0.1788006E-013  0.7246158E+02  0.7816164E-02  0.1226708E+00
        -11   -1    0    0    0    0  0.00000000000E+00  0.00000000000E+00  0.45593999997E+02  0.45594000000E+02  0.51100000000E-03 0.  1.
         11   -1    0    0    0    0 -0.00000000000E+00 -0.00000000000E+00 -0.45593999997E+02  0.45594000000E+02  0.51100000000E-03 0. -1.
    9900012    2    1    2    0    0 -0.10820158512E+02 -0.13879581566E+02 -0.64000130412E+01  0.72461580652E+02  0.70000013493E+02 0.  0.
        -12    1    1    2    0    0  0.10820158512E+02  0.13879581566E+02  0.64000130412E+01  0.18726419348E+02  0.00000000000E+00 0.  1.
         11    1    3    3    0    0 -0.11223259018E+02  0.16826811909E+02 -0.31147054365E+01  0.20464714320E+02  0.51100000000E-03 0. -1.
        -11    1    3    3    0    0 -0.10422577303E+02  0.51253519829E+01  0.64970656074E+01  0.13308313655E+02  0.51100000000E-03 0.  1.
         12    1    3    3    0    0  0.10825677809E+02 -0.35831745457E+02 -0.97823732120E+01  0.38688552677E+02  0.00000000000E+00 0. -1.
</event>
<event>
 7    1  0.1788006E-013  0.7246157E+02  0.7816164E-02  0.1226708E+00
        -11   -1    0    0    0    0  0.00000000000E+00  0.00000000000E+00  0.45593999997E+02  0.45594000000E+02  0.51100000000E-03 0. -1.
         11   -1    0    0    0    0 -0.00000000000E+00 -0.00000000000E+00 -0.45593999997E+02  0.45594000000E+02  0.51100000000E-03 0.  1.
    9900012    2    1    2    0    0  0.90865597959E+01 -0.16201504406E+02  0.23716493916E+01  0.72461573892E+02  0.70000004687E+02 0.  0.
        -12    1    1    2    0    0 -0.90865597959E+01  0.16201504406E+02 -0.23716493916E+01  0.18726426108E+02  0.00000000000E+00 0.  1.
         11    1    3    3    0    0 -0.26671221899E+02  0.41255046781E+01 -0.39160335736E+01  0.27271031987E+02  0.51100000000E-03 0. -1.
        -11    1    3    3    0    0  0.18831202222E+01 -0.42879259642E+01  0.61250059082E+01  0.77102625430E+01  0.51100000000E-03 0.  1.
        -12    1    3    3    0    0  0.33874661473E+02 -0.16039083120E+02  0.16267705705E+00  0.37480279362E+02  0.00000000000E+00 0.  1.
</event>
<event>
 7    1  0.1788006E-013  0.7246148E+02  0.7816164E-02  0.1226708E+00
        -11   -1    0    0    0    0  0.00000000000E+00  0.00000000000E+00  0.45593999997E+02  0.45594000000E+02  0.51100000000E-03 0.  1.
         11   -1    0    0    0    0 -0.00000000000E+00 -0.00000000000E+00 -0.45593999997E+02  0.45594000000E+02  0.51100000000E-03 0. -1.
    9900012    2    1    2    0    0  0.18483202877E+02 -0.11281153176E+01 -0.27894805793E+01  0.72461477774E+02  0.69999879475E+02 0.  0.
        -12    1    1    2    0    0 -0.18483202877E+02  0.11281153176E+01  0.27894805793E+01  0.18726522226E+02  0.00000000000E+00 0.  1.
         11    1    3    3    0    0 -0.29713761148E+01 -0.47942911307E+01 -0.24057446712E+02  0.24709816795E+02  0.51100000000E-03 0. -1.
        -11    1    3    3    0    0  0.86972483247E+01 -0.22168133448E+01 -0.10021492244E+02  0.13453129631E+02  0.51100000000E-03 0.  1.
        -12    1    3    3    0    0  0.12757330667E+02  0.58829891579E+01  0.31289458376E+02  0.34298531348E+02  0.00000000000E+00 0.  1.
</event>
<event>
 7    1  0.1788006E-013  0.7246160E+02  0.7816164E-02  0.1226708E+00
        -11   -1    0    0    0    0  0.00000000000E+00  0.00000000000E+00  0.45593999997E+02  0.45594000000E+02  0.51100000000E-03 0.  1.
         11   -1    0    0    0    0 -0.00000000000E+00 -0.00000000000E+00 -0.45593999997E+02  0.45594000000E+02  0.51100000000E-03 0. -1.
    9900012    2    1    2    0    0  0.17379752135E+02  0.29321999648E+01 -0.63264906725E+01  0.72461599782E+02  0.70000038413E+02 0.  0.
        -12    1    1    2    0    0 -0.17379752135E+02 -0.29321999648E+01  0.63264906725E+01  0.18726400218E+02  0.00000000000E+00 0.  1.
         11    1    3    3    0    0  0.29961643444E+02  0.10002197259E+02 -0.34010922607E+01  0.31769662522E+02  0.51100000000E-03 0. -1.
        -11    1    3    3    0    0  0.36683494364E-01 -0.15099697153E+02  0.12205885506E+02  0.19416123224E+02  0.51100000000E-03 0.  1.
        -12    1    3    3    0    0 -0.12618574804E+02  0.80296998583E+01 -0.15131283918E+02  0.21275814036E+02  0.00000000000E+00 0.  1.
</event>
<event>
 7    1  0.1788006E-013  0.7246158E+02  0.7816164E-02  0.1226708E+00
        -11   -1    0    0    0    0  0.00000000000E+00  0.00000000000E+00  0.45593999997E+02  0.45594000000E+02  0.51100000000E-03 0.  1.
         11   -1    0    0    0    0 -0.00000000000E+00 -0.00000000000E+00 -0.45593999997E+02  0.45594000000E+02  0.51100000000E-03 0. -1.
    9900012    2    1    2    0    0  0.33984494095E+00  0.17995219372E+02 -0.51706151643E+01  0.72461583472E+02  0.70000017166E+02 0.  0.
        -12    1    1    2    0    0 -0.33984494095E+00 -0.17995219372E+02  0.51706151643E+01  0.18726416528E+02  0.00000000000E+00 0.  1.
         11    1    3    3    0    0 -0.24180646396E+01 -0.40719223126E+01 -0.30734528202E+02  0.31097247659E+02  0.51100000000E-03 0. -1.
        -11    1    3    3    0    0  0.42644067767E+01  0.23456643323E+02  0.10312589090E+02  0.25975926839E+02  0.51100000000E-03 0.  1.
        -12    1    3    3    0    0 -0.15064971962E+01 -0.13895016386E+01  0.15251323947E+02  0.15388408974E+02  0.00000000000E+00 0.  1.
</event>
<event>
 7    1  0.1788006E-013  0.7246163E+02  0.7816164E-02  0.1226708E+00
        -11   -1    0    0    0    0  0.00000000000E+00  0.00000000000E+00  0.45593999997E+02  0.45594000000E+02  0.51100000000E-03 0. -1.
         11   -1    0    0    0    0 -0.00000000000E+00 -0.00000000000E+00 -0.45593999997E+02  0.45594000000E+02  0.51100000000E-03 0.  1.
    9900012    2    1    2    0    0  0.50639205133E+01 -0.50079018159E+01  0.17319197657E+02  0.72461628781E+02  0.70000076190E+02 0.  0.
        -12    1    1    2    0    0 -0.50639205133E+01  0.50079018159E+01 -0.17319197657E+02  0.18726371219E+02  0.00000000000E+00 0.  1.
         11    1    3    3    0    0 -0.21451899146E+01  0.17389770575E+02  0.74604584624E+01  0.19043749661E+02  0.51100000000E-03 0. -1.
        -11    1    3    3    0    0 -0.17571982495E+02 -0.79889513537E+00 -0.34993064557E+01  0.17934825011E+02  0.51100000000E-03 0.  1.
        -12    1    3    3    0    0  0.24781092922E+02 -0.21598777255E+02  0.13358045650E+02  0.35483054110E+02  0.00000000000E+00 0.  1.
</event>
<event>
 7    1  0.1788006E-013  0.7246155E+02  0.7816164E-02  0.1226708E+00
        -11   -1    0    0    0    0  0.00000000000E+00  0.00000000000E+00  0.45593999997E+02  0.45594000000E+02  0.51100000000E-03 0. -1.
         11   -1    0    0    0    0 -0.00000000000E+00 -0.00000000000E+00 -0.45593999997E+02  0.45594000000E+02  0.51100000000E-03 0.  1.
    9900012    2    1    2    0    0  0.17370409101E+02 -0.17878156560E+01  0.67640609769E+01  0.72461550308E+02  0.69999973964E+02 0.  0.
        -12    1    1    2    0    0 -0.17370409101E+02  0.17878156560E+01 -0.67640609769E+01  0.18726449692E+02  0.00000000000E+00 0.  1.
         11    1    3    3    0    0  0.70337815855E+01 -0.13035629474E+02  0.28179553197E+02  0.31835341019E+02  0.51100000000E-03 0. -1.
        -11    1    3    3    0    0 -0.86919102962E+01  0.97568749044E+01 -0.16862635646E+01  0.13175332921E+02  0.51100000000E-03 0.  1.
        -12    1    3    3    0    0  0.19028537812E+02  0.14909389135E+01 -0.19729228655E+02  0.27450876369E+02  0.00000000000E+00 0.  1.
</event>
<event>
 7    1  0.1788006E-013  0.7246149E+02  0.7816164E-02  0.1226708E+00
        -11   -1    0    0    0    0  0.00000000000E+00  0.00000000000E+00  0.45593999997E+02  0.45594000000E+02  0.51100000000E-03 0.  1.
         11   -1    0    0    0    0 -0.00000000000E+00 -0.00000000000E+00 -0.45593999997E+02  0.45594000000E+02  0.51100000000E-03 0. -1.
    9900012    2    1    2    0    0 -0.14538791367E+01  0.76026602317E+01 -0.17051915539E+02  0.72461493900E+02  0.69999900483E+02 0.  0.
        -12    1    1    2    0    0  0.14538791367E+01 -0.76026602317E+01  0.17051915539E+02  0.18726506100E+02  0.00000000000E+00 0.  1.
         11    1    3    3    0    0 -0.49995348179E+01  0.65313555555E+01 -0.13336812736E+02  0.15669222316E+02  0.51100000000E-03 0. -1.
        -11    1    3    3    0    0 -0.21430699160E+02  0.16038032297E+02  0.29269303813E+01  0.26926943164E+02  0.51100000000E-03 0.  1.
         12    1    3    3    0    0  0.24976354841E+02 -0.14966727620E+02 -0.66420331849E+01  0.29865328420E+02  0.00000000000E+00 0. -1.
</event>
<event>
 7    1  0.1788006E-013  0.7246158E+02  0.7816164E-02  0.1226708E+00
        -11   -1    0    0    0    0  0.00000000000E+00  0.00000000000E+00  0.45593999997E+02  0.45594000000E+02  0.51100000000E-03 0.  1.
         11   -1    0    0    0    0 -0.00000000000E+00 -0.00000000000E+00 -0.45593999997E+02  0.45594000000E+02  0.51100000000E-03 0. -1.
    9900012    2    1    2    0    0 -0.18632059493E+02  0.18703922705E+01 -0.16322986017E+00  0.72461584108E+02  0.70000017995E+02 0.  0.
        -12    1    1    2    0    0  0.18632059493E+02 -0.18703922705E+01  0.16322986017E+00  0.18726415892E+02  0.00000000000E+00 0.  1.
         11    1    3    3    0    0 -0.92406777076E-01 -0.49301522624E+01 -0.55394854928E+01  0.74162551284E+01  0.51100000000E-03 0. -1.
        -11    1    3    3    0    0 -0.62352383318E+01  0.17460792509E+02  0.30153856769E+02  0.35397917317E+02  0.51100000000E-03 0.  1.
         12    1    3    3    0    0 -0.12304414384E+02 -0.10660247976E+02 -0.24777601136E+02  0.29647411663E+02  0.00000000000E+00 0. -1.
</event>
<event>
 7    1  0.1788006E-013  0.7246176E+02  0.7816164E-02  0.1226708E+00
        -11   -1    0    0    0    0  0.00000000000E+00  0.00000000000E+00  0.45593999997E+02  0.45594000000E+02  0.51100000000E-03 0.  1.
         11   -1    0    0    0    0 -0.00000000000E+00 -0.00000000000E+00 -0.45593999997E+02  0.45594000000E+02  0.51100000000E-03 0. -1.
    9900012    2    1    2    0    0 -0.43203626216E+01 -0.16952961880E+02  0.66785998260E+01  0.72461757843E+02  0.70000244316E+02 0.  0.
        -12    1    1    2    0    0  0.43203626216E+01  0.16952961880E+02 -0.66785998260E+01  0.18726242157E+02  0.00000000000E+00 0.  1.
         11    1    3    3    0    0 -0.69839512637E+01 -0.33217754980E+02 -0.56542145248E+01  0.34411698059E+02  0.51100000000E-03 0. -1.
        -11    1    3    3    0    0  0.27126452387E+01 -0.88721175147E+01  0.85756391227E+01  0.12633863226E+02  0.51100000000E-03 0.  1.
        -12    1    3    3    0    0 -0.49056596672E-01  0.25136910614E+02  0.37571752281E+01  0.25416196558E+02  0.00000000000E+00 0.  1.
</event>
<event>
 7    1  0.1788006E-013  0.7246157E+02  0.7816164E-02  0.1226708E+00
        -11   -1    0    0    0    0  0.00000000000E+00  0.00000000000E+00  0.45593999997E+02  0.45594000000E+02  0.51100000000E-03 0. -1.
         11   -1    0    0    0    0 -0.00000000000E+00 -0.00000000000E+00 -0.45593999997E+02  0.45594000000E+02  0.51100000000E-03 0.  1.
    9900012    2    1    2    0    0  0.14248323356E+02  0.13881495369E+01  0.12072177648E+02  0.72461570795E+02  0.70000000652E+02 0.  0.
        -12    1    1    2    0    0 -0.14248323356E+02 -0.13881495369E+01 -0.12072177648E+02  0.18726429205E+02  0.00000000000E+00 0.  1.
         11    1    3    3    0    0  0.20578109640E+00 -0.31531300502E+01  0.25013450559E-01  0.31599368517E+01  0.51100000000E-03 0. -1.
        -11    1    3    3    0    0 -0.25694766859E+02  0.59525967429E+01  0.13259797469E+02  0.29520783883E+02  0.51100000000E-03 0.  1.
         12    1    3    3    0    0  0.39737309118E+02 -0.14113171559E+01 -0.12126332714E+01  0.39780850060E+02  0.00000000000E+00 0. -1.
</event>
<event>
 7    1  0.1788006E-013  0.7246163E+02  0.7816164E-02  0.1226708E+00
        -11   -1    0    0    0    0  0.00000000000E+00  0.00000000000E+00  0.45593999997E+02  0.45594000000E+02  0.51100000000E-03 0. -1.
         11   -1    0    0    0    0 -0.00000000000E+00 -0.00000000000E+00 -0.45593999997E+02  0.45594000000E+02  0.51100000000E-03 0.  1.
    9900012    2    1    2    0    0  0.11967157073E+02 -0.97695817685E+01  0.10583921364E+02  0.72461629081E+02  0.70000076580E+02 0.  0.
        -12    1    1    2    0    0 -0.11967157073E+02  0.97695817685E+01 -0.10583921364E+02  0.18726370919E+02  0.00000000000E+00 0.  1.
         11    1    3    3    0    0 -0.11115726106E+02  0.10262384770E+02  0.30827232974E+02  0.34339397215E+02  0.51100000000E-03 0. -1.
        -11    1    3    3    0    0  0.52819077929E+01 -0.94272524356E+01 -0.31350730520E+01  0.11251680840E+02  0.51100000000E-03 0.  1.
        -12    1    3    3    0    0  0.17800975386E+02 -0.10604714103E+02 -0.17108238557E+02  0.26870551026E+02  0.00000000000E+00 0.  1.
</event>
<event>
 7    1  0.1788006E-013  0.7246158E+02  0.7816164E-02  0.1226708E+00
        -11   -1    0    0    0    0  0.00000000000E+00  0.00000000000E+00  0.45593999997E+02  0.45594000000E+02  0.51100000000E-03 0.  1.
         11   -1    0    0    0    0 -0.00000000000E+00 -0.00000000000E+00 -0.45593999997E+02  0.45594000000E+02  0.51100000000E-03 0. -1.
    9900012    2    1    2    0    0  0.31515393383E+01  0.35956057591E+01 -0.18105755045E+02  0.72461576243E+02  0.70000007749E+02 0.  0.
        -12    1    1    2    0    0 -0.31515393383E+01 -0.35956057591E+01  0.18105755045E+02  0.18726423757E+02  0.00000000000E+00 0.  1.
         11    1    3    3    0    0  0.11269328574E+02  0.12548182921E+02 -0.32161609060E+02  0.36315613154E+02  0.51100000000E-03 0. -1.
        -11    1    3    3    0    0 -0.21364780314E+00 -0.51129879790E+01 -0.96175394201E+01  0.10894280895E+02  0.51100000000E-03 0.  1.
        -12    1    3    3    0    0 -0.79041414328E+01 -0.38395891829E+01  0.23673393436E+02  0.25251682194E+02  0.00000000000E+00 0.  1.
</event>
<event>
 7    1  0.1788006E-013  0.7246142E+02  0.7816164E-02  0.1226708E+00
        -11   -1    0    0    0    0  0.00000000000E+00  0.00000000000E+00  0.45593999997E+02  0.45594000000E+02  0.51100000000E-03 0. -1.
         11   -1    0    0    0    0 -0.00000000000E+00 -0.00000000000E+00 -0.45593999997E+02  0.45594000000E+02  0.51100000000E-03 0.  1.
    9900012    2    1    2    0    0 -0.89389178401E+01 -0.40252447674E+01  0.15955504745E+02  0.72461415174E+02  0.69999797926E+02 0.  0.
        -12    1    1    2    0    0  0.89389178401E+01  0.40252447674E+01 -0.15955504745E+02  0.18726584826E+02  0.00000000000E+00 0.  1.
         11    1    3    3    0    0 -0.21020599135E+02  0.49576855720E+00  0.17819005169E+02  0.27561355553E+02  0.51100000000E-03 0. -1.
        -11    1    3    3    0    0  0.23324091312E+01  0.17932562794E+02  0.62163733112E+01  0.19122244589E+02  0.51100000000E-03 0.  1.
         12    1    3    3    0    0  0.97492721642E+01 -0.22453576118E+02 -0.80798737347E+01  0.25777815032E+02  0.00000000000E+00 0. -1.
</event>
<event>
 7    1  0.1788006E-013  0.7246156E+02  0.7816164E-02  0.1226708E+00
        -11   -1    0    0    0    0  0.00000000000E+00  0.00000000000E+00  0.45593999997E+02  0.45594000000E+02  0.51100000000E-03 0.  1.
         11   -1    0    0    0    0 -0.00000000000E+00 -0.00000000000E+00 -0.45593999997E+02  0.45594000000E+02  0.51100000000E-03 0. -1.
    9900012    2    1    2    0    0  0.63188799865E+01  0.28293883113E+01 -0.17399592055E+02  0.72461561840E+02  0.69999988986E+02 0.  0.
        -12    1    1    2    0    0 -0.63188799865E+01 -0.28293883113E+01  0.17399592055E+02  0.18726438160E+02  0.00000000000E+00 0.  1.
         11    1    3    3    0    0 -0.13630527997E+02  0.12810088473E+02  0.19133835990E+01  0.18802943844E+02  0.51100000000E-03 0. -1.
        -11    1    3    3    0    0  0.10677048151E+02  0.37270402664E+01  0.13075195109E+02  0.17287304988E+02  0.51100000000E-03 0.  1.
        -12    1    3    3    0    0  0.92723598319E+01 -0.13707740428E+02 -0.32388170762E+02  0.36371313007E+02  0.00000000000E+00 0.  1.
</event>
<event>
 7    1  0.1788006E-013  0.7246155E+02  0.7816164E-02  0.1226708E+00
        -11   -1    0    0    0    0  0.00000000000E+00  0.00000000000E+00  0.45593999997E+02  0.45594000000E+02  0.51100000000E-03 0. -1.
         11   -1    0    0    0    0 -0.00000000000E+00 -0.00000000000E+00 -0.45593999997E+02  0.45594000000E+02  0.51100000000E-03 0.  1.
    9900012    2    1    2    0    0 -0.48338956709E+01 -0.50126058452E+01  0.17383530839E+02  0.72461550546E+02  0.69999974275E+02 0.  0.
        -12    1    1    2    0    0  0.48338956709E+01  0.50126058452E+01 -0.17383530839E+02  0.18726449454E+02  0.00000000000E+00 0.  1.
         11    1    3    3    0    0  0.64384170431E+01 -0.15168993571E+02  0.10272415390E+02  0.19418395870E+02  0.51100000000E-03 0. -1.
        -11    1    3    3    0    0 -0.25640337196E+02 -0.10208030213E+02  0.48173092455E+01  0.28014946742E+02  0.51100000000E-03 0.  1.
        -12    1    3    3    0    0  0.14368024482E+02  0.20364417938E+02  0.22938062031E+01  0.25028207934E+02  0.00000000000E+00 0.  1.
</event>
<event>
 7    1  0.1788006E-013  0.7246157E+02  0.7816164E-02  0.1226708E+00
        -11   -1    0    0    0    0  0.00000000000E+00  0.00000000000E+00  0.45593999997E+02  0.45594000000E+02  0.51100000000E-03 0. -1.
         11   -1    0    0    0    0 -0.00000000000E+00 -0.00000000000E+00 -0.45593999997E+02  0.45594000000E+02  0.51100000000E-03 0.  1.
    9900012    2    1    2    0    0 -0.11952407557E+02 -0.94997530426E+01  0.10843148741E+02  0.72461568709E+02  0.69999997935E+02 0.  0.
        -12    1    1    2    0    0  0.11952407557E+02  0.94997530426E+01 -0.10843148741E+02  0.18726431291E+02  0.00000000000E+00 0.  1.
         11    1    3    3    0    0  0.11653460654E+02 -0.13783920242E+01 -0.10472582644E+02  0.15728257923E+02  0.51100000000E-03 0. -1.
        -11    1    3    3    0    0 -0.30649660962E+02  0.66031180067E+01  0.19601754926E+01  0.31414091944E+02  0.51100000000E-03 0.  1.
         12    1    3    3    0    0  0.70437927507E+01 -0.14724479025E+02  0.19355555892E+02  0.25319218842E+02  0.00000000000E+00 0. -1.
</event>
<event>
 7    1  0.1788006E-013  0.7246157E+02  0.7816164E-02  0.1226708E+00
        -11   -1    0    0    0    0  0.00000000000E+00  0.00000000000E+00  0.45593999997E+02  0.45594000000E+02  0.51100000000E-03 0. -1.
         11   -1    0    0    0    0 -0.00000000000E+00 -0.00000000000E+00 -0.45593999997E+02  0.45594000000E+02  0.51100000000E-03 0.  1.
    9900012    2    1    2    0    0 -0.64915533232E+01 -0.17559914110E+02 -0.43390311860E+00  0.72461571616E+02  0.70000001722E+02 0.  0.
        -12    1    1    2    0    0  0.64915533232E+01  0.17559914110E+02  0.43390311860E+00  0.18726428384E+02  0.00000000000E+00 0.  1.
         11    1    3    3    0    0  0.15444547600E+01 -0.56313472700E+01 -0.38205414520E+01  0.69781050313E+01  0.51100000000E-03 0. -1.
        -11    1    3    3    0    0  0.24707798261E+02 -0.93968792316E+01 -0.12220083074E+02  0.29122277809E+02  0.51100000000E-03 0.  1.
         12    1    3    3    0    0 -0.32743806344E+02 -0.25316876084E+01  0.15606721408E+02  0.36361188775E+02  0.00000000000E+00 0. -1.
</event>
<event>
 7    1  0.1788006E-013  0.7246156E+02  0.7816164E-02  0.1226708E+00
        -11   -1    0    0    0    0  0.00000000000E+00  0.00000000000E+00  0.45593999997E+02  0.45594000000E+02  0.51100000000E-03 0.  1.
         11   -1    0    0    0    0 -0.00000000000E+00 -0.00000000000E+00 -0.45593999997E+02  0.45594000000E+02  0.51100000000E-03 0. -1.
    9900012    2    1    2    0    0 -0.13427030795E+02  0.10390560302E+01 -0.13012104740E+02  0.72461557113E+02  0.69999982829E+02 0.  0.
        -12    1    1    2    0    0  0.13427030795E+02 -0.10390560302E+01  0.13012104740E+02  0.18726442887E+02  0.00000000000E+00 0.  1.
         11    1    3    3    0    0 -0.92583824312E+01 -0.93390317377E+01 -0.10125217606E+02  0.16596842798E+02  0.51100000000E-03 0. -1.
        -11    1    3    3    0    0 -0.16424090431E+02  0.25434329432E+02  0.10763276739E+02  0.32132600059E+02  0.51100000000E-03 0.  1.
         12    1    3    3    0    0  0.12255442067E+02 -0.15056241664E+02 -0.13650163873E+02  0.23732114256E+02  0.00000000000E+00 0. -1.
</event>
<event>
 7    1  0.1788006E-013  0.7246155E+02  0.7816164E-02  0.1226708E+00
        -11   -1    0    0    0    0  0.00000000000E+00  0.00000000000E+00  0.45593999997E+02  0.45594000000E+02  0.51100000000E-03 0.  1.
         11   -1    0    0    0    0 -0.00000000000E+00 -0.00000000000E+00 -0.45593999997E+02  0.45594000000E+02  0.51100000000E-03 0. -1.
    9900012    2    1    2    0    0 -0.10351436597E+02 -0.14752403381E+02 -0.50886312328E+01  0.72461553114E+02  0.69999977619E+02 0.  0.
        -12    1    1    2    0    0  0.10351436597E+02  0.14752403381E+02  0.50886312328E+01  0.18726446886E+02  0.00000000000E+00 0.  1.
         11    1    3    3    0    0  0.27022227728E+00 -0.17480236537E+02 -0.27740321238E+02  0.32789588472E+02  0.51100000000E-03 0. -1.
        -11    1    3    3    0    0 -0.26933190454E+01 -0.13146897095E+02  0.41746723671E+01  0.14054279076E+02  0.51100000000E-03 0.  1.
        -12    1    3    3    0    0 -0.79283398293E+01  0.15874730251E+02  0.18477017638E+02  0.25617685567E+02  0.00000000000E+00 0.  1.
</event>
<event>
 7    1  0.1788006E-013  0.7246155E+02  0.7816164E-02  0.1226708E+00
        -11   -1    0    0    0    0  0.00000000000E+00  0.00000000000E+00  0.45593999997E+02  0.45594000000E+02  0.51100000000E-03 0.  1.
         11   -1    0    0    0    0 -0.00000000000E+00 -0.00000000000E+00 -0.45593999997E+02  0.45594000000E+02  0.51100000000E-03 0. -1.
    9900012    2    1    2    0    0 -0.57371044965E+00  0.18680579761E+02 -0.11775828657E+01  0.72461550649E+02  0.69999974409E+02 0.  0.
        -12    1    1    2    0    0  0.57371044965E+00 -0.18680579761E+02  0.11775828657E+01  0.18726449351E+02  0.00000000000E+00 0.  1.
         11    1    3    3    0    0 -0.80425530931E+01 -0.63776699129E+00 -0.21740076740E+02  0.23188797811E+02  0.51100000000E-03 0. -1.
        -11    1    3    3    0    0  0.14854003724E+02 -0.73296110569E+01  0.40014359076E+01  0.17040425889E+02  0.51100000000E-03 0.  1.
         12    1    3    3    0    0 -0.73851610808E+01  0.26647957809E+02  0.16561057967E+02  0.32232326949E+02  0.00000000000E+00 0. -1.
</event>
<event>
 7    1  0.1788006E-013  0.7246158E+02  0.7816164E-02  0.1226708E+00
        -11   -1    0    0    0    0  0.00000000000E+00  0.00000000000E+00  0.45593999997E+02  0.45594000000E+02  0.51100000000E-03 0. -1.
         11   -1    0    0    0    0 -0.00000000000E+00 -0.00000000000E+00 -0.45593999997E+02  0.45594000000E+02  0.51100000000E-03 0.  1.
    9900012    2    1    2    0    0 -0.13828448039E+02  0.57534251427E+01  0.11240594887E+02  0.72461578840E+02  0.70000011133E+02 0.  0.
        -12    1    1    2    0    0  0.13828448039E+02 -0.57534251427E+01 -0.11240594887E+02  0.18726421160E+02  0.00000000000E+00 0.  1.
         11    1    3    3    0    0  0.11198270151E+01 -0.79707108816E+00  0.18294210481E+01  0.22882562129E+01  0.51100000000E-03 0. -1.
        -11    1    3    3    0    0 -0.14134243152E+02 -0.26642378792E+02 -0.99248495996E+01  0.31750524673E+02  0.51100000000E-03 0.  1.
         12    1    3    3    0    0 -0.81403190186E+00  0.33192875023E+02  0.19336023438E+02  0.38422797954E+02  0.00000000000E+00 0. -1.
</event>
<event>
 7    1  0.1788006E-013  0.7246139E+02  0.7816164E-02  0.1226709E+00
        -11   -1    0    0    0    0  0.00000000000E+00  0.00000000000E+00  0.45593999997E+02  0.45594000000E+02  0.51100000000E-03 0.  1.
         11   -1    0    0    0    0 -0.00000000000E+00 -0.00000000000E+00 -0.45593999997E+02  0.45594000000E+02  0.51100000000E-03 0. -1.
    9900012    2    1    2    0    0  0.17052256470E+02  0.36789353128E+01 -0.68097026500E+01  0.72461386159E+02  0.69999760130E+02 0.  0.
        -12    1    1    2    0    0 -0.17052256470E+02 -0.36789353128E+01  0.68097026500E+01  0.18726613841E+02  0.00000000000E+00 0.  1.
         11    1    3    3    0    0  0.49320342081E+01  0.28578480637E+01  0.18699270025E+02  0.19548784021E+02  0.51100000000E-03 0. -1.
        -11    1    3    3    0    0 -0.89294836323E+00  0.49486560410E+01  0.11992154651E+02  0.13003781251E+02  0.51100000000E-03 0.  1.
         12    1    3    3    0    0  0.13013170625E+02 -0.41275687918E+01 -0.37501127326E+02  0.39908820887E+02  0.00000000000E+00 0. -1.
</event>
<event>
 7    1  0.1788006E-013  0.7246155E+02  0.7816164E-02  0.1226708E+00
        -11   -1    0    0    0    0  0.00000000000E+00  0.00000000000E+00  0.45593999997E+02  0.45594000000E+02  0.51100000000E-03 0.  1.
         11   -1    0    0    0    0 -0.00000000000E+00 -0.00000000000E+00 -0.45593999997E+02  0.45594000000E+02  0.51100000000E-03 0. -1.
    9900012    2    1    2    0    0 -0.68884728259E+01 -0.11387067701E+02 -0.13174347676E+02  0.72461553317E+02  0.69999977884E+02 0.  0.
        -12    1    1    2    0    0  0.68884728259E+01  0.11387067701E+02  0.13174347676E+02  0.18726446683E+02  0.00000000000E+00 0.  1.
         11    1    3    3    0    0 -0.11744273258E+02  0.68827850521E+01  0.13499898101E+01  0.13679296662E+02  0.51100000000E-03 0. -1.
        -11    1    3    3    0    0 -0.17482220377E+02 -0.66278253867E+01  0.11989384245E+02  0.22210390215E+02  0.51100000000E-03 0.  1.
         12    1    3    3    0    0  0.22338020809E+02 -0.11642027366E+02 -0.26513721731E+02  0.36571866440E+02  0.00000000000E+00 0. -1.
</event>
<event>
 7    1  0.1788006E-013  0.7246151E+02  0.7816164E-02  0.1226708E+00
        -11   -1    0    0    0    0  0.00000000000E+00  0.00000000000E+00  0.45593999997E+02  0.45594000000E+02  0.51100000000E-03 0.  1.
         11   -1    0    0    0    0 -0.00000000000E+00 -0.00000000000E+00 -0.45593999997E+02  0.45594000000E+02  0.51100000000E-03 0. -1.
    9900012    2    1    2    0    0 -0.14518358331E+02  0.46530396226E+01 -0.10874188861E+02  0.72461508344E+02  0.69999919298E+02 0.  0.
        -12    1    1    2    0    0  0.14518358331E+02 -0.46530396226E+01  0.10874188861E+02  0.18726491656E+02  0.00000000000E+00 0.  1.
         11    1    3    3    0    0 -0.44818925320E+01 -0.23506878139E+01  0.14378080423E+01  0.52612152678E+01  0.51100000000E-03 0. -1.
        -11    1    3    3    0    0  0.86301469794E+01 -0.20265059752E+02  0.12998088411E+02  0.25575425437E+02  0.51100000000E-03 0.  1.
         12    1    3    3    0    0 -0.18666612778E+02  0.27268787189E+02 -0.25310085315E+02  0.41624867640E+02  0.00000000000E+00 0. -1.
</event>
<event>
 7    1  0.1788006E-013  0.7246163E+02  0.7816164E-02  0.1226708E+00
        -11   -1    0    0    0    0  0.00000000000E+00  0.00000000000E+00  0.45593999997E+02  0.45594000000E+02  0.51100000000E-03 0.  1.
         11   -1    0    0    0    0 -0.00000000000E+00 -0.00000000000E+00 -0.45593999997E+02  0.45594000000E+02  0.51100000000E-03 0. -1.
    9900012    2    1    2    0    0  0.12767288278E+01 -0.18536042497E+02 -0.23371124268E+01  0.72461628156E+02  0.70000075375E+02 0.  0.
        -12    1    1    2    0    0 -0.12767288278E+01  0.18536042497E+02  0.23371124268E+01  0.18726371844E+02  0.00000000000E+00 0.  1.
         11    1    3    3    0    0  0.54821048111E+01 -0.55466527031E+01 -0.22088628214E+02  0.23424908239E+02  0.51100000000E-03 0. -1.
        -11    1    3    3    0    0 -0.62181008790E+01 -0.25388523594E+02  0.61544972957E+00  0.26146140966E+02  0.51100000000E-03 0.  1.
        -12    1    3    3    0    0  0.20127248957E+01  0.12399133800E+02  0.19136066058E+02  0.22890578950E+02  0.00000000000E+00 0.  1.
</event>
<event>
 7    1  0.1788006E-013  0.7246155E+02  0.7816164E-02  0.1226708E+00
        -11   -1    0    0    0    0  0.00000000000E+00  0.00000000000E+00  0.45593999997E+02  0.45594000000E+02  0.51100000000E-03 0.  1.
         11   -1    0    0    0    0 -0.00000000000E+00 -0.00000000000E+00 -0.45593999997E+02  0.45594000000E+02  0.51100000000E-03 0. -1.
    9900012    2    1    2    0    0 -0.10183682885E+01  0.18601257007E+02 -0.19068632199E+01  0.72461549094E+02  0.69999972382E+02 0.  0.
        -12    1    1    2    0    0  0.10183682885E+01 -0.18601257007E+02  0.19068632199E+01  0.18726450906E+02  0.00000000000E+00 0.  1.
         11    1    3    3    0    0  0.24858223465E+02  0.72242121948E+01 -0.77808096629E+01  0.27030751283E+02  0.51100000000E-03 0. -1.
        -11    1    3    3    0    0  0.46700673659E+01  0.65565125413E+01  0.11461048303E+02  0.14005463733E+02  0.51100000000E-03 0.  1.
        -12    1    3    3    0    0 -0.30546659119E+02  0.48205322705E+01 -0.55871018603E+01  0.31425334078E+02  0.00000000000E+00 0.  1.
</event>
<event>
 7    1  0.1788006E-013  0.7246151E+02  0.7816164E-02  0.1226708E+00
        -11   -1    0    0    0    0  0.00000000000E+00  0.00000000000E+00  0.45593999997E+02  0.45594000000E+02  0.51100000000E-03 0.  1.
         11   -1    0    0    0    0 -0.00000000000E+00 -0.00000000000E+00 -0.45593999997E+02  0.45594000000E+02  0.51100000000E-03 0. -1.
    9900012    2    1    2    0    0  0.78037358850E+01 -0.14628103989E+02  0.87064235250E+01  0.72461507251E+02  0.69999917875E+02 0.  0.
        -12    1    1    2    0    0 -0.78037358850E+01  0.14628103989E+02 -0.87064235250E+01  0.18726492749E+02  0.00000000000E+00 0.  1.
         11    1    3    3    0    0  0.43344268815E+01  0.23871347378E+01 -0.13243440621E+02  0.14137693885E+02  0.51100000000E-03 0. -1.
        -11    1    3    3    0    0  0.24155486962E+02  0.35006970121E+01  0.61067170957E+01  0.25160175355E+02  0.51100000000E-03 0.  1.
         12    1    3    3    0    0 -0.20686177958E+02 -0.20515935739E+02  0.15843147050E+02  0.33163638012E+02  0.00000000000E+00 0. -1.
</event>
<event>
 7    1  0.1788006E-013  0.7246158E+02  0.7816164E-02  0.1226708E+00
        -11   -1    0    0    0    0  0.00000000000E+00  0.00000000000E+00  0.45593999997E+02  0.45594000000E+02  0.51100000000E-03 0. -1.
         11   -1    0    0    0    0 -0.00000000000E+00 -0.00000000000E+00 -0.45593999997E+02  0.45594000000E+02  0.51100000000E-03 0.  1.
    9900012    2    1    2    0    0  0.20157851711E+01  0.66297991389E+01  0.17397159940E+02  0.72461580148E+02  0.70000012837E+02 0.  0.
        -12    1    1    2    0    0 -0.20157851711E+01 -0.66297991389E+01 -0.17397159940E+02  0.18726419852E+02  0.00000000000E+00 0.  1.
         11    1    3    3    0    0  0.60990406008E-01 -0.94102718903E+00  0.12967853152E+02  0.13002094740E+02  0.51100000000E-03 0. -1.
        -11    1    3    3    0    0  0.10913853413E+02 -0.23962972448E+02 -0.33433180959E+00  0.26333401278E+02  0.51100000000E-03 0.  1.
         12    1    3    3    0    0 -0.89590586480E+01  0.31533798776E+02  0.47636385977E+01  0.33126084130E+02  0.00000000000E+00 0. -1.
</event>
<event>
 7    1  0.1788006E-013  0.7246157E+02  0.7816164E-02  0.1226708E+00
        -11   -1    0    0    0    0  0.00000000000E+00  0.00000000000E+00  0.45593999997E+02  0.45594000000E+02  0.51100000000E-03 0. -1.
         11   -1    0    0    0    0 -0.00000000000E+00 -0.00000000000E+00 -0.45593999997E+02  0.45594000000E+02  0.51100000000E-03 0.  1.
    9900012    2    1    2    0    0  0.11700525024E+02 -0.10131536731E+02  0.10541768963E+02  0.72461569073E+02  0.69999998409E+02 0.  0.
        -12    1    1    2    0    0 -0.11700525024E+02  0.10131536731E+02 -0.10541768963E+02  0.18726430927E+02  0.00000000000E+00 0.  1.
         11    1    3    3    0    0  0.12925949325E+02  0.12844219390E+02  0.14692434874E+02  0.23407729075E+02  0.51100000000E-03 0. -1.
        -11    1    3    3    0    0 -0.17141886751E+02 -0.10455799107E+02 -0.15926346188E+02  0.25628431858E+02  0.51100000000E-03 0.  1.
         12    1    3    3    0    0  0.15916462450E+02 -0.12519957013E+02  0.11775680277E+02  0.23425408140E+02  0.00000000000E+00 0. -1.
</event>
<event>
 7    1  0.1788006E-013  0.7246158E+02  0.7816164E-02  0.1226708E+00
        -11   -1    0    0    0    0  0.00000000000E+00  0.00000000000E+00  0.45593999997E+02  0.45594000000E+02  0.51100000000E-03 0.  1.
         11   -1    0    0    0    0 -0.00000000000E+00 -0.00000000000E+00 -0.45593999997E+02  0.45594000000E+02  0.51100000000E-03 0. -1.
    9900012    2    1    2    0    0 -0.10287872634E+01 -0.64426463179E+01 -0.17553142320E+02  0.72461577488E+02  0.70000009371E+02 0.  0.
        -12    1    1    2    0    0  0.10287872634E+01  0.64426463179E+01  0.17553142320E+02  0.18726422512E+02  0.00000000000E+00 0.  1.
         11    1    3    3    0    0 -0.23457307964E+02  0.12410668888E+01 -0.25354125225E+02  0.34563234949E+02  0.51100000000E-03 0. -1.
        -11    1    3    3    0    0 -0.28680567890E+01  0.53698025807E+01 -0.37810410138E+01  0.71663659487E+01  0.51100000000E-03 0.  1.
        -12    1    3    3    0    0  0.25296577489E+02 -0.13053515787E+02  0.11582023919E+02  0.30731976590E+02  0.00000000000E+00 0.  1.
</event>
<event>
 7    1  0.1788006E-013  0.7246161E+02  0.7816164E-02  0.1226708E+00
        -11   -1    0    0    0    0  0.00000000000E+00  0.00000000000E+00  0.45593999997E+02  0.45594000000E+02  0.51100000000E-03 0.  1.
         11   -1    0    0    0    0 -0.00000000000E+00 -0.00000000000E+00 -0.45593999997E+02  0.45594000000E+02  0.51100000000E-03 0. -1.
    9900012    2    1    2    0    0  0.76363205667E+01 -0.12913423511E+02  0.11207482645E+02  0.72461613114E+02  0.70000055780E+02 0.  0.
        -12    1    1    2    0    0 -0.76363205667E+01  0.12913423511E+02 -0.11207482645E+02  0.18726386886E+02  0.00000000000E+00 0.  1.
         11    1    3    3    0    0 -0.13266808727E+02 -0.26512092631E+02  0.28997034230E+01  0.29787708031E+02  0.51100000000E-03 0. -1.
        -11    1    3    3    0    0  0.14995950579E+02 -0.95389704740E+01  0.56366625903E+01  0.18645172482E+02  0.51100000000E-03 0.  1.
        -12    1    3    3    0    0  0.59071787155E+01  0.23137639594E+02  0.26711166313E+01  0.24028732601E+02  0.00000000000E+00 0.  1.
</event>
<event>
 7    1  0.1828789E-013  0.7246158E+02  0.7816164E-02  0.1226708E+00
        -11   -1    0    0    0    0  0.00000000000E+00  0.00000000000E+00  0.45593999997E+02  0.45594000000E+02  0.51100000000E-03 0. -1.
         11   -1    0    0    0    0 -0.00000000000E+00 -0.00000000000E+00 -0.45593999997E+02  0.45594000000E+02  0.51100000000E-03 0.  1.
    9900012    2    1    2    0    0  0.47202638001E+01 -0.34098849355E+01  0.17798051151E+02  0.72461579350E+02  0.70000011796E+02 0.  0.
        -12    1    1    2    0    0 -0.47202638001E+01  0.34098849355E+01 -0.17798051151E+02  0.18726420650E+02  0.00000000000E+00 0.  1.
         11    1    3    3    0    0  0.24108557494E+00 -0.92664403564E+00 -0.75255272278E+01  0.75861948130E+01  0.51100000000E-03 0. -1.
        -11    1    3    3    0    0  0.63685974235E+00  0.19702275710E+02 -0.10673401115E+02  0.22416662332E+02  0.51100000000E-03 0.  1.
         12    1    3    3    0    0  0.38423184828E+01 -0.22185516610E+02  0.35996979493E+02  0.42458722204E+02  0.00000000000E+00 0. -1.
</event>
<event>
 7    1  0.1788006E-013  0.7246161E+02  0.7816164E-02  0.1226708E+00
        -11   -1    0    0    0    0  0.00000000000E+00  0.00000000000E+00  0.45593999997E+02  0.45594000000E+02  0.51100000000E-03 0. -1.
         11   -1    0    0    0    0 -0.00000000000E+00 -0.00000000000E+00 -0.45593999997E+02  0.45594000000E+02  0.51100000000E-03 0.  1.
    9900012    2    1    2    0    0 -0.42383167150E+01 -0.14584522702E+01  0.18182057833E+02  0.72461611169E+02  0.70000053246E+02 0.  0.
        -12    1    1    2    0    0  0.42383167150E+01  0.14584522702E+01 -0.18182057833E+02  0.18726388831E+02  0.00000000000E+00 0.  1.
         11    1    3    3    0    0  0.13872627845E+01  0.35344552824E+00  0.21567469906E+01  0.25886250438E+01  0.51100000000E-03 0. -1.
        -11    1    3    3    0    0  0.22898606713E+02 -0.13735929233E+02 -0.10932955686E+02  0.28853967865E+02  0.51100000000E-03 0.  1.
         12    1    3    3    0    0 -0.28524186212E+02  0.11924031434E+02  0.26958266529E+02  0.41019018260E+02  0.00000000000E+00 0. -1.
</event>
<event>
 7    1  0.1788006E-013  0.7246216E+02  0.7816164E-02  0.1226706E+00
        -11   -1    0    0    0    0  0.00000000000E+00  0.00000000000E+00  0.45593999997E+02  0.45594000000E+02  0.51100000000E-03 0.  1.
         11   -1    0    0    0    0 -0.00000000000E+00 -0.00000000000E+00 -0.45593999997E+02  0.45594000000E+02  0.51100000000E-03 0. -1.
    9900012    2    1    2    0    0  0.11671322808E+02  0.11011782514E+02  0.96528814334E+01  0.72462155554E+02  0.70000762406E+02 0.  0.
        -12    1    1    2    0    0 -0.11671322808E+02 -0.11011782514E+02 -0.96528814334E+01  0.18725844446E+02  0.00000000000E+00 0.  1.
         11    1    3    3    0    0  0.34239650959E+01  0.11000868341E+01 -0.48994109120E+01  0.60776603694E+01  0.51100000000E-03 0. -1.
        -11    1    3    3    0    0  0.35971138159E+02  0.44653005732E+01  0.51720085878E+01  0.36614360062E+02  0.51100000000E-03 0.  1.
         12    1    3    3    0    0 -0.27723780446E+02  0.54463951067E+01  0.93802837576E+01  0.29770135123E+02  0.00000000000E+00 0. -1.
</event>
<event>
 7    1  0.1788006E-013  0.7246192E+02  0.7816164E-02  0.1226707E+00
        -11   -1    0    0    0    0  0.00000000000E+00  0.00000000000E+00  0.45593999997E+02  0.45594000000E+02  0.51100000000E-03 0. -1.
         11   -1    0    0    0    0 -0.00000000000E+00 -0.00000000000E+00 -0.45593999997E+02  0.45594000000E+02  0.51100000000E-03 0.  1.
    9900012    2    1    2    0    0  0.16402963642E+02  0.42132957366E+01  0.79910531175E+01  0.72461921736E+02  0.70000457817E+02 0.  0.
        -12    1    1    2    0    0 -0.16402963642E+02 -0.42132957366E+01 -0.79910531175E+01  0.18726078264E+02  0.00000000000E+00 0.  1.
         11    1    3    3    0    0  0.26488729898E+02 -0.19159523237E+02  0.22173404050E+02  0.39501898558E+02  0.51100000000E-03 0. -1.
        -11    1    3    3    0    0  0.30734711739E+01  0.77618046074E+01 -0.46209405301E+00  0.83609429490E+01  0.51100000000E-03 0.  1.
        -12    1    3    3    0    0 -0.13159237430E+02  0.15611014366E+02 -0.13720256879E+02  0.24599080229E+02  0.00000000000E+00 0.  1.
</event>
<event>
 7    1  0.1788006E-013  0.7246158E+02  0.7816164E-02  0.1226708E+00
        -11   -1    0    0    0    0  0.00000000000E+00  0.00000000000E+00  0.45593999997E+02  0.45594000000E+02  0.51100000000E-03 0.  1.
         11   -1    0    0    0    0 -0.00000000000E+00 -0.00000000000E+00 -0.45593999997E+02  0.45594000000E+02  0.51100000000E-03 0. -1.
    9900012    2    1    2    0    0 -0.16703251707E+01  0.14460010100E+02 -0.11781218639E+02  0.72461575063E+02  0.70000006212E+02 0.  0.
        -12    1    1    2    0    0  0.16703251707E+01 -0.14460010100E+02  0.11781218639E+02  0.18726424937E+02  0.00000000000E+00 0.  1.
         11    1    3    3    0    0  0.70415427017E+01  0.32899134309E+01  0.95268009516E+01  0.12294990469E+02  0.51100000000E-03 0. -1.
        -11    1    3    3    0    0 -0.67724099691E+01  0.26885132880E+02  0.62156626925E+01  0.28413207664E+02  0.51100000000E-03 0.  1.
        -12    1    3    3    0    0 -0.19394579033E+01 -0.15715036211E+02 -0.27523682283E+02  0.31753376931E+02  0.00000000000E+00 0.  1.
</event>
<event>
 7    1  0.1788006E-013  0.7246158E+02  0.7816164E-02  0.1226708E+00
        -11   -1    0    0    0    0  0.00000000000E+00  0.00000000000E+00  0.45593999997E+02  0.45594000000E+02  0.51100000000E-03 0. -1.
         11   -1    0    0    0    0 -0.00000000000E+00 -0.00000000000E+00 -0.45593999997E+02  0.45594000000E+02  0.51100000000E-03 0.  1.
    9900012    2    1    2    0    0  0.12524889358E+02 -0.13752957250E+02 -0.21592102617E+01  0.72461578145E+02  0.70000010227E+02 0.  0.
        -12    1    1    2    0    0 -0.12524889358E+02  0.13752957250E+02  0.21592102617E+01  0.18726421855E+02  0.00000000000E+00 0.  1.
         11    1    3    3    0    0 -0.96253170916E+01  0.21637814720E+01 -0.22066142709E+02  0.24171126033E+02  0.51100000000E-03 0. -1.
        -11    1    3    3    0    0  0.14199390342E+02 -0.13695338553E+02 -0.63831290945E+01  0.20734737072E+02  0.51100000000E-03 0.  1.
         12    1    3    3    0    0  0.79508161075E+01 -0.22214001693E+01  0.26290061542E+02  0.27555715040E+02  0.00000000000E+00 0. -1.
</event>
<event>
 7    1  0.1788006E-013  0.7246157E+02  0.7816164E-02  0.1226708E+00
        -11   -1    0    0    0    0  0.00000000000E+00  0.00000000000E+00  0.45593999997E+02  0.45594000000E+02  0.51100000000E-03 0.  1.
         11   -1    0    0    0    0 -0.00000000000E+00 -0.00000000000E+00 -0.45593999997E+02  0.45594000000E+02  0.51100000000E-03 0. -1.
    9900012    2    1    2    0    0 -0.76393299347E+01  0.84324221284E+01 -0.14873267615E+02  0.72461569632E+02  0.69999999137E+02 0.  0.
        -12    1    1    2    0    0  0.76393299347E+01 -0.84324221284E+01  0.14873267615E+02  0.18726430368E+02  0.00000000000E+00 0.  1.
         11    1    3    3    0    0 -0.15711535161E+02  0.29338394583E+00 -0.75797900257E+01  0.17446822873E+02  0.51100000000E-03 0. -1.
        -11    1    3    3    0    0 -0.19526270028E+02 -0.10267983565E+01  0.91704866385E+01  0.21596929447E+02  0.51100000000E-03 0.  1.
         12    1    3    3    0    0  0.27598475255E+02  0.91658365391E+01 -0.16463964227E+02  0.33417817312E+02  0.00000000000E+00 0. -1.
</event>
<event>
 7    1  0.1788006E-013  0.7246100E+02  0.7816164E-02  0.1226710E+00
        -11   -1    0    0    0    0  0.00000000000E+00  0.00000000000E+00  0.45593999997E+02  0.45594000000E+02  0.51100000000E-03 0.  1.
         11   -1    0    0    0    0 -0.00000000000E+00 -0.00000000000E+00 -0.45593999997E+02  0.45594000000E+02  0.51100000000E-03 0. -1.
    9900012    2    1    2    0    0  0.11308832616E+02 -0.10567318424E+02  0.10542427732E+02  0.72460995533E+02  0.69999251263E+02 0.  0.
        -12    1    1    2    0    0 -0.11308832616E+02  0.10567318424E+02 -0.10542427732E+02  0.18727004467E+02  0.00000000000E+00 0.  1.
         11    1    3    3    0    0 -0.22289487531E+01 -0.33872440686E+01 -0.10330669589E+01  0.41843592731E+01  0.51100000000E-03 0. -1.
        -11    1    3    3    0    0 -0.18114865181E+02 -0.72061327673E+01  0.26809697317E+02  0.33148703752E+02  0.51100000000E-03 0.  1.
         12    1    3    3    0    0  0.31652646549E+02  0.26058411433E-01 -0.15234202626E+02  0.35127932508E+02  0.00000000000E+00 0. -1.
</event>
<event>
 7    1  0.1788006E-013  0.7246157E+02  0.7816164E-02  0.1226708E+00
        -11   -1    0    0    0    0  0.00000000000E+00  0.00000000000E+00  0.45593999997E+02  0.45594000000E+02  0.51100000000E-03 0.  1.
         11   -1    0    0    0    0 -0.00000000000E+00 -0.00000000000E+00 -0.45593999997E+02  0.45594000000E+02  0.51100000000E-03 0. -1.
    9900012    2    1    2    0    0 -0.93080325737E+01 -0.14616053997E+02 -0.71000400236E+01  0.72461572867E+02  0.70000003351E+02 0.  0.
        -12    1    1    2    0    0  0.93080325737E+01  0.14616053997E+02  0.71000400236E+01  0.18726427133E+02  0.00000000000E+00 0.  1.
         11    1    3    3    0    0 -0.91937516571E+01  0.12303100686E+02 -0.77673987804E+01  0.17211154525E+02  0.51100000000E-03 0. -1.
        -11    1    3    3    0    0 -0.70113227472E+01  0.32702984140E+01  0.18120883866E+02  0.19703297459E+02  0.51100000000E-03 0.  1.
         12    1    3    3    0    0  0.68970418306E+01 -0.30189453097E+02 -0.17453525109E+02  0.35547120883E+02  0.00000000000E+00 0. -1.
</event>
<event>
 7    1  0.1788006E-013  0.7246162E+02  0.7816164E-02  0.1226708E+00
        -11   -1    0    0    0    0  0.00000000000E+00  0.00000000000E+00  0.45593999997E+02  0.45594000000E+02  0.51100000000E-03 0.  1.
         11   -1    0    0    0    0 -0.00000000000E+00 -0.00000000000E+00 -0.45593999997E+02  0.45594000000E+02  0.51100000000E-03 0. -1.
    9900012    2    1    2    0    0  0.25432987255E+01 -0.14334386156E+02 -0.11778556202E+02  0.72461618046E+02  0.70000062205E+02 0.  0.
        -12    1    1    2    0    0 -0.25432987255E+01  0.14334386156E+02  0.11778556202E+02  0.18726381954E+02  0.00000000000E+00 0.  1.
         11    1    3    3    0    0 -0.31143217104E+02 -0.82587854927E+01  0.28997260721E+01  0.32349898315E+02  0.51100000000E-03 0. -1.
        -11    1    3    3    0    0  0.78352377581E+00  0.20125678341E+01  0.14348961112E+01  0.25929261280E+01  0.51100000000E-03 0.  1.
        -12    1    3    3    0    0  0.32902992054E+02 -0.80881684976E+01 -0.16113178386E+02  0.37518793603E+02  0.00000000000E+00 0.  1.
</event>
<event>
 7    1  0.1788006E-013  0.7246158E+02  0.7816164E-02  0.1226708E+00
        -11   -1    0    0    0    0  0.00000000000E+00  0.00000000000E+00  0.45593999997E+02  0.45594000000E+02  0.51100000000E-03 0. -1.
         11   -1    0    0    0    0 -0.00000000000E+00 -0.00000000000E+00 -0.45593999997E+02  0.45594000000E+02  0.51100000000E-03 0.  1.
    9900012    2    1    2    0    0  0.16237673457E+02  0.11416979246E+01  0.92581550497E+01  0.72461576199E+02  0.70000007692E+02 0.  0.
        -12    1    1    2    0    0 -0.16237673457E+02 -0.11416979246E+01 -0.92581550497E+01  0.18726423801E+02  0.00000000000E+00 0.  1.
         11    1    3    3    0    0  0.11256730967E+02 -0.71219848966E+01 -0.23486618093E+02  0.27001072028E+02  0.51100000000E-03 0.  1.
        -11    1    3    3    0    0  0.83165262338E+01 -0.88117356634E+00 -0.26331670381E+01  0.87678186776E+01  0.51100000000E-03 0. -1.
        -12    1    3    3    0    0 -0.33355837435E+01  0.91448563875E+01  0.35377940181E+02  0.36692685493E+02  0.00000000000E+00 0.  1.
</event>
<event>
 7    1  0.1788006E-013  0.7246156E+02  0.7816164E-02  0.1226708E+00
        -11   -1    0    0    0    0  0.00000000000E+00  0.00000000000E+00  0.45593999997E+02  0.45594000000E+02  0.51100000000E-03 0. -1.
         11   -1    0    0    0    0 -0.00000000000E+00 -0.00000000000E+00 -0.45593999997E+02  0.45594000000E+02  0.51100000000E-03 0.  1.
    9900012    2    1    2    0    0  0.10152138208E+02  0.82970785880E+01  0.13370576050E+02  0.72461555404E+02  0.69999980603E+02 0.  0.
        -12    1    1    2    0    0 -0.10152138208E+02 -0.82970785880E+01 -0.13370576050E+02  0.18726444596E+02  0.00000000000E+00 0.  1.
         11    1    3    3    0    0  0.16870135784E+02  0.21020399998E+02 -0.17441300073E+02  0.32103857182E+02  0.51100000000E-03 0. -1.
        -11    1    3    3    0    0 -0.22646534685E+01 -0.82478586332E+01 -0.35233290071E+00  0.85603718435E+01  0.51100000000E-03 0.  1.
        -12    1    3    3    0    0 -0.44533441076E+01 -0.44754627766E+01  0.31164209023E+02  0.31797326379E+02  0.00000000000E+00 0.  1.
</event>
<event>
 7    1  0.1788006E-013  0.7246162E+02  0.7816164E-02  0.1226708E+00
        -11   -1    0    0    0    0  0.00000000000E+00  0.00000000000E+00  0.45593999997E+02  0.45594000000E+02  0.51100000000E-03 0.  1.
         11   -1    0    0    0    0 -0.00000000000E+00 -0.00000000000E+00 -0.45593999997E+02  0.45594000000E+02  0.51100000000E-03 0. -1.
    9900012    2    1    2    0    0 -0.17942633671E+02  0.37305798505E+00  0.53479107579E+01  0.72461616880E+02  0.70000060686E+02 0.  0.
        -12    1    1    2    0    0  0.17942633671E+02 -0.37305798505E+00 -0.53479107579E+01  0.18726383120E+02  0.00000000000E+00 0.  1.
         11    1    3    3    0    0  0.19508482985E+02  0.62548477382E+00  0.10409676648E+02  0.22120883973E+02  0.51100000000E-03 0.  1.
        -11    1    3    3    0    0 -0.10266893921E+02 -0.15612387688E+02  0.14353946501E+00  0.18686261369E+02  0.51100000000E-03 0. -1.
        -12    1    3    3    0    0 -0.27184222734E+02  0.15359960899E+02 -0.52053053554E+01  0.31654471538E+02  0.00000000000E+00 0.  1.
</event>
<event>
 7    1  0.1788006E-013  0.7246160E+02  0.7816164E-02  0.1226708E+00
        -11   -1    0    0    0    0  0.00000000000E+00  0.00000000000E+00  0.45593999997E+02  0.45594000000E+02  0.51100000000E-03 0.  1.
         11   -1    0    0    0    0 -0.00000000000E+00 -0.00000000000E+00 -0.45593999997E+02  0.45594000000E+02  0.51100000000E-03 0. -1.
    9900012    2    1    2    0    0 -0.15482712651E+01  0.18556655926E+02  0.19827707230E+01  0.72461601446E+02  0.70000040581E+02 0.  0.
        -12    1    1    2    0    0  0.15482712651E+01 -0.18556655926E+02 -0.19827707230E+01  0.18726398554E+02  0.00000000000E+00 0.  1.
         11    1    3    3    0    0 -0.16684276711E+01  0.10063893987E+02  0.77395515535E+01  0.12804931534E+02  0.51100000000E-03 0. -1.
        -11    1    3    3    0    0 -0.21559132628E+00 -0.94256447575E+01  0.23514851803E+02  0.25334512316E+02  0.51100000000E-03 0.  1.
         12    1    3    3    0    0  0.33574773226E+00  0.17918406696E+02 -0.29271632633E+02  0.34322157596E+02  0.00000000000E+00 0. -1.
</event>
<event>
 7    1  0.1788006E-013  0.7246187E+02  0.7816164E-02  0.1226707E+00
        -11   -1    0    0    0    0  0.00000000000E+00  0.00000000000E+00  0.45593999997E+02  0.45594000000E+02  0.51100000000E-03 0.  1.
         11   -1    0    0    0    0 -0.00000000000E+00 -0.00000000000E+00 -0.45593999997E+02  0.45594000000E+02  0.51100000000E-03 0. -1.
    9900012    2    1    2    0    0  0.27475092078E+01  0.16767692667E+02 -0.78716909171E+01  0.72461872741E+02  0.70000393992E+02 0.  0.
        -12    1    1    2    0    0 -0.27475092078E+01 -0.16767692667E+02  0.78716909171E+01  0.18726127259E+02  0.00000000000E+00 0.  1.
         11    1    3    3    0    0 -0.18148729027E+01  0.27823667621E+02  0.14952269154E+01  0.27922857076E+02  0.51100000000E-03 0. -1.
        -11    1    3    3    0    0  0.14831200710E+02  0.10997342906E+02 -0.81480981253E+01  0.20181614623E+02  0.51100000000E-03 0.  1.
        -12    1    3    3    0    0 -0.10268818599E+02 -0.22053317859E+02 -0.12188197072E+01  0.24357401041E+02  0.00000000000E+00 0.  1.
</event>
<event>
 7    1  0.1788006E-013  0.7246156E+02  0.7816164E-02  0.1226708E+00
        -11   -1    0    0    0    0  0.00000000000E+00  0.00000000000E+00  0.45593999997E+02  0.45594000000E+02  0.51100000000E-03 0.  1.
         11   -1    0    0    0    0 -0.00000000000E+00 -0.00000000000E+00 -0.45593999997E+02  0.45594000000E+02  0.51100000000E-03 0. -1.
    9900012    2    1    2    0    0 -0.44016056252E+01  0.59620983133E-01 -0.18201704125E+02  0.72461555602E+02  0.69999980860E+02 0.  0.
        -12    1    1    2    0    0  0.44016056252E+01 -0.59620983133E-01  0.18201704125E+02  0.18726444398E+02  0.00000000000E+00 0.  1.
         11    1    3    3    0    0 -0.17927118983E+01  0.35657244831E+01  0.11369582528E+02  0.12049714277E+02  0.51100000000E-03 0. -1.
        -11    1    3    3    0    0 -0.10373617067E+02 -0.26350669285E+02 -0.13131981259E+02  0.31215679311E+02  0.51100000000E-03 0.  1.
         12    1    3    3    0    0  0.77647233404E+01  0.22844565785E+02 -0.16439305394E+02  0.29196162013E+02  0.00000000000E+00 0. -1.
</event>
<event>
 7    1  0.1788006E-013  0.7246156E+02  0.7816164E-02  0.1226708E+00
        -11   -1    0    0    0    0  0.00000000000E+00  0.00000000000E+00  0.45593999997E+02  0.45594000000E+02  0.51100000000E-03 0.  1.
         11   -1    0    0    0    0 -0.00000000000E+00 -0.00000000000E+00 -0.45593999997E+02  0.45594000000E+02  0.51100000000E-03 0. -1.
    9900012    2    1    2    0    0 -0.36553096601E+01  0.17568732883E+02 -0.53533054943E+01  0.72461560308E+02  0.69999986991E+02 0.  0.
        -12    1    1    2    0    0  0.36553096601E+01 -0.17568732883E+02  0.53533054943E+01  0.18726439692E+02  0.00000000000E+00 0.  1.
         11    1    3    3    0    0  0.13813862652E+02  0.27856694971E+01  0.83692544202E+01  0.16389849778E+02  0.51100000000E-03 0. -1.
        -11    1    3    3    0    0  0.65767853010E+01  0.26373977969E+02 -0.31622214949E+01  0.27364949550E+02  0.51100000000E-03 0.  1.
         12    1    3    3    0    0 -0.24045957614E+02 -0.11590914583E+02 -0.10560338420E+02  0.28706760980E+02  0.00000000000E+00 0. -1.
</event>
<event>
 7    1  0.1788006E-013  0.7246156E+02  0.7816164E-02  0.1226708E+00
        -11   -1    0    0    0    0  0.00000000000E+00  0.00000000000E+00  0.45593999997E+02  0.45594000000E+02  0.51100000000E-03 0. -1.
         11   -1    0    0    0    0 -0.00000000000E+00 -0.00000000000E+00 -0.45593999997E+02  0.45594000000E+02  0.51100000000E-03 0.  1.
    9900012    2    1    2    0    0  0.16772256038E+02 -0.89104284923E+00  0.82811230838E+01  0.72461560683E+02  0.69999987480E+02 0.  0.
        -12    1    1    2    0    0 -0.16772256038E+02  0.89104284923E+00 -0.82811230838E+01  0.18726439317E+02  0.00000000000E+00 0.  1.
         11    1    3    3    0    0  0.12372611248E+02 -0.57803334879E+01  0.26714961717E+02  0.30003048914E+02  0.51100000000E-03 0. -1.
        -11    1    3    3    0    0  0.20278002808E+02  0.76399133040E+01 -0.13800348153E+02  0.25690762593E+02  0.51100000000E-03 0.  1.
         12    1    3    3    0    0 -0.15878358019E+02 -0.27506226654E+01 -0.46334904807E+01  0.16767749177E+02  0.00000000000E+00 0. -1.
</event>
<event>
 7    1  0.1788006E-013  0.7246160E+02  0.7816164E-02  0.1226708E+00
        -11   -1    0    0    0    0  0.00000000000E+00  0.00000000000E+00  0.45593999997E+02  0.45594000000E+02  0.51100000000E-03 0.  1.
         11   -1    0    0    0    0 -0.00000000000E+00 -0.00000000000E+00 -0.45593999997E+02  0.45594000000E+02  0.51100000000E-03 0. -1.
    9900012    2    1    2    0    0 -0.17057086783E+02  0.51253942967E+01  0.57848097868E+01  0.72461604177E+02  0.70000044139E+02 0.  0.
        -12    1    1    2    0    0  0.17057086783E+02 -0.51253942967E+01 -0.57848097868E+01  0.18726395823E+02  0.00000000000E+00 0.  1.
         11    1    3    3    0    0 -0.21839652754E+00 -0.40186790917E+01 -0.25999399590E+02  0.26309052776E+02  0.51100000000E-03 0. -1.
        -11    1    3    3    0    0 -0.57973643995E+01 -0.48208750084E+01 -0.21427435373E+01  0.78384705112E+01  0.51100000000E-03 0.  1.
        -12    1    3    3    0    0 -0.11041325856E+02  0.13964948397E+02  0.33926952914E+02  0.38314080890E+02  0.00000000000E+00 0.  1.
</event>
<event>
 7    1  0.1788006E-013  0.7246158E+02  0.7816164E-02  0.1226708E+00
        -11   -1    0    0    0    0  0.00000000000E+00  0.00000000000E+00  0.45593999997E+02  0.45594000000E+02  0.51100000000E-03 0. -1.
         11   -1    0    0    0    0 -0.00000000000E+00 -0.00000000000E+00 -0.45593999997E+02  0.45594000000E+02  0.51100000000E-03 0.  1.
    9900012    2    1    2    0    0  0.83954212346E+01  0.16027586169E+02 -0.48282823351E+01  0.72461576785E+02  0.70000008456E+02 0.  0.
        -12    1    1    2    0    0 -0.83954212346E+01 -0.16027586169E+02  0.48282823351E+01  0.18726423215E+02  0.00000000000E+00 0.  1.
         11    1    3    3    0    0 -0.85339322898E+01  0.28276052152E+02  0.43081716442E+01  0.29848341140E+02  0.51100000000E-03 0. -1.
        -11    1    3    3    0    0  0.34039045490E+01  0.10565457466E+02  0.54270083610E+01  0.12355884333E+02  0.51100000000E-03 0.  1.
        -12    1    3    3    0    0  0.13525448975E+02 -0.22813923449E+02 -0.14563462340E+02  0.30257351313E+02  0.00000000000E+00 0.  1.
</event>
<event>
 7    1  0.1788006E-013  0.7246235E+02  0.7816164E-02  0.1226706E+00
        -11   -1    0    0    0    0  0.00000000000E+00  0.00000000000E+00  0.45593999997E+02  0.45594000000E+02  0.51100000000E-03 0.  1.
         11   -1    0    0    0    0 -0.00000000000E+00 -0.00000000000E+00 -0.45593999997E+02  0.45594000000E+02  0.51100000000E-03 0. -1.
    9900012    2    1    2    0    0  0.38094980373E+01 -0.15585867804E+02 -0.96549756385E+01  0.72462346338E+02  0.70001010933E+02 0.  0.
        -12    1    1    2    0    0 -0.38094980373E+01  0.15585867804E+02  0.96549756385E+01  0.18725653662E+02  0.00000000000E+00 0.  1.
         11    1    3    3    0    0 -0.20589288826E+02  0.53604864220E+01 -0.50904619874E+01  0.21876161285E+02  0.51100000000E-03 0. -1.
        -11    1    3    3    0    0 -0.25726473594E+01  0.65231344286E+01 -0.94638212311E+01  0.11778527487E+02  0.51100000000E-03 0.  1.
        -12    1    3    3    0    0  0.26971434223E+02 -0.27469488655E+02  0.48993075800E+01  0.38807657566E+02  0.00000000000E+00 0.  1.
</event>
<event>
 7    1  0.1788006E-013  0.7246156E+02  0.7816164E-02  0.1226708E+00
        -11   -1    0    0    0    0  0.00000000000E+00  0.00000000000E+00  0.45593999997E+02  0.45594000000E+02  0.51100000000E-03 0. -1.
         11   -1    0    0    0    0 -0.00000000000E+00 -0.00000000000E+00 -0.45593999997E+02  0.45594000000E+02  0.51100000000E-03 0.  1.
    9900012    2    1    2    0    0 -0.48978169356E+01 -0.18063503546E+02  0.63321191007E+00  0.72461555372E+02  0.69999980560E+02 0.  0.
        -12    1    1    2    0    0  0.48978169356E+01  0.18063503546E+02 -0.63321191007E+00  0.18726444628E+02  0.00000000000E+00 0.  1.
         11    1    3    3    0    0  0.12678499738E+02 -0.17844354215E+02  0.16317563658E+02  0.27302531328E+02  0.51100000000E-03 0. -1.
        -11    1    3    3    0    0  0.11447717169E+02  0.29602566764E+01 -0.98380161559E+01  0.15381804514E+02  0.51100000000E-03 0.  1.
         12    1    3    3    0    0 -0.29024033842E+02 -0.31794060073E+01 -0.58463355918E+01  0.29777219529E+02  0.00000000000E+00 0. -1.
</event>
<event>
 7    1  0.1788006E-013  0.7246156E+02  0.7816164E-02  0.1226708E+00
        -11   -1    0    0    0    0  0.00000000000E+00  0.00000000000E+00  0.45593999997E+02  0.45594000000E+02  0.51100000000E-03 0.  1.
         11   -1    0    0    0    0 -0.00000000000E+00 -0.00000000000E+00 -0.45593999997E+02  0.45594000000E+02  0.51100000000E-03 0. -1.
    9900012    2    1    2    0    0 -0.13233227971E+02 -0.35188336767E+01 -0.12774150975E+02  0.72461562910E+02  0.69999990380E+02 0.  0.
        -12    1    1    2    0    0  0.13233227971E+02  0.35188336767E+01  0.12774150975E+02  0.18726437090E+02  0.00000000000E+00 0.  1.
         11    1    3    3    0    0 -0.69006929915E+00 -0.13739382482E+01  0.93683966347E+01  0.94937220158E+01  0.51100000000E-03 0. -1.
        -11    1    3    3    0    0 -0.23225528414E+02  0.18851599036E+02  0.10196201456E+01  0.29930713019E+02  0.51100000000E-03 0.  1.
         12    1    3    3    0    0  0.10682369742E+02 -0.20996494464E+02 -0.23162167755E+02  0.33037127875E+02  0.00000000000E+00 0. -1.
</event>
<event>
 7    1  0.1788006E-013  0.7246163E+02  0.7816164E-02  0.1226708E+00
        -11   -1    0    0    0    0  0.00000000000E+00  0.00000000000E+00  0.45593999997E+02  0.45594000000E+02  0.51100000000E-03 0.  1.
         11   -1    0    0    0    0 -0.00000000000E+00 -0.00000000000E+00 -0.45593999997E+02  0.45594000000E+02  0.51100000000E-03 0. -1.
    9900012    2    1    2    0    0  0.77443485036E+01  0.33248716535E+01 -0.16722659056E+02  0.72461627389E+02  0.70000074377E+02 0.  0.
        -12    1    1    2    0    0 -0.77443485036E+01 -0.33248716535E+01  0.16722659056E+02  0.18726372611E+02  0.00000000000E+00 0.  1.
         11    1    3    3    0    0  0.68409747277E+01  0.10427570228E+02 -0.90145244210E+01  0.15388138513E+02  0.51100000000E-03 0. -1.
        -11    1    3    3    0    0  0.53156804614E+01  0.24248149035E+02 -0.20123258994E+01  0.24905393918E+02  0.51100000000E-03 0.  1.
         12    1    3    3    0    0 -0.44123066855E+01 -0.31350847610E+02 -0.56958087355E+01  0.32168094959E+02  0.00000000000E+00 0. -1.
</event>
<event>
 7    1  0.1788006E-013  0.7246134E+02  0.7816164E-02  0.1226709E+00
        -11   -1    0    0    0    0  0.00000000000E+00  0.00000000000E+00  0.45593999997E+02  0.45594000000E+02  0.51100000000E-03 0. -1.
         11   -1    0    0    0    0 -0.00000000000E+00 -0.00000000000E+00 -0.45593999997E+02  0.45594000000E+02  0.51100000000E-03 0.  1.
    9900012    2    1    2    0    0 -0.17824463870E+01 -0.18507603268E+02 -0.22314761633E+01  0.72461335062E+02  0.69999693565E+02 0.  0.
        -12    1    1    2    0    0  0.17824463870E+01  0.18507603268E+02  0.22314761633E+01  0.18726664938E+02  0.00000000000E+00 0.  1.
         11    1    3    3    0    0  0.10592389580E+02 -0.64545398517E+01  0.13588854616E+02  0.18398825282E+02  0.51100000000E-03 0. -1.
        -11    1    3    3    0    0 -0.21704995983E+01  0.87999780241E+01  0.13749371975E+02  0.16468026952E+02  0.51100000000E-03 0.  1.
        -12    1    3    3    0    0 -0.10204336369E+02 -0.20853041440E+02 -0.29569702755E+02  0.37594482827E+02  0.00000000000E+00 0.  1.
</event>
<event>
 7    1  0.1788006E-013  0.7246156E+02  0.7816164E-02  0.1226708E+00
        -11   -1    0    0    0    0  0.00000000000E+00  0.00000000000E+00  0.45593999997E+02  0.45594000000E+02  0.51100000000E-03 0.  1.
         11   -1    0    0    0    0 -0.00000000000E+00 -0.00000000000E+00 -0.45593999997E+02  0.45594000000E+02  0.51100000000E-03 0. -1.
    9900012    2    1    2    0    0 -0.32482014987E+01  0.51271155662E+01 -0.17715568047E+02  0.72461562052E+02  0.69999989262E+02 0.  0.
        -12    1    1    2    0    0  0.32482014987E+01 -0.51271155662E+01  0.17715568047E+02  0.18726437948E+02  0.00000000000E+00 0.  1.
         11    1    3    3    0    0 -0.22468644185E+02  0.14407152150E+02 -0.26992310688E+02  0.37960385156E+02  0.51100000000E-03 0. -1.
        -11    1    3    3    0    0  0.61733851591E+01  0.88962672262E+01  0.23638878933E+01  0.11083421002E+02  0.51100000000E-03 0.  1.
        -12    1    3    3    0    0  0.13047057527E+02 -0.18176303810E+02  0.69128547479E+01  0.23417755894E+02  0.00000000000E+00 0.  1.
</event>
<event>
 7    1  0.1788006E-013  0.7246161E+02  0.7816164E-02  0.1226708E+00
        -11   -1    0    0    0    0  0.00000000000E+00  0.00000000000E+00  0.45593999997E+02  0.45594000000E+02  0.51100000000E-03 0.  1.
         11   -1    0    0    0    0 -0.00000000000E+00 -0.00000000000E+00 -0.45593999997E+02  0.45594000000E+02  0.51100000000E-03 0. -1.
    9900012    2    1    2    0    0  0.16042926741E+02 -0.69770103470E+01 -0.66800956081E+01  0.72461605549E+02  0.70000045925E+02 0.  0.
        -12    1    1    2    0    0 -0.16042926741E+02  0.69770103470E+01  0.66800956081E+01  0.18726394451E+02  0.00000000000E+00 0.  1.
         11    1    3    3    0    0 -0.22501483195E+01  0.21564843434E+01 -0.12954515108E+02  0.13324153036E+02  0.51100000000E-03 0. -1.
        -11    1    3    3    0    0  0.58284223591E+01 -0.19602529809E+02  0.26309691226E+02  0.33323108120E+02  0.51100000000E-03 0.  1.
         12    1    3    3    0    0  0.12464652702E+02  0.10469035119E+02 -0.20035271726E+02  0.25814344393E+02  0.00000000000E+00 0. -1.
</event>
<event>
 7    1  0.1788006E-013  0.7246156E+02  0.7816164E-02  0.1226708E+00
        -11   -1    0    0    0    0  0.00000000000E+00  0.00000000000E+00  0.45593999997E+02  0.45594000000E+02  0.51100000000E-03 0.  1.
         11   -1    0    0    0    0 -0.00000000000E+00 -0.00000000000E+00 -0.45593999997E+02  0.45594000000E+02  0.51100000000E-03 0. -1.
    9900012    2    1    2    0    0 -0.63679058623E+00 -0.15054993291E+02 -0.11118500604E+02  0.72461564650E+02  0.69999992648E+02 0.  0.
        -12    1    1    2    0    0  0.63679058623E+00  0.15054993291E+02  0.11118500604E+02  0.18726435350E+02  0.00000000000E+00 0.  1.
         11    1    3    3    0    0 -0.19108321478E+02  0.57328137110E+00 -0.20265882150E+02  0.27859694557E+02  0.51100000000E-03 0. -1.
        -11    1    3    3    0    0  0.69975496738E+01 -0.18214000405E+02 -0.10156500601E+02  0.21997045640E+02  0.51100000000E-03 0.  1.
        -12    1    3    3    0    0  0.11473981218E+02  0.25857257430E+01  0.19303882147E+02  0.22604824453E+02  0.00000000000E+00 0.  1.
</event>
<event>
 7    1  0.1788006E-013  0.7246178E+02  0.7816164E-02  0.1226707E+00
        -11   -1    0    0    0    0  0.00000000000E+00  0.00000000000E+00  0.45593999997E+02  0.45594000000E+02  0.51100000000E-03 0. -1.
         11   -1    0    0    0    0 -0.00000000000E+00 -0.00000000000E+00 -0.45593999997E+02  0.45594000000E+02  0.51100000000E-03 0.  1.
    9900012    2    1    2    0    0 -0.11922867824E+02 -0.13507344626E+02  0.51057007271E+01  0.72461779989E+02  0.70000273165E+02 0.  0.
        -12    1    1    2    0    0  0.11922867824E+02  0.13507344626E+02 -0.51057007271E+01  0.18726220011E+02  0.00000000000E+00 0.  1.
         11    1    3    3    0    0 -0.12227143410E+02 -0.84426018103E+01  0.14380447579E+02  0.20677955269E+02  0.51100000000E-03 0. -1.
        -11    1    3    3    0    0  0.10439572459E+02 -0.25813883124E+02 -0.45774145877E+01  0.28218681040E+02  0.51100000000E-03 0.  1.
         12    1    3    3    0    0 -0.10135296873E+02  0.20749140308E+02 -0.46973322640E+01  0.23565143680E+02  0.00000000000E+00 0. -1.
</event>
<event>
 7    1  0.1788006E-013  0.7246158E+02  0.7816164E-02  0.1226708E+00
        -11   -1    0    0    0    0  0.00000000000E+00  0.00000000000E+00  0.45593999997E+02  0.45594000000E+02  0.51100000000E-03 0. -1.
         11   -1    0    0    0    0 -0.00000000000E+00 -0.00000000000E+00 -0.45593999997E+02  0.45594000000E+02  0.51100000000E-03 0.  1.
    9900012    2    1    2    0    0 -0.57378379064E+01  0.12194000271E+02  0.13002399478E+02  0.72461579663E+02  0.70000012204E+02 0.  0.
        -12    1    1    2    0    0  0.57378379064E+01 -0.12194000271E+02 -0.13002399478E+02  0.18726420337E+02  0.00000000000E+00 0.  1.
         11    1    3    3    0    0  0.21902748790E+01  0.14832051173E+02  0.25633205200E+02  0.29695929942E+02  0.51100000000E-03 0. -1.
        -11    1    3    3    0    0 -0.16292637836E+02  0.70869568847E+01  0.71811790871E+01  0.19163620192E+02  0.51100000000E-03 0.  1.
        -12    1    3    3    0    0  0.83645250504E+01 -0.97250077867E+01 -0.19811984809E+02  0.23602029528E+02  0.00000000000E+00 0.  1.
</event>
<event>
 7    1  0.1788006E-013  0.7246153E+02  0.7816164E-02  0.1226708E+00
        -11   -1    0    0    0    0  0.00000000000E+00  0.00000000000E+00  0.45593999997E+02  0.45594000000E+02  0.51100000000E-03 0.  1.
         11   -1    0    0    0    0 -0.00000000000E+00 -0.00000000000E+00 -0.45593999997E+02  0.45594000000E+02  0.51100000000E-03 0. -1.
    9900012    2    1    2    0    0 -0.12602318441E+02  0.12616541293E+02  0.57170842295E+01  0.72461532197E+02  0.69999950371E+02 0.  0.
        -12    1    1    2    0    0  0.12602318441E+02 -0.12616541293E+02 -0.57170842295E+01  0.18726467803E+02  0.00000000000E+00 0.  1.
         11    1    3    3    0    0 -0.90288864255E+01 -0.65449468789E+01  0.86921477444E+01  0.14138972820E+02  0.51100000000E-03 0. -1.
        -11    1    3    3    0    0 -0.19133864075E+02  0.62583490759E+01  0.19546636955E+02  0.28059627654E+02  0.51100000000E-03 0.  1.
        -12    1    3    3    0    0  0.15560432059E+02  0.12903139096E+02 -0.22521700470E+02  0.30262931723E+02  0.00000000000E+00 0.  1.
</event>
<event>
 7    1  0.1788006E-013  0.7246169E+02  0.7816164E-02  0.1226708E+00
        -11   -1    0    0    0    0  0.00000000000E+00  0.00000000000E+00  0.45593999997E+02  0.45594000000E+02  0.51100000000E-03 0. -1.
         11   -1    0    0    0    0 -0.00000000000E+00 -0.00000000000E+00 -0.45593999997E+02  0.45594000000E+02  0.51100000000E-03 0.  1.
    9900012    2    1    2    0    0  0.29370017658E+01 -0.11489500496E+02  0.14492759548E+02  0.72461690156E+02  0.70000156142E+02 0.  0.
        -12    1    1    2    0    0 -0.29370017658E+01  0.11489500496E+02 -0.14492759548E+02  0.18726309844E+02  0.00000000000E+00 0.  1.
         11    1    3    3    0    0 -0.38645876567E+01  0.13617927197E+02  0.18895615842E+02  0.23609897865E+02  0.51100000000E-03 0. -1.
        -11    1    3    3    0    0 -0.11936597551E+01  0.11287540496E+02 -0.19513525557E+00  0.11352157156E+02  0.51100000000E-03 0.  1.
        -12    1    3    3    0    0  0.79952491775E+01 -0.36394968190E+02 -0.42077210377E+01  0.37499635135E+02  0.00000000000E+00 0.  1.
</event>
<event>
 7    1  0.1788006E-013  0.7246150E+02  0.7816164E-02  0.1226708E+00
        -11   -1    0    0    0    0  0.00000000000E+00  0.00000000000E+00  0.45593999997E+02  0.45594000000E+02  0.51100000000E-03 0.  1.
         11   -1    0    0    0    0 -0.00000000000E+00 -0.00000000000E+00 -0.45593999997E+02  0.45594000000E+02  0.51100000000E-03 0. -1.
    9900012    2    1    2    0    0 -0.14742240352E+02  0.10151375938E+02 -0.55043349661E+01  0.72461500395E+02  0.69999908943E+02 0.  0.
        -12    1    1    2    0    0  0.14742240352E+02 -0.10151375938E+02  0.55043349661E+01  0.18726499605E+02  0.00000000000E+00 0.  1.
         11    1    3    3    0    0  0.91737393587E+01  0.62982885771E+01  0.74940510807E+01  0.13415913487E+02  0.51100000000E-03 0. -1.
        -11    1    3    3    0    0  0.63833327936E+01 -0.14133615348E+01  0.15684225095E+02  0.16992334904E+02  0.51100000000E-03 0.  1.
         12    1    3    3    0    0 -0.30299312505E+02  0.52664488954E+01 -0.28682611142E+02  0.42053252004E+02  0.00000000000E+00 0. -1.
</event>
<event>
 7    1  0.2373890E-013  0.7246153E+02  0.7816164E-02  0.1226708E+00
        -11   -1    0    0    0    0  0.00000000000E+00  0.00000000000E+00  0.45593999997E+02  0.45594000000E+02  0.51100000000E-03 0. -1.
         11   -1    0    0    0    0 -0.00000000000E+00 -0.00000000000E+00 -0.45593999997E+02  0.45594000000E+02  0.51100000000E-03 0.  1.
    9900012    2    1    2    0    0 -0.52156185684E+01  0.73557187563E+01  0.16412541667E+02  0.72461526776E+02  0.69999943309E+02 0.  0.
        -12    1    1    2    0    0  0.52156185684E+01 -0.73557187563E+01 -0.16412541667E+02  0.18726473224E+02  0.00000000000E+00 0.  1.
         11    1    3    3    0    0  0.14619846497E+02  0.11348100065E+02  0.83535096586E+01  0.20305181865E+02  0.51100000000E-03 0. -1.
        -11    1    3    3    0    0 -0.15662742907E+02  0.21003877712E+01 -0.18650161954E+02  0.24445074869E+02  0.51100000000E-03 0.  1.
         12    1    3    3    0    0 -0.41727221584E+01 -0.60927690797E+01  0.26709193962E+02  0.27711270042E+02  0.00000000000E+00 0. -1.
</event>
<event>
 7    1  0.1788006E-013  0.7246169E+02  0.7816164E-02  0.1226708E+00
        -11   -1    0    0    0    0  0.00000000000E+00  0.00000000000E+00  0.45593999997E+02  0.45594000000E+02  0.51100000000E-03 0. -1.
         11   -1    0    0    0    0 -0.00000000000E+00 -0.00000000000E+00 -0.45593999997E+02  0.45594000000E+02  0.51100000000E-03 0.  1.
    9900012    2    1    2    0    0 -0.12199568210E+02 -0.95708757758E+01  0.10499697129E+02  0.72461687832E+02  0.70000153114E+02 0.  0.
        -12    1    1    2    0    0  0.12199568210E+02  0.95708757758E+01 -0.10499697129E+02  0.18726312168E+02  0.00000000000E+00 0.  1.
         11    1    3    3    0    0 -0.31360503162E+02 -0.23334609959E+01  0.18203561000E+02  0.36335875277E+02  0.51100000000E-03 0. -1.
        -11    1    3    3    0    0  0.20473933940E+01 -0.98394385919E+01  0.79289790164E+01  0.12801370240E+02  0.51100000000E-03 0.  1.
        -12    1    3    3    0    0  0.17113541558E+02  0.26020238120E+01 -0.15632842887E+02  0.23324442315E+02  0.00000000000E+00 0.  1.
</event>
<event>
 7    1  0.1788006E-013  0.7246159E+02  0.7816164E-02  0.1226708E+00
        -11   -1    0    0    0    0  0.00000000000E+00  0.00000000000E+00  0.45593999997E+02  0.45594000000E+02  0.51100000000E-03 0.  1.
         11   -1    0    0    0    0 -0.00000000000E+00 -0.00000000000E+00 -0.45593999997E+02  0.45594000000E+02  0.51100000000E-03 0. -1.
    9900012    2    1    2    0    0 -0.16027384849E+02 -0.60994592579E+01 -0.75231625170E+01  0.72461589704E+02  0.70000025284E+02 0.  0.
        -12    1    1    2    0    0  0.16027384849E+02  0.60994592579E+01  0.75231625170E+01  0.18726410296E+02  0.00000000000E+00 0.  1.
         11    1    3    3    0    0 -0.84080261337E+01 -0.29640970843E+02 -0.16706953919E+02  0.35048600050E+02  0.51100000000E-03 0. -1.
        -11    1    3    3    0    0 -0.67813013825E+01 -0.29936771174E+01 -0.32539918488E+01  0.80954687534E+01  0.51100000000E-03 0.  1.
        -12    1    3    3    0    0 -0.83805733251E+00  0.26535188702E+02  0.12437783251E+02  0.29317520900E+02  0.00000000000E+00 0.  1.
</event>
<event>
 7    1  0.1788006E-013  0.7246173E+02  0.7816164E-02  0.1226708E+00
        -11   -1    0    0    0    0  0.00000000000E+00  0.00000000000E+00  0.45593999997E+02  0.45594000000E+02  0.51100000000E-03 0.  1.
         11   -1    0    0    0    0 -0.00000000000E+00 -0.00000000000E+00 -0.45593999997E+02  0.45594000000E+02  0.51100000000E-03 0. -1.
    9900012    2    1    2    0    0  0.67251724726E+01 -0.12896551337E+02 -0.11795096898E+02  0.72461727226E+02  0.70000204432E+02 0.  0.
        -12    1    1    2    0    0 -0.67251724726E+01  0.12896551337E+02  0.11795096898E+02  0.18726272774E+02  0.00000000000E+00 0.  1.
         11    1    3    3    0    0  0.25273681338E+02 -0.10932195349E+02  0.14020476196E+02  0.30900576314E+02  0.51100000000E-03 0. -1.
        -11    1    3    3    0    0  0.40232744683E+01 -0.18233239491E+01  0.27122436139E+01  0.51833882116E+01  0.51100000000E-03 0.  1.
        -12    1    3    3    0    0 -0.22571783334E+02 -0.14103203871E+00 -0.28527816708E+02  0.36377762700E+02  0.00000000000E+00 0.  1.
</event>
<event>
 7    1  0.1788006E-013  0.7246099E+02  0.7816164E-02  0.1226710E+00
        -11   -1    0    0    0    0  0.00000000000E+00  0.00000000000E+00  0.45593999997E+02  0.45594000000E+02  0.51100000000E-03 0.  1.
         11   -1    0    0    0    0 -0.00000000000E+00 -0.00000000000E+00 -0.45593999997E+02  0.45594000000E+02  0.51100000000E-03 0. -1.
    9900012    2    1    2    0    0 -0.13163066148E+02 -0.13240718779E+02 -0.14552878701E+01  0.72460992578E+02  0.69999247414E+02 0.  0.
        -12    1    1    2    0    0  0.13163066148E+02  0.13240718779E+02  0.14552878701E+01  0.18727007422E+02  0.00000000000E+00 0.  1.
         11    1    3    3    0    0 -0.91697034278E+01 -0.27857870804E+02 -0.57804851529E+01  0.29892447801E+02  0.51100000000E-03 0. -1.
        -11    1    3    3    0    0  0.18345883511E+01 -0.11510055370E+02 -0.68958933984E+01  0.13542541676E+02  0.51100000000E-03 0.  1.
        -12    1    3    3    0    0 -0.58279510710E+01  0.26127207395E+02  0.11221090681E+02  0.29026003101E+02  0.00000000000E+00 0.  1.
</event>
<event>
 7    1  0.1788006E-013  0.7246148E+02  0.7816164E-02  0.1226708E+00
        -11   -1    0    0    0    0  0.00000000000E+00  0.00000000000E+00  0.45593999997E+02  0.45594000000E+02  0.51100000000E-03 0. -1.
         11   -1    0    0    0    0 -0.00000000000E+00 -0.00000000000E+00 -0.45593999997E+02  0.45594000000E+02  0.51100000000E-03 0.  1.
    9900012    2    1    2    0    0 -0.45384382204E+01 -0.15237274827E+02  0.98949759664E+01  0.72461480969E+02  0.69999883637E+02 0.  0.
        -12    1    1    2    0    0  0.45384382204E+01  0.15237274827E+02 -0.98949759664E+01  0.18726519031E+02  0.00000000000E+00 0.  1.
         11    1    3    3    0    0  0.78034413535E+01 -0.24925035334E+02  0.23167324794E+02  0.34912404983E+02  0.51100000000E-03 0. -1.
        -11    1    3    3    0    0 -0.17382466003E+02  0.28023268427E+01  0.42029844779E+01  0.18101608737E+02  0.51100000000E-03 0.  1.
        -12    1    3    3    0    0  0.50405864289E+01  0.68854336641E+01 -0.17475333305E+02  0.19447467249E+02  0.00000000000E+00 0.  1.
</event>
<event>
 7    1  0.1788006E-013  0.7246157E+02  0.7816164E-02  0.1226708E+00
        -11   -1    0    0    0    0  0.00000000000E+00  0.00000000000E+00  0.45593999997E+02  0.45594000000E+02  0.51100000000E-03 0. -1.
         11   -1    0    0    0    0 -0.00000000000E+00 -0.00000000000E+00 -0.45593999997E+02  0.45594000000E+02  0.51100000000E-03 0.  1.
    9900012    2    1    2    0    0 -0.33987809003E+01 -0.14362975250E+02  0.11525296254E+02  0.72461568856E+02  0.69999998126E+02 0.  0.
        -12    1    1    2    0    0  0.33987809003E+01  0.14362975250E+02 -0.11525296254E+02  0.18726431144E+02  0.00000000000E+00 0.  1.
         11    1    3    3    0    0  0.71325117989E+01 -0.19184981084E+02 -0.18125488034E+02  0.27339889182E+02  0.51100000000E-03 0. -1.
        -11    1    3    3    0    0 -0.14371529914E+01  0.11694310582E+02 -0.15687717113E+01  0.11886267440E+02  0.51100000000E-03 0.  1.
        -12    1    3    3    0    0 -0.90941397079E+01 -0.68723047478E+01  0.31219555999E+02  0.33235412234E+02  0.00000000000E+00 0.  1.
</event>
<event>
 7    1  0.1788006E-013  0.7246151E+02  0.7816164E-02  0.1226708E+00
        -11   -1    0    0    0    0  0.00000000000E+00  0.00000000000E+00  0.45593999997E+02  0.45594000000E+02  0.51100000000E-03 0.  1.
         11   -1    0    0    0    0 -0.00000000000E+00 -0.00000000000E+00 -0.45593999997E+02  0.45594000000E+02  0.51100000000E-03 0. -1.
    9900012    2    1    2    0    0 -0.13746704265E+02 -0.11588323311E+02  0.52364510439E+01  0.72461507140E+02  0.69999917729E+02 0.  0.
        -12    1    1    2    0    0  0.13746704265E+02  0.11588323311E+02 -0.52364510439E+01  0.18726492860E+02  0.00000000000E+00 0.  1.
         11    1    3    3    0    0 -0.11196341696E+02  0.19309079356E+02 -0.40336616037E+01  0.22681909954E+02  0.51100000000E-03 0. -1.
        -11    1    3    3    0    0 -0.14374584871E+02 -0.13657697320E+02 -0.92233690845E+01  0.21868514440E+02  0.51100000000E-03 0.  1.
        -12    1    3    3    0    0  0.11824222302E+02 -0.17239705347E+02  0.18493481732E+02  0.27911082746E+02  0.00000000000E+00 0.  1.
</event>
<event>
 7    1  0.1788006E-013  0.7246158E+02  0.7816164E-02  0.1226708E+00
        -11   -1    0    0    0    0  0.00000000000E+00  0.00000000000E+00  0.45593999997E+02  0.45594000000E+02  0.51100000000E-03 0. -1.
         11   -1    0    0    0    0 -0.00000000000E+00 -0.00000000000E+00 -0.45593999997E+02  0.45594000000E+02  0.51100000000E-03 0.  1.
    9900012    2    1    2    0    0  0.73222821904E+01  0.86094123250E+01  0.14931208097E+02  0.72461580901E+02  0.70000013817E+02 0.  0.
        -12    1    1    2    0    0 -0.73222821904E+01 -0.86094123250E+01 -0.14931208097E+02  0.18726419099E+02  0.00000000000E+00 0.  1.
         11    1    3    3    0    0  0.47842723648E+00  0.24991174641E+02  0.67064056435E+01  0.25879790947E+02  0.51100000000E-03 0. -1.
        -11    1    3    3    0    0 -0.26979145547E+01  0.12841087988E+02 -0.36613764892E+01  0.13622700236E+02  0.51100000000E-03 0.  1.
        -12    1    3    3    0    0  0.95417695086E+01 -0.29222850303E+02  0.11886178942E+02  0.32959089718E+02  0.00000000000E+00 0.  1.
</event>
<event>
 7    1  0.1788006E-013  0.7246167E+02  0.7816164E-02  0.1226708E+00
        -11   -1    0    0    0    0  0.00000000000E+00  0.00000000000E+00  0.45593999997E+02  0.45594000000E+02  0.51100000000E-03 0.  1.
         11   -1    0    0    0    0 -0.00000000000E+00 -0.00000000000E+00 -0.45593999997E+02  0.45594000000E+02  0.51100000000E-03 0. -1.
    9900012    2    1    2    0    0 -0.59360391633E+01  0.17756565364E+02  0.37834214163E+00  0.72461673151E+02  0.70000133989E+02 0.  0.
        -12    1    1    2    0    0  0.59360391633E+01 -0.17756565364E+02 -0.37834214163E+00  0.18726326849E+02  0.00000000000E+00 0.  1.
         11    1    3    3    0    0  0.14763025284E+02 -0.22324032004E+01  0.47311360782E+01  0.15662509008E+02  0.51100000000E-03 0. -1.
        -11    1    3    3    0    0 -0.26924518091E+02  0.19766324364E+01  0.13939303332E+02  0.30383234321E+02  0.51100000000E-03 0.  1.
        -12    1    3    3    0    0  0.62254536437E+01  0.18012336128E+02 -0.18292097268E+02  0.26415929822E+02  0.00000000000E+00 0.  1.
</event>
<event>
 7    1  0.1788006E-013  0.7246163E+02  0.7816164E-02  0.1226708E+00
        -11   -1    0    0    0    0  0.00000000000E+00  0.00000000000E+00  0.45593999997E+02  0.45594000000E+02  0.51100000000E-03 0.  1.
         11   -1    0    0    0    0 -0.00000000000E+00 -0.00000000000E+00 -0.45593999997E+02  0.45594000000E+02  0.51100000000E-03 0. -1.
    9900012    2    1    2    0    0  0.11294585876E+02 -0.14254063501E+01 -0.14868674798E+02  0.72461629727E+02  0.70000077422E+02 0.  0.
        -12    1    1    2    0    0 -0.11294585876E+02  0.14254063501E+01  0.14868674798E+02  0.18726370273E+02  0.00000000000E+00 0.  1.
         11    1    3    3    0    0  0.13908561846E+02 -0.17706334655E+02 -0.31455669826E+02  0.38683608209E+02  0.51100000000E-03 0. -1.
        -11    1    3    3    0    0 -0.10200680461E+02  0.13738420362E+02  0.21152582068E+01  0.17241589065E+02  0.51100000000E-03 0.  1.
        -12    1    3    3    0    0  0.75867044906E+01  0.25425079429E+01  0.14471736821E+02  0.16536432454E+02  0.00000000000E+00 0.  1.
</event>
<event>
 7    1  0.1788006E-013  0.7246154E+02  0.7816164E-02  0.1226708E+00
        -11   -1    0    0    0    0  0.00000000000E+00  0.00000000000E+00  0.45593999997E+02  0.45594000000E+02  0.51100000000E-03 0. -1.
         11   -1    0    0    0    0 -0.00000000000E+00 -0.00000000000E+00 -0.45593999997E+02  0.45594000000E+02  0.51100000000E-03 0.  1.
    9900012    2    1    2    0    0  0.11892685139E+02 -0.10314950541E+01  0.14428462135E+02  0.72461535799E+02  0.69999955064E+02 0.  0.
        -12    1    1    2    0    0 -0.11892685139E+02  0.10314950541E+01 -0.14428462135E+02  0.18726464201E+02  0.00000000000E+00 0.  1.
         11    1    3    3    0    0 -0.28966005611E+01  0.10489644312E+01 -0.24332689271E+01  0.39257380352E+01  0.51100000000E-03 0. -1.
        -11    1    3    3    0    0  0.14917682246E+02  0.22955822076E+02 -0.12374920927E+02  0.30044062292E+02  0.51100000000E-03 0.  1.
        -12    1    3    3    0    0 -0.12839654592E+00 -0.25036281562E+02  0.29236651989E+02  0.38491735472E+02  0.00000000000E+00 0.  1.
</event>
<event>
 7    1  0.1788006E-013  0.7246156E+02  0.7816164E-02  0.1226708E+00
        -11   -1    0    0    0    0  0.00000000000E+00  0.00000000000E+00  0.45593999997E+02  0.45594000000E+02  0.51100000000E-03 0.  1.
         11   -1    0    0    0    0 -0.00000000000E+00 -0.00000000000E+00 -0.45593999997E+02  0.45594000000E+02  0.51100000000E-03 0. -1.
    9900012    2    1    2    0    0  0.12700172556E+02 -0.93716079643E+01 -0.10077609052E+02  0.72461558187E+02  0.69999984227E+02 0.  0.
        -12    1    1    2    0    0 -0.12700172556E+02  0.93716079643E+01  0.10077609052E+02  0.18726441813E+02  0.00000000000E+00 0.  1.
         11    1    3    3    0    0  0.18474470986E+02 -0.26177639551E+02 -0.19679589894E+02  0.37601345047E+02  0.51100000000E-03 0. -1.
        -11    1    3    3    0    0  0.56500343730E+01  0.89942216102E+01 -0.73942334568E+01  0.12941931829E+02  0.51100000000E-03 0.  1.
        -12    1    3    3    0    0 -0.11424332803E+02  0.78118099763E+01  0.16996214299E+02  0.21918281311E+02  0.00000000000E+00 0.  1.
</event>
<event>
 7    1  0.1788006E-013  0.7246156E+02  0.7816164E-02  0.1226708E+00
        -11   -1    0    0    0    0  0.00000000000E+00  0.00000000000E+00  0.45593999997E+02  0.45594000000E+02  0.51100000000E-03 0.  1.
         11   -1    0    0    0    0 -0.00000000000E+00 -0.00000000000E+00 -0.45593999997E+02  0.45594000000E+02  0.51100000000E-03 0. -1.
    9900012    2    1    2    0    0 -0.14915764790E+02  0.92602512738E+01 -0.65151525976E+01  0.72461561302E+02  0.69999988286E+02 0.  0.
        -12    1    1    2    0    0  0.14915764790E+02 -0.92602512738E+01  0.65151525976E+01  0.18726438698E+02  0.00000000000E+00 0.  1.
         11    1    3    3    0    0  0.15023986337E+02 -0.24481240788E+00  0.12486086552E+02  0.19536695120E+02  0.51100000000E-03 0. -1.
        -11    1    3    3    0    0 -0.36067078655E+01  0.10024220319E+02  0.93880067280E+01  0.14199577642E+02  0.51100000000E-03 0.  1.
         12    1    3    3    0    0 -0.26333043261E+02 -0.51915663696E+00 -0.28389245878E+02  0.38725288540E+02  0.00000000000E+00 0. -1.
</event>
<event>
 7    1  0.1788006E-013  0.7246158E+02  0.7816164E-02  0.1226708E+00
        -11   -1    0    0    0    0  0.00000000000E+00  0.00000000000E+00  0.45593999997E+02  0.45594000000E+02  0.51100000000E-03 0.  1.
         11   -1    0    0    0    0 -0.00000000000E+00 -0.00000000000E+00 -0.45593999997E+02  0.45594000000E+02  0.51100000000E-03 0. -1.
    9900012    2    1    2    0    0 -0.17728007828E+02 -0.58243037023E+01  0.15728759108E+01  0.72461582462E+02  0.70000015851E+02 0.  0.
        -12    1    1    2    0    0  0.17728007828E+02  0.58243037023E+01 -0.15728759108E+01  0.18726417538E+02  0.00000000000E+00 0.  1.
         11    1    3    3    0    0 -0.13436251599E+02 -0.68794414108E+00 -0.35304090483E+01  0.13909346227E+02  0.51100000000E-03 0. -1.
        -11    1    3    3    0    0 -0.11862182671E+02  0.13096969100E+02  0.24940004313E+02  0.30565434607E+02  0.51100000000E-03 0.  1.
        -12    1    3    3    0    0  0.75704264411E+01 -0.18233328662E+02 -0.19836719354E+02  0.27986801627E+02  0.00000000000E+00 0.  1.
</event>
<event>
 7    1  0.1788006E-013  0.7246162E+02  0.7816164E-02  0.1226708E+00
        -11   -1    0    0    0    0  0.00000000000E+00  0.00000000000E+00  0.45593999997E+02  0.45594000000E+02  0.51100000000E-03 0.  1.
         11   -1    0    0    0    0 -0.00000000000E+00 -0.00000000000E+00 -0.45593999997E+02  0.45594000000E+02  0.51100000000E-03 0. -1.
    9900012    2    1    2    0    0  0.14828429439E+02 -0.24378935052E+01  0.11173706269E+02  0.72461618712E+02  0.70000063073E+02 0.  0.
        -12    1    1    2    0    0 -0.14828429439E+02  0.24378935052E+01 -0.11173706269E+02  0.18726381288E+02  0.00000000000E+00 0.  1.
         11    1    3    3    0    0  0.67036123380E+01 -0.10375061196E+02  0.10404823586E+01  0.12396084745E+02  0.51100000000E-03 0. -1.
        -11    1    3    3    0    0  0.86045612771E+01  0.22284326171E+02 -0.17033781726E+02  0.29339042040E+02  0.51100000000E-03 0.  1.
         12    1    3    3    0    0 -0.47974417602E+00 -0.14347158480E+02  0.27167005636E+02  0.30726491927E+02  0.00000000000E+00 0. -1.
</event>
<event>
 7    1  0.1788006E-013  0.7246170E+02  0.7816164E-02  0.1226708E+00
        -11   -1    0    0    0    0  0.00000000000E+00  0.00000000000E+00  0.45593999997E+02  0.45594000000E+02  0.51100000000E-03 0. -1.
         11   -1    0    0    0    0 -0.00000000000E+00 -0.00000000000E+00 -0.45593999997E+02  0.45594000000E+02  0.51100000000E-03 0.  1.
    9900012    2    1    2    0    0  0.48323594680E+01 -0.16239069205E+02  0.79759236402E+01  0.72461696985E+02  0.70000165038E+02 0.  0.
        -12    1    1    2    0    0 -0.48323594680E+01  0.16239069205E+02 -0.79759236402E+01  0.18726303015E+02  0.00000000000E+00 0.  1.
         11    1    3    3    0    0 -0.12169251237E+02  0.66636753595E+00 -0.11677078297E+02  0.16878651581E+02  0.51100000000E-03 0.  1.
        -11    1    3    3    0    0 -0.13904114230E+02  0.39804810752E+01  0.78681811330E+01  0.16464413039E+02  0.51100000000E-03 0. -1.
        -12    1    3    3    0    0  0.30905724935E+02 -0.20885917817E+02  0.11784820804E+02  0.39118632366E+02  0.00000000000E+00 0.  1.
</event>
<event>
 7    1  0.1788006E-013  0.7246154E+02  0.7816164E-02  0.1226708E+00
        -11   -1    0    0    0    0  0.00000000000E+00  0.00000000000E+00  0.45593999997E+02  0.45594000000E+02  0.51100000000E-03 0. -1.
         11   -1    0    0    0    0 -0.00000000000E+00 -0.00000000000E+00 -0.45593999997E+02  0.45594000000E+02  0.51100000000E-03 0.  1.
    9900012    2    1    2    0    0 -0.14131578060E+02  0.12138276414E+02  0.19081810608E+01  0.72461537234E+02  0.69999956933E+02 0.  0.
        -12    1    1    2    0    0  0.14131578060E+02 -0.12138276414E+02 -0.19081810608E+01  0.18726462766E+02  0.00000000000E+00 0.  1.
         11    1    3    3    0    0  0.10901787655E+02  0.29248968297E+01  0.59527027774E+01  0.12760825449E+02  0.51100000000E-03 0. -1.
        -11    1    3    3    0    0 -0.31319833616E+01 -0.19643430549E+02 -0.11120855780E+02  0.22789188600E+02  0.51100000000E-03 0.  1.
        -12    1    3    3    0    0 -0.21901382353E+02  0.28856810133E+02  0.70763340633E+01  0.36911523185E+02  0.00000000000E+00 0.  1.
</event>
<event>
 7    1  0.1788006E-013  0.7246159E+02  0.7816164E-02  0.1226708E+00
        -11   -1    0    0    0    0  0.00000000000E+00  0.00000000000E+00  0.45593999997E+02  0.45594000000E+02  0.51100000000E-03 0.  1.
         11   -1    0    0    0    0 -0.00000000000E+00 -0.00000000000E+00 -0.45593999997E+02  0.45594000000E+02  0.51100000000E-03 0. -1.
    9900012    2    1    2    0    0  0.39094684042E+01 -0.12634952097E+02 -0.13257161778E+02  0.72461593615E+02  0.70000030379E+02 0.  0.
        -12    1    1    2    0    0 -0.39094684042E+01  0.12634952097E+02  0.13257161778E+02  0.18726406385E+02  0.00000000000E+00 0.  1.
         11    1    3    3    0    0  0.11052845423E+02  0.87853016339E+01 -0.21280590912E+02  0.25538411590E+02  0.51100000000E-03 0. -1.
        -11    1    3    3    0    0  0.37684554791E+01  0.11098428194E+02  0.40138597411E+01  0.12389004615E+02  0.51100000000E-03 0.  1.
         12    1    3    3    0    0 -0.10911832498E+02 -0.32518681925E+02  0.40095693926E+01  0.34534177409E+02  0.00000000000E+00 0. -1.
</event>
<event>
 7    1  0.1788006E-013  0.7246157E+02  0.7816164E-02  0.1226708E+00
        -11   -1    0    0    0    0  0.00000000000E+00  0.00000000000E+00  0.45593999997E+02  0.45594000000E+02  0.51100000000E-03 0.  1.
         11   -1    0    0    0    0 -0.00000000000E+00 -0.00000000000E+00 -0.45593999997E+02  0.45594000000E+02  0.51100000000E-03 0. -1.
    9900012    2    1    2    0    0  0.15563943134E+02  0.10376048398E+02  0.88340669261E+00  0.72461571787E+02  0.70000001945E+02 0.  0.
        -12    1    1    2    0    0 -0.15563943134E+02 -0.10376048398E+02 -0.88340669261E+00  0.18726428213E+02  0.00000000000E+00 0.  1.
         11    1    3    3    0    0  0.11899226481E+02  0.18090200908E+02 -0.11894566502E+02  0.24704810711E+02  0.51100000000E-03 0. -1.
        -11    1    3    3    0    0  0.18217232222E+02  0.73828155503E+01 -0.49815140067E+01  0.20277795673E+02  0.51100000000E-03 0.  1.
        -12    1    3    3    0    0 -0.14552515569E+02 -0.15096968060E+02  0.17759487201E+02  0.27478965404E+02  0.00000000000E+00 0.  1.
</event>
<event>
 7    1  0.1788006E-013  0.7246157E+02  0.7816164E-02  0.1226708E+00
        -11   -1    0    0    0    0  0.00000000000E+00  0.00000000000E+00  0.45593999997E+02  0.45594000000E+02  0.51100000000E-03 0.  1.
         11   -1    0    0    0    0 -0.00000000000E+00 -0.00000000000E+00 -0.45593999997E+02  0.45594000000E+02  0.51100000000E-03 0. -1.
    9900012    2    1    2    0    0  0.11668619658E+02 -0.25541693584E+01 -0.14422161902E+02  0.72461568953E+02  0.69999998252E+02 0.  0.
        -12    1    1    2    0    0 -0.11668619658E+02  0.25541693584E+01  0.14422161902E+02  0.18726431047E+02  0.00000000000E+00 0.  1.
         11    1    3    3    0    0  0.81919244330E+01  0.29037661766E+01 -0.18946373894E+02  0.20844773156E+02  0.51100000000E-03 0. -1.
        -11    1    3    3    0    0 -0.20099732947E+00  0.22577866730E+02 -0.17723668005E+01  0.22648217377E+02  0.51100000000E-03 0.  1.
        -12    1    3    3    0    0  0.36776925547E+01 -0.28035802265E+02  0.62965787928E+01  0.28968578420E+02  0.00000000000E+00 0.  1.
</event>
<event>
 7    1  0.1788006E-013  0.7246158E+02  0.7816164E-02  0.1226708E+00
        -11   -1    0    0    0    0  0.00000000000E+00  0.00000000000E+00  0.45593999997E+02  0.45594000000E+02  0.51100000000E-03 0.  1.
         11   -1    0    0    0    0 -0.00000000000E+00 -0.00000000000E+00 -0.45593999997E+02  0.45594000000E+02  0.51100000000E-03 0. -1.
    9900012    2    1    2    0    0  0.11925447609E+02 -0.57083978060E+01  0.13261850678E+02  0.72461580438E+02  0.70000013214E+02 0.  0.
        -12    1    1    2    0    0 -0.11925447609E+02  0.57083978060E+01 -0.13261850678E+02  0.18726419562E+02  0.00000000000E+00 0.  1.
         11    1    3    3    0    0 -0.15449422485E+01  0.10378665032E+02  0.25024462137E+01  0.10787296775E+02  0.51100000000E-03 0. -1.
        -11    1    3    3    0    0 -0.18188472852E+02  0.60617057251E+01 -0.52091072754E+01  0.19867048594E+02  0.51100000000E-03 0.  1.
         12    1    3    3    0    0  0.31658862710E+02 -0.22148768563E+02  0.15968511740E+02  0.41807235069E+02  0.00000000000E+00 0. -1.
</event>
<event>
 7    1  0.1788006E-013  0.7246154E+02  0.7816164E-02  0.1226708E+00
        -11   -1    0    0    0    0  0.00000000000E+00  0.00000000000E+00  0.45593999997E+02  0.45594000000E+02  0.51100000000E-03 0. -1.
         11   -1    0    0    0    0 -0.00000000000E+00 -0.00000000000E+00 -0.45593999997E+02  0.45594000000E+02  0.51100000000E-03 0.  1.
    9900012    2    1    2    0    0 -0.18495124590E+02  0.14415176413E+01  0.25559469583E+01  0.72461535530E+02  0.69999954713E+02 0.  0.
        -12    1    1    2    0    0  0.18495124590E+02 -0.14415176413E+01 -0.25559469583E+01  0.18726464470E+02  0.00000000000E+00 0.  1.
         11    1    3    3    0    0 -0.35634481010E+02 -0.85191414980E+01 -0.11721103661E+02  0.38467860351E+02  0.51100000000E-03 0. -1.
        -11    1    3    3    0    0 -0.18979861657E+01 -0.34211196979E+01  0.94506310069E+01  0.10228432830E+02  0.51100000000E-03 0.  1.
        -12    1    3    3    0    0  0.19037342586E+02  0.13381778837E+02  0.48264196123E+01  0.23765242348E+02  0.00000000000E+00 0.  1.
</event>
<event>
 7    1  0.1788006E-013  0.7246157E+02  0.7816164E-02  0.1226708E+00
        -11   -1    0    0    0    0  0.00000000000E+00  0.00000000000E+00  0.45593999997E+02  0.45594000000E+02  0.51100000000E-03 0.  1.
         11   -1    0    0    0    0 -0.00000000000E+00 -0.00000000000E+00 -0.45593999997E+02  0.45594000000E+02  0.51100000000E-03 0. -1.
    9900012    2    1    2    0    0  0.68277217385E+01  0.17388956404E+02 -0.12982929981E+01  0.72461570717E+02  0.70000000551E+02 0.  0.
        -12    1    1    2    0    0 -0.68277217385E+01 -0.17388956404E+02  0.12982929981E+01  0.18726429283E+02  0.00000000000E+00 0.  1.
         11    1    3    3    0    0  0.19663132203E+02  0.72413367525E+01 -0.26858235130E+01  0.21125562104E+02  0.51100000000E-03 0. -1.
        -11    1    3    3    0    0  0.14337997677E+02  0.10488394948E+02  0.12764559764E+02  0.21875067821E+02  0.51100000000E-03 0.  1.
        -12    1    3    3    0    0 -0.27173408141E+02 -0.34077529627E+00 -0.11377029249E+02  0.29460940792E+02  0.00000000000E+00 0.  1.
</event>
<event>
 7    1  0.1788006E-013  0.7246156E+02  0.7816164E-02  0.1226708E+00
        -11   -1    0    0    0    0  0.00000000000E+00  0.00000000000E+00  0.45593999997E+02  0.45594000000E+02  0.51100000000E-03 0. -1.
         11   -1    0    0    0    0 -0.00000000000E+00 -0.00000000000E+00 -0.45593999997E+02  0.45594000000E+02  0.51100000000E-03 0.  1.
    9900012    2    1    2    0    0 -0.52381578650E+01  0.50353557249E+01  0.17259390003E+02  0.72461557509E+02  0.69999983344E+02 0.  0.
        -12    1    1    2    0    0  0.52381578650E+01 -0.50353557249E+01 -0.17259390003E+02  0.18726442491E+02  0.00000000000E+00 0.  1.
         11    1    3    3    0    0  0.82153139651E+00  0.46152393886E+01  0.23864471336E+01  0.52602736271E+01  0.51100000000E-03 0. -1.
        -11    1    3    3    0    0  0.27881648312E+02  0.10753731579E+02  0.43816917448E+01  0.30203117029E+02  0.51100000000E-03 0.  1.
         12    1    3    3    0    0 -0.33941337573E+02 -0.10333615243E+02  0.10491251125E+02  0.36998166852E+02  0.00000000000E+00 0. -1.
</event>
<event>
 7    1  0.1788006E-013  0.7246156E+02  0.7816164E-02  0.1226708E+00
        -11   -1    0    0    0    0  0.00000000000E+00  0.00000000000E+00  0.45593999997E+02  0.45594000000E+02  0.51100000000E-03 0. -1.
         11   -1    0    0    0    0 -0.00000000000E+00 -0.00000000000E+00 -0.45593999997E+02  0.45594000000E+02  0.51100000000E-03 0.  1.
    9900012    2    1    2    0    0  0.80893803865E+01 -0.49874964630E+01  0.16135876490E+02  0.72461555968E+02  0.69999981337E+02 0.  0.
        -12    1    1    2    0    0 -0.80893803865E+01  0.49874964630E+01 -0.16135876490E+02  0.18726444032E+02  0.00000000000E+00 0.  1.
         11    1    3    3    0    0  0.71875243773E+01  0.17139180853E+02  0.27001389934E+02  0.32779369818E+02  0.51100000000E-03 0. -1.
        -11    1    3    3    0    0  0.13079561196E+02 -0.12329558015E+01  0.78048038604E-01  0.13137777317E+02  0.51100000000E-03 0.  1.
        -12    1    3    3    0    0 -0.12177705187E+02 -0.20893721515E+02 -0.10943561483E+02  0.26544408833E+02  0.00000000000E+00 0.  1.
</event>
<event>
 7    1  0.1788006E-013  0.7246157E+02  0.7816164E-02  0.1226708E+00
        -11   -1    0    0    0    0  0.00000000000E+00  0.00000000000E+00  0.45593999997E+02  0.45594000000E+02  0.51100000000E-03 0.  1.
         11   -1    0    0    0    0 -0.00000000000E+00 -0.00000000000E+00 -0.45593999997E+02  0.45594000000E+02  0.51100000000E-03 0. -1.
    9900012    2    1    2    0    0  0.59867440760E+01  0.10875145822E+02 -0.14020321266E+02  0.72461566552E+02  0.69999995125E+02 0.  0.
        -12    1    1    2    0    0 -0.59867440760E+01 -0.10875145822E+02  0.14020321266E+02  0.18726433448E+02  0.00000000000E+00 0.  1.
         11    1    3    3    0    0 -0.54842913016E+01  0.57029769968E+01 -0.17296058230E+02  0.19019858786E+02  0.51100000000E-03 0. -1.
        -11    1    3    3    0    0  0.44612860610E+01  0.27658543204E+02 -0.50350012065E+01  0.28464878761E+02  0.51100000000E-03 0.  1.
         12    1    3    3    0    0  0.70097493167E+01 -0.22486374379E+02  0.83107381698E+01  0.24976829004E+02  0.00000000000E+00 0. -1.
</event>
<event>
 7    1  0.1788006E-013  0.7246165E+02  0.7816164E-02  0.1226708E+00
        -11   -1    0    0    0    0  0.00000000000E+00  0.00000000000E+00  0.45593999997E+02  0.45594000000E+02  0.51100000000E-03 0.  1.
         11   -1    0    0    0    0 -0.00000000000E+00 -0.00000000000E+00 -0.45593999997E+02  0.45594000000E+02  0.51100000000E-03 0. -1.
    9900012    2    1    2    0    0  0.17392746792E+02  0.60026674351E+01 -0.34837461103E+01  0.72461651069E+02  0.70000105224E+02 0.  0.
        -12    1    1    2    0    0 -0.17392746792E+02 -0.60026674351E+01  0.34837461103E+01  0.18726348931E+02  0.00000000000E+00 0.  1.
         11    1    3    3    0    0  0.28942351463E+02  0.13771626442E+02 -0.56867971635E+01  0.32552374188E+02  0.51100000000E-03 0. -1.
        -11    1    3    3    0    0  0.49064404952E+01 -0.16605515598E+02 -0.74896885863E+01  0.18865623287E+02  0.51100000000E-03 0.  1.
        -12    1    3    3    0    0 -0.16456045166E+02  0.88365565911E+01  0.96927396395E+01  0.21043653595E+02  0.00000000000E+00 0.  1.
</event>
<event>
 7    1  0.1788006E-013  0.7246157E+02  0.7816164E-02  0.1226708E+00
        -11   -1    0    0    0    0  0.00000000000E+00  0.00000000000E+00  0.45593999997E+02  0.45594000000E+02  0.51100000000E-03 0.  1.
         11   -1    0    0    0    0 -0.00000000000E+00 -0.00000000000E+00 -0.45593999997E+02  0.45594000000E+02  0.51100000000E-03 0. -1.
    9900012    2    1    2    0    0  0.13138987825E+02  0.13339061267E+02  0.34013595336E+00  0.72461568172E+02  0.69999997235E+02 0.  0.
        -12    1    1    2    0    0 -0.13138987825E+02 -0.13339061267E+02 -0.34013595336E+00  0.18726431828E+02  0.00000000000E+00 0.  1.
         11    1    3    3    0    0  0.14721491789E+01  0.17535793738E+02 -0.29682458620E+02  0.34506805636E+02  0.51100000000E-03 0. -1.
        -11    1    3    3    0    0 -0.42015594000E+01 -0.52017222446E+01  0.51749361302E+01  0.84552338770E+01  0.51100000000E-03 0.  1.
        -12    1    3    3    0    0  0.15868398046E+02  0.10049897737E+01  0.24847658443E+02  0.29499528659E+02  0.00000000000E+00 0.  1.
</event>
<event>
 7    1  0.1788006E-013  0.7246157E+02  0.7816164E-02  0.1226708E+00
        -11   -1    0    0    0    0  0.00000000000E+00  0.00000000000E+00  0.45593999997E+02  0.45594000000E+02  0.51100000000E-03 0.  1.
         11   -1    0    0    0    0 -0.00000000000E+00 -0.00000000000E+00 -0.45593999997E+02  0.45594000000E+02  0.51100000000E-03 0. -1.
    9900012    2    1    2    0    0 -0.82627073716E+00 -0.18691583470E+02  0.78818287535E+00  0.72461568194E+02  0.69999997264E+02 0.  0.
        -12    1    1    2    0    0  0.82627073716E+00  0.18691583470E+02 -0.78818287535E+00  0.18726431806E+02  0.00000000000E+00 0.  1.
         11    1    3    3    0    0 -0.22693785365E+01  0.42719531553E+01  0.10466201948E+02  0.11530006340E+02  0.51100000000E-03 0. -1.
        -11    1    3    3    0    0 -0.21456495034E+02 -0.13016711463E+02  0.12045416501E+02  0.27837169673E+02  0.51100000000E-03 0.  1.
         12    1    3    3    0    0  0.22899602833E+02 -0.99468251623E+01 -0.21723435574E+02  0.33094392182E+02  0.00000000000E+00 0. -1.
</event>
<event>
 7    1  0.1788006E-013  0.7246157E+02  0.7816164E-02  0.1226708E+00
        -11   -1    0    0    0    0  0.00000000000E+00  0.00000000000E+00  0.45593999997E+02  0.45594000000E+02  0.51100000000E-03 0. -1.
         11   -1    0    0    0    0 -0.00000000000E+00 -0.00000000000E+00 -0.45593999997E+02  0.45594000000E+02  0.51100000000E-03 0.  1.
    9900012    2    1    2    0    0  0.14937845420E+02  0.10828909421E+02  0.32053968755E+01  0.72461572841E+02  0.70000003317E+02 0.  0.
        -12    1    1    2    0    0 -0.14937845420E+02 -0.10828909421E+02 -0.32053968755E+01  0.18726427159E+02  0.00000000000E+00 0.  1.
         11    1    3    3    0    0  0.50691811016E+01  0.66354215678E+01 -0.29771626945E+01  0.88650388828E+01  0.51100000000E-03 0. -1.
        -11    1    3    3    0    0  0.15392480386E+02  0.30660649699E+02  0.11216407197E+02  0.36094482724E+02  0.51100000000E-03 0.  1.
         12    1    3    3    0    0 -0.55238160682E+01 -0.26467161846E+02 -0.50338476271E+01  0.27502051234E+02  0.00000000000E+00 0. -1.
</event>
<event>
 7    1  0.1788006E-013  0.7246197E+02  0.7816164E-02  0.1226707E+00
        -11   -1    0    0    0    0  0.00000000000E+00  0.00000000000E+00  0.45593999997E+02  0.45594000000E+02  0.51100000000E-03 0. -1.
         11   -1    0    0    0    0 -0.00000000000E+00 -0.00000000000E+00 -0.45593999997E+02  0.45594000000E+02  0.51100000000E-03 0.  1.
    9900012    2    1    2    0    0  0.40830333605E+00 -0.18306777237E+02  0.39191078725E+01  0.72461969697E+02  0.70000520294E+02 0.  0.
        -12    1    1    2    0    0 -0.40830333605E+00  0.18306777237E+02 -0.39191078725E+01  0.18726030303E+02  0.00000000000E+00 0.  1.
         11    1    3    3    0    0 -0.90825410328E+01 -0.29877741690E+02  0.47409061569E+01  0.31585569356E+02  0.51100000000E-03 0. -1.
        -11    1    3    3    0    0  0.11156496058E+02 -0.77885986245E+01  0.11544557983E+02  0.17843948333E+02  0.51100000000E-03 0.  1.
        -12    1    3    3    0    0 -0.16656516893E+01  0.19359563078E+02 -0.12366356268E+02  0.23032452007E+02  0.00000000000E+00 0.  1.
</event>
<event>
 7    1  0.1788006E-013  0.7246158E+02  0.7816164E-02  0.1226708E+00
        -11   -1    0    0    0    0  0.00000000000E+00  0.00000000000E+00  0.45593999997E+02  0.45594000000E+02  0.51100000000E-03 0. -1.
         11   -1    0    0    0    0 -0.00000000000E+00 -0.00000000000E+00 -0.45593999997E+02  0.45594000000E+02  0.51100000000E-03 0.  1.
    9900012    2    1    2    0    0 -0.86567899017E+01  0.52076117236E+01  0.15767676154E+02  0.72461579024E+02  0.70000011372E+02 0.  0.
        -12    1    1    2    0    0  0.86567899017E+01 -0.52076117236E+01 -0.15767676154E+02  0.18726420976E+02  0.00000000000E+00 0.  1.
         11    1    3    3    0    0 -0.67104506634E+01 -0.10819106352E+01  0.50476005946E+01  0.84663422298E+01  0.51100000000E-03 0. -1.
        -11    1    3    3    0    0 -0.19407917616E+02 -0.22055789496E+02  0.13514501564E+01  0.29410058386E+02  0.51100000000E-03 0.  1.
         12    1    3    3    0    0  0.17461578378E+02  0.28345311855E+02  0.93686254032E+01  0.34585178408E+02  0.00000000000E+00 0. -1.
</event>
<event>
 7    1  0.1788006E-013  0.7246170E+02  0.7816164E-02  0.1226708E+00
        -11   -1    0    0    0    0  0.00000000000E+00  0.00000000000E+00  0.45593999997E+02  0.45594000000E+02  0.51100000000E-03 0.  1.
         11   -1    0    0    0    0 -0.00000000000E+00 -0.00000000000E+00 -0.45593999997E+02  0.45594000000E+02  0.51100000000E-03 0. -1.
    9900012    2    1    2    0    0  0.11089056008E+02 -0.12766955106E+02  0.80443806223E+01  0.72461698565E+02  0.70000167097E+02 0.  0.
        -12    1    1    2    0    0 -0.11089056008E+02  0.12766955106E+02 -0.80443806223E+01  0.18726301435E+02  0.00000000000E+00 0.  1.
         11    1    3    3    0    0  0.11378498687E+02  0.13611100399E+02  0.46243810093E+00  0.17746721830E+02  0.51100000000E-03 0. -1.
        -11    1    3    3    0    0  0.12668440349E+02 -0.23658396098E+02 -0.13329238804E+02  0.29964607359E+02  0.51100000000E-03 0.  1.
         12    1    3    3    0    0 -0.12957883028E+02 -0.27196594066E+01  0.20911181326E+02  0.24750369377E+02  0.00000000000E+00 0. -1.
</event>
<event>
 7    1  0.1788006E-013  0.7246152E+02  0.7816164E-02  0.1226708E+00
        -11   -1    0    0    0    0  0.00000000000E+00  0.00000000000E+00  0.45593999997E+02  0.45594000000E+02  0.51100000000E-03 0.  1.
         11   -1    0    0    0    0 -0.00000000000E+00 -0.00000000000E+00 -0.45593999997E+02  0.45594000000E+02  0.51100000000E-03 0. -1.
    9900012    2    1    2    0    0 -0.77178513525E+01 -0.89596346499E+01 -0.14520361698E+02  0.72461516443E+02  0.69999929849E+02 0.  0.
        -12    1    1    2    0    0  0.77178513525E+01  0.89596346499E+01  0.14520361698E+02  0.18726483557E+02  0.00000000000E+00 0.  1.
         11    1    3    3    0    0 -0.68097096654E+01 -0.14432550388E+02 -0.20550371823E+02  0.26019001494E+02  0.51100000000E-03 0. -1.
        -11    1    3    3    0    0 -0.88336041434E+01 -0.61696906791E+01 -0.16598418512E+02  0.19789015705E+02  0.51100000000E-03 0.  1.
        -12    1    3    3    0    0  0.79254624563E+01  0.11642606417E+02  0.22628428637E+02  0.26653499243E+02  0.00000000000E+00 0.  1.
</event>
<event>
 7    1  0.1788006E-013  0.7246153E+02  0.7816164E-02  0.1226708E+00
        -11   -1    0    0    0    0  0.00000000000E+00  0.00000000000E+00  0.45593999997E+02  0.45594000000E+02  0.51100000000E-03 0. -1.
         11   -1    0    0    0    0 -0.00000000000E+00 -0.00000000000E+00 -0.45593999997E+02  0.45594000000E+02  0.51100000000E-03 0.  1.
    9900012    2    1    2    0    0 -0.89419639386E+01 -0.13714683432E+02  0.90900812611E+01  0.72461525744E+02  0.69999941965E+02 0.  0.
        -12    1    1    2    0    0  0.89419639386E+01  0.13714683432E+02 -0.90900812611E+01  0.18726474256E+02  0.00000000000E+00 0.  1.
         11    1    3    3    0    0 -0.29374171061E+02 -0.34607385303E+01 -0.25884703647E+01  0.29690382547E+02  0.51100000000E-03 0. -1.
        -11    1    3    3    0    0 -0.23048582875E+01 -0.14971844995E+01 -0.98692493107E+01  0.10244804311E+02  0.51100000000E-03 0.  1.
        -12    1    3    3    0    0  0.22737065409E+02 -0.87567604021E+01  0.21547800937E+02  0.32526338887E+02  0.00000000000E+00 0.  1.
</event>
<event>
 7    1  0.1788006E-013  0.7246156E+02  0.7816164E-02  0.1226708E+00
        -11   -1    0    0    0    0  0.00000000000E+00  0.00000000000E+00  0.45593999997E+02  0.45594000000E+02  0.51100000000E-03 0.  1.
         11   -1    0    0    0    0 -0.00000000000E+00 -0.00000000000E+00 -0.45593999997E+02  0.45594000000E+02  0.51100000000E-03 0. -1.
    9900012    2    1    2    0    0 -0.14190355527E+02 -0.95893646037E+01  0.75734825758E+01  0.72461555014E+02  0.69999980094E+02 0.  0.
        -12    1    1    2    0    0  0.14190355527E+02  0.95893646037E+01 -0.75734825758E+01  0.18726444986E+02  0.00000000000E+00 0.  1.
         11    1    3    3    0    0  0.13594566034E+02  0.12156943191E+02 -0.77876671286E+01  0.19830563607E+02  0.51100000000E-03 0. -1.
        -11    1    3    3    0    0 -0.38933334874E+01  0.99000306448E+01  0.42077455957E+01  0.11440007678E+02  0.51100000000E-03 0.  1.
        -12    1    3    3    0    0 -0.23891588074E+02 -0.31646338439E+02  0.11153404109E+02  0.41190983729E+02  0.00000000000E+00 0.  1.
</event>
<event>
 7    1  0.1788006E-013  0.7246175E+02  0.7816164E-02  0.1226708E+00
        -11   -1    0    0    0    0  0.00000000000E+00  0.00000000000E+00  0.45593999997E+02  0.45594000000E+02  0.51100000000E-03 0.  1.
         11   -1    0    0    0    0 -0.00000000000E+00 -0.00000000000E+00 -0.45593999997E+02  0.45594000000E+02  0.51100000000E-03 0. -1.
    9900012    2    1    2    0    0 -0.89592964520E+01  0.78807642360E+00 -0.16425052071E+02  0.72461751232E+02  0.70000235705E+02 0.  0.
        -12    1    1    2    0    0  0.89592964520E+01 -0.78807642360E+00  0.16425052071E+02  0.18726248768E+02  0.00000000000E+00 0.  1.
         11    1    3    3    0    0 -0.24211234031E+02 -0.68027574020E+00 -0.74239323027E+01  0.25333010075E+02  0.51100000000E-03 0. -1.
        -11    1    3    3    0    0 -0.85948961488E+01 -0.60633441756E+01 -0.17751766877E+02  0.20633991614E+02  0.51100000000E-03 0.  1.
        -12    1    3    3    0    0  0.23846833727E+02  0.75316963394E+01  0.87506471085E+01  0.26494749544E+02  0.00000000000E+00 0.  1.
</event>
<event>
 7    1  0.1788006E-013  0.7246124E+02  0.7816164E-02  0.1226709E+00
        -11   -1    0    0    0    0  0.00000000000E+00  0.00000000000E+00  0.45593999997E+02  0.45594000000E+02  0.51100000000E-03 0.  1.
         11   -1    0    0    0    0 -0.00000000000E+00 -0.00000000000E+00 -0.45593999997E+02  0.45594000000E+02  0.51100000000E-03 0. -1.
    9900012    2    1    2    0    0 -0.47787616797E+01 -0.88024822359E+01 -0.15823129953E+02  0.72461235779E+02  0.69999564230E+02 0.  0.
        -12    1    1    2    0    0  0.47787616797E+01  0.88024822359E+01  0.15823129953E+02  0.18726764221E+02  0.00000000000E+00 0.  1.
         11    1    3    3    0    0  0.85456242199E+01 -0.14596410979E+02 -0.33500057356E+02  0.37527813017E+02  0.51100000000E-03 0. -1.
        -11    1    3    3    0    0  0.42851543003E+00 -0.90200435322E+01  0.17483048663E+01  0.91979008998E+01  0.51100000000E-03 0.  1.
        -12    1    3    3    0    0 -0.13752901330E+02  0.14813972275E+02  0.15928622537E+02  0.25735521861E+02  0.00000000000E+00 0.  1.
</event>
<event>
 7    1  0.1788006E-013  0.7246157E+02  0.7816164E-02  0.1226708E+00
        -11   -1    0    0    0    0  0.00000000000E+00  0.00000000000E+00  0.45593999997E+02  0.45594000000E+02  0.51100000000E-03 0.  1.
         11   -1    0    0    0    0 -0.00000000000E+00 -0.00000000000E+00 -0.45593999997E+02  0.45594000000E+02  0.51100000000E-03 0. -1.
    9900012    2    1    2    0    0  0.74766067616E+01 -0.17135775137E+02 -0.10699521142E+01  0.72461568526E+02  0.69999997696E+02 0.  0.
        -12    1    1    2    0    0 -0.74766067616E+01  0.17135775137E+02  0.10699521142E+01  0.18726431474E+02  0.00000000000E+00 0.  1.
         11    1    3    3    0    0  0.18983366532E+02 -0.19089935341E+02  0.13578262167E+02  0.30152330589E+02  0.51100000000E-03 0. -1.
        -11    1    3    3    0    0 -0.32633882851E+01  0.83941028105E+01  0.11230860869E+02  0.14395933496E+02  0.51100000000E-03 0.  1.
         12    1    3    3    0    0 -0.82433714848E+01 -0.64399426067E+01 -0.25879075150E+02  0.27913304441E+02  0.00000000000E+00 0. -1.
</event>
<event>
 7    1  0.1788006E-013  0.7246165E+02  0.7816164E-02  0.1226708E+00
        -11   -1    0    0    0    0  0.00000000000E+00  0.00000000000E+00  0.45593999997E+02  0.45594000000E+02  0.51100000000E-03 0.  1.
         11   -1    0    0    0    0 -0.00000000000E+00 -0.00000000000E+00 -0.45593999997E+02  0.45594000000E+02  0.51100000000E-03 0. -1.
    9900012    2    1    2    0    0 -0.84203164004E+01  0.42317492780E+01 -0.16182300769E+02  0.72461647220E+02  0.70000100210E+02 0.  0.
        -12    1    1    2    0    0  0.84203164004E+01 -0.42317492780E+01  0.16182300769E+02  0.18726352780E+02  0.00000000000E+00 0.  1.
         11    1    3    3    0    0  0.89200447164E+01  0.13417978314E+01 -0.25290014338E+01  0.93682158214E+01  0.51100000000E-03 0. -1.
        -11    1    3    3    0    0  0.12975265229E+02 -0.10483691020E+02 -0.23233546248E+02  0.28601799886E+02  0.51100000000E-03 0.  1.
         12    1    3    3    0    0 -0.30315626346E+02  0.13373642466E+02  0.95802469128E+01  0.34491631513E+02  0.00000000000E+00 0. -1.
</event>
<event>
 7    1  0.1788006E-013  0.7246159E+02  0.7816164E-02  0.1226708E+00
        -11   -1    0    0    0    0  0.00000000000E+00  0.00000000000E+00  0.45593999997E+02  0.45594000000E+02  0.51100000000E-03 0. -1.
         11   -1    0    0    0    0 -0.00000000000E+00 -0.00000000000E+00 -0.45593999997E+02  0.45594000000E+02  0.51100000000E-03 0.  1.
    9900012    2    1    2    0    0  0.61502225606E+01 -0.43324517119E+01 -0.17148845669E+02  0.72461593960E+02  0.70000030829E+02 0.  0.
        -12    1    1    2    0    0 -0.61502225606E+01  0.43324517119E+01  0.17148845669E+02  0.18726406040E+02  0.00000000000E+00 0.  1.
         11    1    3    3    0    0  0.13897594349E+02  0.12714925461E+02  0.15651208392E+02  0.24490258931E+02  0.51100000000E-03 0. -1.
        -11    1    3    3    0    0  0.38552699491E+01  0.12651890344E+00 -0.25812626494E+02  0.26099249035E+02  0.51100000000E-03 0.  1.
        -12    1    3    3    0    0 -0.11602641737E+02 -0.17173896076E+02 -0.69874275664E+01  0.21872085993E+02  0.00000000000E+00 0.  1.
</event>
<event>
 7    1  0.1788006E-013  0.7246152E+02  0.7816164E-02  0.1226708E+00
        -11   -1    0    0    0    0  0.00000000000E+00  0.00000000000E+00  0.45593999997E+02  0.45594000000E+02  0.51100000000E-03 0. -1.
         11   -1    0    0    0    0 -0.00000000000E+00 -0.00000000000E+00 -0.45593999997E+02  0.45594000000E+02  0.51100000000E-03 0.  1.
    9900012    2    1    2    0    0  0.76409783598E+01  0.21509946820E+01  0.16960828637E+02  0.72461520446E+02  0.69999935063E+02 0.  0.
        -12    1    1    2    0    0 -0.76409783598E+01 -0.21509946820E+01 -0.16960828637E+02  0.18726479554E+02  0.00000000000E+00 0.  1.
         11    1    3    3    0    0  0.36860426744E+01  0.88699262649E+01  0.29272708173E+02  0.30808342159E+02  0.51100000000E-03 0. -1.
        -11    1    3    3    0    0 -0.76465935411E+01 -0.16924267122E+02  0.41987446180E+01  0.19040238103E+02  0.51100000000E-03 0.  1.
        -12    1    3    3    0    0  0.11601529226E+02  0.10205335539E+02 -0.16510624153E+02  0.22612940184E+02  0.00000000000E+00 0.  1.
</event>
<event>
 7    1  0.1788006E-013  0.7246157E+02  0.7816164E-02  0.1226708E+00
        -11   -1    0    0    0    0  0.00000000000E+00  0.00000000000E+00  0.45593999997E+02  0.45594000000E+02  0.51100000000E-03 0. -1.
         11   -1    0    0    0    0 -0.00000000000E+00 -0.00000000000E+00 -0.45593999997E+02  0.45594000000E+02  0.51100000000E-03 0.  1.
    9900012    2    1    2    0    0  0.18042023341E+02 -0.49516335541E+01 -0.80364785902E+00  0.72461571323E+02  0.70000001340E+02 0.  0.
        -12    1    1    2    0    0 -0.18042023341E+02  0.49516335541E+01  0.80364785902E+00  0.18726428677E+02  0.00000000000E+00 0.  1.
         11    1    3    3    0    0 -0.19485814241E+01  0.67888937617E+01  0.16857620136E+01  0.72613939366E+01  0.51100000000E-03 0. -1.
        -11    1    3    3    0    0 -0.21153507454E+01 -0.33363893164E+02  0.37926937485E+01  0.33645335515E+02  0.51100000000E-03 0.  1.
         12    1    3    3    0    0  0.22105955511E+02  0.21623365848E+02 -0.62821036211E+01  0.31554841872E+02  0.00000000000E+00 0. -1.
</event>
<event>
 7    1  0.1788006E-013  0.7246158E+02  0.7816164E-02  0.1226708E+00
        -11   -1    0    0    0    0  0.00000000000E+00  0.00000000000E+00  0.45593999997E+02  0.45594000000E+02  0.51100000000E-03 0.  1.
         11   -1    0    0    0    0 -0.00000000000E+00 -0.00000000000E+00 -0.45593999997E+02  0.45594000000E+02  0.51100000000E-03 0. -1.
    9900012    2    1    2    0    0  0.60948520930E+00  0.50272961038E+01 -0.18028686365E+02  0.72461582553E+02  0.70000015970E+02 0.  0.
        -12    1    1    2    0    0 -0.60948520930E+00 -0.50272961038E+01  0.18028686365E+02  0.18726417447E+02  0.00000000000E+00 0.  1.
         11    1    3    3    0    0  0.18700796821E+02 -0.77746351989E+01 -0.10557891640E+02  0.22839304507E+02  0.51100000000E-03 0. -1.
        -11    1    3    3    0    0 -0.12461222649E+02  0.12707519915E+02 -0.25295472297E+02  0.30929339652E+02  0.51100000000E-03 0.  1.
        -12    1    3    3    0    0 -0.56300889626E+01  0.94411388174E-01  0.17824677573E+02  0.18692938394E+02  0.00000000000E+00 0.  1.
</event>
<event>
 7    1  0.1788006E-013  0.7246158E+02  0.7816164E-02  0.1226708E+00
        -11   -1    0    0    0    0  0.00000000000E+00  0.00000000000E+00  0.45593999997E+02  0.45594000000E+02  0.51100000000E-03 0.  1.
         11   -1    0    0    0    0 -0.00000000000E+00 -0.00000000000E+00 -0.45593999997E+02  0.45594000000E+02  0.51100000000E-03 0. -1.
    9900012    2    1    2    0    0  0.80114860859E+01 -0.16448280638E+02 -0.39936099607E+01  0.72461581075E+02  0.70000014044E+02 0.  0.
        -12    1    1    2    0    0 -0.80114860859E+01  0.16448280638E+02  0.39936099607E+01  0.18726418925E+02  0.00000000000E+00 0.  1.
         11    1    3    3    0    0 -0.51862552357E+01 -0.14298049715E+01  0.15522102181E+01  0.55991912317E+01  0.51100000000E-03 0. -1.
        -11    1    3    3    0    0  0.14293934191E+02  0.15427298917E+02  0.18531660137E+02  0.28031063737E+02  0.51100000000E-03 0.  1.
         12    1    3    3    0    0 -0.10961928694E+01 -0.30445774583E+02 -0.24077480316E+02  0.38831326106E+02  0.00000000000E+00 0. -1.
</event>
<event>
 7    1  0.1788006E-013  0.7246157E+02  0.7816164E-02  0.1226708E+00
        -11   -1    0    0    0    0  0.00000000000E+00  0.00000000000E+00  0.45593999997E+02  0.45594000000E+02  0.51100000000E-03 0.  1.
         11   -1    0    0    0    0 -0.00000000000E+00 -0.00000000000E+00 -0.45593999997E+02  0.45594000000E+02  0.51100000000E-03 0. -1.
    9900012    2    1    2    0    0  0.18119436759E+02  0.29864650543E+00  0.47197503793E+01  0.72461568897E+02  0.69999998180E+02 0.  0.
        -12    1    1    2    0    0 -0.18119436759E+02 -0.29864650543E+00 -0.47197503793E+01  0.18726431103E+02  0.00000000000E+00 0.  1.
         11    1    3    3    0    0  0.31770893709E+02  0.18782027625E+01  0.11249205635E+02  0.33755917413E+02  0.51100000000E-03 0. -1.
        -11    1    3    3    0    0  0.92463260057E+01 -0.79616120279E+01  0.38115215058E+01  0.12783172812E+02  0.51100000000E-03 0.  1.
        -12    1    3    3    0    0 -0.22897782956E+02  0.63820557708E+01 -0.10340976761E+02  0.25922478673E+02  0.00000000000E+00 0.  1.
</event>
<event>
 7    1  0.1788006E-013  0.7246137E+02  0.7816164E-02  0.1226709E+00
        -11   -1    0    0    0    0  0.00000000000E+00  0.00000000000E+00  0.45593999997E+02  0.45594000000E+02  0.51100000000E-03 0. -1.
         11   -1    0    0    0    0 -0.00000000000E+00 -0.00000000000E+00 -0.45593999997E+02  0.45594000000E+02  0.51100000000E-03 0.  1.
    9900012    2    1    2    0    0 -0.13926050653E+02 -0.26923615673E+01  0.12227133725E+02  0.72461374657E+02  0.69999745146E+02 0.  0.
        -12    1    1    2    0    0  0.13926050653E+02  0.26923615673E+01 -0.12227133725E+02  0.18726625343E+02  0.00000000000E+00 0.  1.
         11    1    3    3    0    0 -0.11406623044E+02 -0.17705116537E+02  0.18147735519E+02  0.27801483874E+02  0.51100000000E-03 0. -1.
        -11    1    3    3    0    0  0.10182335796E+02 -0.63729150710E+01 -0.14056320543E+02  0.18489839270E+02  0.51100000000E-03 0.  1.
        -12    1    3    3    0    0 -0.12701763404E+02  0.21385670041E+02  0.81357187491E+01  0.26170051514E+02  0.00000000000E+00 0.  1.
</event>
<event>
 7    1  0.1788006E-013  0.7246159E+02  0.7816164E-02  0.1226708E+00
        -11   -1    0    0    0    0  0.00000000000E+00  0.00000000000E+00  0.45593999997E+02  0.45594000000E+02  0.51100000000E-03 0.  1.
         11   -1    0    0    0    0 -0.00000000000E+00 -0.00000000000E+00 -0.45593999997E+02  0.45594000000E+02  0.51100000000E-03 0. -1.
    9900012    2    1    2    0    0 -0.11072899951E+02 -0.84210495134E+01 -0.12536163564E+02  0.72461585898E+02  0.70000020326E+02 0.  0.
        -12    1    1    2    0    0  0.11072899951E+02  0.84210495134E+01  0.12536163564E+02  0.18726414102E+02  0.00000000000E+00 0.  1.
         11    1    3    3    0    0 -0.44777185942E+01 -0.22036642809E+02 -0.35984922574E+02  0.42433220983E+02  0.51100000000E-03 0. -1.
        -11    1    3    3    0    0  0.17905184007E+01  0.63148022261E+00 -0.53033298032E-01  0.18993515226E+01  0.51100000000E-03 0.  1.
        -12    1    3    3    0    0 -0.83856997573E+01  0.12984113073E+02  0.23501792308E+02  0.28129013392E+02  0.00000000000E+00 0.  1.
</event>
<event>
 7    1  0.1788006E-013  0.7246162E+02  0.7816164E-02  0.1226708E+00
        -11   -1    0    0    0    0  0.00000000000E+00  0.00000000000E+00  0.45593999997E+02  0.45594000000E+02  0.51100000000E-03 0.  1.
         11   -1    0    0    0    0 -0.00000000000E+00 -0.00000000000E+00 -0.45593999997E+02  0.45594000000E+02  0.51100000000E-03 0. -1.
    9900012    2    1    2    0    0 -0.16454568494E+02  0.84621781492E+01  0.28837564401E+01  0.72461619288E+02  0.70000063823E+02 0.  0.
        -12    1    1    2    0    0  0.16454568494E+02 -0.84621781492E+01 -0.28837564401E+01  0.18726380712E+02  0.00000000000E+00 0.  1.
         11    1    3    3    0    0 -0.19548631658E+02  0.20986368745E+02 -0.10281999944E+02  0.30467953589E+02  0.51100000000E-03 0. -1.
        -11    1    3    3    0    0  0.54993663484E+01  0.12863209372E+02  0.19109815246E+01  0.14119385122E+02  0.51100000000E-03 0.  1.
        -12    1    3    3    0    0 -0.24053031845E+01 -0.25387399967E+02  0.11254774860E+02  0.27874280577E+02  0.00000000000E+00 0.  1.
</event>
<event>
 7    1  0.1788006E-013  0.7246150E+02  0.7816164E-02  0.1226708E+00
        -11   -1    0    0    0    0  0.00000000000E+00  0.00000000000E+00  0.45593999997E+02  0.45594000000E+02  0.51100000000E-03 0. -1.
         11   -1    0    0    0    0 -0.00000000000E+00 -0.00000000000E+00 -0.45593999997E+02  0.45594000000E+02  0.51100000000E-03 0.  1.
    9900012    2    1    2    0    0 -0.45785423077E+01 -0.16523341552E+02 -0.75297911792E+01  0.72461504842E+02  0.69999914736E+02 0.  0.
        -12    1    1    2    0    0  0.45785423077E+01  0.16523341552E+02  0.75297911792E+01  0.18726495158E+02  0.00000000000E+00 0.  1.
         11    1    3    3    0    0  0.55634500665E+01 -0.80601500051E+01 -0.72843447632E+01  0.12205722987E+02  0.51100000000E-03 0. -1.
        -11    1    3    3    0    0 -0.34057936256E+02  0.64399172323E+00 -0.43387181896E+01  0.34339222810E+02  0.51100000000E-03 0.  1.
         12    1    3    3    0    0  0.23915943882E+02 -0.91071832705E+01  0.40932717736E+01  0.25916559045E+02  0.00000000000E+00 0. -1.
</event>
<event>
 7    1  0.1788006E-013  0.7246155E+02  0.7816164E-02  0.1226708E+00
        -11   -1    0    0    0    0  0.00000000000E+00  0.00000000000E+00  0.45593999997E+02  0.45594000000E+02  0.51100000000E-03 0.  1.
         11   -1    0    0    0    0 -0.00000000000E+00 -0.00000000000E+00 -0.45593999997E+02  0.45594000000E+02  0.51100000000E-03 0. -1.
    9900012    2    1    2    0    0 -0.11124777755E+02 -0.94453886841E+01 -0.11734733712E+02  0.72461547512E+02  0.69999970322E+02 0.  0.
        -12    1    1    2    0    0  0.11124777755E+02  0.94453886841E+01  0.11734733712E+02  0.18726452488E+02  0.00000000000E+00 0.  1.
         11    1    3    3    0    0 -0.19681380975E+02 -0.35772021815E+01 -0.25934559110E+02  0.32752930999E+02  0.51100000000E-03 0. -1.
        -11    1    3    3    0    0 -0.13799306214E+02 -0.50529217804E+01  0.50470247089E+01  0.15537867588E+02  0.51100000000E-03 0.  1.
        -12    1    3    3    0    0  0.22355909433E+02 -0.81526472219E+00  0.91528006891E+01  0.24170748925E+02  0.00000000000E+00 0.  1.
</event>
<event>
 7    1  0.1788006E-013  0.7246158E+02  0.7816164E-02  0.1226708E+00
        -11   -1    0    0    0    0  0.00000000000E+00  0.00000000000E+00  0.45593999997E+02  0.45594000000E+02  0.51100000000E-03 0.  1.
         11   -1    0    0    0    0 -0.00000000000E+00 -0.00000000000E+00 -0.45593999997E+02  0.45594000000E+02  0.51100000000E-03 0. -1.
    9900012    2    1    2    0    0  0.18257488153E+02 -0.40847213750E+01  0.81122783448E+00  0.72461577144E+02  0.70000008923E+02 0.  0.
        -12    1    1    2    0    0 -0.18257488153E+02  0.40847213750E+01 -0.81122783448E+00  0.18726422856E+02  0.00000000000E+00 0.  1.
         11    1    3    3    0    0  0.12262199273E+00  0.24774295974E+01 -0.31108166374E+01  0.39786774154E+01  0.51100000000E-03 0. -1.
        -11    1    3    3    0    0  0.10331888371E+02  0.32280572708E+01  0.34118306973E+02  0.35794233362E+02  0.51100000000E-03 0.  1.
         12    1    3    3    0    0  0.78029777890E+01 -0.97902082432E+01 -0.30196262501E+02  0.32688666367E+02  0.00000000000E+00 0. -1.
</event>
<event>
 7    1  0.1788006E-013  0.7246161E+02  0.7816164E-02  0.1226708E+00
        -11   -1    0    0    0    0  0.00000000000E+00  0.00000000000E+00  0.45593999997E+02  0.45594000000E+02  0.51100000000E-03 0.  1.
         11   -1    0    0    0    0 -0.00000000000E+00 -0.00000000000E+00 -0.45593999997E+02  0.45594000000E+02  0.51100000000E-03 0. -1.
    9900012    2    1    2    0    0  0.33560379262E+01  0.18088753647E+02  0.34945442015E+01  0.72461605839E+02  0.70000046304E+02 0.  0.
        -12    1    1    2    0    0 -0.33560379262E+01 -0.18088753647E+02 -0.34945442015E+01  0.18726394161E+02  0.00000000000E+00 0.  1.
         11    1    3    3    0    0  0.13341718937E+02 -0.11370406942E+02 -0.18513139694E+02  0.25495567454E+02  0.51100000000E-03 0. -1.
        -11    1    3    3    0    0 -0.10916032910E+02  0.78683597479E+01 -0.31304208521E+01  0.13815585206E+02  0.51100000000E-03 0.  1.
        -12    1    3    3    0    0  0.93035189934E+00  0.21590800842E+02  0.25138104747E+02  0.33150453179E+02  0.00000000000E+00 0.  1.
</event>
<event>
 7    1  0.1788006E-013  0.7246162E+02  0.7816164E-02  0.1226708E+00
        -11   -1    0    0    0    0  0.00000000000E+00  0.00000000000E+00  0.45593999997E+02  0.45594000000E+02  0.51100000000E-03 0. -1.
         11   -1    0    0    0    0 -0.00000000000E+00 -0.00000000000E+00 -0.45593999997E+02  0.45594000000E+02  0.51100000000E-03 0.  1.
    9900012    2    1    2    0    0  0.57083374302E+01  0.13111878953E+02  0.12090118476E+02  0.72461616189E+02  0.70000059786E+02 0.  0.
        -12    1    1    2    0    0 -0.57083374302E+01 -0.13111878953E+02 -0.12090118476E+02  0.18726383811E+02  0.00000000000E+00 0.  1.
         11    1    3    3    0    0  0.27381956979E+01 -0.15717279761E+02 -0.41436589049E+01  0.16483340321E+02  0.51100000000E-03 0. -1.
        -11    1    3    3    0    0 -0.31972691181E+01 -0.65790096549E+01 -0.93426881744E+01  0.11865568694E+02  0.51100000000E-03 0.  1.
         12    1    3    3    0    0  0.61674108504E+01  0.35408168369E+02  0.25576465555E+02  0.44112707173E+02  0.00000000000E+00 0. -1.
</event>
<event>
 7    1  0.1788006E-013  0.7246153E+02  0.7816164E-02  0.1226708E+00
        -11   -1    0    0    0    0  0.00000000000E+00  0.00000000000E+00  0.45593999997E+02  0.45594000000E+02  0.51100000000E-03 0. -1.
         11   -1    0    0    0    0 -0.00000000000E+00 -0.00000000000E+00 -0.45593999997E+02  0.45594000000E+02  0.51100000000E-03 0.  1.
    9900012    2    1    2    0    0 -0.13615843340E+02  0.54983482710E+01  0.11621438527E+02  0.72461525238E+02  0.69999941306E+02 0.  0.
        -12    1    1    2    0    0  0.13615843340E+02 -0.54983482710E+01 -0.11621438527E+02  0.18726474762E+02  0.00000000000E+00 0.  1.
         11    1    3    3    0    0  0.11380301698E+02 -0.25011265766E+02 -0.27081058523E+01  0.27611746042E+02  0.51100000000E-03 0.  1.
        -11    1    3    3    0    0 -0.60913451694E+01  0.65619365725E+01 -0.33823379503E+01  0.95709825945E+01  0.51100000000E-03 0. -1.
        -12    1    3    3    0    0 -0.18904799868E+02  0.23947677464E+02  0.17711882330E+02  0.35278796601E+02  0.00000000000E+00 0.  1.
</event>
<event>
 7    1  0.1788006E-013  0.7246156E+02  0.7816164E-02  0.1226708E+00
        -11   -1    0    0    0    0  0.00000000000E+00  0.00000000000E+00  0.45593999997E+02  0.45594000000E+02  0.51100000000E-03 0. -1.
         11   -1    0    0    0    0 -0.00000000000E+00 -0.00000000000E+00 -0.45593999997E+02  0.45594000000E+02  0.51100000000E-03 0.  1.
    9900012    2    1    2    0    0  0.14425880325E+02 -0.87543355275E+01  0.81200398924E+01  0.72461562498E+02  0.69999989843E+02 0.  0.
        -12    1    1    2    0    0 -0.14425880325E+02  0.87543355275E+01 -0.81200398924E+01  0.18726437502E+02  0.00000000000E+00 0.  1.
         11    1    3    3    0    0 -0.32649118391E+01  0.13791190403E+01  0.10723917381E+02  0.11294424416E+02  0.51100000000E-03 0. -1.
        -11    1    3    3    0    0  0.38591308171E+01  0.20943378263E+02 -0.13776249399E+02  0.25363419161E+02  0.51100000000E-03 0.  1.
         12    1    3    3    0    0  0.13831661347E+02 -0.31076832831E+02  0.11172371911E+02  0.35803718921E+02  0.00000000000E+00 0. -1.
</event>
<event>
 7    1  0.1788006E-013  0.7246155E+02  0.7816164E-02  0.1226708E+00
        -11   -1    0    0    0    0  0.00000000000E+00  0.00000000000E+00  0.45593999997E+02  0.45594000000E+02  0.51100000000E-03 0.  1.
         11   -1    0    0    0    0 -0.00000000000E+00 -0.00000000000E+00 -0.45593999997E+02  0.45594000000E+02  0.51100000000E-03 0. -1.
    9900012    2    1    2    0    0  0.33242835041E-01  0.14438606186E+01 -0.18670679538E+02  0.72461545104E+02  0.69999967185E+02 0.  0.
        -12    1    1    2    0    0 -0.33242835041E-01 -0.14438606186E+01  0.18670679538E+02  0.18726454896E+02  0.00000000000E+00 0.  1.
         11    1    3    3    0    0  0.26408494915E+00  0.27268686890E+02 -0.25871768970E+02  0.37589885016E+02  0.51100000000E-03 0. -1.
        -11    1    3    3    0    0  0.25460954921E+01 -0.41601295224E+01 -0.72093777075E+01  0.87042752190E+01  0.51100000000E-03 0.  1.
        -12    1    3    3    0    0 -0.27769376062E+01 -0.21664696749E+02  0.14410467140E+02  0.26167384869E+02  0.00000000000E+00 0.  1.
</event>
<event>
 7    1  0.1788006E-013  0.7246134E+02  0.7816164E-02  0.1226709E+00
        -11   -1    0    0    0    0  0.00000000000E+00  0.00000000000E+00  0.45593999997E+02  0.45594000000E+02  0.51100000000E-03 0.  1.
         11   -1    0    0    0    0 -0.00000000000E+00 -0.00000000000E+00 -0.45593999997E+02  0.45594000000E+02  0.51100000000E-03 0. -1.
    9900012    2    1    2    0    0 -0.16923593084E+02  0.72610701729E+01 -0.33995186192E+01  0.72461337997E+02  0.69999697390E+02 0.  0.
        -12    1    1    2    0    0  0.16923593084E+02 -0.72610701729E+01  0.33995186192E+01  0.18726662003E+02  0.00000000000E+00 0.  1.
         11    1    3    3    0    0 -0.29142302863E+01 -0.56244663744E+01 -0.20195722075E+02  0.21165881757E+02  0.51100000000E-03 0. -1.
        -11    1    3    3    0    0  0.79891412131E+01  0.13149257272E+02  0.23683524087E+02  0.28242497368E+02  0.51100000000E-03 0.  1.
         12    1    3    3    0    0 -0.21998504010E+02 -0.26372072489E+00 -0.68873206305E+01  0.23052958873E+02  0.00000000000E+00 0. -1.
</event>
<event>
 7    1  0.1788006E-013  0.7246150E+02  0.7816164E-02  0.1226708E+00
        -11   -1    0    0    0    0  0.00000000000E+00  0.00000000000E+00  0.45593999997E+02  0.45594000000E+02  0.51100000000E-03 0.  1.
         11   -1    0    0    0    0 -0.00000000000E+00 -0.00000000000E+00 -0.45593999997E+02  0.45594000000E+02  0.51100000000E-03 0. -1.
    9900012    2    1    2    0    0 -0.15753629663E+02  0.26323839154E+00 -0.10121046299E+02  0.72461502191E+02  0.69999911282E+02 0.  0.
        -12    1    1    2    0    0  0.15753629663E+02 -0.26323839154E+00  0.10121046299E+02  0.18726497809E+02  0.00000000000E+00 0.  1.
         11    1    3    3    0    0 -0.14847842295E+02 -0.36594941500E+01 -0.27269077496E+01  0.15533394490E+02  0.51100000000E-03 0. -1.
        -11    1    3    3    0    0 -0.83588762559E+01 -0.14288487130E+02  0.18227288990E+02  0.24622464152E+02  0.51100000000E-03 0.  1.
         12    1    3    3    0    0  0.74530888880E+01  0.18211219671E+02 -0.25621427540E+02  0.32305643549E+02  0.00000000000E+00 0. -1.
</event>
<event>
 7    1  0.1788006E-013  0.7246156E+02  0.7816164E-02  0.1226708E+00
        -11   -1    0    0    0    0  0.00000000000E+00  0.00000000000E+00  0.45593999997E+02  0.45594000000E+02  0.51100000000E-03 0.  1.
         11   -1    0    0    0    0 -0.00000000000E+00 -0.00000000000E+00 -0.45593999997E+02  0.45594000000E+02  0.51100000000E-03 0. -1.
    9900012    2    1    2    0    0  0.10523401875E+02 -0.15109522923E+02 -0.34117184306E+01  0.72461561667E+02  0.69999988762E+02 0.  0.
        -12    1    1    2    0    0 -0.10523401875E+02  0.15109522923E+02  0.34117184306E+01  0.18726438333E+02  0.00000000000E+00 0.  1.
         11    1    3    3    0    0 -0.18652219463E+02 -0.17451909094E+02 -0.59331028222E+01  0.26223579681E+02  0.51100000000E-03 0. -1.
        -11    1    3    3    0    0  0.14474412005E+01 -0.89419216063E+01 -0.10260628581E+02  0.13686984590E+02  0.51100000000E-03 0.  1.
        -12    1    3    3    0    0  0.27728180138E+02  0.11284307778E+02  0.12782012972E+02  0.32550997395E+02  0.00000000000E+00 0.  1.
</event>
<event>
 7    1  0.1788006E-013  0.7246157E+02  0.7816164E-02  0.1226708E+00
        -11   -1    0    0    0    0  0.00000000000E+00  0.00000000000E+00  0.45593999997E+02  0.45594000000E+02  0.51100000000E-03 0.  1.
         11   -1    0    0    0    0 -0.00000000000E+00 -0.00000000000E+00 -0.45593999997E+02  0.45594000000E+02  0.51100000000E-03 0. -1.
    9900012    2    1    2    0    0  0.56099770006E+01 -0.17546457898E+02 -0.33658838415E+01  0.72461569460E+02  0.69999998913E+02 0.  0.
        -12    1    1    2    0    0 -0.56099770006E+01  0.17546457898E+02  0.33658838415E+01  0.18726430540E+02  0.00000000000E+00 0.  1.
         11    1    3    3    0    0 -0.18179791248E+02 -0.91782499555E+01  0.15686647501E+02  0.25706341478E+02  0.51100000000E-03 0. -1.
        -11    1    3    3    0    0 -0.10103292457E+01 -0.66001938396E+01  0.77276975535E+01  0.10212768168E+02  0.51100000000E-03 0.  1.
         12    1    3    3    0    0  0.24800097494E+02 -0.17680141032E+01 -0.26780228896E+02  0.36542459815E+02  0.00000000000E+00 0. -1.
</event>
<event>
 7    1  0.1788006E-013  0.7246159E+02  0.7816164E-02  0.1226708E+00
        -11   -1    0    0    0    0  0.00000000000E+00  0.00000000000E+00  0.45593999997E+02  0.45594000000E+02  0.51100000000E-03 0.  1.
         11   -1    0    0    0    0 -0.00000000000E+00 -0.00000000000E+00 -0.45593999997E+02  0.45594000000E+02  0.51100000000E-03 0. -1.
    9900012    2    1    2    0    0 -0.12461010213E+02 -0.27461022939E+01 -0.13706229544E+02  0.72461585991E+02  0.70000020447E+02 0.  0.
        -12    1    1    2    0    0  0.12461010213E+02  0.27461022939E+01  0.13706229544E+02  0.18726414009E+02  0.00000000000E+00 0.  1.
         11    1    3    3    0    0 -0.19610875011E+02  0.92492487334E+01  0.58612927237E+01  0.22460849795E+02  0.51100000000E-03 0. -1.
        -11    1    3    3    0    0 -0.47262187431E+01 -0.12726340541E+02  0.10824346387E+02  0.17362700313E+02  0.51100000000E-03 0.  1.
        -12    1    3    3    0    0  0.11876083542E+02  0.73098951353E+00 -0.30391868655E+02  0.32638035884E+02  0.00000000000E+00 0.  1.
</event>
<event>
 7    1  0.1788006E-013  0.7246136E+02  0.7816164E-02  0.1226709E+00
        -11   -1    0    0    0    0  0.00000000000E+00  0.00000000000E+00  0.45593999997E+02  0.45594000000E+02  0.51100000000E-03 0.  1.
         11   -1    0    0    0    0 -0.00000000000E+00 -0.00000000000E+00 -0.45593999997E+02  0.45594000000E+02  0.51100000000E-03 0. -1.
    9900012    2    1    2    0    0 -0.10347344412E+02  0.49639438690E-01 -0.15608231129E+02  0.72461364439E+02  0.69999731835E+02 0.  0.
        -12    1    1    2    0    0  0.10347344412E+02 -0.49639438690E-01  0.15608231129E+02  0.18726635561E+02  0.00000000000E+00 0.  1.
         11    1    3    3    0    0 -0.10611824454E+02  0.69601393829E+01  0.33130841939E+01  0.13116054499E+02  0.51100000000E-03 0. -1.
        -11    1    3    3    0    0 -0.14334816022E+01  0.18421589621E+02 -0.26986648959E+02  0.32706101204E+02  0.51100000000E-03 0.  1.
        -12    1    3    3    0    0  0.16979616440E+01 -0.25332089565E+02  0.80653336362E+01  0.26639208737E+02  0.00000000000E+00 0.  1.
</event>
<event>
 7    1  0.1788006E-013  0.7246158E+02  0.7816164E-02  0.1226708E+00
        -11   -1    0    0    0    0  0.00000000000E+00  0.00000000000E+00  0.45593999997E+02  0.45594000000E+02  0.51100000000E-03 0. -1.
         11   -1    0    0    0    0 -0.00000000000E+00 -0.00000000000E+00 -0.45593999997E+02  0.45594000000E+02  0.51100000000E-03 0.  1.
    9900012    2    1    2    0    0 -0.22582839793E+01  0.17162566959E+02  0.71431858786E+01  0.72461584015E+02  0.70000017874E+02 0.  0.
        -12    1    1    2    0    0  0.22582839793E+01 -0.17162566959E+02 -0.71431858786E+01  0.18726415985E+02  0.00000000000E+00 0.  1.
         11    1    3    3    0    0  0.12865762694E+02  0.19749085389E+02  0.10426281706E+02  0.25773272471E+02  0.51100000000E-03 0. -1.
        -11    1    3    3    0    0 -0.18371000269E+02  0.81162933938E+01  0.15129482236E+02  0.25144961768E+02  0.51100000000E-03 0.  1.
         12    1    3    3    0    0  0.32469535954E+01 -0.10702811824E+02 -0.18412578064E+02  0.21543349775E+02  0.00000000000E+00 0. -1.
</event>
<event>
 7    1  0.1788006E-013  0.7246155E+02  0.7816164E-02  0.1226708E+00
        -11   -1    0    0    0    0  0.00000000000E+00  0.00000000000E+00  0.45593999997E+02  0.45594000000E+02  0.51100000000E-03 0.  1.
         11   -1    0    0    0    0 -0.00000000000E+00 -0.00000000000E+00 -0.45593999997E+02  0.45594000000E+02  0.51100000000E-03 0. -1.
    9900012    2    1    2    0    0  0.15509208831E+02  0.99399592769E+01 -0.33677226427E+01  0.72461550663E+02  0.69999974426E+02 0.  0.
        -12    1    1    2    0    0 -0.15509208831E+02 -0.99399592769E+01  0.33677226427E+01  0.18726449337E+02  0.00000000000E+00 0.  1.
         11    1    3    3    0    0 -0.63192385305E+01  0.23659620280E+01 -0.19211236926E+02  0.20361782250E+02  0.51100000000E-03 0. -1.
        -11    1    3    3    0    0  0.42858573027E+01  0.10625401161E+02 -0.13543227287E+02  0.17739411722E+02  0.51100000000E-03 0.  1.
        -12    1    3    3    0    0  0.17542590058E+02 -0.30514039120E+01  0.29386741570E+02  0.34360356690E+02  0.00000000000E+00 0.  1.
</event>
<event>
 7    1  0.1788006E-013  0.7246166E+02  0.7816164E-02  0.1226708E+00
        -11   -1    0    0    0    0  0.00000000000E+00  0.00000000000E+00  0.45593999997E+02  0.45594000000E+02  0.51100000000E-03 0.  1.
         11   -1    0    0    0    0 -0.00000000000E+00 -0.00000000000E+00 -0.45593999997E+02  0.45594000000E+02  0.51100000000E-03 0. -1.
    9900012    2    1    2    0    0  0.80251730997E+01  0.15870348724E+01 -0.16844991543E+02  0.72461659646E+02  0.70000116397E+02 0.  0.
        -12    1    1    2    0    0 -0.80251730997E+01 -0.15870348724E+01  0.16844991543E+02  0.18726340354E+02  0.00000000000E+00 0.  1.
         11    1    3    3    0    0  0.19371691881E+02  0.45778054208E+00  0.12621623207E+02  0.23125254204E+02  0.51100000000E-03 0.  1.
        -11    1    3    3    0    0 -0.15763144214E+02 -0.70696494979E+01  0.11701437622E+01  0.17315481403E+02  0.51100000000E-03 0. -1.
         12    1    3    3    0    0  0.44166254324E+01  0.81989038282E+01 -0.30636758512E+02  0.32020924040E+02  0.00000000000E+00 0. -1.
</event>
<event>
 7    1  0.1788006E-013  0.7246154E+02  0.7816164E-02  0.1226708E+00
        -11   -1    0    0    0    0  0.00000000000E+00  0.00000000000E+00  0.45593999997E+02  0.45594000000E+02  0.51100000000E-03 0.  1.
         11   -1    0    0    0    0 -0.00000000000E+00 -0.00000000000E+00 -0.45593999997E+02  0.45594000000E+02  0.51100000000E-03 0. -1.
    9900012    2    1    2    0    0  0.12258634784E+01 -0.15276744657E+02  0.10760972047E+02  0.72461543101E+02  0.69999964576E+02 0.  0.
        -12    1    1    2    0    0 -0.12258634784E+01  0.15276744657E+02 -0.10760972047E+02  0.18726456899E+02  0.00000000000E+00 0.  1.
         11    1    3    3    0    0 -0.70599905084E+01 -0.65788930134E+01  0.36913247968E+02  0.38153809444E+02  0.51100000000E-03 0. -1.
        -11    1    3    3    0    0 -0.39239739228E+01  0.93184598714E+00 -0.18121497688E+00  0.40371707197E+01  0.51100000000E-03 0.  1.
        -12    1    3    3    0    0  0.12209827910E+02 -0.96296976307E+01 -0.25971060944E+02  0.30270562938E+02  0.00000000000E+00 0.  1.
</event>
<event>
 7    1  0.1788006E-013  0.7246162E+02  0.7816164E-02  0.1226708E+00
        -11   -1    0    0    0    0  0.00000000000E+00  0.00000000000E+00  0.45593999997E+02  0.45594000000E+02  0.51100000000E-03 0.  1.
         11   -1    0    0    0    0 -0.00000000000E+00 -0.00000000000E+00 -0.45593999997E+02  0.45594000000E+02  0.51100000000E-03 0. -1.
    9900012    2    1    2    0    0  0.13831597311E+02 -0.12351250021E+02 -0.26097647678E+01  0.72461619319E+02  0.70000063864E+02 0.  0.
        -12    1    1    2    0    0 -0.13831597311E+02  0.12351250021E+02  0.26097647678E+01  0.18726380681E+02  0.00000000000E+00 0.  1.
         11    1    3    3    0    0  0.14865629213E+02 -0.89780442438E+01 -0.27930884263E+01  0.17589586509E+02  0.51100000000E-03 0. -1.
        -11    1    3    3    0    0 -0.48394386716E+01 -0.26480045178E+02  0.10996377852E+02  0.29078055049E+02  0.51100000000E-03 0.  1.
         12    1    3    3    0    0  0.38054067695E+01  0.23106839401E+02 -0.10813054194E+02  0.25793977761E+02  0.00000000000E+00 0. -1.
</event>
<event>
 7    1  0.1788006E-013  0.7246154E+02  0.7816164E-02  0.1226708E+00
        -11   -1    0    0    0    0  0.00000000000E+00  0.00000000000E+00  0.45593999997E+02  0.45594000000E+02  0.51100000000E-03 0.  1.
         11   -1    0    0    0    0 -0.00000000000E+00 -0.00000000000E+00 -0.45593999997E+02  0.45594000000E+02  0.51100000000E-03 0. -1.
    9900012    2    1    2    0    0  0.81199459648E+01 -0.11696881626E+02 -0.12162630071E+02  0.72461544583E+02  0.69999966506E+02 0.  0.
        -12    1    1    2    0    0 -0.81199459648E+01  0.11696881626E+02  0.12162630071E+02  0.18726455417E+02  0.00000000000E+00 0.  1.
         11    1    3    3    0    0  0.19929419054E+02 -0.50725020580E+01 -0.24167387286E+02  0.31732863556E+02  0.51100000000E-03 0. -1.
        -11    1    3    3    0    0 -0.11223951853E+02 -0.91405756986E+01 -0.10622439652E+02  0.17954482552E+02  0.51100000000E-03 0.  1.
        -12    1    3    3    0    0 -0.58552123634E+00  0.25161961304E+01  0.22627196867E+02  0.22774198475E+02  0.00000000000E+00 0.  1.
</event>
<event>
 7    1  0.1788006E-013  0.7246130E+02  0.7816164E-02  0.1226709E+00
        -11   -1    0    0    0    0  0.00000000000E+00  0.00000000000E+00  0.45593999997E+02  0.45594000000E+02  0.51100000000E-03 0.  1.
         11   -1    0    0    0    0 -0.00000000000E+00 -0.00000000000E+00 -0.45593999997E+02  0.45594000000E+02  0.51100000000E-03 0. -1.
    9900012    2    1    2    0    0  0.43206142294E+01  0.10765130024E+02 -0.14701477807E+02  0.72461302975E+02  0.69999651766E+02 0.  0.
        -12    1    1    2    0    0 -0.43206142294E+01 -0.10765130024E+02  0.14701477807E+02  0.18726697025E+02  0.00000000000E+00 0.  1.
         11    1    3    3    0    0  0.20865950212E+01  0.10169899616E+02 -0.90183426611E+00  0.10420846525E+02  0.51100000000E-03 0. -1.
        -11    1    3    3    0    0 -0.14560874524E+02  0.11521037983E+02  0.17081095600E+02  0.25229292702E+02  0.51100000000E-03 0.  1.
         12    1    3    3    0    0  0.16794893732E+02 -0.10925807574E+02 -0.30880739141E+02  0.36811163748E+02  0.00000000000E+00 0. -1.
</event>
<event>
 7    1  0.1788006E-013  0.7246154E+02  0.7816164E-02  0.1226708E+00
        -11   -1    0    0    0    0  0.00000000000E+00  0.00000000000E+00  0.45593999997E+02  0.45594000000E+02  0.51100000000E-03 0.  1.
         11   -1    0    0    0    0 -0.00000000000E+00 -0.00000000000E+00 -0.45593999997E+02  0.45594000000E+02  0.51100000000E-03 0. -1.
    9900012    2    1    2    0    0  0.39703676588E+01 -0.11295034029E+02 -0.14399254548E+02  0.72461544260E+02  0.69999966085E+02 0.  0.
        -12    1    1    2    0    0 -0.39703676588E+01  0.11295034029E+02  0.14399254548E+02  0.18726455740E+02  0.00000000000E+00 0.  1.
         11    1    3    3    0    0 -0.22212435602E+02 -0.22347908901E+02 -0.11811900834E+02  0.33650294637E+02  0.51100000000E-03 0. -1.
        -11    1    3    3    0    0  0.34328364095E+01  0.35788001312E+01 -0.12075235270E+02  0.13053868518E+02  0.51100000000E-03 0.  1.
        -12    1    3    3    0    0  0.22749966851E+02  0.74740747404E+01  0.94878815559E+01  0.25757381105E+02  0.00000000000E+00 0.  1.
</event>
<event>
 7    1  0.1788006E-013  0.7246159E+02  0.7816164E-02  0.1226708E+00
        -11   -1    0    0    0    0  0.00000000000E+00  0.00000000000E+00  0.45593999997E+02  0.45594000000E+02  0.51100000000E-03 0. -1.
         11   -1    0    0    0    0 -0.00000000000E+00 -0.00000000000E+00 -0.45593999997E+02  0.45594000000E+02  0.51100000000E-03 0.  1.
    9900012    2    1    2    0    0 -0.14800355451E+02  0.91521735650E+01  0.69185103880E+01  0.72461585810E+02  0.70000020212E+02 0.  0.
        -12    1    1    2    0    0  0.14800355451E+02 -0.91521735650E+01 -0.69185103880E+01  0.18726414190E+02  0.00000000000E+00 0.  1.
         11    1    3    3    0    0 -0.13127940353E+02 -0.12482574568E+01  0.30733433499E+02  0.33443159233E+02  0.51100000000E-03 0. -1.
        -11    1    3    3    0    0 -0.35139582401E+01  0.20978250441E+00  0.62757655704E+01  0.71956337434E+01  0.51100000000E-03 0.  1.
        -12    1    3    3    0    0  0.18415431418E+01  0.10190648517E+02 -0.30090688682E+02  0.31822792833E+02  0.00000000000E+00 0.  1.
</event>
<event>
 7    1  0.1788006E-013  0.7246166E+02  0.7816164E-02  0.1226708E+00
        -11   -1    0    0    0    0  0.00000000000E+00  0.00000000000E+00  0.45593999997E+02  0.45594000000E+02  0.51100000000E-03 0.  1.
         11   -1    0    0    0    0 -0.00000000000E+00 -0.00000000000E+00 -0.45593999997E+02  0.45594000000E+02  0.51100000000E-03 0. -1.
    9900012    2    1    2    0    0 -0.11777801673E+02  0.66794130091E+01 -0.12936180506E+02  0.72461656618E+02  0.70000112452E+02 0.  0.
        -12    1    1    2    0    0  0.11777801673E+02 -0.66794130091E+01  0.12936180506E+02  0.18726343382E+02  0.00000000000E+00 0.  1.
         11    1    3    3    0    0 -0.11329287875E+02  0.13538266353E+01  0.19056894550E+02  0.22211502436E+02  0.51100000000E-03 0. -1.
        -11    1    3    3    0    0  0.17449700660E+01 -0.31723195412E+01  0.82773070280E+01  0.90345084924E+01  0.51100000000E-03 0.  1.
         12    1    3    3    0    0 -0.21934838640E+01  0.84979059150E+01 -0.40270382084E+02  0.41215645689E+02  0.00000000000E+00 0. -1.
</event>
<event>
 7    1  0.1788006E-013  0.7246179E+02  0.7816164E-02  0.1226707E+00
        -11   -1    0    0    0    0  0.00000000000E+00  0.00000000000E+00  0.45593999997E+02  0.45594000000E+02  0.51100000000E-03 0. -1.
         11   -1    0    0    0    0 -0.00000000000E+00 -0.00000000000E+00 -0.45593999997E+02  0.45594000000E+02  0.51100000000E-03 0.  1.
    9900012    2    1    2    0    0 -0.37093797918E+01  0.70719044239E+01  0.16938112508E+02  0.72461788799E+02  0.70000284642E+02 0.  0.
        -12    1    1    2    0    0  0.37093797918E+01 -0.70719044239E+01 -0.16938112508E+02  0.18726211201E+02  0.00000000000E+00 0.  1.
         11    1    3    3    0    0 -0.17086783391E+02 -0.11626511348E+02  0.27840773452E+01  0.20853896991E+02  0.51100000000E-03 0. -1.
        -11    1    3    3    0    0 -0.69900308794E+01  0.59572899532E+01 -0.12637569969E+02  0.15622356105E+02  0.51100000000E-03 0.  1.
        -12    1    3    3    0    0  0.20367434478E+02  0.12741125819E+02  0.26791605131E+02  0.35985535704E+02  0.00000000000E+00 0.  1.
</event>
<event>
 7    1  0.1788006E-013  0.7246152E+02  0.7816164E-02  0.1226708E+00
        -11   -1    0    0    0    0  0.00000000000E+00  0.00000000000E+00  0.45593999997E+02  0.45594000000E+02  0.51100000000E-03 0. -1.
         11   -1    0    0    0    0 -0.00000000000E+00 -0.00000000000E+00 -0.45593999997E+02  0.45594000000E+02  0.51100000000E-03 0.  1.
    9900012    2    1    2    0    0 -0.12622624600E+02 -0.13377342617E+02  0.35209377470E+01  0.72461522758E+02  0.69999938075E+02 0.  0.
        -12    1    1    2    0    0  0.12622624600E+02  0.13377342617E+02 -0.35209377470E+01  0.18726477242E+02  0.00000000000E+00 0.  1.
         11    1    3    3    0    0 -0.13145874181E+02  0.49228215516E+01 -0.11742407430E+02  0.18301156044E+02  0.51100000000E-03 0. -1.
        -11    1    3    3    0    0 -0.28779798158E+01 -0.24048777627E+02  0.29658119225E+02  0.38291389495E+02  0.51100000000E-03 0.  1.
         12    1    3    3    0    0  0.34012293965E+01  0.57486134591E+01 -0.14394774048E+02  0.15868977220E+02  0.00000000000E+00 0. -1.
</event>
<event>
 7    1  0.1788006E-013  0.7246159E+02  0.7816164E-02  0.1226708E+00
        -11   -1    0    0    0    0  0.00000000000E+00  0.00000000000E+00  0.45593999997E+02  0.45594000000E+02  0.51100000000E-03 0.  1.
         11   -1    0    0    0    0 -0.00000000000E+00 -0.00000000000E+00 -0.45593999997E+02  0.45594000000E+02  0.51100000000E-03 0. -1.
    9900012    2    1    2    0    0 -0.96450184783E+01 -0.61022848742E+01 -0.14846357326E+02  0.72461585821E+02  0.70000020227E+02 0.  0.
        -12    1    1    2    0    0  0.96450184783E+01  0.61022848742E+01  0.14846357326E+02  0.18726414179E+02  0.00000000000E+00 0.  1.
         11    1    3    3    0    0  0.21709276988E+01 -0.20760683096E+02  0.13059369985E+02  0.24622470110E+02  0.51100000000E-03 0. -1.
        -11    1    3    3    0    0 -0.12143630405E+02 -0.99579933128E+00  0.35592593013E+01  0.12693608737E+02  0.51100000000E-03 0.  1.
         12    1    3    3    0    0  0.32768422804E+00  0.15654197553E+02 -0.31464986612E+02  0.35145506974E+02  0.00000000000E+00 0. -1.
</event>
<event>
 7    1  0.1788006E-013  0.7246170E+02  0.7816164E-02  0.1226708E+00
        -11   -1    0    0    0    0  0.00000000000E+00  0.00000000000E+00  0.45593999997E+02  0.45594000000E+02  0.51100000000E-03 0.  1.
         11   -1    0    0    0    0 -0.00000000000E+00 -0.00000000000E+00 -0.45593999997E+02  0.45594000000E+02  0.51100000000E-03 0. -1.
    9900012    2    1    2    0    0 -0.93624338499E+00  0.17091572933E+02  0.75944589319E+01  0.72461702356E+02  0.70000172034E+02 0.  0.
        -12    1    1    2    0    0  0.93624338499E+00 -0.17091572933E+02 -0.75944589319E+01  0.18726297644E+02  0.00000000000E+00 0.  1.
         11    1    3    3    0    0  0.18735966770E+02  0.98865749572E+01  0.38174623030E+01  0.21525655249E+02  0.51100000000E-03 0.  1.
        -11    1    3    3    0    0 -0.15782128383E+02  0.84758302385E+01  0.24198879590E+02  0.30108155842E+02  0.51100000000E-03 0. -1.
         12    1    3    3    0    0 -0.38900817728E+01 -0.12708322626E+01 -0.20421882961E+02  0.20827891265E+02  0.00000000000E+00 0. -1.
</event>
<event>
 7    1  0.1788006E-013  0.7246158E+02  0.7816164E-02  0.1226708E+00
        -11   -1    0    0    0    0  0.00000000000E+00  0.00000000000E+00  0.45593999997E+02  0.45594000000E+02  0.51100000000E-03 0. -1.
         11   -1    0    0    0    0 -0.00000000000E+00 -0.00000000000E+00 -0.45593999997E+02  0.45594000000E+02  0.51100000000E-03 0.  1.
    9900012    2    1    2    0    0 -0.25681167263E+01 -0.14611802962E+02  0.11427106537E+02  0.72461580878E+02  0.70000013787E+02 0.  0.
        -12    1    1    2    0    0  0.25681167263E+01  0.14611802962E+02 -0.11427106537E+02  0.18726419122E+02  0.00000000000E+00 0.  1.
         11    1    3    3    0    0 -0.22676223465E+02 -0.35578252631E+01  0.37179720728E+01  0.23252796559E+02  0.51100000000E-03 0. -1.
        -11    1    3    3    0    0  0.74326633005E+01 -0.23250124037E+02 -0.79367502150E+01  0.25667192205E+02  0.51100000000E-03 0.  1.
         12    1    3    3    0    0  0.12675443438E+02  0.12196146338E+02  0.15645884679E+02  0.23541592113E+02  0.00000000000E+00 0. -1.
</event>
<event>
 7    1  0.1788006E-013  0.7246156E+02  0.7816164E-02  0.1226708E+00
        -11   -1    0    0    0    0  0.00000000000E+00  0.00000000000E+00  0.45593999997E+02  0.45594000000E+02  0.51100000000E-03 0.  1.
         11   -1    0    0    0    0 -0.00000000000E+00 -0.00000000000E+00 -0.45593999997E+02  0.45594000000E+02  0.51100000000E-03 0. -1.
    9900012    2    1    2    0    0  0.17506630315E+02 -0.14244729844E+01  0.64937085253E+01  0.72461562039E+02  0.69999989246E+02 0.  0.
        -12    1    1    2    0    0 -0.17506630315E+02  0.14244729844E+01 -0.64937085253E+01  0.18726437961E+02  0.00000000000E+00 0.  1.
         11    1    3    3    0    0  0.76255040725E+01  0.20044052018E+01 -0.17000270863E+02  0.18739668147E+02  0.51100000000E-03 0. -1.
        -11    1    3    3    0    0  0.75747771652E+01 -0.10423949853E+02 -0.11917987870E+02  0.17552048734E+02  0.51100000000E-03 0.  1.
        -12    1    3    3    0    0  0.23063490775E+01  0.69950716669E+01  0.35411967258E+02  0.36169845158E+02  0.00000000000E+00 0.  1.
</event>
<event>
 7    1  0.1788006E-013  0.7246212E+02  0.7816164E-02  0.1226707E+00
        -11   -1    0    0    0    0  0.00000000000E+00  0.00000000000E+00  0.45593999997E+02  0.45594000000E+02  0.51100000000E-03 0. -1.
         11   -1    0    0    0    0 -0.00000000000E+00 -0.00000000000E+00 -0.45593999997E+02  0.45594000000E+02  0.51100000000E-03 0.  1.
    9900012    2    1    2    0    0 -0.11897198558E+02  0.19010490054E+01  0.14335311595E+02  0.72462122734E+02  0.70000719652E+02 0.  0.
        -12    1    1    2    0    0  0.11897198558E+02 -0.19010490054E+01 -0.14335311595E+02  0.18725877266E+02  0.00000000000E+00 0.  1.
         11    1    3    3    0    0  0.69966380079E+00 -0.14999507558E+02  0.10256722434E+02  0.18184474470E+02  0.51100000000E-03 0. -1.
        -11    1    3    3    0    0 -0.43395029260E+00 -0.13807944327E+02  0.14121457942E+02  0.19755080715E+02  0.51100000000E-03 0.  1.
        -12    1    3    3    0    0 -0.12162912066E+02  0.30708500890E+02 -0.10042868782E+02  0.34522567549E+02  0.00000000000E+00 0.  1.
</event>
<event>
 7    1  0.1788006E-013  0.7246162E+02  0.7816164E-02  0.1226708E+00
        -11   -1    0    0    0    0  0.00000000000E+00  0.00000000000E+00  0.45593999997E+02  0.45594000000E+02  0.51100000000E-03 0. -1.
         11   -1    0    0    0    0 -0.00000000000E+00 -0.00000000000E+00 -0.45593999997E+02  0.45594000000E+02  0.51100000000E-03 0.  1.
    9900012    2    1    2    0    0 -0.15657084846E+02  0.52064219807E+01  0.88558550964E+01  0.72461620072E+02  0.70000064844E+02 0.  0.
        -12    1    1    2    0    0  0.15657084846E+02 -0.52064219807E+01 -0.88558550964E+01  0.18726379928E+02  0.00000000000E+00 0.  1.
         11    1    3    3    0    0 -0.80108264327E+01  0.95815478175E+01  0.83107206416E+01  0.15001582468E+02  0.51100000000E-03 0. -1.
        -11    1    3    3    0    0 -0.77624279918E+01  0.25957131211E+02 -0.70031622902E+00  0.27101999781E+02  0.51100000000E-03 0.  1.
         12    1    3    3    0    0  0.11616957802E+00 -0.30332257048E+02  0.12454506839E+01  0.30358037822E+02  0.00000000000E+00 0. -1.
</event>
<event>
 7    1  0.1788006E-013  0.7246158E+02  0.7816164E-02  0.1226708E+00
        -11   -1    0    0    0    0  0.00000000000E+00  0.00000000000E+00  0.45593999997E+02  0.45594000000E+02  0.51100000000E-03 0. -1.
         11   -1    0    0    0    0 -0.00000000000E+00 -0.00000000000E+00 -0.45593999997E+02  0.45594000000E+02  0.51100000000E-03 0.  1.
    9900012    2    1    2    0    0  0.35882267661E+01 -0.46913982926E+01  0.17770601742E+02  0.72461578144E+02  0.70000010225E+02 0.  0.
        -12    1    1    2    0    0 -0.35882267661E+01  0.46913982926E+01 -0.17770601742E+02  0.18726421856E+02  0.00000000000E+00 0.  1.
         11    1    3    3    0    0 -0.23519577843E+01  0.14189412226E+02  0.19423209663E+02  0.24168827001E+02  0.51100000000E-03 0. -1.
        -11    1    3    3    0    0  0.22023802936E+02 -0.52359123379E+00  0.57874833776E+01  0.22777554910E+02  0.51100000000E-03 0.  1.
        -12    1    3    3    0    0 -0.16083618386E+02 -0.18357219285E+02 -0.74400912990E+01  0.25515196233E+02  0.00000000000E+00 0.  1.
</event>
<event>
 7    1  0.1788006E-013  0.7246163E+02  0.7816164E-02  0.1226708E+00
        -11   -1    0    0    0    0  0.00000000000E+00  0.00000000000E+00  0.45593999997E+02  0.45594000000E+02  0.51100000000E-03 0. -1.
         11   -1    0    0    0    0 -0.00000000000E+00 -0.00000000000E+00 -0.45593999997E+02  0.45594000000E+02  0.51100000000E-03 0.  1.
    9900012    2    1    2    0    0  0.14722942833E+02  0.82818227616E+01  0.80822881800E+01  0.72461627790E+02  0.70000074899E+02 0.  0.
        -12    1    1    2    0    0 -0.14722942833E+02 -0.82818227616E+01 -0.80822881800E+01  0.18726372210E+02  0.00000000000E+00 0.  1.
         11    1    3    3    0    0  0.47654495417E+01  0.18549532228E+02  0.24985242233E+02  0.31481057557E+02  0.51100000000E-03 0. -1.
        -11    1    3    3    0    0  0.21111442201E+02  0.14391521407E+01 -0.97943160989E+01  0.23317220649E+02  0.51100000000E-03 0.  1.
        -12    1    3    3    0    0 -0.11153948910E+02 -0.11706861607E+02 -0.71086379543E+01  0.17663349584E+02  0.00000000000E+00 0.  1.
</event>
<event>
 7    1  0.1788006E-013  0.7246152E+02  0.7816164E-02  0.1226708E+00
        -11   -1    0    0    0    0  0.00000000000E+00  0.00000000000E+00  0.45593999997E+02  0.45594000000E+02  0.51100000000E-03 0. -1.
         11   -1    0    0    0    0 -0.00000000000E+00 -0.00000000000E+00 -0.45593999997E+02  0.45594000000E+02  0.51100000000E-03 0.  1.
    9900012    2    1    2    0    0  0.54643090668E+01  0.93153307479E+01  0.15298591400E+02  0.72461522505E+02  0.69999937746E+02 0.  0.
        -12    1    1    2    0    0 -0.54643090668E+01 -0.93153307479E+01 -0.15298591400E+02  0.18726477495E+02  0.00000000000E+00 0.  1.
         11    1    3    3    0    0 -0.62234621226E+01 -0.39766128226E+01  0.17677050579E+02  0.19157845593E+02  0.51100000000E-03 0. -1.
        -11    1    3    3    0    0  0.55538391309E+01  0.25137816265E+02  0.16211214099E+02  0.30422991281E+02  0.51100000000E-03 0.  1.
        -12    1    3    3    0    0  0.61339320585E+01 -0.11845872694E+02 -0.18589673278E+02  0.22880685631E+02  0.00000000000E+00 0.  1.
</event>
<event>
 7    1  0.1788006E-013  0.7246159E+02  0.7816164E-02  0.1226708E+00
        -11   -1    0    0    0    0  0.00000000000E+00  0.00000000000E+00  0.45593999997E+02  0.45594000000E+02  0.51100000000E-03 0.  1.
         11   -1    0    0    0    0 -0.00000000000E+00 -0.00000000000E+00 -0.45593999997E+02  0.45594000000E+02  0.51100000000E-03 0. -1.
    9900012    2    1    2    0    0  0.16076872510E+02  0.65493032634E+01 -0.70227698605E+01  0.72461588186E+02  0.70000023307E+02 0.  0.
        -12    1    1    2    0    0 -0.16076872510E+02 -0.65493032634E+01  0.70227698605E+01  0.18726411814E+02  0.00000000000E+00 0.  1.
         11    1    3    3    0    0  0.21894058729E+02 -0.17544335264E+02 -0.99380207044E+01  0.29764370702E+02  0.51100000000E-03 0. -1.
        -11    1    3    3    0    0 -0.46048380450E+00  0.23840875303E+01 -0.14282837950E+02  0.14487766524E+02  0.51100000000E-03 0.  1.
        -12    1    3    3    0    0 -0.53567024154E+01  0.21709550998E+02  0.17198088794E+02  0.28209450960E+02  0.00000000000E+00 0.  1.
</event>
<event>
 7    1  0.1788006E-013  0.7246176E+02  0.7816164E-02  0.1226708E+00
        -11   -1    0    0    0    0  0.00000000000E+00  0.00000000000E+00  0.45593999997E+02  0.45594000000E+02  0.51100000000E-03 0. -1.
         11   -1    0    0    0    0 -0.00000000000E+00 -0.00000000000E+00 -0.45593999997E+02  0.45594000000E+02  0.51100000000E-03 0.  1.
    9900012    2    1    2    0    0 -0.16043601759E+02 -0.96442962918E+01 -0.51240778598E+00  0.72461757181E+02  0.70000243454E+02 0.  0.
        -12    1    1    2    0    0  0.16043601759E+02  0.96442962918E+01  0.51240778598E+00  0.18726242819E+02  0.00000000000E+00 0.  1.
         11    1    3    3    0    0  0.17075837620E+01 -0.35393298492E+01 -0.28069742148E+02  0.28343484659E+02  0.51100000000E-03 0. -1.
        -11    1    3    3    0    0 -0.30477291805E+00  0.81694939320E+01 -0.42439811012E+00  0.81861854153E+01  0.51100000000E-03 0.  1.
         12    1    3    3    0    0 -0.17446412603E+02 -0.14274460375E+02  0.27981732472E+02  0.35932087107E+02  0.00000000000E+00 0. -1.
</event>
<event>
 7    1  0.1788006E-013  0.7246154E+02  0.7816164E-02  0.1226708E+00
        -11   -1    0    0    0    0  0.00000000000E+00  0.00000000000E+00  0.45593999997E+02  0.45594000000E+02  0.51100000000E-03 0.  1.
         11   -1    0    0    0    0 -0.00000000000E+00 -0.00000000000E+00 -0.45593999997E+02  0.45594000000E+02  0.51100000000E-03 0. -1.
    9900012    2    1    2    0    0 -0.15218641795E+02 -0.49260280536E+01 -0.97369083009E+01  0.72461542947E+02  0.69999964376E+02 0.  0.
        -12    1    1    2    0    0  0.15218641795E+02  0.49260280536E+01  0.97369083009E+01  0.18726457053E+02  0.00000000000E+00 0.  1.
         11    1    3    3    0    0 -0.79768353790E+01 -0.19061320558E+02 -0.33908890840E+02  0.39708647954E+02  0.51100000000E-03 0. -1.
        -11    1    3    3    0    0  0.25054998088E+01 -0.18810244472E+01  0.20033346991E+01  0.37187541517E+01  0.51100000000E-03 0.  1.
        -12    1    3    3    0    0 -0.97473062252E+01  0.16016316952E+02  0.22168647840E+02  0.29034140842E+02  0.00000000000E+00 0.  1.
</event>
<event>
 7    1  0.1788006E-013  0.7246185E+02  0.7816164E-02  0.1226707E+00
        -11   -1    0    0    0    0  0.00000000000E+00  0.00000000000E+00  0.45593999997E+02  0.45594000000E+02  0.51100000000E-03 0.  1.
         11   -1    0    0    0    0 -0.00000000000E+00 -0.00000000000E+00 -0.45593999997E+02  0.45594000000E+02  0.51100000000E-03 0. -1.
    9900012    2    1    2    0    0  0.13347464742E+02  0.96742485605E+01 -0.88838430280E+01  0.72461853381E+02  0.70000368773E+02 0.  0.
        -12    1    1    2    0    0 -0.13347464742E+02 -0.96742485605E+01  0.88838430280E+01  0.18726146619E+02  0.00000000000E+00 0.  1.
         11    1    3    3    0    0  0.85227557636E+01 -0.60434454909E+01 -0.24654378112E+02  0.26776836250E+02  0.51100000000E-03 0. -1.
        -11    1    3    3    0    0 -0.16575091454E+01  0.21367010164E+02 -0.60189207401E+01  0.22260365384E+02  0.51100000000E-03 0.  1.
        -12    1    3    3    0    0  0.64822181233E+01 -0.56493161123E+01  0.21789455824E+02  0.23424651747E+02  0.00000000000E+00 0.  1.
</event>
<event>
 7    1  0.1788006E-013  0.7246153E+02  0.7816164E-02  0.1226708E+00
        -11   -1    0    0    0    0  0.00000000000E+00  0.00000000000E+00  0.45593999997E+02  0.45594000000E+02  0.51100000000E-03 0. -1.
         11   -1    0    0    0    0 -0.00000000000E+00 -0.00000000000E+00 -0.45593999997E+02  0.45594000000E+02  0.51100000000E-03 0.  1.
    9900012    2    1    2    0    0  0.10511534859E+02  0.33046699861E+01  0.15141580883E+02  0.72461529952E+02  0.69999947447E+02 0.  0.
        -12    1    1    2    0    0 -0.10511534859E+02 -0.33046699861E+01 -0.15141580883E+02  0.18726470048E+02  0.00000000000E+00 0.  1.
         11    1    3    3    0    0  0.20129310633E+02 -0.45554862173E+01  0.88830722766E+01  0.22468880136E+02  0.51100000000E-03 0. -1.
        -11    1    3    3    0    0  0.14808030729E+02 -0.10262589652E+02 -0.28560780643E+01  0.18241592656E+02  0.51100000000E-03 0.  1.
        -12    1    3    3    0    0 -0.24425806503E+02  0.18122745855E+02  0.91145866706E+01  0.31751057161E+02  0.00000000000E+00 0.  1.
</event>
<event>
 7    1  0.1788006E-013  0.7246159E+02  0.7816164E-02  0.1226708E+00
        -11   -1    0    0    0    0  0.00000000000E+00  0.00000000000E+00  0.45593999997E+02  0.45594000000E+02  0.51100000000E-03 0.  1.
         11   -1    0    0    0    0 -0.00000000000E+00 -0.00000000000E+00 -0.45593999997E+02  0.45594000000E+02  0.51100000000E-03 0. -1.
    9900012    2    1    2    0    0 -0.74929470390E+01 -0.16799732950E+02 -0.35075793562E+01  0.72461590962E+02  0.70000026923E+02 0.  0.
        -12    1    1    2    0    0  0.74929470390E+01  0.16799732950E+02  0.35075793562E+01  0.18726409038E+02  0.00000000000E+00 0.  1.
         11    1    3    3    0    0 -0.71344598316E+01 -0.22342548792E+02  0.20534427309E+02  0.31172948349E+02  0.51100000000E-03 0. -1.
        -11    1    3    3    0    0  0.35057624021E+01 -0.15675706617E+01  0.76606972450E+01  0.85693599726E+01  0.51100000000E-03 0.  1.
        -12    1    3    3    0    0 -0.38642496096E+01  0.71103865032E+01 -0.31702703910E+02  0.32719282640E+02  0.00000000000E+00 0.  1.
</event>
<event>
 7    1  0.1788006E-013  0.7246131E+02  0.7816164E-02  0.1226709E+00
        -11   -1    0    0    0    0  0.00000000000E+00  0.00000000000E+00  0.45593999997E+02  0.45594000000E+02  0.51100000000E-03 0.  1.
         11   -1    0    0    0    0 -0.00000000000E+00 -0.00000000000E+00 -0.45593999997E+02  0.45594000000E+02  0.51100000000E-03 0. -1.
    9900012    2    1    2    0    0  0.14193355466E+02 -0.85326438893E+01 -0.87425129152E+01  0.72461310939E+02  0.69999662140E+02 0.  0.
        -12    1    1    2    0    0 -0.14193355466E+02  0.85326438893E+01  0.87425129152E+01  0.18726689061E+02  0.00000000000E+00 0.  1.
         11    1    3    3    0    0 -0.32925013475E+01 -0.12588931080E+02 -0.92666584875E+01  0.15974752288E+02  0.51100000000E-03 0. -1.
        -11    1    3    3    0    0 -0.16723178187E+02 -0.95987203422E+01 -0.28797156864E+01  0.19495970958E+02  0.51100000000E-03 0.  1.
         12    1    3    3    0    0  0.34209035001E+02  0.13655007533E+02  0.34038612587E+01  0.36990587693E+02  0.00000000000E+00 0. -1.
</event>
<event>
 7    1  0.1788006E-013  0.7246156E+02  0.7816164E-02  0.1226708E+00
        -11   -1    0    0    0    0  0.00000000000E+00  0.00000000000E+00  0.45593999997E+02  0.45594000000E+02  0.51100000000E-03 0.  1.
         11   -1    0    0    0    0 -0.00000000000E+00 -0.00000000000E+00 -0.45593999997E+02  0.45594000000E+02  0.51100000000E-03 0. -1.
    9900012    2    1    2    0    0 -0.11971692171E+01 -0.17878339984E+02 -0.54416433045E+01  0.72461555154E+02  0.69999980276E+02 0.  0.
        -12    1    1    2    0    0  0.11971692171E+01  0.17878339984E+02  0.54416433045E+01  0.18726444846E+02  0.00000000000E+00 0.  1.
         11    1    3    3    0    0  0.27350679820E+02 -0.11106885209E+02 -0.32805781654E+01  0.29701595564E+02  0.51100000000E-03 0.  1.
        -11    1    3    3    0    0  0.41368768434E+01  0.34720439263E+00 -0.78010273309E+01  0.88368732359E+01  0.51100000000E-03 0. -1.
         12    1    3    3    0    0 -0.32684725881E+02 -0.71186591676E+01  0.56399621919E+01  0.33923086354E+02  0.00000000000E+00 0. -1.
</event>
<event>
 7    1  0.1788006E-013  0.7246157E+02  0.7816164E-02  0.1226708E+00
        -11   -1    0    0    0    0  0.00000000000E+00  0.00000000000E+00  0.45593999997E+02  0.45594000000E+02  0.51100000000E-03 0.  1.
         11   -1    0    0    0    0 -0.00000000000E+00 -0.00000000000E+00 -0.45593999997E+02  0.45594000000E+02  0.51100000000E-03 0. -1.
    9900012    2    1    2    0    0  0.15640766182E+02  0.60027340688E+01 -0.83673750897E+01  0.72461565503E+02  0.69999993759E+02 0.  0.
        -12    1    1    2    0    0 -0.15640766182E+02 -0.60027340688E+01  0.83673750897E+01  0.18726434497E+02  0.00000000000E+00 0.  1.
         11    1    3    3    0    0  0.42035652956E+01 -0.25058804353E+01 -0.60572144677E+01  0.77871204768E+01  0.51100000000E-03 0. -1.
        -11    1    3    3    0    0 -0.10081940262E+02 -0.11904413962E+02 -0.23510968645E+02  0.28215709067E+02  0.51100000000E-03 0.  1.
         12    1    3    3    0    0  0.21519141149E+02  0.20413028466E+02  0.21200808023E+02  0.36458735960E+02  0.00000000000E+00 0. -1.
</event>
<event>
 7    1  0.1788006E-013  0.7246157E+02  0.7816164E-02  0.1226708E+00
        -11   -1    0    0    0    0  0.00000000000E+00  0.00000000000E+00  0.45593999997E+02  0.45594000000E+02  0.51100000000E-03 0. -1.
         11   -1    0    0    0    0 -0.00000000000E+00 -0.00000000000E+00 -0.45593999997E+02  0.45594000000E+02  0.51100000000E-03 0.  1.
    9900012    2    1    2    0    0  0.28517307031E+01 -0.18355677457E+02  0.23697533505E+01  0.72461574985E+02  0.70000006111E+02 0.  0.
        -12    1    1    2    0    0 -0.28517307031E+01  0.18355677457E+02 -0.23697533505E+01  0.18726425015E+02  0.00000000000E+00 0.  1.
         11    1    3    3    0    0  0.11516527972E+02 -0.31820711152E+02  0.13405659381E+02  0.36399172771E+02  0.51100000000E-03 0.  1.
        -11    1    3    3    0    0  0.18240617266E+01 -0.91445166088E+01 -0.18968171161E+01  0.95156345361E+01  0.51100000000E-03 0. -1.
        -12    1    3    3    0    0 -0.10488858995E+02  0.22609550304E+02 -0.91390889140E+01  0.26546767678E+02  0.00000000000E+00 0.  1.
</event>
<event>
 7    1  0.1788006E-013  0.7246157E+02  0.7816164E-02  0.1226708E+00
        -11   -1    0    0    0    0  0.00000000000E+00  0.00000000000E+00  0.45593999997E+02  0.45594000000E+02  0.51100000000E-03 0.  1.
         11   -1    0    0    0    0 -0.00000000000E+00 -0.00000000000E+00 -0.45593999997E+02  0.45594000000E+02  0.51100000000E-03 0. -1.
    9900012    2    1    2    0    0  0.83278435838E+01 -0.10604667258E+02 -0.12994891609E+02  0.72461570700E+02  0.70000000528E+02 0.  0.
        -12    1    1    2    0    0 -0.83278435838E+01  0.10604667258E+02  0.12994891609E+02  0.18726429300E+02  0.00000000000E+00 0.  1.
         11    1    3    3    0    0 -0.65411263751E+01  0.11302522773E+02 -0.94516648529E+00  0.13093001766E+02  0.51100000000E-03 0. -1.
        -11    1    3    3    0    0 -0.16512849243E+01 -0.83460844072E+01  0.19491707189E+02  0.21267593100E+02  0.51100000000E-03 0.  1.
         12    1    3    3    0    0  0.16520254883E+02 -0.13561105624E+02 -0.31541432313E+02  0.38100975834E+02  0.00000000000E+00 0. -1.
</event>
<event>
 7    1  0.1788006E-013  0.7246156E+02  0.7816164E-02  0.1226708E+00
        -11   -1    0    0    0    0  0.00000000000E+00  0.00000000000E+00  0.45593999997E+02  0.45594000000E+02  0.51100000000E-03 0. -1.
         11   -1    0    0    0    0 -0.00000000000E+00 -0.00000000000E+00 -0.45593999997E+02  0.45594000000E+02  0.51100000000E-03 0.  1.
    9900012    2    1    2    0    0 -0.10738119244E+02 -0.14933534531E+02  0.35159632229E+01  0.72461557309E+02  0.69999983084E+02 0.  0.
        -12    1    1    2    0    0  0.10738119244E+02  0.14933534531E+02 -0.35159632229E+01  0.18726442691E+02  0.00000000000E+00 0.  1.
         11    1    3    3    0    0 -0.15603167841E+01 -0.17104853429E+01  0.76936663025E+01  0.80344788263E+01  0.51100000000E-03 0. -1.
        -11    1    3    3    0    0  0.35198788615E+01 -0.25146002762E+02 -0.26109551659E+02  0.36420045170E+02  0.51100000000E-03 0.  1.
         12    1    3    3    0    0 -0.12697681321E+02  0.11922953574E+02  0.21931848579E+02  0.28007033312E+02  0.00000000000E+00 0. -1.
</event>
<event>
 7    1  0.1788006E-013  0.7246153E+02  0.7816164E-02  0.1226708E+00
        -11   -1    0    0    0    0  0.00000000000E+00  0.00000000000E+00  0.45593999997E+02  0.45594000000E+02  0.51100000000E-03 0. -1.
         11   -1    0    0    0    0 -0.00000000000E+00 -0.00000000000E+00 -0.45593999997E+02  0.45594000000E+02  0.51100000000E-03 0.  1.
    9900012    2    1    2    0    0 -0.12109314395E+02  0.13032779738E+02  0.58473627679E+01  0.72461534926E+02  0.69999953927E+02 0.  0.
        -12    1    1    2    0    0  0.12109314395E+02 -0.13032779738E+02 -0.58473627679E+01  0.18726465074E+02  0.00000000000E+00 0.  1.
         11    1    3    3    0    0  0.99941653992E+01 -0.54092464927E+01 -0.44667758283E+01  0.12210461752E+02  0.51100000000E-03 0. -1.
        -11    1    3    3    0    0  0.25681810148E+01  0.25608774806E+02 -0.98846637082E+01  0.27570119290E+02  0.51100000000E-03 0.  1.
        -12    1    3    3    0    0 -0.24671660809E+02 -0.71667485752E+01  0.20198802304E+02  0.32680953884E+02  0.00000000000E+00 0.  1.
</event>
<event>
 7    1  0.1788006E-013  0.7246163E+02  0.7816164E-02  0.1226708E+00
        -11   -1    0    0    0    0  0.00000000000E+00  0.00000000000E+00  0.45593999997E+02  0.45594000000E+02  0.51100000000E-03 0.  1.
         11   -1    0    0    0    0 -0.00000000000E+00 -0.00000000000E+00 -0.45593999997E+02  0.45594000000E+02  0.51100000000E-03 0. -1.
    9900012    2    1    2    0    0 -0.30374484426E+01 -0.44105618991E+01 -0.17944295794E+02  0.72461630868E+02  0.70000078909E+02 0.  0.
        -12    1    1    2    0    0  0.30374484426E+01  0.44105618991E+01  0.17944295794E+02  0.18726369132E+02  0.00000000000E+00 0.  1.
         11    1    3    3    0    0 -0.59897890448E+01 -0.79359857308E+01 -0.66397786334E+01  0.11955923339E+02  0.51100000000E-03 0. -1.
        -11    1    3    3    0    0 -0.12590627432E+02 -0.96947692269E+01  0.18498602371E+02  0.24386691851E+02  0.51100000000E-03 0.  1.
         12    1    3    3    0    0  0.15542968034E+02  0.13220193059E+02 -0.29803119531E+02  0.36119015679E+02  0.00000000000E+00 0. -1.
</event>
<event>
 7    1  0.1788006E-013  0.7246152E+02  0.7816164E-02  0.1226708E+00
        -11   -1    0    0    0    0  0.00000000000E+00  0.00000000000E+00  0.45593999997E+02  0.45594000000E+02  0.51100000000E-03 0.  1.
         11   -1    0    0    0    0 -0.00000000000E+00 -0.00000000000E+00 -0.45593999997E+02  0.45594000000E+02  0.51100000000E-03 0. -1.
    9900012    2    1    2    0    0 -0.43312648709E+00  0.33884805518E+01 -0.18412273408E+02  0.72461515785E+02  0.69999928991E+02 0.  0.
        -12    1    1    2    0    0  0.43312648709E+00 -0.33884805518E+01  0.18412273408E+02  0.18726484215E+02  0.00000000000E+00 0.  1.
         11    1    3    3    0    0 -0.56880326563E+01 -0.96244875871E+01 -0.12835916599E+02  0.17021904476E+02  0.51100000000E-03 0. -1.
        -11    1    3    3    0    0 -0.17236713214E+02  0.68846384570E+01 -0.20582777482E+02  0.27715577898E+02  0.51100000000E-03 0.  1.
        -12    1    3    3    0    0  0.22491619383E+02  0.61283296819E+01  0.15006420672E+02  0.27724033410E+02  0.00000000000E+00 0.  1.
</event>
<event>
 7    1  0.1788006E-013  0.7246197E+02  0.7816164E-02  0.1226707E+00
        -11   -1    0    0    0    0  0.00000000000E+00  0.00000000000E+00  0.45593999997E+02  0.45594000000E+02  0.51100000000E-03 0.  1.
         11   -1    0    0    0    0 -0.00000000000E+00 -0.00000000000E+00 -0.45593999997E+02  0.45594000000E+02  0.51100000000E-03 0. -1.
    9900012    2    1    2    0    0 -0.10150170722E+02  0.12887669571E+01 -0.15683659604E+02  0.72461973605E+02  0.70000525385E+02 0.  0.
        -12    1    1    2    0    0  0.10150170722E+02 -0.12887669571E+01  0.15683659604E+02  0.18726026395E+02  0.00000000000E+00 0.  1.
         11    1    3    3    0    0 -0.16131133566E+02 -0.67204680882E+01 -0.24692276303E+02  0.30250399514E+02  0.51100000000E-03 0. -1.
        -11    1    3    3    0    0 -0.56951071899E+01 -0.14145057919E+02  0.78292111449E+01  0.17140987628E+02  0.51100000000E-03 0.  1.
         12    1    3    3    0    0  0.11676070034E+02  0.22154292964E+02  0.11794055538E+01  0.25070586464E+02  0.00000000000E+00 0. -1.
</event>
<event>
 7    1  0.1788006E-013  0.7246158E+02  0.7816164E-02  0.1226708E+00
        -11   -1    0    0    0    0  0.00000000000E+00  0.00000000000E+00  0.45593999997E+02  0.45594000000E+02  0.51100000000E-03 0.  1.
         11   -1    0    0    0    0 -0.00000000000E+00 -0.00000000000E+00 -0.45593999997E+02  0.45594000000E+02  0.51100000000E-03 0. -1.
    9900012    2    1    2    0    0 -0.79332737250E+01  0.12799660095E+02 -0.11131524633E+02  0.72461575589E+02  0.70000006898E+02 0.  0.
        -12    1    1    2    0    0  0.79332737250E+01 -0.12799660095E+02  0.11131524633E+02  0.18726424411E+02  0.00000000000E+00 0.  1.
         11    1    3    3    0    0  0.10232757576E+02  0.11771519994E+02 -0.12352156513E+02  0.19896074522E+02  0.51100000000E-03 0. -1.
        -11    1    3    3    0    0 -0.21785717062E+02  0.17054893510E+02 -0.13245171992E+02  0.30674442813E+02  0.51100000000E-03 0.  1.
         12    1    3    3    0    0  0.36196857610E+01 -0.16026753408E+02  0.14465803872E+02  0.21891058254E+02  0.00000000000E+00 0. -1.
</event>
<event>
 7    1  0.1788006E-013  0.7246156E+02  0.7816164E-02  0.1226708E+00
        -11   -1    0    0    0    0  0.00000000000E+00  0.00000000000E+00  0.45593999997E+02  0.45594000000E+02  0.51100000000E-03 0.  1.
         11   -1    0    0    0    0 -0.00000000000E+00 -0.00000000000E+00 -0.45593999997E+02  0.45594000000E+02  0.51100000000E-03 0. -1.
    9900012    2    1    2    0    0  0.63490168573E+01  0.17255325973E+02 -0.35529464687E+01  0.72461555647E+02  0.69999980920E+02 0.  0.
        -12    1    1    2    0    0 -0.63490168573E+01 -0.17255325973E+02  0.35529464687E+01  0.18726444353E+02  0.00000000000E+00 0.  1.
         11    1    3    3    0    0  0.49560957256E+01 -0.11561356209E+02 -0.79668913631E+01  0.14889566833E+02  0.51100000000E-03 0. -1.
        -11    1    3    3    0    0 -0.95447009484E+01  0.17404188039E+01 -0.18208784202E+02  0.20632261053E+02  0.51100000000E-03 0.  1.
         12    1    3    3    0    0  0.10937622080E+02  0.27076263378E+02  0.22622729096E+02  0.36939727761E+02  0.00000000000E+00 0. -1.
</event>
<event>
 7    1  0.1788006E-013  0.7246159E+02  0.7816164E-02  0.1226708E+00
        -11   -1    0    0    0    0  0.00000000000E+00  0.00000000000E+00  0.45593999997E+02  0.45594000000E+02  0.51100000000E-03 0. -1.
         11   -1    0    0    0    0 -0.00000000000E+00 -0.00000000000E+00 -0.45593999997E+02  0.45594000000E+02  0.51100000000E-03 0.  1.
    9900012    2    1    2    0    0  0.97313120452E+00  0.25990355989E+01  0.18519628401E+02  0.72461585327E+02  0.70000019583E+02 0.  0.
        -12    1    1    2    0    0 -0.97313120452E+00 -0.25990355989E+01 -0.18519628401E+02  0.18726414673E+02  0.00000000000E+00 0.  1.
         11    1    3    3    0    0  0.38064791456E+01  0.15731093922E+02  0.23465766131E+02  0.28506118288E+02  0.51100000000E-03 0. -1.
        -11    1    3    3    0    0 -0.12842015723E+02  0.10404112727E+02 -0.76971265275E+01  0.18232078502E+02  0.51100000000E-03 0.  1.
         12    1    3    3    0    0  0.10008667782E+02 -0.23536171050E+02  0.27509887974E+01  0.25723388537E+02  0.00000000000E+00 0. -1.
</event>
<event>
 7    1  0.1788006E-013  0.7246155E+02  0.7816164E-02  0.1226708E+00
        -11   -1    0    0    0    0  0.00000000000E+00  0.00000000000E+00  0.45593999997E+02  0.45594000000E+02  0.51100000000E-03 0. -1.
         11   -1    0    0    0    0 -0.00000000000E+00 -0.00000000000E+00 -0.45593999997E+02  0.45594000000E+02  0.51100000000E-03 0.  1.
    9900012    2    1    2    0    0 -0.70311034599E+01 -0.10750078643E+02  0.13626420232E+02  0.72461549855E+02  0.69999973375E+02 0.  0.
        -12    1    1    2    0    0  0.70311034599E+01  0.10750078643E+02 -0.13626420232E+02  0.18726450145E+02  0.00000000000E+00 0.  1.
         11    1    3    3    0    0 -0.10917214823E+02  0.10561896929E+02 -0.32741261866E+01  0.15538955845E+02  0.51100000000E-03 0. -1.
        -11    1    3    3    0    0  0.18474782185E+02  0.91191620215E+01  0.68042245296E+01  0.21697330814E+02  0.51100000000E-03 0.  1.
        -12    1    3    3    0    0 -0.14588670822E+02 -0.30431137593E+02  0.10096321889E+02  0.35225263196E+02  0.00000000000E+00 0.  1.
</event>
<event>
 7    1  0.1788006E-013  0.7246162E+02  0.7816164E-02  0.1226708E+00
        -11   -1    0    0    0    0  0.00000000000E+00  0.00000000000E+00  0.45593999997E+02  0.45594000000E+02  0.51100000000E-03 0. -1.
         11   -1    0    0    0    0 -0.00000000000E+00 -0.00000000000E+00 -0.45593999997E+02  0.45594000000E+02  0.51100000000E-03 0.  1.
    9900012    2    1    2    0    0 -0.15981971095E+02  0.36083378724E+01  0.90682855796E+01  0.72461620060E+02  0.70000064830E+02 0.  0.
        -12    1    1    2    0    0  0.15981971095E+02 -0.36083378724E+01 -0.90682855796E+01  0.18726379940E+02  0.00000000000E+00 0.  1.
         11    1    3    3    0    0 -0.33947439019E+02  0.10515959592E+02  0.15829524151E+02  0.38904856473E+02  0.51100000000E-03 0. -1.
        -11    1    3    3    0    0  0.94014546690E+01  0.95039355236E+01  0.11661897191E+01  0.13419096059E+02  0.51100000000E-03 0.  1.
        -12    1    3    3    0    0  0.85640132547E+01 -0.16411557243E+02 -0.79274282900E+01  0.20137667528E+02  0.00000000000E+00 0.  1.
</event>
<event>
 7    1  0.1788006E-013  0.7246159E+02  0.7816164E-02  0.1226708E+00
        -11   -1    0    0    0    0  0.00000000000E+00  0.00000000000E+00  0.45593999997E+02  0.45594000000E+02  0.51100000000E-03 0.  1.
         11   -1    0    0    0    0 -0.00000000000E+00 -0.00000000000E+00 -0.45593999997E+02  0.45594000000E+02  0.51100000000E-03 0. -1.
    9900012    2    1    2    0    0  0.17771250358E+02  0.43411487882E+01  0.40019569373E+01  0.72461586264E+02  0.70000020803E+02 0.  0.
        -12    1    1    2    0    0 -0.17771250358E+02 -0.43411487882E+01 -0.40019569373E+01  0.18726413736E+02  0.00000000000E+00 0.  1.
         11    1    3    3    0    0 -0.69881383519E+01  0.49155869007E+01  0.41098755421E+00  0.85537116642E+01  0.51100000000E-03 0. -1.
        -11    1    3    3    0    0 -0.76292210668E+01  0.17278751627E+02  0.16149145525E+02  0.24850657403E+02  0.51100000000E-03 0.  1.
         12    1    3    3    0    0  0.32388609777E+02 -0.17853189740E+02 -0.12558176142E+02  0.39057217197E+02  0.00000000000E+00 0. -1.
</event>
<event>
 7    1  0.1788006E-013  0.7246159E+02  0.7816164E-02  0.1226708E+00
        -11   -1    0    0    0    0  0.00000000000E+00  0.00000000000E+00  0.45593999997E+02  0.45594000000E+02  0.51100000000E-03 0. -1.
         11   -1    0    0    0    0 -0.00000000000E+00 -0.00000000000E+00 -0.45593999997E+02  0.45594000000E+02  0.51100000000E-03 0.  1.
    9900012    2    1    2    0    0  0.11901390707E+02  0.71535609202E+00  0.14440348671E+02  0.72461588041E+02  0.70000023119E+02 0.  0.
        -12    1    1    2    0    0 -0.11901390707E+02 -0.71535609202E+00 -0.14440348671E+02  0.18726411959E+02  0.00000000000E+00 0.  1.
         11    1    3    3    0    0 -0.82880317173E+00 -0.15093945342E+00  0.32535673508E+01  0.33608627142E+01  0.51100000000E-03 0. -1.
        -11    1    3    3    0    0 -0.24750612582E+02  0.10418380976E+02 -0.47436729462E+01  0.27269725313E+02  0.51100000000E-03 0.  1.
         12    1    3    3    0    0  0.37480806461E+02 -0.95520854308E+01  0.15930454267E+02  0.41831000014E+02  0.00000000000E+00 0. -1.
</event>
<event>
 7    1  0.1788006E-013  0.7246173E+02  0.7816164E-02  0.1226708E+00
        -11   -1    0    0    0    0  0.00000000000E+00  0.00000000000E+00  0.45593999997E+02  0.45594000000E+02  0.51100000000E-03 0.  1.
         11   -1    0    0    0    0 -0.00000000000E+00 -0.00000000000E+00 -0.45593999997E+02  0.45594000000E+02  0.51100000000E-03 0. -1.
    9900012    2    1    2    0    0 -0.15787691681E+02  0.70812222817E+01 -0.71608966976E+01  0.72461725434E+02  0.70000202097E+02 0.  0.
        -12    1    1    2    0    0  0.15787691681E+02 -0.70812222817E+01  0.71608966976E+01  0.18726274566E+02  0.00000000000E+00 0.  1.
         11    1    3    3    0    0  0.75313609310E+00 -0.17911283544E+02  0.89374079938E+01  0.20031439141E+02  0.51100000000E-03 0. -1.
        -11    1    3    3    0    0 -0.13441577259E+02  0.46331437879E+01  0.11295780195E+02  0.18158652787E+02  0.51100000000E-03 0.  1.
         12    1    3    3    0    0 -0.30992505152E+01  0.20359362038E+02 -0.27394084886E+02  0.34271633505E+02  0.00000000000E+00 0. -1.
</event>
<event>
 7    1  0.1788006E-013  0.7246158E+02  0.7816164E-02  0.1226708E+00
        -11   -1    0    0    0    0  0.00000000000E+00  0.00000000000E+00  0.45593999997E+02  0.45594000000E+02  0.51100000000E-03 0.  1.
         11   -1    0    0    0    0 -0.00000000000E+00 -0.00000000000E+00 -0.45593999997E+02  0.45594000000E+02  0.51100000000E-03 0. -1.
    9900012    2    1    2    0    0  0.85923349135E+01 -0.93935750122E+01 -0.13733579520E+02  0.72461583439E+02  0.70000017123E+02 0.  0.
        -12    1    1    2    0    0 -0.85923349135E+01  0.93935750122E+01  0.13733579520E+02  0.18726416561E+02  0.00000000000E+00 0.  1.
         11    1    3    3    0    0  0.12113379563E+02 -0.11188500954E+01 -0.17244230822E+02  0.21103300379E+02  0.51100000000E-03 0. -1.
        -11    1    3    3    0    0  0.10412422338E+02 -0.13397815198E+02 -0.18311899500E+02  0.24964888435E+02  0.51100000000E-03 0.  1.
        -12    1    3    3    0    0 -0.13933466988E+02  0.51230902808E+01  0.21822550802E+02  0.26393394625E+02  0.00000000000E+00 0.  1.
</event>
<event>
 7    1  0.1788006E-013  0.7246151E+02  0.7816164E-02  0.1226708E+00
        -11   -1    0    0    0    0  0.00000000000E+00  0.00000000000E+00  0.45593999997E+02  0.45594000000E+02  0.51100000000E-03 0. -1.
         11   -1    0    0    0    0 -0.00000000000E+00 -0.00000000000E+00 -0.45593999997E+02  0.45594000000E+02  0.51100000000E-03 0.  1.
    9900012    2    1    2    0    0 -0.15318768727E+02 -0.80985275966E+01  0.71014396796E+01  0.72461514209E+02  0.69999926938E+02 0.  0.
        -12    1    1    2    0    0  0.15318768727E+02  0.80985275966E+01 -0.71014396796E+01  0.18726485791E+02  0.00000000000E+00 0.  1.
         11    1    3    3    0    0 -0.13633276931E+02 -0.27965725792E+02  0.13148876741E+02  0.33776338150E+02  0.51100000000E-03 0. -1.
        -11    1    3    3    0    0  0.37209390136E+01 -0.72168180143E+01  0.43050766603E+01  0.91902956811E+01  0.51100000000E-03 0.  1.
        -12    1    3    3    0    0 -0.54064308097E+01  0.27084016210E+02 -0.10352513722E+02  0.29494880378E+02  0.00000000000E+00 0.  1.
</event>
<event>
 7    1  0.1788006E-013  0.7246157E+02  0.7816164E-02  0.1226708E+00
        -11   -1    0    0    0    0  0.00000000000E+00  0.00000000000E+00  0.45593999997E+02  0.45594000000E+02  0.51100000000E-03 0. -1.
         11   -1    0    0    0    0 -0.00000000000E+00 -0.00000000000E+00 -0.45593999997E+02  0.45594000000E+02  0.51100000000E-03 0.  1.
    9900012    2    1    2    0    0  0.17745763849E+02  0.20676821828E+01  0.56117416857E+01  0.72461572446E+02  0.70000002803E+02 0.  0.
        -12    1    1    2    0    0 -0.17745763849E+02 -0.20676821828E+01 -0.56117416857E+01  0.18726427554E+02  0.00000000000E+00 0.  1.
         11    1    3    3    0    0 -0.96634784185E+00  0.82949859100E-01 -0.87922370789E+00  0.13091002331E+01  0.51100000000E-03 0. -1.
        -11    1    3    3    0    0 -0.18375731257E+02  0.10122231923E+02 -0.16564960370E+02  0.26730600268E+02  0.51100000000E-03 0.  1.
         12    1    3    3    0    0  0.37087842948E+02 -0.81374995996E+01  0.23055925764E+02  0.44421871945E+02  0.00000000000E+00 0. -1.
</event>
<event>
 7    1  0.1788006E-013  0.7246161E+02  0.7816164E-02  0.1226708E+00
        -11   -1    0    0    0    0  0.00000000000E+00  0.00000000000E+00  0.45593999997E+02  0.45594000000E+02  0.51100000000E-03 0. -1.
         11   -1    0    0    0    0 -0.00000000000E+00 -0.00000000000E+00 -0.45593999997E+02  0.45594000000E+02  0.51100000000E-03 0.  1.
    9900012    2    1    2    0    0  0.12357120991E+02  0.47300809911E+01  0.13251626280E+02  0.72461609413E+02  0.70000050959E+02 0.  0.
        -12    1    1    2    0    0 -0.12357120991E+02 -0.47300809911E+01 -0.13251626280E+02  0.18726390587E+02  0.00000000000E+00 0.  1.
         11    1    3    3    0    0  0.27214159683E+02  0.12219026178E+02  0.18032191336E+02  0.34857926110E+02  0.51100000000E-03 0. -1.
        -11    1    3    3    0    0 -0.89232355172E+01 -0.16548606885E+02  0.83595370322E+01  0.20575771713E+02  0.51100000000E-03 0.  1.
         12    1    3    3    0    0 -0.59338031754E+01  0.90596616981E+01 -0.13140102089E+02  0.17027911590E+02  0.00000000000E+00 0. -1.
</event>
<event>
 7    1  0.1788006E-013  0.7246156E+02  0.7816164E-02  0.1226708E+00
        -11   -1    0    0    0    0  0.00000000000E+00  0.00000000000E+00  0.45593999997E+02  0.45594000000E+02  0.51100000000E-03 0. -1.
         11   -1    0    0    0    0 -0.00000000000E+00 -0.00000000000E+00 -0.45593999997E+02  0.45594000000E+02  0.51100000000E-03 0.  1.
    9900012    2    1    2    0    0 -0.73436161008E+01 -0.15006646224E+02 -0.84588016810E+01  0.72461562693E+02  0.69999990098E+02 0.  0.
        -12    1    1    2    0    0  0.73436161008E+01  0.15006646224E+02  0.84588016810E+01  0.18726437307E+02  0.00000000000E+00 0.  1.
         11    1    3    3    0    0  0.15850275852E+02 -0.69031899750E+01  0.16973262456E+02  0.24227606466E+02  0.51100000000E-03 0. -1.
        -11    1    3    3    0    0 -0.17253915051E+02 -0.30627997500E+01  0.38429602829E+01  0.17940085588E+02  0.51100000000E-03 0.  1.
        -12    1    3    3    0    0 -0.59399769020E+01 -0.50406564987E+01 -0.29275024420E+02  0.30293870640E+02  0.00000000000E+00 0.  1.
</event>
<event>
 7    1  0.1788006E-013  0.7246156E+02  0.7816164E-02  0.1226708E+00
        -11   -1    0    0    0    0  0.00000000000E+00  0.00000000000E+00  0.45593999997E+02  0.45594000000E+02  0.51100000000E-03 0. -1.
         11   -1    0    0    0    0 -0.00000000000E+00 -0.00000000000E+00 -0.45593999997E+02  0.45594000000E+02  0.51100000000E-03 0.  1.
    9900012    2    1    2    0    0 -0.76545668993E+01 -0.16030523867E+02 -0.59253161425E+01  0.72461562505E+02  0.69999989853E+02 0.  0.
        -12    1    1    2    0    0  0.76545668993E+01  0.16030523867E+02  0.59253161425E+01  0.18726437495E+02  0.00000000000E+00 0.  1.
         11    1    3    3    0    0 -0.21568501078E+02 -0.12508465878E+02  0.12797127993E+02  0.28025496294E+02  0.51100000000E-03 0. -1.
        -11    1    3    3    0    0 -0.12792193141E+02  0.12348301009E+01 -0.34537220558E+01  0.13307637169E+02  0.51100000000E-03 0.  1.
        -12    1    3    3    0    0  0.26706127319E+02 -0.47568880898E+01 -0.15268722080E+02  0.31128429042E+02  0.00000000000E+00 0.  1.
</event>
<event>
 7    1  0.1788006E-013  0.7246158E+02  0.7816164E-02  0.1226708E+00
        -11   -1    0    0    0    0  0.00000000000E+00  0.00000000000E+00  0.45593999997E+02  0.45594000000E+02  0.51100000000E-03 0.  1.
         11   -1    0    0    0    0 -0.00000000000E+00 -0.00000000000E+00 -0.45593999997E+02  0.45594000000E+02  0.51100000000E-03 0. -1.
    9900012    2    1    2    0    0 -0.61003210812E+01  0.11014451398E+02  0.13861703093E+02  0.72461578305E+02  0.70000010435E+02 0.  0.
        -12    1    1    2    0    0  0.61003210812E+01 -0.11014451398E+02 -0.13861703093E+02  0.18726421695E+02  0.00000000000E+00 0.  1.
         11    1    3    3    0    0  0.24664751574E+01 -0.12348088656E+00 -0.13227521166E+02  0.13456079061E+02  0.51100000000E-03 0. -1.
        -11    1    3    3    0    0 -0.19382818922E+01  0.29438647905E+02  0.56315271243E+01  0.30035063262E+02  0.51100000000E-03 0.  1.
         12    1    3    3    0    0 -0.66285143463E+01 -0.18300715620E+02  0.21457697134E+02  0.28970435981E+02  0.00000000000E+00 0. -1.
</event>
<event>
 7    1  0.1788006E-013  0.7246158E+02  0.7816164E-02  0.1226708E+00
        -11   -1    0    0    0    0  0.00000000000E+00  0.00000000000E+00  0.45593999997E+02  0.45594000000E+02  0.51100000000E-03 0.  1.
         11   -1    0    0    0    0 -0.00000000000E+00 -0.00000000000E+00 -0.45593999997E+02  0.45594000000E+02  0.51100000000E-03 0. -1.
    9900012    2    1    2    0    0  0.19442478635E+01 -0.67501194347E+01 -0.17358986844E+02  0.72461584529E+02  0.70000018544E+02 0.  0.
        -12    1    1    2    0    0 -0.19442478635E+01  0.67501194347E+01  0.17358986844E+02  0.18726415471E+02  0.00000000000E+00 0.  1.
         11    1    3    3    0    0  0.40123430291E+01 -0.84432189078E+01  0.22783898311E+01  0.96217411414E+01  0.51100000000E-03 0. -1.
        -11    1    3    3    0    0  0.19861606872E+02 -0.19243403135E+02 -0.19151718634E+01  0.27721108839E+02  0.51100000000E-03 0.  1.
         12    1    3    3    0    0 -0.21929702038E+02  0.20936502608E+02 -0.17722204812E+02  0.35118734549E+02  0.00000000000E+00 0. -1.
</event>
<event>
 7    1  0.1788006E-013  0.7246161E+02  0.7816164E-02  0.1226708E+00
        -11   -1    0    0    0    0  0.00000000000E+00  0.00000000000E+00  0.45593999997E+02  0.45594000000E+02  0.51100000000E-03 0. -1.
         11   -1    0    0    0    0 -0.00000000000E+00 -0.00000000000E+00 -0.45593999997E+02  0.45594000000E+02  0.51100000000E-03 0.  1.
    9900012    2    1    2    0    0  0.16124595857E+02  0.95128884942E+01 -0.42419615630E+00  0.72461612697E+02  0.70000055237E+02 0.  0.
        -12    1    1    2    0    0 -0.16124595857E+02 -0.95128884942E+01  0.42419615630E+00  0.18726387303E+02  0.00000000000E+00 0.  1.
         11    1    3    3    0    0 -0.13997725722E+02  0.62414243750E+01 -0.11244292557E+02  0.19008572250E+02  0.51100000000E-03 0. -1.
        -11    1    3    3    0    0  0.12128515472E+02  0.16296014619E+02 -0.10322846231E+02  0.22786446291E+02  0.51100000000E-03 0.  1.
        -12    1    3    3    0    0  0.17993806107E+02 -0.13024550500E+02  0.21142942632E+02  0.30666594155E+02  0.00000000000E+00 0.  1.
</event>
<event>
 7    1  0.1788006E-013  0.7246146E+02  0.7816164E-02  0.1226708E+00
        -11   -1    0    0    0    0  0.00000000000E+00  0.00000000000E+00  0.45593999997E+02  0.45594000000E+02  0.51100000000E-03 0. -1.
         11   -1    0    0    0    0 -0.00000000000E+00 -0.00000000000E+00 -0.45593999997E+02  0.45594000000E+02  0.51100000000E-03 0.  1.
    9900012    2    1    2    0    0 -0.57845205117E+01 -0.16352643040E+02  0.70578725055E+01  0.72461463314E+02  0.69999860638E+02 0.  0.
        -12    1    1    2    0    0  0.57845205117E+01  0.16352643040E+02 -0.70578725055E+01  0.18726536686E+02  0.00000000000E+00 0.  1.
         11    1    3    3    0    0  0.61023617327E+00 -0.11688890968E+02 -0.42579563370E+01  0.12455229933E+02  0.51100000000E-03 0. -1.
        -11    1    3    3    0    0  0.20262440876E+02 -0.18431526833E+02 -0.13842495120E+01  0.27426334765E+02  0.51100000000E-03 0.  1.
         12    1    3    3    0    0 -0.26657197561E+02  0.13767774760E+02  0.12700078354E+02  0.32579898617E+02  0.00000000000E+00 0. -1.
</event>
<event>
 7    1  0.1788006E-013  0.7246156E+02  0.7816164E-02  0.1226708E+00
        -11   -1    0    0    0    0  0.00000000000E+00  0.00000000000E+00  0.45593999997E+02  0.45594000000E+02  0.51100000000E-03 0.  1.
         11   -1    0    0    0    0 -0.00000000000E+00 -0.00000000000E+00 -0.45593999997E+02  0.45594000000E+02  0.51100000000E-03 0. -1.
    9900012    2    1    2    0    0  0.14761431719E+02  0.99531029157E+01 -0.58064859712E+01  0.72461564050E+02  0.69999991866E+02 0.  0.
        -12    1    1    2    0    0 -0.14761431719E+02 -0.99531029157E+01  0.58064859712E+01  0.18726435950E+02  0.00000000000E+00 0.  1.
         11    1    3    3    0    0 -0.14548956679E+02  0.86122607497E+00  0.70360677307E+01  0.16183945754E+02  0.51100000000E-03 0. -1.
        -11    1    3    3    0    0 -0.66386208710E+01  0.10091788443E+02  0.82103072122E+01  0.14605636782E+02  0.51100000000E-03 0.  1.
         12    1    3    3    0    0  0.35949009269E+02 -0.99991160201E+00 -0.21052860914E+02  0.41671981514E+02  0.00000000000E+00 0. -1.
</event>
<event>
 7    1  0.1788006E-013  0.7246161E+02  0.7816164E-02  0.1226708E+00
        -11   -1    0    0    0    0  0.00000000000E+00  0.00000000000E+00  0.45593999997E+02  0.45594000000E+02  0.51100000000E-03 0.  1.
         11   -1    0    0    0    0 -0.00000000000E+00 -0.00000000000E+00 -0.45593999997E+02  0.45594000000E+02  0.51100000000E-03 0. -1.
    9900012    2    1    2    0    0 -0.88595590084E+01 -0.58422976575E+01 -0.15428983932E+02  0.72461607584E+02  0.70000048577E+02 0.  0.
        -12    1    1    2    0    0  0.88595590084E+01  0.58422976575E+01  0.15428983932E+02  0.18726392416E+02  0.00000000000E+00 0.  1.
         11    1    3    3    0    0  0.86915059122E+01  0.20342618829E+01 -0.16887087317E+02  0.19101157419E+02  0.51100000000E-03 0. -1.
        -11    1    3    3    0    0 -0.16034075051E+02 -0.27688823151E+02  0.69558680786E+01  0.32743649631E+02  0.51100000000E-03 0.  1.
         12    1    3    3    0    0 -0.15169898701E+01  0.19812263610E+02 -0.54977646932E+01  0.20616800534E+02  0.00000000000E+00 0. -1.
</event>
<event>
 7    1  0.1788006E-013  0.7246151E+02  0.7816164E-02  0.1226708E+00
        -11   -1    0    0    0    0  0.00000000000E+00  0.00000000000E+00  0.45593999997E+02  0.45594000000E+02  0.51100000000E-03 0.  1.
         11   -1    0    0    0    0 -0.00000000000E+00 -0.00000000000E+00 -0.45593999997E+02  0.45594000000E+02  0.51100000000E-03 0. -1.
    9900012    2    1    2    0    0 -0.21432189224E-01 -0.17374981236E+02  0.69850632662E+01  0.72461506972E+02  0.69999917511E+02 0.  0.
        -12    1    1    2    0    0  0.21432189224E-01  0.17374981236E+02 -0.69850632662E+01  0.18726493028E+02  0.00000000000E+00 0.  1.
         11    1    3    3    0    0 -0.72026950643E+01  0.10754098372E+02 -0.11711854651E+02  0.17455571821E+02  0.51100000000E-03 0. -1.
        -11    1    3    3    0    0 -0.20563987350E+01 -0.19342666046E+02  0.31446124866E+02  0.36976022973E+02  0.51100000000E-03 0.  1.
         12    1    3    3    0    0  0.92376616101E+01 -0.87864135625E+01 -0.12749206949E+02  0.18029912178E+02  0.00000000000E+00 0. -1.
</event>
<event>
 7    1  0.1788006E-013  0.7246156E+02  0.7816164E-02  0.1226708E+00
        -11   -1    0    0    0    0  0.00000000000E+00  0.00000000000E+00  0.45593999997E+02  0.45594000000E+02  0.51100000000E-03 0.  1.
         11   -1    0    0    0    0 -0.00000000000E+00 -0.00000000000E+00 -0.45593999997E+02  0.45594000000E+02  0.51100000000E-03 0. -1.
    9900012    2    1    2    0    0  0.70466678051E+01 -0.10865985421E+02 -0.13526068718E+02  0.72461556096E+02  0.69999981504E+02 0.  0.
        -12    1    1    2    0    0 -0.70466678051E+01  0.10865985421E+02  0.13526068718E+02  0.18726443904E+02  0.00000000000E+00 0.  1.
         11    1    3    3    0    0  0.72646837594E+01  0.19391545673E+01 -0.81634312000E+01  0.11098538633E+02  0.51100000000E-03 0. -1.
        -11    1    3    3    0    0  0.15848350675E+02  0.19448986133E+02 -0.17916584925E+01  0.25152401896E+02  0.51100000000E-03 0.  1.
        -12    1    3    3    0    0 -0.16066366629E+02 -0.32254126122E+02 -0.35709790255E+01  0.36210615567E+02  0.00000000000E+00 0.  1.
</event>
<event>
 7    1  0.1788006E-013  0.7246164E+02  0.7816164E-02  0.1226708E+00
        -11   -1    0    0    0    0  0.00000000000E+00  0.00000000000E+00  0.45593999997E+02  0.45594000000E+02  0.51100000000E-03 0.  1.
         11   -1    0    0    0    0 -0.00000000000E+00 -0.00000000000E+00 -0.45593999997E+02  0.45594000000E+02  0.51100000000E-03 0. -1.
    9900012    2    1    2    0    0  0.82816615354E+01 -0.10171873015E+02 -0.13365018315E+02  0.72461638021E+02  0.70000088226E+02 0.  0.
        -12    1    1    2    0    0 -0.82816615354E+01  0.10171873015E+02  0.13365018315E+02  0.18726361979E+02  0.00000000000E+00 0.  1.
         11    1    3    3    0    0  0.25385907402E+02  0.19055331683E+02 -0.12128157550E+02  0.33980025985E+02  0.51100000000E-03 0. -1.
        -11    1    3    3    0    0  0.25367992285E+01 -0.11265243776E+02 -0.25794620915E+01  0.11831935285E+02  0.51100000000E-03 0.  1.
        -12    1    3    3    0    0 -0.19641045095E+02 -0.17961960922E+02  0.13426013268E+01  0.26649676750E+02  0.00000000000E+00 0.  1.
</event>
<event>
 7    1  0.1788006E-013  0.7246164E+02  0.7816164E-02  0.1226708E+00
        -11   -1    0    0    0    0  0.00000000000E+00  0.00000000000E+00  0.45593999997E+02  0.45594000000E+02  0.51100000000E-03 0. -1.
         11   -1    0    0    0    0 -0.00000000000E+00 -0.00000000000E+00 -0.45593999997E+02  0.45594000000E+02  0.51100000000E-03 0.  1.
    9900012    2    1    2    0    0 -0.10829219202E+02  0.13813388607E+02  0.65264860119E+01  0.72461635884E+02  0.70000085443E+02 0.  0.
        -12    1    1    2    0    0  0.10829219202E+02 -0.13813388607E+02 -0.65264860119E+01  0.18726364116E+02  0.00000000000E+00 0.  1.
         11    1    3    3    0    0 -0.49884962410E+01 -0.13268990577E+02 -0.10606648527E+02  0.17704581297E+02  0.51100000000E-03 0. -1.
        -11    1    3    3    0    0 -0.62590985768E+01 -0.93871703268E+01 -0.47302530600E+01  0.12233992644E+02  0.51100000000E-03 0.  1.
         12    1    3    3    0    0  0.41837561596E+00  0.36469549511E+02  0.21863387599E+02  0.42523061943E+02  0.00000000000E+00 0. -1.
</event>
<event>
 7    1  0.1788006E-013  0.7246159E+02  0.7816164E-02  0.1226708E+00
        -11   -1    0    0    0    0  0.00000000000E+00  0.00000000000E+00  0.45593999997E+02  0.45594000000E+02  0.51100000000E-03 0. -1.
         11   -1    0    0    0    0 -0.00000000000E+00 -0.00000000000E+00 -0.45593999997E+02  0.45594000000E+02  0.51100000000E-03 0.  1.
    9900012    2    1    2    0    0  0.15722717713E+02  0.26053196076E+01  0.98329563540E+01  0.72461586216E+02  0.70000020741E+02 0.  0.
        -12    1    1    2    0    0 -0.15722717713E+02 -0.26053196076E+01 -0.98329563540E+01  0.18726413784E+02  0.00000000000E+00 0.  1.
         11    1    3    3    0    0 -0.13038455700E+02 -0.99763743559E+01  0.22162852035E+02  0.27581178055E+02  0.51100000000E-03 0. -1.
        -11    1    3    3    0    0 -0.10231562637E+01  0.69119507858E+01  0.62048805954E+01  0.93446485151E+01  0.51100000000E-03 0.  1.
        -12    1    3    3    0    0  0.29784329677E+02  0.56697431777E+01 -0.18534776276E+02  0.35535759646E+02  0.00000000000E+00 0.  1.
</event>
<event>
 7    1  0.1788006E-013  0.7246155E+02  0.7816164E-02  0.1226708E+00
        -11   -1    0    0    0    0  0.00000000000E+00  0.00000000000E+00  0.45593999997E+02  0.45594000000E+02  0.51100000000E-03 0.  1.
         11   -1    0    0    0    0 -0.00000000000E+00 -0.00000000000E+00 -0.45593999997E+02  0.45594000000E+02  0.51100000000E-03 0. -1.
    9900012    2    1    2    0    0 -0.17520234996E+02  0.29444758497E+01  0.59204053703E+01  0.72461554205E+02  0.69999979041E+02 0.  0.
        -12    1    1    2    0    0  0.17520234996E+02 -0.29444758497E+01 -0.59204053703E+01  0.18726445795E+02  0.00000000000E+00 0.  1.
         11    1    3    3    0    0 -0.52933360204E+01  0.27797173915E+02 -0.14692018638E+02  0.31883501937E+02  0.51100000000E-03 0. -1.
        -11    1    3    3    0    0 -0.14378080962E+01  0.10084125620E+01 -0.33014944929E+01  0.37395259277E+01  0.51100000000E-03 0.  1.
        -12    1    3    3    0    0 -0.10789090880E+02 -0.25861110627E+02  0.23913918501E+02  0.36838526340E+02  0.00000000000E+00 0.  1.
</event>
<event>
 7    1  0.1788006E-013  0.7246161E+02  0.7816164E-02  0.1226708E+00
        -11   -1    0    0    0    0  0.00000000000E+00  0.00000000000E+00  0.45593999997E+02  0.45594000000E+02  0.51100000000E-03 0.  1.
         11   -1    0    0    0    0 -0.00000000000E+00 -0.00000000000E+00 -0.45593999997E+02  0.45594000000E+02  0.51100000000E-03 0. -1.
    9900012    2    1    2    0    0 -0.22756467549E+01 -0.18580918522E+02  0.49850229960E+00  0.72461612045E+02  0.70000054388E+02 0.  0.
        -12    1    1    2    0    0  0.22756467549E+01  0.18580918522E+02 -0.49850229960E+00  0.18726387955E+02  0.00000000000E+00 0.  1.
         11    1    3    3    0    0  0.91265805770E-01  0.15147644480E+02  0.32875499833E+01  0.15500562825E+02  0.51100000000E-03 0. -1.
        -11    1    3    3    0    0  0.10434702428E+02 -0.23940424397E+02  0.17210762741E+02  0.31276785152E+02  0.51100000000E-03 0.  1.
         12    1    3    3    0    0 -0.12801614989E+02 -0.97881386054E+01 -0.19999810425E+02  0.25684264068E+02  0.00000000000E+00 0. -1.
</event>
<event>
 7    1  0.1788006E-013  0.7246135E+02  0.7816164E-02  0.1226709E+00
        -11   -1    0    0    0    0  0.00000000000E+00  0.00000000000E+00  0.45593999997E+02  0.45594000000E+02  0.51100000000E-03 0.  1.
         11   -1    0    0    0    0 -0.00000000000E+00 -0.00000000000E+00 -0.45593999997E+02  0.45594000000E+02  0.51100000000E-03 0. -1.
    9900012    2    1    2    0    0 -0.27578064405E+01 -0.18371843993E+02  0.23574225499E+01  0.72461345490E+02  0.69999707149E+02 0.  0.
        -12    1    1    2    0    0  0.27578064405E+01  0.18371843993E+02 -0.23574225499E+01  0.18726654510E+02  0.00000000000E+00 0.  1.
         11    1    3    3    0    0  0.12915129088E+01  0.79581696944E+01 -0.24766873025E+02  0.26046083586E+02  0.51100000000E-03 0. -1.
        -11    1    3    3    0    0  0.78545733445E+01 -0.52763556525E+01 -0.77264163355E+00  0.94937467182E+01  0.51100000000E-03 0.  1.
        -12    1    3    3    0    0 -0.11903892694E+02 -0.21053658035E+02  0.27896937209E+02  0.36921515185E+02  0.00000000000E+00 0.  1.
</event>
<event>
 7    1  0.1788006E-013  0.7246155E+02  0.7816164E-02  0.1226708E+00
        -11   -1    0    0    0    0  0.00000000000E+00  0.00000000000E+00  0.45593999997E+02  0.45594000000E+02  0.51100000000E-03 0. -1.
         11   -1    0    0    0    0 -0.00000000000E+00 -0.00000000000E+00 -0.45593999997E+02  0.45594000000E+02  0.51100000000E-03 0.  1.
    9900012    2    1    2    0    0  0.63902316326E+01 -0.15790931535E+02 -0.77776240922E+01  0.72461547704E+02  0.69999970572E+02 0.  0.
        -12    1    1    2    0    0 -0.63902316326E+01  0.15790931535E+02  0.77776240922E+01  0.18726452296E+02  0.00000000000E+00 0.  1.
         11    1    3    3    0    0 -0.13967801534E+02 -0.83607223002E+01 -0.23171404298E+01  0.16442940647E+02  0.51100000000E-03 0. -1.
        -11    1    3    3    0    0 -0.34299143187E+00 -0.29904424283E+01 -0.26205275555E+02  0.26377582456E+02  0.51100000000E-03 0.  1.
         12    1    3    3    0    0  0.20701024599E+02 -0.44397668068E+01  0.20744791893E+02  0.29641024601E+02  0.00000000000E+00 0. -1.
</event>
<event>
 7    1  0.1788006E-013  0.7246157E+02  0.7816164E-02  0.1226708E+00
        -11   -1    0    0    0    0  0.00000000000E+00  0.00000000000E+00  0.45593999997E+02  0.45594000000E+02  0.51100000000E-03 0.  1.
         11   -1    0    0    0    0 -0.00000000000E+00 -0.00000000000E+00 -0.45593999997E+02  0.45594000000E+02  0.51100000000E-03 0. -1.
    9900012    2    1    2    0    0  0.38558844878E+01  0.11914601728E+01 -0.18286381772E+02  0.72461569992E+02  0.69999999606E+02 0.  0.
        -12    1    1    2    0    0 -0.38558844878E+01 -0.11914601728E+01  0.18286381772E+02  0.18726430008E+02  0.00000000000E+00 0.  1.
         11    1    3    3    0    0  0.15670905499E+01  0.10747568269E+01 -0.29929960052E+02  0.29990221473E+02  0.51100000000E-03 0. -1.
        -11    1    3    3    0    0  0.10049479926E+01 -0.18146100837E+02 -0.37442369940E+01  0.18555597727E+02  0.51100000000E-03 0.  1.
         12    1    3    3    0    0  0.12838459454E+01  0.18262804183E+02  0.15387815274E+02  0.23915750792E+02  0.00000000000E+00 0. -1.
</event>
<event>
 7    1  0.1788006E-013  0.7246158E+02  0.7816164E-02  0.1226708E+00
        -11   -1    0    0    0    0  0.00000000000E+00  0.00000000000E+00  0.45593999997E+02  0.45594000000E+02  0.51100000000E-03 0.  1.
         11   -1    0    0    0    0 -0.00000000000E+00 -0.00000000000E+00 -0.45593999997E+02  0.45594000000E+02  0.51100000000E-03 0. -1.
    9900012    2    1    2    0    0  0.11862628849E+02  0.34280471334E+01 -0.14078535396E+02  0.72461584720E+02  0.70000018792E+02 0.  0.
        -12    1    1    2    0    0 -0.11862628849E+02 -0.34280471334E+01  0.14078535396E+02  0.18726415280E+02  0.00000000000E+00 0.  1.
         11    1    3    3    0    0  0.17454611717E+02  0.13355402965E+01 -0.13551446136E+02  0.22137950012E+02  0.51100000000E-03 0. -1.
        -11    1    3    3    0    0  0.39048533178E+01 -0.71487505035E+01 -0.22908530195E+02  0.24313643683E+02  0.51100000000E-03 0.  1.
        -12    1    3    3    0    0 -0.94968361862E+01  0.92412573404E+01  0.22381440935E+02  0.26009991025E+02  0.00000000000E+00 0.  1.
</event>
<event>
 7    1  0.1788006E-013  0.7246170E+02  0.7816164E-02  0.1226708E+00
        -11   -1    0    0    0    0  0.00000000000E+00  0.00000000000E+00  0.45593999997E+02  0.45594000000E+02  0.51100000000E-03 0.  1.
         11   -1    0    0    0    0 -0.00000000000E+00 -0.00000000000E+00 -0.45593999997E+02  0.45594000000E+02  0.51100000000E-03 0. -1.
    9900012    2    1    2    0    0  0.63470768000E+01 -0.15592798908E+02  0.82008220808E+01  0.72461701794E+02  0.70000171302E+02 0.  0.
        -12    1    1    2    0    0 -0.63470768000E+01  0.15592798908E+02 -0.82008220808E+01  0.18726298206E+02  0.00000000000E+00 0.  1.
         11    1    3    3    0    0 -0.12643513029E+01  0.10705792406E+01 -0.50934197116E+01  0.53560852072E+01  0.51100000000E-03 0. -1.
        -11    1    3    3    0    0  0.54742632411E+01  0.99570438298E+01  0.32356921180E+02  0.34294031965E+02  0.51100000000E-03 0.  1.
         12    1    3    3    0    0  0.21371648618E+01 -0.26620421979E+02 -0.19062679388E+02  0.32811584622E+02  0.00000000000E+00 0. -1.
</event>
<event>
 7    1  0.1788006E-013  0.7246160E+02  0.7816164E-02  0.1226708E+00
        -11   -1    0    0    0    0  0.00000000000E+00  0.00000000000E+00  0.45593999997E+02  0.45594000000E+02  0.51100000000E-03 0. -1.
         11   -1    0    0    0    0 -0.00000000000E+00 -0.00000000000E+00 -0.45593999997E+02  0.45594000000E+02  0.51100000000E-03 0.  1.
    9900012    2    1    2    0    0 -0.85650045530E+01  0.46300598994E+01  0.15996295041E+02  0.72461595842E+02  0.70000033280E+02 0.  0.
        -12    1    1    2    0    0  0.85650045530E+01 -0.46300598994E+01 -0.15996295041E+02  0.18726404158E+02  0.00000000000E+00 0.  1.
         11    1    3    3    0    0 -0.35486162473E+01 -0.18778361387E+02  0.10400981597E+02  0.21757756136E+02  0.51100000000E-03 0. -1.
        -11    1    3    3    0    0  0.19434831100E+02  0.86141695576E+01  0.61158252383E+01  0.22120576296E+02  0.51100000000E-03 0.  1.
         12    1    3    3    0    0 -0.24451219406E+02  0.14794251728E+02 -0.52051179455E+00  0.28583263410E+02  0.00000000000E+00 0. -1.
</event>
<event>
 7    1  0.1788006E-013  0.7246164E+02  0.7816164E-02  0.1226708E+00
        -11   -1    0    0    0    0  0.00000000000E+00  0.00000000000E+00  0.45593999997E+02  0.45594000000E+02  0.51100000000E-03 0. -1.
         11   -1    0    0    0    0 -0.00000000000E+00 -0.00000000000E+00 -0.45593999997E+02  0.45594000000E+02  0.51100000000E-03 0.  1.
    9900012    2    1    2    0    0 -0.10502732262E+02  0.13998263039E+02 -0.66646718091E+01  0.72461638810E+02  0.70000089255E+02 0.  0.
        -12    1    1    2    0    0  0.10502732262E+02 -0.13998263039E+02  0.66646718091E+01  0.18726361190E+02  0.00000000000E+00 0.  1.
         11    1    3    3    0    0 -0.49089072829E+01 -0.25189799416E+01 -0.29558984434E+01  0.62593902679E+01  0.51100000000E-03 0. -1.
        -11    1    3    3    0    0 -0.66118214476E+01 -0.58674774379E+01 -0.30221960878E+02  0.31488258033E+02  0.51100000000E-03 0.  1.
         12    1    3    3    0    0  0.10179964688E+01  0.22384720419E+02  0.26513187513E+02  0.34713990510E+02  0.00000000000E+00 0. -1.
</event>
<event>
 7    1  0.1788006E-013  0.7246158E+02  0.7816164E-02  0.1226708E+00
        -11   -1    0    0    0    0  0.00000000000E+00  0.00000000000E+00  0.45593999997E+02  0.45594000000E+02  0.51100000000E-03 0.  1.
         11   -1    0    0    0    0 -0.00000000000E+00 -0.00000000000E+00 -0.45593999997E+02  0.45594000000E+02  0.51100000000E-03 0. -1.
    9900012    2    1    2    0    0 -0.18380425269E+01 -0.11555726601E+02 -0.14620727660E+02  0.72461577626E+02  0.70000009551E+02 0.  0.
        -12    1    1    2    0    0  0.18380425269E+01  0.11555726601E+02  0.14620727660E+02  0.18726422374E+02  0.00000000000E+00 0.  1.
         11    1    3    3    0    0 -0.10952348958E+02 -0.85652005495E+01 -0.32910759530E+01  0.14288029582E+02  0.51100000000E-03 0. -1.
        -11    1    3    3    0    0  0.17053947819E+02 -0.20679123383E+02  0.10669572269E+02  0.28849662958E+02  0.51100000000E-03 0.  1.
         12    1    3    3    0    0 -0.79396413878E+01  0.17688597332E+02 -0.21999223977E+02  0.29323885086E+02  0.00000000000E+00 0. -1.
</event>
<event>
 7    1  0.1788006E-013  0.7246151E+02  0.7816164E-02  0.1226708E+00
        -11   -1    0    0    0    0  0.00000000000E+00  0.00000000000E+00  0.45593999997E+02  0.45594000000E+02  0.51100000000E-03 0.  1.
         11   -1    0    0    0    0 -0.00000000000E+00 -0.00000000000E+00 -0.45593999997E+02  0.45594000000E+02  0.51100000000E-03 0. -1.
    9900012    2    1    2    0    0 -0.32940806974E+01  0.33686666667E+01 -0.18124084759E+02  0.72461512579E+02  0.69999924816E+02 0.  0.
        -12    1    1    2    0    0  0.32940806974E+01 -0.33686666667E+01  0.18124084759E+02  0.18726487421E+02  0.00000000000E+00 0.  1.
         11    1    3    3    0    0  0.21781681554E+02 -0.14704843118E+02  0.79656962233E+01  0.27461361565E+02  0.51100000000E-03 0. -1.
        -11    1    3    3    0    0  0.22661084567E+01  0.26522618164E+01  0.89872093048E+00  0.36024213874E+01  0.51100000000E-03 0.  1.
        -12    1    3    3    0    0 -0.27341870708E+02  0.15421247968E+02 -0.26988501913E+02  0.41397729627E+02  0.00000000000E+00 0.  1.
</event>
<event>
 7    1  0.1788006E-013  0.7246158E+02  0.7816164E-02  0.1226708E+00
        -11   -1    0    0    0    0  0.00000000000E+00  0.00000000000E+00  0.45593999997E+02  0.45594000000E+02  0.51100000000E-03 0. -1.
         11   -1    0    0    0    0 -0.00000000000E+00 -0.00000000000E+00 -0.45593999997E+02  0.45594000000E+02  0.51100000000E-03 0.  1.
    9900012    2    1    2    0    0 -0.15260792107E+02 -0.85302385102E+01  0.67098616543E+01  0.72461575136E+02  0.70000006307E+02 0.  0.
        -12    1    1    2    0    0  0.15260792107E+02  0.85302385102E+01 -0.67098616543E+01  0.18726424864E+02  0.00000000000E+00 0.  1.
         11    1    3    3    0    0 -0.77860109781E+01 -0.10741365022E+02  0.11465894458E+01  0.13315913679E+02  0.51100000000E-03 0. -1.
        -11    1    3    3    0    0 -0.26248280834E+02  0.19677988848E+02  0.66811576776E+01  0.33478849443E+02  0.51100000000E-03 0.  1.
         12    1    3    3    0    0  0.18773499705E+02 -0.17466862335E+02 -0.11178854692E+01  0.25666812014E+02  0.00000000000E+00 0. -1.
</event>
<event>
 7    1  0.1788006E-013  0.7246165E+02  0.7816164E-02  0.1226708E+00
        -11   -1    0    0    0    0  0.00000000000E+00  0.00000000000E+00  0.45593999997E+02  0.45594000000E+02  0.51100000000E-03 0.  1.
         11   -1    0    0    0    0 -0.00000000000E+00 -0.00000000000E+00 -0.45593999997E+02  0.45594000000E+02  0.51100000000E-03 0. -1.
    9900012    2    1    2    0    0 -0.42401780607E+00 -0.89830408929E+01 -0.16425633365E+02  0.72461648347E+02  0.70000101678E+02 0.  0.
        -12    1    1    2    0    0  0.42401780607E+00  0.89830408929E+01  0.16425633365E+02  0.18726351653E+02  0.00000000000E+00 0.  1.
         11    1    3    3    0    0 -0.19369318849E+02 -0.16387682593E+01  0.43677232110E+01  0.19923179475E+02  0.51100000000E-03 0. -1.
        -11    1    3    3    0    0 -0.52837345962E+01 -0.15223302034E+02  0.44039247388E+01  0.16705128837E+02  0.51100000000E-03 0.  1.
         12    1    3    3    0    0  0.24229035639E+02  0.78790294007E+01 -0.25197281315E+02  0.35833340034E+02  0.00000000000E+00 0. -1.
</event>
<event>
 7    1  0.1788006E-013  0.7246156E+02  0.7816164E-02  0.1226708E+00
        -11   -1    0    0    0    0  0.00000000000E+00  0.00000000000E+00  0.45593999997E+02  0.45594000000E+02  0.51100000000E-03 0. -1.
         11   -1    0    0    0    0 -0.00000000000E+00 -0.00000000000E+00 -0.45593999997E+02  0.45594000000E+02  0.51100000000E-03 0.  1.
    9900012    2    1    2    0    0 -0.11771138252E+02 -0.14366348397E+02 -0.23932807207E+01  0.72461562682E+02  0.69999990084E+02 0.  0.
        -12    1    1    2    0    0  0.11771138252E+02  0.14366348397E+02  0.23932807207E+01  0.18726437318E+02  0.00000000000E+00 0.  1.
         11    1    3    3    0    0 -0.23945251768E+02 -0.28471210994E+01  0.17060234158E+02  0.29538665687E+02  0.51100000000E-03 0. -1.
        -11    1    3    3    0    0 -0.35518570405E+00  0.47361527897E+01  0.76020560600E+01  0.89637356461E+01  0.51100000000E-03 0.  1.
        -12    1    3    3    0    0  0.12529299220E+02 -0.16255380087E+02 -0.27055570938E+02  0.33959161349E+02  0.00000000000E+00 0.  1.
</event>
<event>
 7    1  0.1788006E-013  0.7246173E+02  0.7816164E-02  0.1226708E+00
        -11   -1    0    0    0    0  0.00000000000E+00  0.00000000000E+00  0.45593999997E+02  0.45594000000E+02  0.51100000000E-03 0.  1.
         11   -1    0    0    0    0 -0.00000000000E+00 -0.00000000000E+00 -0.45593999997E+02  0.45594000000E+02  0.51100000000E-03 0. -1.
    9900012    2    1    2    0    0  0.14647477862E+02  0.16223714352E+01 -0.11553895192E+02  0.72461729926E+02  0.70000207949E+02 0.  0.
        -12    1    1    2    0    0 -0.14647477862E+02 -0.16223714352E+01  0.11553895192E+02  0.18726270074E+02  0.00000000000E+00 0.  1.
         11    1    3    3    0    0 -0.10552765170E+01  0.47433397743E+01  0.93906295313E+01  0.10573400777E+02  0.51100000000E-03 0. -1.
        -11    1    3    3    0    0 -0.96332830512E+01  0.18050976673E+02  0.35638082579E+01  0.20768693525E+02  0.51100000000E-03 0.  1.
         12    1    3    3    0    0  0.25336037431E+02 -0.21171945012E+02 -0.24508332981E+02  0.41119635623E+02  0.00000000000E+00 0. -1.
</event>
<event>
 7    1  0.1788006E-013  0.7246154E+02  0.7816164E-02  0.1226708E+00
        -11   -1    0    0    0    0  0.00000000000E+00  0.00000000000E+00  0.45593999997E+02  0.45594000000E+02  0.51100000000E-03 0. -1.
         11   -1    0    0    0    0 -0.00000000000E+00 -0.00000000000E+00 -0.45593999997E+02  0.45594000000E+02  0.51100000000E-03 0.  1.
    9900012    2    1    2    0    0  0.16070662842E+02  0.38203548610E+01  0.88215008652E+01  0.72461542968E+02  0.69999964402E+02 0.  0.
        -12    1    1    2    0    0 -0.16070662842E+02 -0.38203548610E+01 -0.88215008652E+01  0.18726457032E+02  0.00000000000E+00 0.  1.
         11    1    3    3    0    0  0.14128841363E+02 -0.11391684003E+02 -0.18394060818E+01  0.18242204847E+02  0.51100000000E-03 0. -1.
        -11    1    3    3    0    0  0.23832051114E+02 -0.27254049595E+01  0.97810328759E+01  0.25904885579E+02  0.51100000000E-03 0.  1.
        -12    1    3    3    0    0 -0.21890229634E+02  0.17937443823E+02  0.87987407117E+00  0.28314452542E+02  0.00000000000E+00 0.  1.
</event>
<event>
 7    1  0.1788006E-013  0.7246145E+02  0.7816164E-02  0.1226708E+00
        -11   -1    0    0    0    0  0.00000000000E+00  0.00000000000E+00  0.45593999997E+02  0.45594000000E+02  0.51100000000E-03 0. -1.
         11   -1    0    0    0    0 -0.00000000000E+00 -0.00000000000E+00 -0.45593999997E+02  0.45594000000E+02  0.51100000000E-03 0.  1.
    9900012    2    1    2    0    0  0.98230485038E+01  0.59828478528E+01  0.14778263456E+02  0.72461446096E+02  0.69999838209E+02 0.  0.
        -12    1    1    2    0    0 -0.98230485038E+01 -0.59828478528E+01 -0.14778263456E+02  0.18726553904E+02  0.00000000000E+00 0.  1.
         11    1    3    3    0    0 -0.13215062964E+02 -0.21482860351E+01 -0.35053708748E+00  0.13393128781E+02  0.51100000000E-03 0.  1.
        -11    1    3    3    0    0  0.35548035820E+02  0.21217905103E+01 -0.35612874979E+01  0.35788931453E+02  0.51100000000E-03 0. -1.
         12    1    3    3    0    0 -0.12509924352E+02  0.60093433776E+01  0.18690088041E+02  0.23279385862E+02  0.00000000000E+00 0. -1.
</event>
<event>
 7    1  0.1788006E-013  0.7246158E+02  0.7816164E-02  0.1226708E+00
        -11   -1    0    0    0    0  0.00000000000E+00  0.00000000000E+00  0.45593999997E+02  0.45594000000E+02  0.51100000000E-03 0.  1.
         11   -1    0    0    0    0 -0.00000000000E+00 -0.00000000000E+00 -0.45593999997E+02  0.45594000000E+02  0.51100000000E-03 0. -1.
    9900012    2    1    2    0    0 -0.95268324977E+01  0.10083300797E+02 -0.12579554402E+02  0.72461583329E+02  0.70000016979E+02 0.  0.
        -12    1    1    2    0    0  0.95268324977E+01 -0.10083300797E+02  0.12579554402E+02  0.18726416671E+02  0.00000000000E+00 0.  1.
         11    1    3    3    0    0  0.51116927665E+01  0.50746867259E+01 -0.14281111105E+02  0.15994748606E+02  0.51100000000E-03 0. -1.
        -11    1    3    3    0    0  0.15457862280E+02 -0.64657486303E+01  0.14154296712E+02  0.21933889926E+02  0.51100000000E-03 0.  1.
         12    1    3    3    0    0 -0.30096387544E+02  0.11474362702E+02 -0.12452740008E+02  0.34532944797E+02  0.00000000000E+00 0. -1.
</event>
<event>
 7    1  0.1788006E-013  0.7246155E+02  0.7816164E-02  0.1226708E+00
        -11   -1    0    0    0    0  0.00000000000E+00  0.00000000000E+00  0.45593999997E+02  0.45594000000E+02  0.51100000000E-03 0.  1.
         11   -1    0    0    0    0 -0.00000000000E+00 -0.00000000000E+00 -0.45593999997E+02  0.45594000000E+02  0.51100000000E-03 0. -1.
    9900012    2    1    2    0    0 -0.19233913473E+01  0.17710829304E+02  0.57712201829E+01  0.72461551023E+02  0.69999974895E+02 0.  0.
        -12    1    1    2    0    0  0.19233913473E+01 -0.17710829304E+02 -0.57712201829E+01  0.18726448977E+02  0.00000000000E+00 0.  1.
         11    1    3    3    0    0  0.27593562521E+02 -0.17537322531E+01 -0.59443298860E+01  0.28281006479E+02  0.51100000000E-03 0. -1.
        -11    1    3    3    0    0 -0.10880291003E+02  0.75211564777E+01  0.16885825832E+02  0.21449467158E+02  0.51100000000E-03 0.  1.
        -12    1    3    3    0    0 -0.18636662865E+02  0.11943405079E+02 -0.51702757630E+01  0.22731077385E+02  0.00000000000E+00 0.  1.
</event>
<event>
 7    1  0.1788006E-013  0.7246144E+02  0.7816164E-02  0.1226708E+00
        -11   -1    0    0    0    0  0.00000000000E+00  0.00000000000E+00  0.45593999997E+02  0.45594000000E+02  0.51100000000E-03 0.  1.
         11   -1    0    0    0    0 -0.00000000000E+00 -0.00000000000E+00 -0.45593999997E+02  0.45594000000E+02  0.51100000000E-03 0. -1.
    9900012    2    1    2    0    0  0.29946953596E+01  0.85816948820E+01 -0.16372858393E+02  0.72461436533E+02  0.69999825751E+02 0.  0.
        -12    1    1    2    0    0 -0.29946953596E+01 -0.85816948820E+01  0.16372858393E+02  0.18726563467E+02  0.00000000000E+00 0.  1.
         11    1    3    3    0    0 -0.87920184630E+01  0.78796695331E+00 -0.24223566374E+02  0.25781808484E+02  0.51100000000E-03 0. -1.
        -11    1    3    3    0    0 -0.75359726231E+01 -0.10281847109E+02 -0.87335271124E+01  0.15452564817E+02  0.51100000000E-03 0.  1.
        -12    1    3    3    0    0  0.19322686446E+02  0.18075575037E+02  0.16584235094E+02  0.31227063231E+02  0.00000000000E+00 0.  1.
</event>
<event>
 7    1  0.1788006E-013  0.7246155E+02  0.7816164E-02  0.1226708E+00
        -11   -1    0    0    0    0  0.00000000000E+00  0.00000000000E+00  0.45593999997E+02  0.45594000000E+02  0.51100000000E-03 0. -1.
         11   -1    0    0    0    0 -0.00000000000E+00 -0.00000000000E+00 -0.45593999997E+02  0.45594000000E+02  0.51100000000E-03 0.  1.
    9900012    2    1    2    0    0 -0.14949727952E+02  0.10943193411E+02 -0.27261552772E+01  0.72461554249E+02  0.69999979098E+02 0.  0.
        -12    1    1    2    0    0  0.14949727952E+02 -0.10943193411E+02  0.27261552772E+01  0.18726445751E+02  0.00000000000E+00 0.  1.
         11    1    3    3    0    0  0.16071315044E+02 -0.55395736010E+01  0.12723728899E+01  0.17046787848E+02  0.51100000000E-03 0. -1.
        -11    1    3    3    0    0  0.73938282423E+01  0.14372392779E+02 -0.50324481341E+01  0.16928080363E+02  0.51100000000E-03 0.  1.
        -12    1    3    3    0    0 -0.38414871239E+02  0.21103742325E+01  0.10339199670E+01  0.38486686038E+02  0.00000000000E+00 0.  1.
</event>
<event>
 7    1  0.1788006E-013  0.7246159E+02  0.7816164E-02  0.1226708E+00
        -11   -1    0    0    0    0  0.00000000000E+00  0.00000000000E+00  0.45593999997E+02  0.45594000000E+02  0.51100000000E-03 0.  1.
         11   -1    0    0    0    0 -0.00000000000E+00 -0.00000000000E+00 -0.45593999997E+02  0.45594000000E+02  0.51100000000E-03 0. -1.
    9900012    2    1    2    0    0 -0.16295409732E+02  0.91932212205E+01 -0.78917292979E+00  0.72461588474E+02  0.70000023682E+02 0.  0.
        -12    1    1    2    0    0  0.16295409732E+02 -0.91932212205E+01  0.78917292979E+00  0.18726411526E+02  0.00000000000E+00 0.  1.
         11    1    3    3    0    0 -0.33047005687E+02  0.12500857642E+02 -0.29244874524E+01  0.35453189613E+02  0.51100000000E-03 0. -1.
        -11    1    3    3    0    0 -0.58859714346E+01  0.93039365490E+01  0.12444613610E+01  0.11079556822E+02  0.51100000000E-03 0.  1.
        -12    1    3    3    0    0  0.22637567389E+02 -0.12611572970E+02  0.89085316168E+00  0.25928842038E+02  0.00000000000E+00 0.  1.
</event>
<event>
 7    1  0.1788006E-013  0.7246145E+02  0.7816164E-02  0.1226708E+00
        -11   -1    0    0    0    0  0.00000000000E+00  0.00000000000E+00  0.45593999997E+02  0.45594000000E+02  0.51100000000E-03 0. -1.
         11   -1    0    0    0    0 -0.00000000000E+00 -0.00000000000E+00 -0.45593999997E+02  0.45594000000E+02  0.51100000000E-03 0.  1.
    9900012    2    1    2    0    0  0.98628512798E+01 -0.15824452240E+02  0.17304511435E+01  0.72461452395E+02  0.69999846414E+02 0.  0.
        -12    1    1    2    0    0 -0.98628512798E+01  0.15824452240E+02 -0.17304511435E+01  0.18726547605E+02  0.00000000000E+00 0.  1.
         11    1    3    3    0    0  0.97863625125E+00  0.33928886643E+01  0.66352584771E+01  0.75163872785E+01  0.51100000000E-03 0. -1.
        -11    1    3    3    0    0  0.70726381394E+01  0.10254625052E+02 -0.25882539578E+02  0.28724299826E+02  0.51100000000E-03 0.  1.
         12    1    3    3    0    0  0.18115768892E+01 -0.29471965956E+02  0.20977732244E+02  0.36220765291E+02  0.00000000000E+00 0. -1.
</event>
<event>
 7    1  0.1788006E-013  0.7246160E+02  0.7816164E-02  0.1226708E+00
        -11   -1    0    0    0    0  0.00000000000E+00  0.00000000000E+00  0.45593999997E+02  0.45594000000E+02  0.51100000000E-03 0. -1.
         11   -1    0    0    0    0 -0.00000000000E+00 -0.00000000000E+00 -0.45593999997E+02  0.45594000000E+02  0.51100000000E-03 0.  1.
    9900012    2    1    2    0    0  0.17161858699E+02 -0.28582893234E+01  0.69266784215E+01  0.72461599230E+02  0.70000037694E+02 0.  0.
        -12    1    1    2    0    0 -0.17161858699E+02  0.28582893234E+01 -0.69266784215E+01  0.18726400770E+02  0.00000000000E+00 0.  1.
         11    1    3    3    0    0  0.25644099944E+02 -0.61599144030E+01  0.76903937625E+01  0.27471923192E+02  0.51100000000E-03 0. -1.
        -11    1    3    3    0    0  0.43679613653E+01 -0.65635952054E+01 -0.19015526100E+02  0.20585191319E+02  0.51100000000E-03 0.  1.
        -12    1    3    3    0    0 -0.12850202610E+02  0.98652202850E+01  0.18251810759E+02  0.24404484719E+02  0.00000000000E+00 0.  1.
</event>
<event>
 7    1  0.1788006E-013  0.7246157E+02  0.7816164E-02  0.1226708E+00
        -11   -1    0    0    0    0  0.00000000000E+00  0.00000000000E+00  0.45593999997E+02  0.45594000000E+02  0.51100000000E-03 0. -1.
         11   -1    0    0    0    0 -0.00000000000E+00 -0.00000000000E+00 -0.45593999997E+02  0.45594000000E+02  0.51100000000E-03 0.  1.
    9900012    2    1    2    0    0 -0.79804558194E+01 -0.64102545236E+00  0.16928688540E+02  0.72461572567E+02  0.70000002960E+02 0.  0.
        -12    1    1    2    0    0  0.79804558194E+01  0.64102545236E+00 -0.16928688540E+02  0.18726427433E+02  0.00000000000E+00 0.  1.
         11    1    3    3    0    0  0.72206757628E+01  0.23136273464E+02  0.21317922830E+02  0.32278152709E+02  0.51100000000E-03 0. -1.
        -11    1    3    3    0    0 -0.55537863811E+01  0.50617429944E+01  0.41674302039E+01  0.85926282402E+01  0.51100000000E-03 0.  1.
        -12    1    3    3    0    0 -0.96473452010E+01 -0.28839041911E+02 -0.85566644935E+01  0.31590791617E+02  0.00000000000E+00 0.  1.
</event>
<event>
 7    1  0.1788006E-013  0.7246185E+02  0.7816164E-02  0.1226707E+00
        -11   -1    0    0    0    0  0.00000000000E+00  0.00000000000E+00  0.45593999997E+02  0.45594000000E+02  0.51100000000E-03 0. -1.
         11   -1    0    0    0    0 -0.00000000000E+00 -0.00000000000E+00 -0.45593999997E+02  0.45594000000E+02  0.51100000000E-03 0.  1.
    9900012    2    1    2    0    0  0.76882039677E+01 -0.15164200259E+02  0.78490199906E+01  0.72461853451E+02  0.70000368863E+02 0.  0.
        -12    1    1    2    0    0 -0.76882039677E+01  0.15164200259E+02 -0.78490199906E+01  0.18726146549E+02  0.00000000000E+00 0.  1.
         11    1    3    3    0    0 -0.28361131407E+01 -0.76962435868E+00  0.11057083153E+02  0.11440932983E+02  0.51100000000E-03 0. -1.
        -11    1    3    3    0    0 -0.13895459909E+02 -0.16083616276E+02  0.18594849824E+02  0.28240661445E+02  0.51100000000E-03 0.  1.
        -12    1    3    3    0    0  0.24419777017E+02  0.16890403758E+01 -0.21802912986E+02  0.32780259024E+02  0.00000000000E+00 0.  1.
</event>
<event>
 7    1  0.1788006E-013  0.7246160E+02  0.7816164E-02  0.1226708E+00
        -11   -1    0    0    0    0  0.00000000000E+00  0.00000000000E+00  0.45593999997E+02  0.45594000000E+02  0.51100000000E-03 0.  1.
         11   -1    0    0    0    0 -0.00000000000E+00 -0.00000000000E+00 -0.45593999997E+02  0.45594000000E+02  0.51100000000E-03 0. -1.
    9900012    2    1    2    0    0 -0.13429815109E+02 -0.51105781826E+01  0.12008334627E+02  0.72461600353E+02  0.70000039157E+02 0.  0.
        -12    1    1    2    0    0  0.13429815109E+02  0.51105781826E+01 -0.12008334627E+02  0.18726399647E+02  0.00000000000E+00 0.  1.
         11    1    3    3    0    0 -0.14080294366E+02  0.87083244636E+01 -0.39143427338E+01  0.17012104035E+02  0.51100000000E-03 0. -1.
        -11    1    3    3    0    0 -0.19102062844E+02  0.97907854093E+01  0.11497150398E+02  0.24350210499E+02  0.51100000000E-03 0.  1.
         12    1    3    3    0    0  0.19752542101E+02 -0.23609688056E+02  0.44255269624E+01  0.31099285819E+02  0.00000000000E+00 0. -1.
</event>
<event>
 7    1  0.1788006E-013  0.7246152E+02  0.7816164E-02  0.1226708E+00
        -11   -1    0    0    0    0  0.00000000000E+00  0.00000000000E+00  0.45593999997E+02  0.45594000000E+02  0.51100000000E-03 0.  1.
         11   -1    0    0    0    0 -0.00000000000E+00 -0.00000000000E+00 -0.45593999997E+02  0.45594000000E+02  0.51100000000E-03 0. -1.
    9900012    2    1    2    0    0 -0.14314496755E+02  0.29114285216E+01 -0.11717499327E+02  0.72461520783E+02  0.69999935502E+02 0.  0.
        -12    1    1    2    0    0  0.14314496755E+02 -0.29114285216E+01  0.11717499327E+02  0.18726479217E+02  0.00000000000E+00 0.  1.
         11    1    3    3    0    0  0.21801198709E+02  0.14136462206E+02  0.11327544122E+01  0.26007978808E+02  0.51100000000E-03 0. -1.
        -11    1    3    3    0    0 -0.27464488219E+01  0.11340838641E+00 -0.10807317711E+02  0.11151410627E+02  0.51100000000E-03 0.  1.
        -12    1    3    3    0    0 -0.33369246643E+02 -0.11338442070E+02 -0.20429360279E+01  0.35302131348E+02  0.00000000000E+00 0.  1.
</event>
<event>
 7    1  0.1788006E-013  0.7246158E+02  0.7816164E-02  0.1226708E+00
        -11   -1    0    0    0    0  0.00000000000E+00  0.00000000000E+00  0.45593999997E+02  0.45594000000E+02  0.51100000000E-03 0.  1.
         11   -1    0    0    0    0 -0.00000000000E+00 -0.00000000000E+00 -0.45593999997E+02  0.45594000000E+02  0.51100000000E-03 0. -1.
    9900012    2    1    2    0    0 -0.10406108034E+01  0.16165417904E+01 -0.18627475959E+02  0.72461576455E+02  0.70000008025E+02 0.  0.
        -12    1    1    2    0    0  0.10406108034E+01 -0.16165417904E+01  0.18627475959E+02  0.18726423545E+02  0.00000000000E+00 0.  1.
         11    1    3    3    0    0  0.15628861269E+02 -0.88569657148E+01 -0.28393786293E+02  0.33599319138E+02  0.51100000000E-03 0. -1.
        -11    1    3    3    0    0 -0.11865696141E+01  0.13752421418E+02 -0.72768241972E+01  0.15604140892E+02  0.51100000000E-03 0.  1.
        -12    1    3    3    0    0 -0.15482902458E+02 -0.32789139128E+01  0.17043134532E+02  0.23258116425E+02  0.00000000000E+00 0.  1.
</event>
<event>
 7    1  0.1788006E-013  0.7246154E+02  0.7816164E-02  0.1226708E+00
        -11   -1    0    0    0    0  0.00000000000E+00  0.00000000000E+00  0.45593999997E+02  0.45594000000E+02  0.51100000000E-03 0.  1.
         11   -1    0    0    0    0 -0.00000000000E+00 -0.00000000000E+00 -0.45593999997E+02  0.45594000000E+02  0.51100000000E-03 0. -1.
    9900012    2    1    2    0    0 -0.96394931782E+01 -0.11496892317E+02 -0.11206337439E+02  0.72461538495E+02  0.69999958576E+02 0.  0.
        -12    1    1    2    0    0  0.96394931782E+01  0.11496892317E+02  0.11206337439E+02  0.18726461505E+02  0.00000000000E+00 0.  1.
         11    1    3    3    0    0 -0.12124870531E+02  0.21300149073E+02  0.10419748826E+02  0.26632311236E+02  0.51100000000E-03 0. -1.
        -11    1    3    3    0    0  0.81720844858E+01 -0.13805148803E+02 -0.20419294305E+02  0.25967531236E+02  0.51100000000E-03 0.  1.
        -12    1    3    3    0    0 -0.56867071331E+01 -0.18991892587E+02 -0.12067919601E+01  0.19861696023E+02  0.00000000000E+00 0.  1.
</event>
<event>
 7    1  0.1788006E-013  0.7246154E+02  0.7816164E-02  0.1226708E+00
        -11   -1    0    0    0    0  0.00000000000E+00  0.00000000000E+00  0.45593999997E+02  0.45594000000E+02  0.51100000000E-03 0.  1.
         11   -1    0    0    0    0 -0.00000000000E+00 -0.00000000000E+00 -0.45593999997E+02  0.45594000000E+02  0.51100000000E-03 0. -1.
    9900012    2    1    2    0    0  0.13893030116E+02  0.12210547851E+02  0.29268661490E+01  0.72461539842E+02  0.69999960330E+02 0.  0.
        -12    1    1    2    0    0 -0.13893030116E+02 -0.12210547851E+02 -0.29268661490E+01  0.18726460158E+02  0.00000000000E+00 0.  1.
         11    1    3    3    0    0 -0.21717475687E+01  0.10811427237E+02 -0.19723057144E+02  0.22596513664E+02  0.51100000000E-03 0. -1.
        -11    1    3    3    0    0  0.11281965345E+02  0.11854862600E+02 -0.71986750634E+01  0.17878518737E+02  0.51100000000E-03 0.  1.
        -12    1    3    3    0    0  0.47828123400E+01 -0.10455741986E+02  0.29848598357E+02  0.31986507440E+02  0.00000000000E+00 0.  1.
</event>
<event>
 7    1  0.1788006E-013  0.7246157E+02  0.7816164E-02  0.1226708E+00
        -11   -1    0    0    0    0  0.00000000000E+00  0.00000000000E+00  0.45593999997E+02  0.45594000000E+02  0.51100000000E-03 0.  1.
         11   -1    0    0    0    0 -0.00000000000E+00 -0.00000000000E+00 -0.45593999997E+02  0.45594000000E+02  0.51100000000E-03 0. -1.
    9900012    2    1    2    0    0 -0.17081450001E+02  0.70932675870E+01  0.29306489394E+01  0.72461572620E+02  0.70000003030E+02 0.  0.
        -12    1    1    2    0    0  0.17081450001E+02 -0.70932675870E+01 -0.29306489394E+01  0.18726427380E+02  0.00000000000E+00 0.  1.
         11    1    3    3    0    0 -0.17040157978E+02  0.10979856295E+02 -0.12948345882E+02  0.24053770797E+02  0.51100000000E-03 0. -1.
        -11    1    3    3    0    0 -0.19007497890E+02  0.27809979039E+01 -0.45545706095E+01  0.19742417255E+02  0.51100000000E-03 0.  1.
         12    1    3    3    0    0  0.18966205867E+02 -0.66675866119E+01  0.20433565431E+02  0.28665384569E+02  0.00000000000E+00 0. -1.
</event>
<event>
 7    1  0.1788006E-013  0.7246153E+02  0.7816164E-02  0.1226708E+00
        -11   -1    0    0    0    0  0.00000000000E+00  0.00000000000E+00  0.45593999997E+02  0.45594000000E+02  0.51100000000E-03 0.  1.
         11   -1    0    0    0    0 -0.00000000000E+00 -0.00000000000E+00 -0.45593999997E+02  0.45594000000E+02  0.51100000000E-03 0. -1.
    9900012    2    1    2    0    0 -0.18093505800E+02  0.38174481902E+01 -0.29551135460E+01  0.72461533198E+02  0.69999951675E+02 0.  0.
        -12    1    1    2    0    0  0.18093505800E+02 -0.38174481902E+01  0.29551135460E+01  0.18726466802E+02  0.00000000000E+00 0.  1.
         11    1    3    3    0    0  0.55896164200E+01 -0.24273482601E+02 -0.83138001551E+01  0.26259570495E+02  0.51100000000E-03 0. -1.
        -11    1    3    3    0    0 -0.38846107073E+01  0.89130527327E+00 -0.88317310725E+01  0.96893807561E+01  0.51100000000E-03 0.  1.
        -12    1    3    3    0    0 -0.19798511513E+02  0.27199625518E+02  0.14190417682E+02  0.36512581947E+02  0.00000000000E+00 0.  1.
</event>
<event>
 7    1  0.1788006E-013  0.7246159E+02  0.7816164E-02  0.1226708E+00
        -11   -1    0    0    0    0  0.00000000000E+00  0.00000000000E+00  0.45593999997E+02  0.45594000000E+02  0.51100000000E-03 0.  1.
         11   -1    0    0    0    0 -0.00000000000E+00 -0.00000000000E+00 -0.45593999997E+02  0.45594000000E+02  0.51100000000E-03 0. -1.
    9900012    2    1    2    0    0  0.87860196830E+01  0.15332282445E+01 -0.16466127631E+02  0.72461593781E+02  0.70000030596E+02 0.  0.
        -12    1    1    2    0    0 -0.87860196830E+01 -0.15332282445E+01  0.16466127631E+02  0.18726406219E+02  0.00000000000E+00 0.  1.
         11    1    3    3    0    0  0.24283148116E+02  0.11019568754E+02 -0.10501182271E+02  0.28659675631E+02  0.51100000000E-03 0.  1.
        -11    1    3    3    0    0 -0.81560785827E+00  0.12849047939E+02 -0.10596784488E+02  0.16674983984E+02  0.51100000000E-03 0. -1.
         12    1    3    3    0    0 -0.14681520575E+02 -0.22335388448E+02  0.46318391283E+01  0.27126934166E+02  0.00000000000E+00 0. -1.
</event>
<event>
 7    1  0.1788006E-013  0.7246160E+02  0.7816164E-02  0.1226708E+00
        -11   -1    0    0    0    0  0.00000000000E+00  0.00000000000E+00  0.45593999997E+02  0.45594000000E+02  0.51100000000E-03 0. -1.
         11   -1    0    0    0    0 -0.00000000000E+00 -0.00000000000E+00 -0.45593999997E+02  0.45594000000E+02  0.51100000000E-03 0.  1.
    9900012    2    1    2    0    0  0.14495625917E+02  0.97049708302E+01  0.68094465880E+01  0.72461596384E+02  0.70000033987E+02 0.  0.
        -12    1    1    2    0    0 -0.14495625917E+02 -0.97049708302E+01 -0.68094465880E+01  0.18726403616E+02  0.00000000000E+00 0.  1.
         11    1    3    3    0    0 -0.39958634997E+01  0.22966719736E+02 -0.94072442591E+01  0.25138285251E+02  0.51100000000E-03 0. -1.
        -11    1    3    3    0    0 -0.83936123378E+01  0.41846552364E+01 -0.31294580688E+01  0.98872430733E+01  0.51100000000E-03 0.  1.
         12    1    3    3    0    0  0.26885101755E+02 -0.17446404143E+02  0.19346148916E+02  0.37436068060E+02  0.00000000000E+00 0. -1.
</event>
<event>
 7    1  0.1788006E-013  0.7246155E+02  0.7816164E-02  0.1226708E+00
        -11   -1    0    0    0    0  0.00000000000E+00  0.00000000000E+00  0.45593999997E+02  0.45594000000E+02  0.51100000000E-03 0.  1.
         11   -1    0    0    0    0 -0.00000000000E+00 -0.00000000000E+00 -0.45593999997E+02  0.45594000000E+02  0.51100000000E-03 0. -1.
    9900012    2    1    2    0    0  0.48619756900E+01 -0.15135653470E+02 -0.98971203174E+01  0.72461553350E+02  0.69999977927E+02 0.  0.
        -12    1    1    2    0    0 -0.48619756900E+01  0.15135653470E+02  0.98971203174E+01  0.18726446650E+02  0.00000000000E+00 0.  1.
         11    1    3    3    0    0  0.10291105174E+02 -0.34183397122E+02 -0.14442777150E+02  0.38509807798E+02  0.51100000000E-03 0. -1.
        -11    1    3    3    0    0  0.23203380786E+01  0.11520717997E+01  0.12591809561E+02  0.12855539915E+02  0.51100000000E-03 0.  1.
        -12    1    3    3    0    0 -0.77494675630E+01  0.17895671853E+02 -0.80461527275E+01  0.21096205637E+02  0.00000000000E+00 0.  1.
</event>
<event>
 7    1  0.1788006E-013  0.7246160E+02  0.7816164E-02  0.1226708E+00
        -11   -1    0    0    0    0  0.00000000000E+00  0.00000000000E+00  0.45593999997E+02  0.45594000000E+02  0.51100000000E-03 0. -1.
         11   -1    0    0    0    0 -0.00000000000E+00 -0.00000000000E+00 -0.45593999997E+02  0.45594000000E+02  0.51100000000E-03 0.  1.
    9900012    2    1    2    0    0 -0.23830496387E+01 -0.63230986293E+01  0.17464754385E+02  0.72461597580E+02  0.70000035545E+02 0.  0.
        -12    1    1    2    0    0  0.23830496387E+01  0.63230986293E+01 -0.17464754385E+02  0.18726402420E+02  0.00000000000E+00 0.  1.
         11    1    3    3    0    0  0.28135441535E+01 -0.24515799766E+02  0.15984461662E+02  0.29401419758E+02  0.51100000000E-03 0. -1.
        -11    1    3    3    0    0 -0.56954201235E+01 -0.79705143115E+01  0.11439726198E+02  0.15061017380E+02  0.51100000000E-03 0.  1.
        -12    1    3    3    0    0  0.49882633126E+00  0.26163215449E+02 -0.99594334754E+01  0.27999160442E+02  0.00000000000E+00 0.  1.
</event>
<event>
 7    1  0.1788006E-013  0.7246159E+02  0.7816164E-02  0.1226708E+00
        -11   -1    0    0    0    0  0.00000000000E+00  0.00000000000E+00  0.45593999997E+02  0.45594000000E+02  0.51100000000E-03 0. -1.
         11   -1    0    0    0    0 -0.00000000000E+00 -0.00000000000E+00 -0.45593999997E+02  0.45594000000E+02  0.51100000000E-03 0.  1.
    9900012    2    1    2    0    0 -0.83671479661E+01  0.76552633450E+01  0.14901889484E+02  0.72461587312E+02  0.70000022169E+02 0.  0.
        -12    1    1    2    0    0  0.83671479661E+01 -0.76552633450E+01 -0.14901889484E+02  0.18726412688E+02  0.00000000000E+00 0.  1.
         11    1    3    3    0    0 -0.10552099550E+02 -0.72383566272E+01  0.19734820489E+02  0.23520283833E+02  0.51100000000E-03 0. -1.
        -11    1    3    3    0    0 -0.42415244931E+01  0.16909175407E+02  0.18046242035E+02  0.25091384873E+02  0.51100000000E-03 0.  1.
        -12    1    3    3    0    0  0.64264760775E+01 -0.20155554348E+01 -0.22879173041E+02  0.23849918607E+02  0.00000000000E+00 0.  1.
</event>
<event>
 7    1  0.1788006E-013  0.7246157E+02  0.7816164E-02  0.1226708E+00
        -11   -1    0    0    0    0  0.00000000000E+00  0.00000000000E+00  0.45593999997E+02  0.45594000000E+02  0.51100000000E-03 0.  1.
         11   -1    0    0    0    0 -0.00000000000E+00 -0.00000000000E+00 -0.45593999997E+02  0.45594000000E+02  0.51100000000E-03 0. -1.
    9900012    2    1    2    0    0 -0.16025800806E+02 -0.56286429734E+01 -0.78848850275E+01  0.72461566140E+02  0.69999994589E+02 0.  0.
        -12    1    1    2    0    0  0.16025800806E+02  0.56286429734E+01  0.78848850275E+01  0.18726433860E+02  0.00000000000E+00 0.  1.
         11    1    3    3    0    0 -0.44203005077E+01 -0.20405313615E+02 -0.40496482123E+01  0.21267711001E+02  0.51100000000E-03 0. -1.
        -11    1    3    3    0    0  0.16260917592E+02 -0.27227714855E+01  0.48045390856E+01  0.17173075484E+02  0.51100000000E-03 0.  1.
         12    1    3    3    0    0 -0.27866417890E+02  0.17499442127E+02 -0.86397759008E+01  0.34020779656E+02  0.00000000000E+00 0. -1.
</event>
<event>
 7    1  0.1788006E-013  0.7246148E+02  0.7816164E-02  0.1226708E+00
        -11   -1    0    0    0    0  0.00000000000E+00  0.00000000000E+00  0.45593999997E+02  0.45594000000E+02  0.51100000000E-03 0.  1.
         11   -1    0    0    0    0 -0.00000000000E+00 -0.00000000000E+00 -0.45593999997E+02  0.45594000000E+02  0.51100000000E-03 0. -1.
    9900012    2    1    2    0    0 -0.12148512826E+02 -0.12177217360E+02 -0.74034726524E+01  0.72461484205E+02  0.69999887852E+02 0.  0.
        -12    1    1    2    0    0  0.12148512826E+02  0.12177217360E+02  0.74034726524E+01  0.18726515795E+02  0.00000000000E+00 0.  1.
         11    1    3    3    0    0  0.52840607468E+01 -0.18064077790E+02  0.17265976282E+00  0.18821849431E+02  0.51100000000E-03 0.  1.
        -11    1    3    3    0    0  0.17197766445E+02  0.43171050705E+01 -0.67234108536E+01  0.18963249211E+02  0.51100000000E-03 0. -1.
        -12    1    3    3    0    0 -0.34630340017E+02  0.15697553591E+01 -0.85272156159E+00  0.34676385562E+02  0.00000000000E+00 0.  1.
</event>
<event>
 7    1  0.1788006E-013  0.7246109E+02  0.7816164E-02  0.1226709E+00
        -11   -1    0    0    0    0  0.00000000000E+00  0.00000000000E+00  0.45593999997E+02  0.45594000000E+02  0.51100000000E-03 0.  1.
         11   -1    0    0    0    0 -0.00000000000E+00 -0.00000000000E+00 -0.45593999997E+02  0.45594000000E+02  0.51100000000E-03 0. -1.
    9900012    2    1    2    0    0 -0.81978367418E+01  0.16787556159E+02  0.12925137253E+01  0.72461089930E+02  0.69999374234E+02 0.  0.
        -12    1    1    2    0    0  0.81978367418E+01 -0.16787556159E+02 -0.12925137253E+01  0.18726910070E+02  0.00000000000E+00 0.  1.
         11    1    3    3    0    0 -0.13735745421E+02 -0.48708411793E+01  0.10533826152E+02  0.17982138075E+02  0.51100000000E-03 0.  1.
        -11    1    3    3    0    0  0.20917378080E+02  0.16873966599E+01  0.95328480625E+01  0.23049060841E+02  0.51100000000E-03 0. -1.
         12    1    3    3    0    0 -0.15379469400E+02  0.19971000678E+02 -0.18774160489E+02  0.31429891015E+02  0.00000000000E+00 0. -1.
</event>
<event>
 7    1  0.1788006E-013  0.7246153E+02  0.7816164E-02  0.1226708E+00
        -11   -1    0    0    0    0  0.00000000000E+00  0.00000000000E+00  0.45593999997E+02  0.45594000000E+02  0.51100000000E-03 0.  1.
         11   -1    0    0    0    0 -0.00000000000E+00 -0.00000000000E+00 -0.45593999997E+02  0.45594000000E+02  0.51100000000E-03 0. -1.
    9900012    2    1    2    0    0 -0.16872356588E+02 -0.16984507624E+01 -0.79447824582E+01  0.72461528893E+02  0.69999946067E+02 0.  0.
        -12    1    1    2    0    0  0.16872356588E+02  0.16984507624E+01  0.79447824582E+01  0.18726471107E+02  0.00000000000E+00 0.  1.
         11    1    3    3    0    0 -0.19033814124E+02 -0.96544016960E+01 -0.54522619473E+00  0.21349258162E+02  0.51100000000E-03 0. -1.
        -11    1    3    3    0    0 -0.15261532871E+02 -0.61357641671E+01  0.12878653503E+02  0.20890708552E+02  0.51100000000E-03 0.  1.
         12    1    3    3    0    0  0.17422990407E+02  0.14091715101E+02 -0.20278209767E+02  0.30221562179E+02  0.00000000000E+00 0. -1.
</event>
<event>
 7    1  0.1788006E-013  0.7246164E+02  0.7816164E-02  0.1226708E+00
        -11   -1    0    0    0    0  0.00000000000E+00  0.00000000000E+00  0.45593999997E+02  0.45594000000E+02  0.51100000000E-03 0.  1.
         11   -1    0    0    0    0 -0.00000000000E+00 -0.00000000000E+00 -0.45593999997E+02  0.45594000000E+02  0.51100000000E-03 0. -1.
    9900012    2    1    2    0    0 -0.15090472105E+02  0.39522567666E+01 -0.10360199460E+02  0.72461643847E+02  0.70000095816E+02 0.  0.
        -12    1    1    2    0    0  0.15090472105E+02 -0.39522567666E+01  0.10360199460E+02  0.18726356153E+02  0.00000000000E+00 0.  1.
         11    1    3    3    0    0 -0.11761905389E+02 -0.10651834320E+01  0.11870797376E+02  0.16744935495E+02  0.51100000000E-03 0. -1.
        -11    1    3    3    0    0  0.19150188482E+02  0.15899519195E+02 -0.50338433507E+01  0.25394172731E+02  0.51100000000E-03 0.  1.
        -12    1    3    3    0    0 -0.22478755198E+02 -0.10882078996E+02 -0.17197153485E+02  0.30322535622E+02  0.00000000000E+00 0.  1.
</event>
<event>
 7    1  0.1788006E-013  0.7246156E+02  0.7816164E-02  0.1226708E+00
        -11   -1    0    0    0    0  0.00000000000E+00  0.00000000000E+00  0.45593999997E+02  0.45594000000E+02  0.51100000000E-03 0. -1.
         11   -1    0    0    0    0 -0.00000000000E+00 -0.00000000000E+00 -0.45593999997E+02  0.45594000000E+02  0.51100000000E-03 0.  1.
    9900012    2    1    2    0    0 -0.18364907502E+02  0.15875215329E+01  0.32999154810E+01  0.72461561622E+02  0.69999988702E+02 0.  0.
        -12    1    1    2    0    0  0.18364907502E+02 -0.15875215329E+01 -0.32999154810E+01  0.18726438378E+02  0.00000000000E+00 0.  1.
         11    1    3    3    0    0 -0.48387433393E+01  0.76950435100E+01  0.15638580237E+02  0.18088458304E+02  0.51100000000E-03 0. -1.
        -11    1    3    3    0    0 -0.76927891942E+01 -0.23025067593E+02  0.95616945729E+01  0.26091353867E+02  0.51100000000E-03 0.  1.
         12    1    3    3    0    0 -0.58333749681E+01  0.16917545616E+02 -0.21900359329E+02  0.28281749450E+02  0.00000000000E+00 0. -1.
</event>
<event>
 7    1  0.1788006E-013  0.7246158E+02  0.7816164E-02  0.1226708E+00
        -11   -1    0    0    0    0  0.00000000000E+00  0.00000000000E+00  0.45593999997E+02  0.45594000000E+02  0.51100000000E-03 0. -1.
         11   -1    0    0    0    0 -0.00000000000E+00 -0.00000000000E+00 -0.45593999997E+02  0.45594000000E+02  0.51100000000E-03 0.  1.
    9900012    2    1    2    0    0 -0.94724870217E+01  0.13464812728E+02  0.89246656701E+01  0.72461578839E+02  0.70000011131E+02 0.  0.
        -12    1    1    2    0    0  0.94724870217E+01 -0.13464812728E+02 -0.89246656701E+01  0.18726421161E+02  0.00000000000E+00 0.  1.
         11    1    3    3    0    0  0.28398563139E+01  0.24524585975E+02  0.44318088859E+01  0.25083082573E+02  0.51100000000E-03 0. -1.
        -11    1    3    3    0    0 -0.10247369743E+02 -0.10345778749E+01 -0.19078294545E+02  0.21680873162E+02  0.51100000000E-03 0.  1.
         12    1    3    3    0    0 -0.20649735930E+01 -0.10025195372E+02  0.23571151330E+02  0.25697623104E+02  0.00000000000E+00 0. -1.
</event>
<event>
 7    1  0.1788006E-013  0.7246162E+02  0.7816164E-02  0.1226708E+00
        -11   -1    0    0    0    0  0.00000000000E+00  0.00000000000E+00  0.45593999997E+02  0.45594000000E+02  0.51100000000E-03 0.  1.
         11   -1    0    0    0    0 -0.00000000000E+00 -0.00000000000E+00 -0.45593999997E+02  0.45594000000E+02  0.51100000000E-03 0. -1.
    9900012    2    1    2    0    0 -0.72706221797E+01  0.16134698510E+02 -0.61226428627E+01  0.72461622921E+02  0.70000068556E+02 0.  0.
        -12    1    1    2    0    0  0.72706221797E+01 -0.16134698510E+02  0.61226428627E+01  0.18726377079E+02  0.00000000000E+00 0.  1.
         11    1    3    3    0    0 -0.86062168917E+00  0.83061006658E+01  0.12857453235E+02  0.15331212669E+02  0.51100000000E-03 0. -1.
        -11    1    3    3    0    0  0.32050192847E+01  0.20992723989E+02  0.10312343021E+02  0.23607435861E+02  0.51100000000E-03 0.  1.
         12    1    3    3    0    0 -0.96150197752E+01 -0.13164126146E+02 -0.29292439119E+02  0.33522974390E+02  0.00000000000E+00 0. -1.
</event>
<event>
 7    1  0.1788006E-013  0.7246157E+02  0.7816164E-02  0.1226708E+00
        -11   -1    0    0    0    0  0.00000000000E+00  0.00000000000E+00  0.45593999997E+02  0.45594000000E+02  0.51100000000E-03 0. -1.
         11   -1    0    0    0    0 -0.00000000000E+00 -0.00000000000E+00 -0.45593999997E+02  0.45594000000E+02  0.51100000000E-03 0.  1.
    9900012    2    1    2    0    0 -0.45156460844E+01  0.17514082011E+02  0.48523258929E+01  0.72461569619E+02  0.69999999120E+02 0.  0.
        -12    1    1    2    0    0  0.45156460844E+01 -0.17514082011E+02 -0.48523258929E+01  0.18726430381E+02  0.00000000000E+00 0.  1.
         11    1    3    3    0    0  0.76666847887E+01  0.30403602544E+02 -0.28360936286E+01  0.31483337349E+02  0.51100000000E-03 0. -1.
        -11    1    3    3    0    0 -0.52701688048E+01  0.68476868892E+01 -0.10263977580E+02  0.13416956845E+02  0.51100000000E-03 0.  1.
        -12    1    3    3    0    0 -0.69121620683E+01 -0.19737207423E+02  0.17952397102E+02  0.27561275424E+02  0.00000000000E+00 0.  1.
</event>
<event>
 7    1  0.1788006E-013  0.7246159E+02  0.7816164E-02  0.1226708E+00
        -11   -1    0    0    0    0  0.00000000000E+00  0.00000000000E+00  0.45593999997E+02  0.45594000000E+02  0.51100000000E-03 0. -1.
         11   -1    0    0    0    0 -0.00000000000E+00 -0.00000000000E+00 -0.45593999997E+02  0.45594000000E+02  0.51100000000E-03 0.  1.
    9900012    2    1    2    0    0 -0.11006807265E+02 -0.94113384057E+01 -0.11872466781E+02  0.72461586456E+02  0.70000021054E+02 0.  0.
        -12    1    1    2    0    0  0.11006807265E+02  0.94113384057E+01  0.11872466781E+02  0.18726413544E+02  0.00000000000E+00 0.  1.
         11    1    3    3    0    0  0.44333209908E+01 -0.20056260520E+02 -0.93716182544E+00  0.20561765333E+02  0.51100000000E-03 0. -1.
        -11    1    3    3    0    0  0.16354597733E+02  0.19445341330E+00 -0.82647271406E+01  0.18325293835E+02  0.51100000000E-03 0.  1.
         12    1    3    3    0    0 -0.31794725989E+02  0.10450468701E+02 -0.26705778146E+01  0.33574527289E+02  0.00000000000E+00 0. -1.
</event>
<event>
 7    1  0.1788006E-013  0.7246155E+02  0.7816164E-02  0.1226708E+00
        -11   -1    0    0    0    0  0.00000000000E+00  0.00000000000E+00  0.45593999997E+02  0.45594000000E+02  0.51100000000E-03 0. -1.
         11   -1    0    0    0    0 -0.00000000000E+00 -0.00000000000E+00 -0.45593999997E+02  0.45594000000E+02  0.51100000000E-03 0.  1.
    9900012    2    1    2    0    0  0.18116705674E+02  0.30442197398E+01 -0.36328320042E+01  0.72461554350E+02  0.69999979230E+02 0.  0.
        -12    1    1    2    0    0 -0.18116705674E+02 -0.30442197398E+01  0.36328320042E+01  0.18726445650E+02  0.00000000000E+00 0.  1.
         11    1    3    3    0    0  0.13608841787E+01  0.84782411507E+01 -0.16033633020E+02  0.18188182065E+02  0.51100000000E-03 0. -1.
        -11    1    3    3    0    0  0.29821159021E+02 -0.47939672556E+01 -0.68764467158E+01  0.30976913453E+02  0.51100000000E-03 0.  1.
         12    1    3    3    0    0 -0.13065337526E+02 -0.64005415534E+00  0.19277247732E+02  0.23296458831E+02  0.00000000000E+00 0. -1.
</event>
<event>
 7    1  0.1788006E-013  0.7246157E+02  0.7816164E-02  0.1226708E+00
        -11   -1    0    0    0    0  0.00000000000E+00  0.00000000000E+00  0.45593999997E+02  0.45594000000E+02  0.51100000000E-03 0.  1.
         11   -1    0    0    0    0 -0.00000000000E+00 -0.00000000000E+00 -0.45593999997E+02  0.45594000000E+02  0.51100000000E-03 0. -1.
    9900012    2    1    2    0    0 -0.88124089232E+01  0.12709908631E+02 -0.10558357860E+02  0.72461568168E+02  0.69999997230E+02 0.  0.
        -12    1    1    2    0    0  0.88124089232E+01 -0.12709908631E+02  0.10558357860E+02  0.18726431832E+02  0.00000000000E+00 0.  1.
         11    1    3    3    0    0 -0.12949994850E+02  0.11274584346E+02 -0.20441474949E+02  0.26695926976E+02  0.51100000000E-03 0. -1.
        -11    1    3    3    0    0  0.42653833468E+01 -0.14192104341E+02 -0.11865643005E+02  0.18984277835E+02  0.51100000000E-03 0.  1.
         12    1    3    3    0    0 -0.12779742055E+00  0.15627428627E+02  0.21748760094E+02  0.26781363357E+02  0.00000000000E+00 0. -1.
</event>
<event>
 7    1  0.1788006E-013  0.7246160E+02  0.7816164E-02  0.1226708E+00
        -11   -1    0    0    0    0  0.00000000000E+00  0.00000000000E+00  0.45593999997E+02  0.45594000000E+02  0.51100000000E-03 0.  1.
         11   -1    0    0    0    0 -0.00000000000E+00 -0.00000000000E+00 -0.45593999997E+02  0.45594000000E+02  0.51100000000E-03 0. -1.
    9900012    2    1    2    0    0  0.31656353862E+01  0.16767991681E+02 -0.77130478351E+01  0.72461604209E+02  0.70000044180E+02 0.  0.
        -12    1    1    2    0    0 -0.31656353862E+01 -0.16767991681E+02  0.77130478351E+01  0.18726395791E+02  0.00000000000E+00 0.  1.
         11    1    3    3    0    0 -0.61200728456E+01  0.20278771545E+01 -0.51415476493E+01  0.82463986006E+01  0.51100000000E-03 0. -1.
        -11    1    3    3    0    0 -0.10000761676E+02 -0.89903471470E+00  0.25101481262E+02  0.27035307643E+02  0.51100000000E-03 0.  1.
        -12    1    3    3    0    0  0.19286469908E+02  0.15639149241E+02 -0.27672981448E+02  0.37179897966E+02  0.00000000000E+00 0.  1.
</event>
<event>
 7    1  0.1788006E-013  0.7246158E+02  0.7816164E-02  0.1226708E+00
        -11   -1    0    0    0    0  0.00000000000E+00  0.00000000000E+00  0.45593999997E+02  0.45594000000E+02  0.51100000000E-03 0.  1.
         11   -1    0    0    0    0 -0.00000000000E+00 -0.00000000000E+00 -0.45593999997E+02  0.45594000000E+02  0.51100000000E-03 0. -1.
    9900012    2    1    2    0    0  0.15606936643E+02  0.75352874343E+01  0.70937963291E+01  0.72461575502E+02  0.70000006784E+02 0.  0.
        -12    1    1    2    0    0 -0.15606936643E+02 -0.75352874343E+01 -0.70937963291E+01  0.18726424498E+02  0.00000000000E+00 0.  1.
         11    1    3    3    0    0  0.13922863315E+01  0.46813158224E+01  0.61661770285E+01  0.78660611786E+01  0.51100000000E-03 0. -1.
        -11    1    3    3    0    0  0.34183006208E+02 -0.63632058241E+01  0.15649757480E+02  0.38129820498E+02  0.51100000000E-03 0.  1.
         12    1    3    3    0    0 -0.19968355896E+02  0.92171774360E+01 -0.14722138180E+02  0.26465693826E+02  0.00000000000E+00 0. -1.
</event>
<event>
 7    1  0.1788006E-013  0.7246161E+02  0.7816164E-02  0.1226708E+00
        -11   -1    0    0    0    0  0.00000000000E+00  0.00000000000E+00  0.45593999997E+02  0.45594000000E+02  0.51100000000E-03 0.  1.
         11   -1    0    0    0    0 -0.00000000000E+00 -0.00000000000E+00 -0.45593999997E+02  0.45594000000E+02  0.51100000000E-03 0. -1.
    9900012    2    1    2    0    0 -0.11403893019E+02 -0.48570460777E+01 -0.14037028810E+02  0.72461605515E+02  0.70000045881E+02 0.  0.
        -12    1    1    2    0    0  0.11403893019E+02  0.48570460777E+01  0.14037028810E+02  0.18726394485E+02  0.00000000000E+00 0.  1.
         11    1    3    3    0    0  0.20475141793E+02 -0.50821968824E+01 -0.25002747742E+02  0.32713873991E+02  0.51100000000E-03 0. -1.
        -11    1    3    3    0    0 -0.50224925395E+01 -0.71697608728E+01 -0.20655776765E+01  0.89943045135E+01  0.51100000000E-03 0.  1.
        -12    1    3    3    0    0 -0.26856542273E+02  0.73949116775E+01  0.13031296609E+02  0.30753427010E+02  0.00000000000E+00 0.  1.
</event>
<event>
 7    1  0.1788006E-013  0.7246149E+02  0.7816164E-02  0.1226708E+00
        -11   -1    0    0    0    0  0.00000000000E+00  0.00000000000E+00  0.45593999997E+02  0.45594000000E+02  0.51100000000E-03 0.  1.
         11   -1    0    0    0    0 -0.00000000000E+00 -0.00000000000E+00 -0.45593999997E+02  0.45594000000E+02  0.51100000000E-03 0. -1.
    9900012    2    1    2    0    0  0.10856320561E+01  0.14315846193E+02 -0.12023311579E+02  0.72461492838E+02  0.69999899098E+02 0.  0.
        -12    1    1    2    0    0 -0.10856320561E+01 -0.14315846193E+02  0.12023311579E+02  0.18726507162E+02  0.00000000000E+00 0.  1.
         11    1    3    3    0    0 -0.10313538596E+02 -0.72799106516E+01 -0.13912993929E+02  0.18786632956E+02  0.51100000000E-03 0. -1.
        -11    1    3    3    0    0 -0.10317809390E+02  0.75998772371E+01  0.18832373710E+02  0.22778797695E+02  0.51100000000E-03 0.  1.
        -12    1    3    3    0    0  0.21716980043E+02  0.13995879608E+02 -0.16942691359E+02  0.30896062187E+02  0.00000000000E+00 0.  1.
</event>
<event>
 7    1  0.1788006E-013  0.7246154E+02  0.7816164E-02  0.1226708E+00
        -11   -1    0    0    0    0  0.00000000000E+00  0.00000000000E+00  0.45593999997E+02  0.45594000000E+02  0.51100000000E-03 0.  1.
         11   -1    0    0    0    0 -0.00000000000E+00 -0.00000000000E+00 -0.45593999997E+02  0.45594000000E+02  0.51100000000E-03 0. -1.
    9900012    2    1    2    0    0  0.12999300333E+02  0.18099261836E+01 -0.13357497779E+02  0.72461537737E+02  0.69999957588E+02 0.  0.
        -12    1    1    2    0    0 -0.12999300333E+02 -0.18099261836E+01  0.13357497779E+02  0.18726462263E+02  0.00000000000E+00 0.  1.
         11    1    3    3    0    0  0.22533738752E+01 -0.23245520416E+01  0.20299867712E+02  0.20556406919E+02  0.51100000000E-03 0. -1.
        -11    1    3    3    0    0 -0.54742334445E+01 -0.33964439713E+00  0.64170892889E+01  0.84416601048E+01  0.51100000000E-03 0.  1.
         12    1    3    3    0    0  0.16220159903E+02  0.44741226224E+01 -0.40074454781E+02  0.43463470714E+02  0.00000000000E+00 0. -1.
</event>
<event>
 7    1  0.1788006E-013  0.7246157E+02  0.7816164E-02  0.1226708E+00
        -11   -1    0    0    0    0  0.00000000000E+00  0.00000000000E+00  0.45593999997E+02  0.45594000000E+02  0.51100000000E-03 0. -1.
         11   -1    0    0    0    0 -0.00000000000E+00 -0.00000000000E+00 -0.45593999997E+02  0.45594000000E+02  0.51100000000E-03 0.  1.
    9900012    2    1    2    0    0 -0.15809640038E+01  0.86967967220E+01  0.16508952770E+02  0.72461568360E+02  0.69999997480E+02 0.  0.
        -12    1    1    2    0    0  0.15809640038E+01 -0.86967967220E+01 -0.16508952770E+02  0.18726431640E+02  0.00000000000E+00 0.  1.
         11    1    3    3    0    0  0.80783911659E+00  0.64123650379E+01 -0.14873404062E+01  0.66319839537E+01  0.51100000000E-03 0. -1.
        -11    1    3    3    0    0  0.16599915456E+02  0.29930929419E+01 -0.18282903351E+02  0.24875296052E+02  0.51100000000E-03 0.  1.
         12    1    3    3    0    0 -0.18988718576E+02 -0.70866125778E+00  0.36279196527E+02  0.40954288354E+02  0.00000000000E+00 0. -1.
</event>
<event>
 7    1  0.1788006E-013  0.7246155E+02  0.7816164E-02  0.1226708E+00
        -11   -1    0    0    0    0  0.00000000000E+00  0.00000000000E+00  0.45593999997E+02  0.45594000000E+02  0.51100000000E-03 0.  1.
         11   -1    0    0    0    0 -0.00000000000E+00 -0.00000000000E+00 -0.45593999997E+02  0.45594000000E+02  0.51100000000E-03 0. -1.
    9900012    2    1    2    0    0  0.13265594420E+01  0.78234345607E+01 -0.16962137389E+02  0.72461548305E+02  0.69999971354E+02 0.  0.
        -12    1    1    2    0    0 -0.13265594420E+01 -0.78234345607E+01  0.16962137389E+02  0.18726451695E+02  0.00000000000E+00 0.  1.
         11    1    3    3    0    0 -0.35447341586E+01  0.11556726255E+01  0.31859098103E+01  0.49041554882E+01  0.51100000000E-03 0. -1.
        -11    1    3    3    0    0 -0.36242639328E+01  0.34790981099E+02 -0.13044649161E+02  0.37332432641E+02  0.51100000000E-03 0.  1.
         12    1    3    3    0    0  0.84955575335E+01 -0.28123219164E+02 -0.71033980388E+01  0.30224960176E+02  0.00000000000E+00 0. -1.
</event>
<event>
 7    1  0.1788006E-013  0.7246157E+02  0.7816164E-02  0.1226708E+00
        -11   -1    0    0    0    0  0.00000000000E+00  0.00000000000E+00  0.45593999997E+02  0.45594000000E+02  0.51100000000E-03 0. -1.
         11   -1    0    0    0    0 -0.00000000000E+00 -0.00000000000E+00 -0.45593999997E+02  0.45594000000E+02  0.51100000000E-03 0.  1.
    9900012    2    1    2    0    0 -0.77895751992E+01 -0.16540411555E+02  0.40517363391E+01  0.72461567784E+02  0.69999996729E+02 0.  0.
        -12    1    1    2    0    0  0.77895751992E+01  0.16540411555E+02 -0.40517363391E+01  0.18726432216E+02  0.00000000000E+00 0.  1.
         11    1    3    3    0    0 -0.92293869015E+01 -0.37518108063E+02 -0.26780941372E+01  0.38729345510E+02  0.51100000000E-03 0. -1.
        -11    1    3    3    0    0  0.38393830085E+01  0.73379470949E+00 -0.77822366807E+01  0.87087613687E+01  0.51100000000E-03 0.  1.
        -12    1    3    3    0    0 -0.23995713063E+01  0.20243901798E+02  0.14512067157E+02  0.25023460905E+02  0.00000000000E+00 0.  1.
</event>
<event>
 7    1  0.1788006E-013  0.7246156E+02  0.7816164E-02  0.1226708E+00
        -11   -1    0    0    0    0  0.00000000000E+00  0.00000000000E+00  0.45593999997E+02  0.45594000000E+02  0.51100000000E-03 0. -1.
         11   -1    0    0    0    0 -0.00000000000E+00 -0.00000000000E+00 -0.45593999997E+02  0.45594000000E+02  0.51100000000E-03 0.  1.
    9900012    2    1    2    0    0 -0.12733544657E+02  0.12479330283E+02 -0.57273532857E+01  0.72461563619E+02  0.69999991305E+02 0.  0.
        -12    1    1    2    0    0  0.12733544657E+02 -0.12479330283E+02  0.57273532857E+01  0.18726436381E+02  0.00000000000E+00 0.  1.
         11    1    3    3    0    0 -0.43652906549E+01  0.29026424826E+01  0.24154888641E+02  0.24717195257E+02  0.51100000000E-03 0. -1.
        -11    1    3    3    0    0 -0.20891999745E+02 -0.81670061150E+00 -0.15521397610E+02  0.26039516840E+02  0.51100000000E-03 0.  1.
        -12    1    3    3    0    0  0.12523745742E+02  0.10393388412E+02 -0.14360844317E+02  0.21704851522E+02  0.00000000000E+00 0.  1.
</event>
<event>
 7    1  0.1788006E-013  0.7246157E+02  0.7816164E-02  0.1226708E+00
        -11   -1    0    0    0    0  0.00000000000E+00  0.00000000000E+00  0.45593999997E+02  0.45594000000E+02  0.51100000000E-03 0. -1.
         11   -1    0    0    0    0 -0.00000000000E+00 -0.00000000000E+00 -0.45593999997E+02  0.45594000000E+02  0.51100000000E-03 0.  1.
    9900012    2    1    2    0    0  0.17891221482E+02 -0.38547620243E+01  0.39653656560E+01  0.72461571585E+02  0.70000001681E+02 0.  0.
        -12    1    1    2    0    0 -0.17891221482E+02  0.38547620243E+01 -0.39653656560E+01  0.18726428415E+02  0.00000000000E+00 0.  1.
         11    1    3    3    0    0 -0.31666027475E+00  0.41961561495E+00  0.31575149945E+01  0.32009767565E+01  0.51100000000E-03 0. -1.
        -11    1    3    3    0    0 -0.21217741385E+01  0.28700266452E+02 -0.72851629185E+01  0.29686374298E+02  0.51100000000E-03 0.  1.
         12    1    3    3    0    0  0.20329655896E+02 -0.32974644092E+02  0.80930135800E+01  0.39574220531E+02  0.00000000000E+00 0. -1.
</event>
<event>
 7    1  0.1788006E-013  0.7246160E+02  0.7816164E-02  0.1226708E+00
        -11   -1    0    0    0    0  0.00000000000E+00  0.00000000000E+00  0.45593999997E+02  0.45594000000E+02  0.51100000000E-03 0.  1.
         11   -1    0    0    0    0 -0.00000000000E+00 -0.00000000000E+00 -0.45593999997E+02  0.45594000000E+02  0.51100000000E-03 0. -1.
    9900012    2    1    2    0    0 -0.49665891233E+01 -0.13777664296E+02 -0.11669917564E+02  0.72461601069E+02  0.70000040090E+02 0.  0.
        -12    1    1    2    0    0  0.49665891233E+01  0.13777664296E+02  0.11669917564E+02  0.18726398931E+02  0.00000000000E+00 0.  1.
         11    1    3    3    0    0  0.18186758266E+01 -0.47514255597E+01  0.10513043730E+02  0.11679371359E+02  0.51100000000E-03 0. -1.
        -11    1    3    3    0    0 -0.29999282084E+02 -0.15195283165E+01 -0.38903813980E+01  0.30288627561E+02  0.51100000000E-03 0.  1.
         12    1    3    3    0    0  0.23214017134E+02 -0.75067104200E+01 -0.18292579896E+02  0.30493602149E+02  0.00000000000E+00 0. -1.
</event>
<event>
 7    1  0.1788006E-013  0.7246155E+02  0.7816164E-02  0.1226708E+00
        -11   -1    0    0    0    0  0.00000000000E+00  0.00000000000E+00  0.45593999997E+02  0.45594000000E+02  0.51100000000E-03 0. -1.
         11   -1    0    0    0    0 -0.00000000000E+00 -0.00000000000E+00 -0.45593999997E+02  0.45594000000E+02  0.51100000000E-03 0.  1.
    9900012    2    1    2    0    0  0.14375891028E+02  0.11958976736E+02  0.99822078592E+00  0.72461553136E+02  0.69999977648E+02 0.  0.
        -12    1    1    2    0    0 -0.14375891028E+02 -0.11958976736E+02 -0.99822078592E+00  0.18726446864E+02  0.00000000000E+00 0.  1.
         11    1    3    3    0    0 -0.59385238012E+01 -0.15694642583E+02 -0.26478509581E+01  0.16988201367E+02  0.51100000000E-03 0.  1.
        -11    1    3    3    0    0  0.22511025009E+02  0.25664824486E+02  0.19520115637E+02  0.39325111285E+02  0.51100000000E-03 0. -1.
         12    1    3    3    0    0 -0.21966101798E+01  0.19887948333E+01 -0.15874043894E+02  0.16148240483E+02  0.00000000000E+00 0. -1.
</event>
<event>
 7    1  0.1788006E-013  0.7246156E+02  0.7816164E-02  0.1226708E+00
        -11   -1    0    0    0    0  0.00000000000E+00  0.00000000000E+00  0.45593999997E+02  0.45594000000E+02  0.51100000000E-03 0. -1.
         11   -1    0    0    0    0 -0.00000000000E+00 -0.00000000000E+00 -0.45593999997E+02  0.45594000000E+02  0.51100000000E-03 0.  1.
    9900012    2    1    2    0    0 -0.22656283766E+01 -0.18505267325E+02 -0.17611750875E+01  0.72461555372E+02  0.69999980561E+02 0.  0.
        -12    1    1    2    0    0  0.22656283766E+01  0.18505267325E+02  0.17611750875E+01  0.18726444628E+02  0.00000000000E+00 0.  1.
         11    1    3    3    0    0  0.89732611505E+01 -0.28844518806E+01  0.13225305717E+02  0.16240326040E+02  0.51100000000E-03 0. -1.
        -11    1    3    3    0    0  0.78575117141E+01  0.11507187454E+02 -0.18165301238E+02  0.22893973504E+02  0.51100000000E-03 0.  1.
        -12    1    3    3    0    0 -0.19096401241E+02 -0.27128002899E+02  0.31788204336E+01  0.33327255828E+02  0.00000000000E+00 0.  1.
</event>
<event>
 7    1  0.1788006E-013  0.7246158E+02  0.7816164E-02  0.1226708E+00
        -11   -1    0    0    0    0  0.00000000000E+00  0.00000000000E+00  0.45593999997E+02  0.45594000000E+02  0.51100000000E-03 0. -1.
         11   -1    0    0    0    0 -0.00000000000E+00 -0.00000000000E+00 -0.45593999997E+02  0.45594000000E+02  0.51100000000E-03 0.  1.
    9900012    2    1    2    0    0 -0.62274241061E+01  0.13197188640E+02  0.11735938356E+02  0.72461578877E+02  0.70000011180E+02 0.  0.
        -12    1    1    2    0    0  0.62274241061E+01 -0.13197188640E+02 -0.11735938356E+02  0.18726421123E+02  0.00000000000E+00 0.  1.
         11    1    3    3    0    0  0.17062954471E+02  0.37282866486E+01  0.33504457435E+01  0.17783982219E+02  0.51100000000E-03 0. -1.
        -11    1    3    3    0    0 -0.21876733588E+02  0.10345015713E+01 -0.17105953855E+02  0.27789842093E+02  0.51100000000E-03 0.  1.
         12    1    3    3    0    0 -0.14136449889E+01  0.84344004204E+01  0.25491446467E+02  0.26887754565E+02  0.00000000000E+00 0. -1.
</event>
<event>
 7    1  0.1788006E-013  0.7246165E+02  0.7816164E-02  0.1226708E+00
        -11   -1    0    0    0    0  0.00000000000E+00  0.00000000000E+00  0.45593999997E+02  0.45594000000E+02  0.51100000000E-03 0.  1.
         11   -1    0    0    0    0 -0.00000000000E+00 -0.00000000000E+00 -0.45593999997E+02  0.45594000000E+02  0.51100000000E-03 0. -1.
    9900012    2    1    2    0    0  0.10895607979E+02  0.11726415137E+02  0.97187044440E+01  0.72461646878E+02  0.70000099764E+02 0.  0.
        -12    1    1    2    0    0 -0.10895607979E+02 -0.11726415137E+02 -0.97187044440E+01  0.18726353122E+02  0.00000000000E+00 0.  1.
         11    1    3    3    0    0 -0.94530906538E+01 -0.99850315312E+00  0.13235464171E+01  0.95973802069E+01  0.51100000000E-03 0. -1.
        -11    1    3    3    0    0  0.77439662126E+00 -0.70133281835E+00  0.30447150597E+02  0.30465070780E+02  0.51100000000E-03 0.  1.
         12    1    3    3    0    0  0.19574302012E+02  0.13426251108E+02 -0.22051992570E+02  0.32399195891E+02  0.00000000000E+00 0. -1.
</event>
<event>
 7    1  0.1788006E-013  0.7246163E+02  0.7816164E-02  0.1226708E+00
        -11   -1    0    0    0    0  0.00000000000E+00  0.00000000000E+00  0.45593999997E+02  0.45594000000E+02  0.51100000000E-03 0.  1.
         11   -1    0    0    0    0 -0.00000000000E+00 -0.00000000000E+00 -0.45593999997E+02  0.45594000000E+02  0.51100000000E-03 0. -1.
    9900012    2    1    2    0    0 -0.98138567127E+01 -0.11107412383E+02 -0.11445110813E+02  0.72461629425E+02  0.70000077028E+02 0.  0.
        -12    1    1    2    0    0  0.98138567127E+01  0.11107412383E+02  0.11445110813E+02  0.18726370575E+02  0.00000000000E+00 0.  1.
         11    1    3    3    0    0 -0.24557367169E+01 -0.11261271962E+02  0.11448302906E+02  0.16245323287E+02  0.51100000000E-03 0. -1.
        -11    1    3    3    0    0 -0.15370322889E+02 -0.15467382794E+02  0.58128224056E+01  0.22567136744E+02  0.51100000000E-03 0.  1.
         12    1    3    3    0    0  0.80122028937E+01  0.15621242373E+02 -0.28706236124E+02  0.33649169394E+02  0.00000000000E+00 0. -1.
</event>
<event>
 7    1  0.1788006E-013  0.7246163E+02  0.7816164E-02  0.1226708E+00
        -11   -1    0    0    0    0  0.00000000000E+00  0.00000000000E+00  0.45593999997E+02  0.45594000000E+02  0.51100000000E-03 0.  1.
         11   -1    0    0    0    0 -0.00000000000E+00 -0.00000000000E+00 -0.45593999997E+02  0.45594000000E+02  0.51100000000E-03 0. -1.
    9900012    2    1    2    0    0  0.10515481150E+02 -0.15423582818E+02 -0.14881441726E+01  0.72461632925E+02  0.70000081588E+02 0.  0.
        -12    1    1    2    0    0 -0.10515481150E+02  0.15423582818E+02  0.14881441726E+01  0.18726367075E+02  0.00000000000E+00 0.  1.
         11    1    3    3    0    0 -0.16316938678E+02 -0.41871886513E+00  0.10068566545E+02  0.19177952076E+02  0.51100000000E-03 0. -1.
        -11    1    3    3    0    0  0.17913135805E+02 -0.21636823144E+02  0.93509448917E+01  0.29605281974E+02  0.51100000000E-03 0.  1.
         12    1    3    3    0    0  0.89192840228E+01  0.66319591908E+01 -0.20907655610E+02  0.23678398875E+02  0.00000000000E+00 0. -1.
</event>
<event>
 7    1  0.1788006E-013  0.7246162E+02  0.7816164E-02  0.1226708E+00
        -11   -1    0    0    0    0  0.00000000000E+00  0.00000000000E+00  0.45593999997E+02  0.45594000000E+02  0.51100000000E-03 0. -1.
         11   -1    0    0    0    0 -0.00000000000E+00 -0.00000000000E+00 -0.45593999997E+02  0.45594000000E+02  0.51100000000E-03 0.  1.
    9900012    2    1    2    0    0 -0.16503052097E+02 -0.25305840310E+01  0.84807281586E+01  0.72461619299E+02  0.70000063838E+02 0.  0.
        -12    1    1    2    0    0  0.16503052097E+02  0.25305840310E+01 -0.84807281586E+01  0.18726380701E+02  0.00000000000E+00 0.  1.
         11    1    3    3    0    0  0.57344975898E+00  0.25657686430E+02 -0.37943004670E+01  0.25943061382E+02  0.51100000000E-03 0. -1.
        -11    1    3    3    0    0  0.84185026075E+01 -0.29473715006E+01  0.13880394668E+01  0.90268952989E+01  0.51100000000E-03 0.  1.
        -12    1    3    3    0    0 -0.25495004463E+02 -0.25240898961E+02  0.10886989159E+02  0.37491662618E+02  0.00000000000E+00 0.  1.
</event>
<event>
 7    1  0.1788006E-013  0.7246165E+02  0.7816164E-02  0.1226708E+00
        -11   -1    0    0    0    0  0.00000000000E+00  0.00000000000E+00  0.45593999997E+02  0.45594000000E+02  0.51100000000E-03 0.  1.
         11   -1    0    0    0    0 -0.00000000000E+00 -0.00000000000E+00 -0.45593999997E+02  0.45594000000E+02  0.51100000000E-03 0. -1.
    9900012    2    1    2    0    0  0.52222104150E+01  0.88134469767E+01 -0.15675703209E+02  0.72461654913E+02  0.70000110231E+02 0.  0.
        -12    1    1    2    0    0 -0.52222104150E+01 -0.88134469767E+01  0.15675703209E+02  0.18726345087E+02  0.00000000000E+00 0.  1.
         11    1    3    3    0    0  0.49624621782E+01 -0.20559161903E+01 -0.21884490154E+02  0.22534057154E+02  0.51100000000E-03 0. -1.
        -11    1    3    3    0    0  0.14388704922E+02  0.18852995025E+02 -0.11113282676E+02  0.26191130233E+02  0.51100000000E-03 0.  1.
         12    1    3    3    0    0 -0.14128956686E+02 -0.79836318580E+01  0.17322069622E+02  0.23736467527E+02  0.00000000000E+00 0. -1.
</event>
<event>
 7    1  0.1788006E-013  0.7246157E+02  0.7816164E-02  0.1226708E+00
        -11   -1    0    0    0    0  0.00000000000E+00  0.00000000000E+00  0.45593999997E+02  0.45594000000E+02  0.51100000000E-03 0. -1.
         11   -1    0    0    0    0 -0.00000000000E+00 -0.00000000000E+00 -0.45593999997E+02  0.45594000000E+02  0.51100000000E-03 0.  1.
    9900012    2    1    2    0    0 -0.50846327129E+01 -0.18020579818E+02 -0.29030648638E+00  0.72461573095E+02  0.70000003648E+02 0.  0.
        -12    1    1    2    0    0  0.50846327129E+01  0.18020579818E+02  0.29030648638E+00  0.18726426905E+02  0.00000000000E+00 0.  1.
         11    1    3    3    0    0 -0.90812482290E+01 -0.92606199492E+01 -0.31056142263E+01  0.13336903360E+02  0.51100000000E-03 0. -1.
        -11    1    3    3    0    0 -0.72430502071E+01 -0.14414284903E+02 -0.24337542490E+02  0.29198447909E+02  0.51100000000E-03 0.  1.
         12    1    3    3    0    0  0.11239665723E+02  0.56543250348E+01  0.27152850230E+02  0.29926221826E+02  0.00000000000E+00 0. -1.
</event>
<event>
 7    1  0.1788006E-013  0.7246157E+02  0.7816164E-02  0.1226708E+00
        -11   -1    0    0    0    0  0.00000000000E+00  0.00000000000E+00  0.45593999997E+02  0.45594000000E+02  0.51100000000E-03 0. -1.
         11   -1    0    0    0    0 -0.00000000000E+00 -0.00000000000E+00 -0.45593999997E+02  0.45594000000E+02  0.51100000000E-03 0.  1.
    9900012    2    1    2    0    0  0.16601707283E+02 -0.30117293511E+01  0.81235437792E+01  0.72461570497E+02  0.70000000264E+02 0.  0.
        -12    1    1    2    0    0 -0.16601707283E+02  0.30117293511E+01 -0.81235437792E+01  0.18726429503E+02  0.00000000000E+00 0.  1.
         11    1    3    3    0    0  0.88587970417E+01  0.33598620879E+01 -0.31640026182E+01  0.99888873808E+01  0.51100000000E-03 0. -1.
        -11    1    3    3    0    0  0.23954659892E+00  0.21600538049E+02 -0.12532627412E+02  0.24974134153E+02  0.51100000000E-03 0.  1.
         12    1    3    3    0    0  0.75033636426E+01 -0.27972129488E+02  0.23820173809E+02  0.37498548963E+02  0.00000000000E+00 0. -1.
</event>
<event>
 7    1  0.1788006E-013  0.7246158E+02  0.7816164E-02  0.1226708E+00
        -11   -1    0    0    0    0  0.00000000000E+00  0.00000000000E+00  0.45593999997E+02  0.45594000000E+02  0.51100000000E-03 0.  1.
         11   -1    0    0    0    0 -0.00000000000E+00 -0.00000000000E+00 -0.45593999997E+02  0.45594000000E+02  0.51100000000E-03 0. -1.
    9900012    2    1    2    0    0  0.12910835403E+02  0.35511801760E+01 -0.13091158560E+02  0.72461575251E+02  0.70000006457E+02 0.  0.
        -12    1    1    2    0    0 -0.12910835403E+02 -0.35511801760E+01  0.13091158560E+02  0.18726424749E+02  0.00000000000E+00 0.  1.
         11    1    3    3    0    0 -0.35111349074E+01 -0.92208335152E-01  0.40501408806E+01  0.53609898460E+01  0.51100000000E-03 0. -1.
        -11    1    3    3    0    0  0.14604690580E+02  0.61404517853E+01  0.22401297238E+02  0.27437570105E+02  0.51100000000E-03 0.  1.
         12    1    3    3    0    0  0.18172797302E+01 -0.24970632742E+01 -0.39542596678E+02  0.39663015300E+02  0.00000000000E+00 0. -1.
</event>
<event>
 7    1  0.1788006E-013  0.7246148E+02  0.7816164E-02  0.1226708E+00
        -11   -1    0    0    0    0  0.00000000000E+00  0.00000000000E+00  0.45593999997E+02  0.45594000000E+02  0.51100000000E-03 0.  1.
         11   -1    0    0    0    0 -0.00000000000E+00 -0.00000000000E+00 -0.45593999997E+02  0.45594000000E+02  0.51100000000E-03 0. -1.
    9900012    2    1    2    0    0  0.71171535968E+01 -0.14280696643E+02 -0.98025779454E+01  0.72461475861E+02  0.69999876984E+02 0.  0.
        -12    1    1    2    0    0 -0.71171535968E+01  0.14280696643E+02  0.98025779454E+01  0.18726524139E+02  0.00000000000E+00 0.  1.
         11    1    3    3    0    0 -0.73809872400E+01 -0.82980060657E+01 -0.17629015737E+02  0.20835500316E+02  0.51100000000E-03 0. -1.
        -11    1    3    3    0    0 -0.12614882418E+01  0.19695707239E+02 -0.22334643738E+01  0.19862039160E+02  0.51100000000E-03 0.  1.
         12    1    3    3    0    0  0.15759629079E+02 -0.25678397817E+02  0.10059902165E+02  0.31763936385E+02  0.00000000000E+00 0. -1.
</event>
<event>
 7    1  0.1788006E-013  0.7246158E+02  0.7816164E-02  0.1226708E+00
        -11   -1    0    0    0    0  0.00000000000E+00  0.00000000000E+00  0.45593999997E+02  0.45594000000E+02  0.51100000000E-03 0. -1.
         11   -1    0    0    0    0 -0.00000000000E+00 -0.00000000000E+00 -0.45593999997E+02  0.45594000000E+02  0.51100000000E-03 0.  1.
    9900012    2    1    2    0    0  0.12396528812E+01  0.17455048906E+02  0.66680931934E+01  0.72461576465E+02  0.70000008039E+02 0.  0.
        -12    1    1    2    0    0 -0.12396528812E+01 -0.17455048906E+02 -0.66680931934E+01  0.18726423535E+02  0.00000000000E+00 0.  1.
         11    1    3    3    0    0 -0.12784875115E+01  0.17407935145E+02  0.51139155288E+01  0.18188536737E+02  0.51100000000E-03 0. -1.
        -11    1    3    3    0    0  0.27362590837E+02 -0.48536911888E+01  0.63345877781E+01  0.28502573534E+02  0.51100000000E-03 0.  1.
         12    1    3    3    0    0 -0.24844450444E+02  0.49008049498E+01 -0.47804101136E+01  0.25770466195E+02  0.00000000000E+00 0. -1.
</event>
<event>
 7    1  0.1788006E-013  0.7246166E+02  0.7816164E-02  0.1226708E+00
        -11   -1    0    0    0    0  0.00000000000E+00  0.00000000000E+00  0.45593999997E+02  0.45594000000E+02  0.51100000000E-03 0. -1.
         11   -1    0    0    0    0 -0.00000000000E+00 -0.00000000000E+00 -0.45593999997E+02  0.45594000000E+02  0.51100000000E-03 0.  1.
    9900012    2    1    2    0    0 -0.16328273331E+02  0.74200978855E+01  0.53856833174E+01  0.72461656326E+02  0.70000112073E+02 0.  0.
        -12    1    1    2    0    0  0.16328273331E+02 -0.74200978855E+01 -0.53856833174E+01  0.18726343674E+02  0.00000000000E+00 0.  1.
         11    1    3    3    0    0  0.55383768881E+00  0.10245232289E+02  0.83456807412E+00  0.10294077179E+02  0.51100000000E-03 0. -1.
        -11    1    3    3    0    0  0.21499696399E+02  0.65111822899E+01  0.63610680373E+00  0.22473029885E+02  0.51100000000E-03 0.  1.
         12    1    3    3    0    0 -0.38381807418E+02 -0.93363166931E+01  0.39150084395E+01  0.39694549263E+02  0.00000000000E+00 0. -1.
</event>
<event>
 7    1  0.1788006E-013  0.7246157E+02  0.7816164E-02  0.1226708E+00
        -11   -1    0    0    0    0  0.00000000000E+00  0.00000000000E+00  0.45593999997E+02  0.45594000000E+02  0.51100000000E-03 0. -1.
         11   -1    0    0    0    0 -0.00000000000E+00 -0.00000000000E+00 -0.45593999997E+02  0.45594000000E+02  0.51100000000E-03 0.  1.
    9900012    2    1    2    0    0 -0.59084969508E+01 -0.13542896210E+02  0.11504730484E+02  0.72461569548E+02  0.69999999028E+02 0.  0.
        -12    1    1    2    0    0  0.59084969508E+01  0.13542896210E+02 -0.11504730484E+02  0.18726430452E+02  0.00000000000E+00 0.  1.
         11    1    3    3    0    0  0.10077113073E+02  0.15602936039E+02 -0.13555741214E+01  0.18623571150E+02  0.51100000000E-03 0. -1.
        -11    1    3    3    0    0  0.21317712965E+01  0.55298871019E+01 -0.76397653657E+01  0.96690286650E+01  0.51100000000E-03 0.  1.
        -12    1    3    3    0    0 -0.18117381320E+02 -0.34675719351E+02  0.20500069971E+02  0.44168969733E+02  0.00000000000E+00 0.  1.
</event>
<event>
 7    1  0.1788006E-013  0.7246160E+02  0.7816164E-02  0.1226708E+00
        -11   -1    0    0    0    0  0.00000000000E+00  0.00000000000E+00  0.45593999997E+02  0.45594000000E+02  0.51100000000E-03 0.  1.
         11   -1    0    0    0    0 -0.00000000000E+00 -0.00000000000E+00 -0.45593999997E+02  0.45594000000E+02  0.51100000000E-03 0. -1.
    9900012    2    1    2    0    0  0.13459898414E+02  0.10199251532E+01 -0.12979553912E+02  0.72461603326E+02  0.70000043030E+02 0.  0.
        -12    1    1    2    0    0 -0.13459898414E+02 -0.10199251532E+01  0.12979553912E+02  0.18726396674E+02  0.00000000000E+00 0.  1.
         11    1    3    3    0    0  0.74474752358E+01  0.66383829410E+01  0.11738006667E+02  0.15404993224E+02  0.51100000000E-03 0.  1.
        -11    1    3    3    0    0  0.10951683462E+02  0.20967542119E+02 -0.67824916813E+01  0.24608522646E+02  0.51100000000E-03 0. -1.
        -12    1    3    3    0    0 -0.49392602839E+01 -0.26585999907E+02 -0.17935068898E+02  0.32448087456E+02  0.00000000000E+00 0.  1.
</event>
<event>
 7    1  0.1788006E-013  0.7246157E+02  0.7816164E-02  0.1226708E+00
        -11   -1    0    0    0    0  0.00000000000E+00  0.00000000000E+00  0.45593999997E+02  0.45594000000E+02  0.51100000000E-03 0.  1.
         11   -1    0    0    0    0 -0.00000000000E+00 -0.00000000000E+00 -0.45593999997E+02  0.45594000000E+02  0.51100000000E-03 0. -1.
    9900012    2    1    2    0    0 -0.11668941666E+01 -0.18314755687E+02 -0.37265741908E+01  0.72461567530E+02  0.69999996399E+02 0.  0.
        -12    1    1    2    0    0  0.11668941666E+01  0.18314755687E+02  0.37265741908E+01  0.18726432470E+02  0.00000000000E+00 0.  1.
         11    1    3    3    0    0 -0.14888286156E+02  0.52294128312E+01  0.50758475686E+01  0.16576249636E+02  0.51100000000E-03 0. -1.
        -11    1    3    3    0    0 -0.11538592831E+02 -0.48866985785E+01  0.12687973218E+02  0.17832655780E+02  0.51100000000E-03 0.  1.
         12    1    3    3    0    0  0.25259984820E+02 -0.18657469940E+02 -0.21490394977E+02  0.38052662114E+02  0.00000000000E+00 0. -1.
</event>
<event>
 7    1  0.1788006E-013  0.7246161E+02  0.7816164E-02  0.1226708E+00
        -11   -1    0    0    0    0  0.00000000000E+00  0.00000000000E+00  0.45593999997E+02  0.45594000000E+02  0.51100000000E-03 0. -1.
         11   -1    0    0    0    0 -0.00000000000E+00 -0.00000000000E+00 -0.45593999997E+02  0.45594000000E+02  0.51100000000E-03 0.  1.
    9900012    2    1    2    0    0 -0.14858291057E+01 -0.85442460777E+01  0.16597164589E+02  0.72461609489E+02  0.70000051058E+02 0.  0.
        -12    1    1    2    0    0  0.14858291057E+01  0.85442460777E+01 -0.16597164589E+02  0.18726390511E+02  0.00000000000E+00 0.  1.
         11    1    3    3    0    0  0.45391167216E+01 -0.26403034742E+02  0.82737560020E+01  0.28038881269E+02  0.51100000000E-03 0. -1.
        -11    1    3    3    0    0  0.76259034069E+01 -0.83978947867E+01  0.95144643358E+01  0.14805541918E+02  0.51100000000E-03 0.  1.
        -12    1    3    3    0    0 -0.13650849234E+02  0.26256683451E+02 -0.11910557487E+01  0.29617186302E+02  0.00000000000E+00 0.  1.
</event>
<event>
 7    1  0.1788006E-013  0.7246167E+02  0.7816164E-02  0.1226708E+00
        -11   -1    0    0    0    0  0.00000000000E+00  0.00000000000E+00  0.45593999997E+02  0.45594000000E+02  0.51100000000E-03 0.  1.
         11   -1    0    0    0    0 -0.00000000000E+00 -0.00000000000E+00 -0.45593999997E+02  0.45594000000E+02  0.51100000000E-03 0. -1.
    9900012    2    1    2    0    0  0.17945918672E+02 -0.15601537442E+01  0.51171630439E+01  0.72461670026E+02  0.70000129919E+02 0.  0.
        -12    1    1    2    0    0 -0.17945918672E+02  0.15601537442E+01 -0.51171630439E+01  0.18726329974E+02  0.00000000000E+00 0.  1.
         11    1    3    3    0    0  0.75310166744E+01  0.14708811777E+02  0.60275931842E+01  0.17589691183E+02  0.51100000000E-03 0. -1.
        -11    1    3    3    0    0  0.15290253097E+02  0.86462802627E+01  0.16490458862E+02  0.24093261214E+02  0.51100000000E-03 0.  1.
        -12    1    3    3    0    0 -0.48753510999E+01 -0.24915245784E+02 -0.17400889003E+02  0.30778717629E+02  0.00000000000E+00 0.  1.
</event>
<event>
 7    1  0.1788006E-013  0.7246160E+02  0.7816164E-02  0.1226708E+00
        -11   -1    0    0    0    0  0.00000000000E+00  0.00000000000E+00  0.45593999997E+02  0.45594000000E+02  0.51100000000E-03 0. -1.
         11   -1    0    0    0    0 -0.00000000000E+00 -0.00000000000E+00 -0.45593999997E+02  0.45594000000E+02  0.51100000000E-03 0.  1.
    9900012    2    1    2    0    0  0.17309208974E+02  0.70956494633E+01  0.84928381065E+00  0.72461595124E+02  0.70000032345E+02 0.  0.
        -12    1    1    2    0    0 -0.17309208974E+02 -0.70956494633E+01 -0.84928381065E+00  0.18726404876E+02  0.00000000000E+00 0.  1.
         11    1    3    3    0    0  0.11063167478E+02 -0.20008615335E+01  0.24867519574E+02  0.27290852891E+02  0.51100000000E-03 0. -1.
        -11    1    3    3    0    0  0.16935020545E+02  0.89631377565E+01 -0.30916482823E+00  0.19163202823E+02  0.51100000000E-03 0.  1.
        -12    1    3    3    0    0 -0.10688979049E+02  0.13337324023E+00 -0.23709070935E+02  0.26007539409E+02  0.00000000000E+00 0.  1.
</event>
<event>
 7    1  0.1788006E-013  0.7246151E+02  0.7816164E-02  0.1226708E+00
        -11   -1    0    0    0    0  0.00000000000E+00  0.00000000000E+00  0.45593999997E+02  0.45594000000E+02  0.51100000000E-03 0. -1.
         11   -1    0    0    0    0 -0.00000000000E+00 -0.00000000000E+00 -0.45593999997E+02  0.45594000000E+02  0.51100000000E-03 0.  1.
    9900012    2    1    2    0    0  0.78030708827E+01 -0.44066570538E+01  0.16443084211E+02  0.72461506469E+02  0.69999916856E+02 0.  0.
        -12    1    1    2    0    0 -0.78030708827E+01  0.44066570538E+01 -0.16443084211E+02  0.18726493531E+02  0.00000000000E+00 0.  1.
         11    1    3    3    0    0  0.80316952485E+01 -0.40608199249E+01  0.14813641143E+01  0.91210101923E+01  0.51100000000E-03 0. -1.
        -11    1    3    3    0    0  0.10718312320E+02 -0.28936693436E+02  0.59453509544E+01  0.31425493540E+02  0.51100000000E-03 0.  1.
        -12    1    3    3    0    0 -0.10946936686E+02  0.28590856307E+02  0.90163691425E+01  0.31915002737E+02  0.00000000000E+00 0.  1.
</event>
<event>
 7    1  0.1788006E-013  0.7246156E+02  0.7816164E-02  0.1226708E+00
        -11   -1    0    0    0    0  0.00000000000E+00  0.00000000000E+00  0.45593999997E+02  0.45594000000E+02  0.51100000000E-03 0.  1.
         11   -1    0    0    0    0 -0.00000000000E+00 -0.00000000000E+00 -0.45593999997E+02  0.45594000000E+02  0.51100000000E-03 0. -1.
    9900012    2    1    2    0    0 -0.58522268745E+01  0.13385832417E+02 -0.11715398454E+02  0.72461558004E+02  0.69999983990E+02 0.  0.
        -12    1    1    2    0    0  0.58522268745E+01 -0.13385832417E+02  0.11715398454E+02  0.18726441996E+02  0.00000000000E+00 0.  1.
         11    1    3    3    0    0 -0.23275943028E+01 -0.59334166577E+01 -0.25579477182E+02  0.26361577753E+02  0.51100000000E-03 0. -1.
        -11    1    3    3    0    0  0.12648076148E+02 -0.45929854667E+01  0.10437088757E+02  0.17029450013E+02  0.51100000000E-03 0.  1.
        -12    1    3    3    0    0 -0.16172708720E+02  0.23912234542E+02  0.34269899706E+01  0.29070530239E+02  0.00000000000E+00 0.  1.
</event>
<event>
 7    1  0.1788006E-013  0.7246157E+02  0.7816164E-02  0.1226708E+00
        -11   -1    0    0    0    0  0.00000000000E+00  0.00000000000E+00  0.45593999997E+02  0.45594000000E+02  0.51100000000E-03 0.  1.
         11   -1    0    0    0    0 -0.00000000000E+00 -0.00000000000E+00 -0.45593999997E+02  0.45594000000E+02  0.51100000000E-03 0. -1.
    9900012    2    1    2    0    0  0.17814647244E+02  0.55178905006E+01  0.16941812778E+01  0.72461574228E+02  0.70000005124E+02 0.  0.
        -12    1    1    2    0    0 -0.17814647244E+02 -0.55178905006E+01 -0.16941812778E+01  0.18726425772E+02  0.00000000000E+00 0.  1.
         11    1    3    3    0    0 -0.78463889304E+01 -0.13222477757E+02 -0.30038074488E+01  0.15665969383E+02  0.51100000000E-03 0. -1.
        -11    1    3    3    0    0  0.23310684825E+01  0.96564583264E+01 -0.19558189765E+02  0.21936359197E+02  0.51100000000E-03 0.  1.
        -12    1    3    3    0    0  0.23329967691E+02  0.90839099309E+01  0.24256178491E+02  0.34859245648E+02  0.00000000000E+00 0.  1.
</event>
<event>
 7    1  0.1788006E-013  0.7246171E+02  0.7816164E-02  0.1226708E+00
        -11   -1    0    0    0    0  0.00000000000E+00  0.00000000000E+00  0.45593999997E+02  0.45594000000E+02  0.51100000000E-03 0. -1.
         11   -1    0    0    0    0 -0.00000000000E+00 -0.00000000000E+00 -0.45593999997E+02  0.45594000000E+02  0.51100000000E-03 0.  1.
    9900012    2    1    2    0    0 -0.11112544071E+02  0.13612968995E+02  0.64708885201E+01  0.72461709421E+02  0.70000181239E+02 0.  0.
        -12    1    1    2    0    0  0.11112544071E+02 -0.13612968995E+02 -0.64708885201E+01  0.18726290579E+02  0.00000000000E+00 0.  1.
         11    1    3    3    0    0  0.36092335471E+01 -0.26577968529E+01 -0.14069060358E+01  0.46978543787E+01  0.51100000000E-03 0. -1.
        -11    1    3    3    0    0 -0.22168553656E+02  0.28209994358E+02 -0.16597997222E+02  0.39531532540E+02  0.51100000000E-03 0.  1.
         12    1    3    3    0    0  0.74467760374E+01 -0.11939228511E+02  0.24475791778E+02  0.28232322503E+02  0.00000000000E+00 0. -1.
</event>
<event>
 7    1  0.1788006E-013  0.7246157E+02  0.7816164E-02  0.1226708E+00
        -11   -1    0    0    0    0  0.00000000000E+00  0.00000000000E+00  0.45593999997E+02  0.45594000000E+02  0.51100000000E-03 0.  1.
         11   -1    0    0    0    0 -0.00000000000E+00 -0.00000000000E+00 -0.45593999997E+02  0.45594000000E+02  0.51100000000E-03 0. -1.
    9900012    2    1    2    0    0  0.17572360189E+02  0.20959205661E+01  0.61235974901E+01  0.72461570232E+02  0.69999999919E+02 0.  0.
        -12    1    1    2    0    0 -0.17572360189E+02 -0.20959205661E+01 -0.61235974901E+01  0.18726429768E+02  0.00000000000E+00 0.  1.
         11    1    3    3    0    0  0.13355658696E+02  0.17805064161E+02  0.35848204514E+01  0.22544286791E+02  0.51100000000E-03 0. -1.
        -11    1    3    3    0    0 -0.46156523034E+01  0.15976585732E+02 -0.18481150036E+01  0.16732335975E+02  0.51100000000E-03 0.  1.
        -12    1    3    3    0    0  0.88323537962E+01 -0.31685729327E+02  0.43868920423E+01  0.33184947466E+02  0.00000000000E+00 0.  1.
</event>
<event>
 7    1  0.1788006E-013  0.7246156E+02  0.7816164E-02  0.1226708E+00
        -11   -1    0    0    0    0  0.00000000000E+00  0.00000000000E+00  0.45593999997E+02  0.45594000000E+02  0.51100000000E-03 0.  1.
         11   -1    0    0    0    0 -0.00000000000E+00 -0.00000000000E+00 -0.45593999997E+02  0.45594000000E+02  0.51100000000E-03 0. -1.
    9900012    2    1    2    0    0 -0.50836344588E+01 -0.14090514018E+02 -0.11238037978E+02  0.72461563547E+02  0.69999991211E+02 0.  0.
        -12    1    1    2    0    0  0.50836344588E+01  0.14090514018E+02  0.11238037978E+02  0.18726436453E+02  0.00000000000E+00 0.  1.
         11    1    3    3    0    0  0.13792368287E+02 -0.15946792629E+02 -0.25153159088E+02  0.32820893200E+02  0.51100000000E-03 0. -1.
        -11    1    3    3    0    0  0.47206040232E+01  0.10359894214E+01 -0.67240364425E+01  0.82807030357E+01  0.51100000000E-03 0.  1.
        -12    1    3    3    0    0 -0.23596606769E+02  0.82028918897E+00  0.20639157552E+02  0.31359967312E+02  0.00000000000E+00 0.  1.
</event>
<event>
 7    1  0.1788006E-013  0.7246156E+02  0.7816164E-02  0.1226708E+00
        -11   -1    0    0    0    0  0.00000000000E+00  0.00000000000E+00  0.45593999997E+02  0.45594000000E+02  0.51100000000E-03 0.  1.
         11   -1    0    0    0    0 -0.00000000000E+00 -0.00000000000E+00 -0.45593999997E+02  0.45594000000E+02  0.51100000000E-03 0. -1.
    9900012    2    1    2    0    0  0.16479898534E+01  0.17923146426E+02 -0.51695879290E+01  0.72461556458E+02  0.69999981976E+02 0.  0.
        -12    1    1    2    0    0 -0.16479898534E+01 -0.17923146426E+02  0.51695879290E+01  0.18726443542E+02  0.00000000000E+00 0.  1.
         11    1    3    3    0    0 -0.78681229422E+01  0.52840504247E+01 -0.20310179899E+02  0.22412763223E+02  0.51100000000E-03 0. -1.
        -11    1    3    3    0    0  0.17696442464E+02  0.57792079164E+01 -0.11131494890E+02  0.21690401074E+02  0.51100000000E-03 0.  1.
        -12    1    3    3    0    0 -0.81803296683E+01  0.68598880848E+01  0.26272086859E+02  0.28358392161E+02  0.00000000000E+00 0.  1.
</event>
<event>
 7    1  0.1788006E-013  0.7246096E+02  0.7816164E-02  0.1226710E+00
        -11   -1    0    0    0    0  0.00000000000E+00  0.00000000000E+00  0.45593999997E+02  0.45594000000E+02  0.51100000000E-03 0. -1.
         11   -1    0    0    0    0 -0.00000000000E+00 -0.00000000000E+00 -0.45593999997E+02  0.45594000000E+02  0.51100000000E-03 0.  1.
    9900012    2    1    2    0    0  0.60676999784E+01 -0.27914053992E+01  0.17495512399E+02  0.72460963896E+02  0.69999210049E+02 0.  0.
        -12    1    1    2    0    0 -0.60676999784E+01  0.27914053992E+01 -0.17495512399E+02  0.18727036104E+02  0.00000000000E+00 0.  1.
         11    1    3    3    0    0 -0.53114184161E+01  0.12377173452E+02 -0.46346038366E+01  0.14243775526E+02  0.51100000000E-03 0. -1.
        -11    1    3    3    0    0 -0.52778139985E+01 -0.11727792042E+02 -0.13555488839E+02  0.18685494500E+02  0.51100000000E-03 0.  1.
         12    1    3    3    0    0  0.16656932393E+02 -0.34407868091E+01  0.35685605075E+02  0.39531693869E+02  0.00000000000E+00 0. -1.
</event>
<event>
 7    1  0.1788006E-013  0.7246181E+02  0.7816164E-02  0.1226707E+00
        -11   -1    0    0    0    0  0.00000000000E+00  0.00000000000E+00  0.45593999997E+02  0.45594000000E+02  0.51100000000E-03 0. -1.
         11   -1    0    0    0    0 -0.00000000000E+00 -0.00000000000E+00 -0.45593999997E+02  0.45594000000E+02  0.51100000000E-03 0.  1.
    9900012    2    1    2    0    0  0.18259808834E+02  0.24927913169E+01  0.33219701172E+01  0.72461812116E+02  0.70000315017E+02 0.  0.
        -12    1    1    2    0    0 -0.18259808834E+02 -0.24927913169E+01 -0.33219701172E+01  0.18726187884E+02  0.00000000000E+00 0.  1.
         11    1    3    3    0    0 -0.10822056217E+02  0.16741850805E+02 -0.70608341558E+01  0.21148566107E+02  0.51100000000E-03 0. -1.
        -11    1    3    3    0    0  0.21717119603E+02  0.31088479348E+01 -0.95038323746E+01  0.23908597813E+02  0.51100000000E-03 0.  1.
        -12    1    3    3    0    0  0.73647454475E+01 -0.17357907423E+02  0.19886636648E+02  0.27404648196E+02  0.00000000000E+00 0.  1.
</event>
<event>
 7    1  0.1788006E-013  0.7246152E+02  0.7816164E-02  0.1226708E+00
        -11   -1    0    0    0    0  0.00000000000E+00  0.00000000000E+00  0.45593999997E+02  0.45594000000E+02  0.51100000000E-03 0.  1.
         11   -1    0    0    0    0 -0.00000000000E+00 -0.00000000000E+00 -0.45593999997E+02  0.45594000000E+02  0.51100000000E-03 0. -1.
    9900012    2    1    2    0    0  0.16028689904E+02  0.96345413323E+01  0.96836747949E+00  0.72461520825E+02  0.69999935557E+02 0.  0.
        -12    1    1    2    0    0 -0.16028689904E+02 -0.96345413323E+01 -0.96836747949E+00  0.18726479175E+02  0.00000000000E+00 0.  1.
         11    1    3    3    0    0  0.12571296367E+01  0.30526089438E+01  0.15583515155E+01  0.36506514479E+01  0.51100000000E-03 0. -1.
        -11    1    3    3    0    0  0.65531981614E+00  0.35786688523E+02  0.41364672856E+01  0.36030915633E+02  0.51100000000E-03 0.  1.
         12    1    3    3    0    0  0.14116240451E+02 -0.29204756135E+02 -0.47264513215E+01  0.32779953744E+02  0.00000000000E+00 0. -1.
</event>
<event>
 7    1  0.1788006E-013  0.7246154E+02  0.7816164E-02  0.1226708E+00
        -11   -1    0    0    0    0  0.00000000000E+00  0.00000000000E+00  0.45593999997E+02  0.45594000000E+02  0.51100000000E-03 0. -1.
         11   -1    0    0    0    0 -0.00000000000E+00 -0.00000000000E+00 -0.45593999997E+02  0.45594000000E+02  0.51100000000E-03 0.  1.
    9900012    2    1    2    0    0 -0.12952607990E+01 -0.64023559139E+01  0.17550283695E+02  0.72461539588E+02  0.69999960000E+02 0.  0.
        -12    1    1    2    0    0  0.12952607990E+01  0.64023559139E+01 -0.17550283695E+02  0.18726460412E+02  0.00000000000E+00 0.  1.
         11    1    3    3    0    0 -0.27062846250E+02  0.16105140126E+02  0.19013292068E+02  0.36786933294E+02  0.51100000000E-03 0.  1.
        -11    1    3    3    0    0  0.15901156778E+02 -0.12588550270E+02  0.39707144999E+01  0.20666033937E+02  0.51100000000E-03 0. -1.
        -12    1    3    3    0    0  0.98664286730E+01 -0.99189457701E+01 -0.54337228731E+01  0.15008572358E+02  0.00000000000E+00 0.  1.
</event>
<event>
 7    1  0.1788006E-013  0.7246160E+02  0.7816164E-02  0.1226708E+00
        -11   -1    0    0    0    0  0.00000000000E+00  0.00000000000E+00  0.45593999997E+02  0.45594000000E+02  0.51100000000E-03 0. -1.
         11   -1    0    0    0    0 -0.00000000000E+00 -0.00000000000E+00 -0.45593999997E+02  0.45594000000E+02  0.51100000000E-03 0.  1.
    9900012    2    1    2    0    0  0.65137090248E+01  0.17259952300E+02  0.32161664951E+01  0.72461599236E+02  0.70000037701E+02 0.  0.
        -12    1    1    2    0    0 -0.65137090248E+01 -0.17259952300E+02 -0.32161664951E+01  0.18726400764E+02  0.00000000000E+00 0.  1.
         11    1    3    3    0    0 -0.93254808332E+01  0.30257806443E+02  0.66001845158E+01  0.32342879887E+02  0.51100000000E-03 0. -1.
        -11    1    3    3    0    0 -0.15987797850E+01 -0.18357976832E+02 -0.96856162698E+01  0.20817842658E+02  0.51100000000E-03 0.  1.
         12    1    3    3    0    0  0.17437969643E+02  0.53601226891E+01  0.63015982491E+01  0.19300876690E+02  0.00000000000E+00 0. -1.
</event>
<event>
 7    1  0.1788006E-013  0.7246157E+02  0.7816164E-02  0.1226708E+00
        -11   -1    0    0    0    0  0.00000000000E+00  0.00000000000E+00  0.45593999997E+02  0.45594000000E+02  0.51100000000E-03 0.  1.
         11   -1    0    0    0    0 -0.00000000000E+00 -0.00000000000E+00 -0.45593999997E+02  0.45594000000E+02  0.51100000000E-03 0. -1.
    9900012    2    1    2    0    0 -0.19941306180E+01  0.18616994948E+02 -0.33157669731E+00  0.72461574795E+02  0.70000005864E+02 0.  0.
        -12    1    1    2    0    0  0.19941306180E+01 -0.18616994948E+02  0.33157669731E+00  0.18726425205E+02  0.00000000000E+00 0.  1.
         11    1    3    3    0    0  0.11211394477E+02  0.84702340386E+00 -0.85641516447E+01  0.14133559651E+02  0.51100000000E-03 0. -1.
        -11    1    3    3    0    0 -0.22601530000E+02 -0.12508979926E+02  0.61630026310E+01  0.26557227620E+02  0.51100000000E-03 0.  1.
         12    1    3    3    0    0  0.93960049052E+01  0.30278951471E+02  0.20695723165E+01  0.31770787525E+02  0.00000000000E+00 0. -1.
</event>
<event>
 7    1  0.1788006E-013  0.7246146E+02  0.7816164E-02  0.1226708E+00
        -11   -1    0    0    0    0  0.00000000000E+00  0.00000000000E+00  0.45593999997E+02  0.45594000000E+02  0.51100000000E-03 0.  1.
         11   -1    0    0    0    0 -0.00000000000E+00 -0.00000000000E+00 -0.45593999997E+02  0.45594000000E+02  0.51100000000E-03 0. -1.
    9900012    2    1    2    0    0 -0.49670084060E+00  0.18708935183E+02  0.64209117945E+00  0.72461461385E+02  0.69999858126E+02 0.  0.
        -12    1    1    2    0    0  0.49670084060E+00 -0.18708935183E+02 -0.64209117945E+00  0.18726538615E+02  0.00000000000E+00 0.  1.
         11    1    3    3    0    0 -0.69591182213E+01  0.10985641064E+01  0.19876682053E+01  0.73203138368E+01  0.51100000000E-03 0. -1.
        -11    1    3    3    0    0 -0.72413551566E+01  0.38238169226E+02  0.58431414704E+01  0.39353997418E+02  0.51100000000E-03 0.  1.
         12    1    3    3    0    0  0.13703772537E+02 -0.20627798149E+02 -0.71887184962E+01  0.25787150131E+02  0.00000000000E+00 0. -1.
</event>
<event>
 7    1  0.1788006E-013  0.7246159E+02  0.7816164E-02  0.1226708E+00
        -11   -1    0    0    0    0  0.00000000000E+00  0.00000000000E+00  0.45593999997E+02  0.45594000000E+02  0.51100000000E-03 0.  1.
         11   -1    0    0    0    0 -0.00000000000E+00 -0.00000000000E+00 -0.45593999997E+02  0.45594000000E+02  0.51100000000E-03 0. -1.
    9900012    2    1    2    0    0  0.27180653873E+01  0.13027762584E+02 -0.13174524771E+02  0.72461586026E+02  0.70000020493E+02 0.  0.
        -12    1    1    2    0    0 -0.27180653873E+01 -0.13027762584E+02  0.13174524771E+02  0.18726413974E+02  0.00000000000E+00 0.  1.
         11    1    3    3    0    0  0.24002758920E+02 -0.69709653476E+01 -0.25085301949E+02  0.35411850669E+02  0.51100000000E-03 0. -1.
        -11    1    3    3    0    0 -0.13529100906E+02  0.88934879565E+01 -0.34664948400E+01  0.16557393699E+02  0.51100000000E-03 0.  1.
        -12    1    3    3    0    0 -0.77555926265E+01  0.11105239975E+02  0.15377272018E+02  0.20492341658E+02  0.00000000000E+00 0.  1.
</event>
<event>
 7    1  0.1788006E-013  0.7246154E+02  0.7816164E-02  0.1226708E+00
        -11   -1    0    0    0    0  0.00000000000E+00  0.00000000000E+00  0.45593999997E+02  0.45594000000E+02  0.51100000000E-03 0. -1.
         11   -1    0    0    0    0 -0.00000000000E+00 -0.00000000000E+00 -0.45593999997E+02  0.45594000000E+02  0.51100000000E-03 0.  1.
    9900012    2    1    2    0    0 -0.53293700134E+01  0.16923891337E+02  0.59883344214E+01  0.72461536590E+02  0.69999956094E+02 0.  0.
        -12    1    1    2    0    0  0.53293700134E+01 -0.16923891337E+02 -0.59883344214E+01  0.18726463410E+02  0.00000000000E+00 0.  1.
         11    1    3    3    0    0 -0.22735242522E+02  0.19396336048E+02 -0.33555895234E+01  0.30072729938E+02  0.51100000000E-03 0. -1.
        -11    1    3    3    0    0  0.59052636229E+01 -0.15754906803E+01 -0.14590869127E+02  0.15819221583E+02  0.51100000000E-03 0.  1.
        -12    1    3    3    0    0  0.11500608886E+02 -0.89695403092E+00  0.23934793072E+02  0.26569585068E+02  0.00000000000E+00 0.  1.
</event>
<event>
 7    1  0.1788006E-013  0.7246154E+02  0.7816164E-02  0.1226708E+00
        -11   -1    0    0    0    0  0.00000000000E+00  0.00000000000E+00  0.45593999997E+02  0.45594000000E+02  0.51100000000E-03 0. -1.
         11   -1    0    0    0    0 -0.00000000000E+00 -0.00000000000E+00 -0.45593999997E+02  0.45594000000E+02  0.51100000000E-03 0.  1.
    9900012    2    1    2    0    0 -0.84097601384E+01  0.91428364223E+01  0.14013026966E+02  0.72461536154E+02  0.69999955526E+02 0.  0.
        -12    1    1    2    0    0  0.84097601384E+01 -0.91428364223E+01 -0.14013026966E+02  0.18726463846E+02  0.00000000000E+00 0.  1.
         11    1    3    3    0    0 -0.20920112084E+02 -0.11439393874E+02  0.34592087031E+01  0.24093089194E+02  0.51100000000E-03 0. -1.
        -11    1    3    3    0    0 -0.60875695355E+01 -0.72809255271E-01 -0.11417300746E+02  0.12939032446E+02  0.51100000000E-03 0.  1.
         12    1    3    3    0    0  0.18597921482E+02  0.20655039551E+02  0.21971119009E+02  0.35429414514E+02  0.00000000000E+00 0. -1.
</event>
<event>
 7    1  0.1788006E-013  0.7246157E+02  0.7816164E-02  0.1226708E+00
        -11   -1    0    0    0    0  0.00000000000E+00  0.00000000000E+00  0.45593999997E+02  0.45594000000E+02  0.51100000000E-03 0. -1.
         11   -1    0    0    0    0 -0.00000000000E+00 -0.00000000000E+00 -0.45593999997E+02  0.45594000000E+02  0.51100000000E-03 0.  1.
    9900012    2    1    2    0    0 -0.78422504326E+00 -0.64911016765E+01  0.17547928617E+02  0.72461569249E+02  0.69999998639E+02 0.  0.
        -12    1    1    2    0    0  0.78422504326E+00  0.64911016765E+01 -0.17547928617E+02  0.18726430751E+02  0.00000000000E+00 0.  1.
         11    1    3    3    0    0 -0.39191930171E+01  0.75730497759E+01  0.23097378542E+01  0.88343673248E+01  0.51100000000E-03 0. -1.
        -11    1    3    3    0    0 -0.27167382705E+02 -0.71808564404E+01  0.16391107980E+02  0.32531520151E+02  0.51100000000E-03 0.  1.
        -12    1    3    3    0    0  0.30302350679E+02 -0.68832950120E+01 -0.11529172165E+01  0.31095681774E+02  0.00000000000E+00 0.  1.
</event>
<event>
 7    1  0.1788006E-013  0.7246167E+02  0.7816164E-02  0.1226708E+00
        -11   -1    0    0    0    0  0.00000000000E+00  0.00000000000E+00  0.45593999997E+02  0.45594000000E+02  0.51100000000E-03 0. -1.
         11   -1    0    0    0    0 -0.00000000000E+00 -0.00000000000E+00 -0.45593999997E+02  0.45594000000E+02  0.51100000000E-03 0.  1.
    9900012    2    1    2    0    0  0.18063439164E+02 -0.37445741500E+01  0.32195823911E+01  0.72461671455E+02  0.70000131781E+02 0.  0.
        -12    1    1    2    0    0 -0.18063439164E+02  0.37445741500E+01 -0.32195823911E+01  0.18726328545E+02  0.00000000000E+00 0.  1.
         11    1    3    3    0    0  0.33560281536E+02  0.15962692371E+02 -0.13774826564E+01  0.37188674394E+02  0.51100000000E-03 0. -1.
        -11    1    3    3    0    0 -0.17595617657E+02 -0.28111711561E+01  0.38543019278E+01  0.18230855372E+02  0.51100000000E-03 0.  1.
        -12    1    3    3    0    0  0.20987752850E+01 -0.16896095365E+02  0.74276311971E+00  0.17042141689E+02  0.00000000000E+00 0.  1.
</event>
<event>
 7    1  0.1788006E-013  0.7246162E+02  0.7816164E-02  0.1226708E+00
        -11   -1    0    0    0    0  0.00000000000E+00  0.00000000000E+00  0.45593999997E+02  0.45594000000E+02  0.51100000000E-03 0. -1.
         11   -1    0    0    0    0 -0.00000000000E+00 -0.00000000000E+00 -0.45593999997E+02  0.45594000000E+02  0.51100000000E-03 0.  1.
    9900012    2    1    2    0    0  0.18381134701E+02 -0.30664276783E+01 -0.18461049640E+01  0.72461623011E+02  0.70000068673E+02 0.  0.
        -12    1    1    2    0    0 -0.18381134701E+02  0.30664276783E+01  0.18461049640E+01  0.18726376989E+02  0.00000000000E+00 0.  1.
         11    1    3    3    0    0 -0.52543541025E+00  0.34279858401E+01  0.19831823238E+01  0.39950196096E+01  0.51100000000E-03 0. -1.
        -11    1    3    3    0    0 -0.18477868745E+02 -0.13845783968E+02 -0.16427647484E+02  0.28337342310E+02  0.51100000000E-03 0.  1.
         12    1    3    3    0    0  0.37384438857E+02  0.73513704493E+01  0.12598360196E+02  0.40129261091E+02  0.00000000000E+00 0. -1.
</event>
<event>
 7    1  0.1788006E-013  0.7246158E+02  0.7816164E-02  0.1226708E+00
        -11   -1    0    0    0    0  0.00000000000E+00  0.00000000000E+00  0.45593999997E+02  0.45594000000E+02  0.51100000000E-03 0.  1.
         11   -1    0    0    0    0 -0.00000000000E+00 -0.00000000000E+00 -0.45593999997E+02  0.45594000000E+02  0.51100000000E-03 0. -1.
    9900012    2    1    2    0    0 -0.49061537057E+01 -0.87948332614E+01 -0.15787952010E+02  0.72461578427E+02  0.70000010594E+02 0.  0.
        -12    1    1    2    0    0  0.49061537057E+01  0.87948332614E+01  0.15787952010E+02  0.18726421573E+02  0.00000000000E+00 0.  1.
         11    1    3    3    0    0 -0.17533872221E+02 -0.19581182337E+02 -0.24536454385E+02  0.35956876544E+02  0.51100000000E-03 0. -1.
        -11    1    3    3    0    0  0.45933146542E+01 -0.29897380593E+01  0.17482813553E+02  0.18321731446E+02  0.51100000000E-03 0.  1.
        -12    1    3    3    0    0  0.80344038611E+01  0.13776087135E+02 -0.87343111782E+01  0.18182970437E+02  0.00000000000E+00 0.  1.
</event>
<event>
 7    1  0.1788006E-013  0.7246158E+02  0.7816164E-02  0.1226708E+00
        -11   -1    0    0    0    0  0.00000000000E+00  0.00000000000E+00  0.45593999997E+02  0.45594000000E+02  0.51100000000E-03 0.  1.
         11   -1    0    0    0    0 -0.00000000000E+00 -0.00000000000E+00 -0.45593999997E+02  0.45594000000E+02  0.51100000000E-03 0. -1.
    9900012    2    1    2    0    0 -0.15312511767E+02  0.94012979719E+01 -0.52745921698E+01  0.72461581690E+02  0.70000014845E+02 0.  0.
        -12    1    1    2    0    0  0.15312511767E+02 -0.94012979719E+01  0.52745921698E+01  0.18726418310E+02  0.00000000000E+00 0.  1.
         11    1    3    3    0    0  0.17633023423E+02 -0.34713534487E+01 -0.83908583886E+00  0.17991049861E+02  0.51100000000E-03 0. -1.
        -11    1    3    3    0    0 -0.13816182582E+02  0.15535606534E+02 -0.20612757868E+02  0.29276744332E+02  0.51100000000E-03 0.  1.
        -12    1    3    3    0    0 -0.19129352608E+02 -0.26629551131E+01  0.16177251538E+02  0.25193787497E+02  0.00000000000E+00 0.  1.
</event>
<event>
 7    1  0.1788006E-013  0.7246158E+02  0.7816164E-02  0.1226708E+00
        -11   -1    0    0    0    0  0.00000000000E+00  0.00000000000E+00  0.45593999997E+02  0.45594000000E+02  0.51100000000E-03 0.  1.
         11   -1    0    0    0    0 -0.00000000000E+00 -0.00000000000E+00 -0.45593999997E+02  0.45594000000E+02  0.51100000000E-03 0. -1.
    9900012    2    1    2    0    0 -0.77443460267E+01 -0.15318027814E+02 -0.74874433513E+01  0.72461583380E+02  0.70000017047E+02 0.  0.
        -12    1    1    2    0    0  0.77443460267E+01  0.15318027814E+02  0.74874433513E+01  0.18726416620E+02  0.00000000000E+00 0.  1.
         11    1    3    3    0    0 -0.30547091166E+02 -0.14952783131E+02 -0.11207099183E+02  0.35809350377E+02  0.51100000000E-03 0. -1.
        -11    1    3    3    0    0 -0.23790289667E+01 -0.84483743937E+01 -0.31537816497E+01  0.93263684077E+01  0.51100000000E-03 0.  1.
        -12    1    3    3    0    0  0.25181774106E+02  0.80831297105E+01  0.68734374819E+01  0.27325864595E+02  0.00000000000E+00 0.  1.
</event>
<event>
 7    1  0.1788006E-013  0.7246158E+02  0.7816164E-02  0.1226708E+00
        -11   -1    0    0    0    0  0.00000000000E+00  0.00000000000E+00  0.45593999997E+02  0.45594000000E+02  0.51100000000E-03 0.  1.
         11   -1    0    0    0    0 -0.00000000000E+00 -0.00000000000E+00 -0.45593999997E+02  0.45594000000E+02  0.51100000000E-03 0. -1.
    9900012    2    1    2    0    0 -0.45451804789E+01 -0.23884329267E+01 -0.18008757941E+02  0.72461584432E+02  0.70000018417E+02 0.  0.
        -12    1    1    2    0    0  0.45451804789E+01  0.23884329267E+01  0.18008757941E+02  0.18726415568E+02  0.00000000000E+00 0.  1.
         11    1    3    3    0    0 -0.27341475602E+02 -0.22278557087E+02 -0.10483443985E+01  0.35284407607E+02  0.51100000000E-03 0. -1.
        -11    1    3    3    0    0  0.57624940363E+01  0.54524565286E+01 -0.11866755651E+02  0.14274295417E+02  0.51100000000E-03 0.  1.
        -12    1    3    3    0    0  0.17033801086E+02  0.14437667631E+02 -0.50936578917E+01  0.22902881408E+02  0.00000000000E+00 0.  1.
</event>
<event>
 7    1  0.1788006E-013  0.7246154E+02  0.7816164E-02  0.1226708E+00
        -11   -1    0    0    0    0  0.00000000000E+00  0.00000000000E+00  0.45593999997E+02  0.45594000000E+02  0.51100000000E-03 0. -1.
         11   -1    0    0    0    0 -0.00000000000E+00 -0.00000000000E+00 -0.45593999997E+02  0.45594000000E+02  0.51100000000E-03 0.  1.
    9900012    2    1    2    0    0  0.12709481058E+02  0.45836851487E+01 -0.12966846563E+02  0.72461543098E+02  0.69999964571E+02 0.  0.
        -12    1    1    2    0    0 -0.12709481058E+02 -0.45836851487E+01  0.12966846563E+02  0.18726456902E+02  0.00000000000E+00 0.  1.
         11    1    3    3    0    0  0.79549119538E+01 -0.14411567102E+02 -0.18389842023E+01  0.16563687805E+02  0.51100000000E-03 0. -1.
        -11    1    3    3    0    0  0.19695730238E+02 -0.86680462917E+01  0.24364693586E+01  0.21656250814E+02  0.51100000000E-03 0.  1.
         12    1    3    3    0    0 -0.14941161134E+02  0.27663298543E+02 -0.13564331720E+02  0.34241604479E+02  0.00000000000E+00 0. -1.
</event>
<event>
 7    1  0.1788006E-013  0.7246158E+02  0.7816164E-02  0.1226708E+00
        -11   -1    0    0    0    0  0.00000000000E+00  0.00000000000E+00  0.45593999997E+02  0.45594000000E+02  0.51100000000E-03 0. -1.
         11   -1    0    0    0    0 -0.00000000000E+00 -0.00000000000E+00 -0.45593999997E+02  0.45594000000E+02  0.51100000000E-03 0.  1.
    9900012    2    1    2    0    0  0.15379676633E+02 -0.90045418727E+01  0.57500167105E+01  0.72461576961E+02  0.70000008684E+02 0.  0.
        -12    1    1    2    0    0 -0.15379676633E+02  0.90045418727E+01 -0.57500167105E+01  0.18726423039E+02  0.00000000000E+00 0.  1.
         11    1    3    3    0    0  0.72382082048E+01 -0.62893226940E+00 -0.13342109575E+02  0.15192073657E+02  0.51100000000E-03 0.  1.
        -11    1    3    3    0    0  0.80341844772E+01  0.74907785226E+01 -0.15624221376E+02  0.19099114559E+02  0.51100000000E-03 0. -1.
        -12    1    3    3    0    0  0.10728395089E+00 -0.15866388126E+02  0.34716347661E+02  0.38170388745E+02  0.00000000000E+00 0.  1.
</event>
<event>
 7    1  0.1788006E-013  0.7246159E+02  0.7816164E-02  0.1226708E+00
        -11   -1    0    0    0    0  0.00000000000E+00  0.00000000000E+00  0.45593999997E+02  0.45594000000E+02  0.51100000000E-03 0.  1.
         11   -1    0    0    0    0 -0.00000000000E+00 -0.00000000000E+00 -0.45593999997E+02  0.45594000000E+02  0.51100000000E-03 0. -1.
    9900012    2    1    2    0    0  0.92031462193E+00  0.18317677953E+01 -0.18613872203E+02  0.72461585750E+02  0.70000020134E+02 0.  0.
        -12    1    1    2    0    0 -0.92031462193E+00 -0.18317677953E+01  0.18613872203E+02  0.18726414250E+02  0.00000000000E+00 0.  1.
         11    1    3    3    0    0 -0.99258226372E+01  0.23989997410E+02 -0.14253323453E+02  0.29617548185E+02  0.51100000000E-03 0. -1.
        -11    1    3    3    0    0  0.13247595689E+02 -0.72061351131E-01  0.98175809511E+01  0.16489053350E+02  0.51100000000E-03 0.  1.
        -12    1    3    3    0    0 -0.24014584302E+01 -0.22086168264E+02 -0.14178129701E+02  0.26354984215E+02  0.00000000000E+00 0.  1.
</event>
<event>
 7    1  0.1788006E-013  0.7246157E+02  0.7816164E-02  0.1226708E+00
        -11   -1    0    0    0    0  0.00000000000E+00  0.00000000000E+00  0.45593999997E+02  0.45594000000E+02  0.51100000000E-03 0. -1.
         11   -1    0    0    0    0 -0.00000000000E+00 -0.00000000000E+00 -0.45593999997E+02  0.45594000000E+02  0.51100000000E-03 0.  1.
    9900012    2    1    2    0    0 -0.21172903507E+00 -0.18640981064E+02  0.17742681282E+01  0.72461573976E+02  0.70000004797E+02 0.  0.
        -12    1    1    2    0    0  0.21172903507E+00  0.18640981064E+02 -0.17742681282E+01  0.18726426024E+02  0.00000000000E+00 0.  1.
         11    1    3    3    0    0  0.10974901433E+02 -0.43138104084E+01 -0.24778492497E+02  0.27441412362E+02  0.51100000000E-03 0. -1.
        -11    1    3    3    0    0 -0.80178878763E+01 -0.35493504466E+01 -0.59726850935E+01  0.10609306390E+02  0.51100000000E-03 0.  1.
         12    1    3    3    0    0 -0.31687425921E+01 -0.10777820209E+02  0.32525445719E+02  0.34410855225E+02  0.00000000000E+00 0. -1.
</event>
<event>
 7    1  0.1788006E-013  0.7246158E+02  0.7816164E-02  0.1226708E+00
        -11   -1    0    0    0    0  0.00000000000E+00  0.00000000000E+00  0.45593999997E+02  0.45594000000E+02  0.51100000000E-03 0.  1.
         11   -1    0    0    0    0 -0.00000000000E+00 -0.00000000000E+00 -0.45593999997E+02  0.45594000000E+02  0.51100000000E-03 0. -1.
    9900012    2    1    2    0    0  0.13897386710E+02  0.12464187247E+02 -0.14783966479E+01  0.72461575415E+02  0.70000006670E+02 0.  0.
        -12    1    1    2    0    0 -0.13897386710E+02 -0.12464187247E+02  0.14783966479E+01  0.18726424585E+02  0.00000000000E+00 0.  1.
         11    1    3    3    0    0  0.20089553731E+02  0.22760293319E+02 -0.70514699457E+01  0.31166397767E+02  0.51100000000E-03 0. -1.
        -11    1    3    3    0    0 -0.30161208714E+01  0.11934018612E+02  0.12748054296E+02  0.17720910641E+02  0.51100000000E-03 0.  1.
        -12    1    3    3    0    0 -0.31760461494E+01 -0.22230124684E+02 -0.71749809986E+01  0.23574267007E+02  0.00000000000E+00 0.  1.
</event>
<event>
 7    1  0.1788006E-013  0.7246150E+02  0.7816164E-02  0.1226708E+00
        -11   -1    0    0    0    0  0.00000000000E+00  0.00000000000E+00  0.45593999997E+02  0.45594000000E+02  0.51100000000E-03 0. -1.
         11   -1    0    0    0    0 -0.00000000000E+00 -0.00000000000E+00 -0.45593999997E+02  0.45594000000E+02  0.51100000000E-03 0.  1.
    9900012    2    1    2    0    0  0.15490192806E+02  0.35900764454E+01 -0.98917655251E+01  0.72461501468E+02  0.69999910341E+02 0.  0.
        -12    1    1    2    0    0 -0.15490192806E+02 -0.35900764454E+01  0.98917655251E+01  0.18726498532E+02  0.00000000000E+00 0.  1.
         11    1    3    3    0    0 -0.50320241703E+01  0.96484298525E+01  0.32204333192E+01  0.11348332780E+02  0.51100000000E-03 0. -1.
        -11    1    3    3    0    0 -0.40534733294E+01 -0.20631615545E+02  0.10997443159E+02  0.23728420983E+02  0.51100000000E-03 0.  1.
        -12    1    3    3    0    0  0.24575690306E+02  0.14573262138E+02 -0.24109642004E+02  0.37384747704E+02  0.00000000000E+00 0.  1.
</event>
<event>
 7    1  0.1788006E-013  0.7246157E+02  0.7816164E-02  0.1226708E+00
        -11   -1    0    0    0    0  0.00000000000E+00  0.00000000000E+00  0.45593999997E+02  0.45594000000E+02  0.51100000000E-03 0. -1.
         11   -1    0    0    0    0 -0.00000000000E+00 -0.00000000000E+00 -0.45593999997E+02  0.45594000000E+02  0.51100000000E-03 0.  1.
    9900012    2    1    2    0    0 -0.14041236201E+02  0.27241905098E+00  0.12387439654E+02  0.72461569817E+02  0.69999999378E+02 0.  0.
        -12    1    1    2    0    0  0.14041236201E+02 -0.27241905098E+00 -0.12387439654E+02  0.18726430183E+02  0.00000000000E+00 0.  1.
         11    1    3    3    0    0  0.18037368301E+01 -0.93411069918E+01  0.18615327001E+01  0.96940729644E+01  0.51100000000E-03 0. -1.
        -11    1    3    3    0    0 -0.25368267382E+02 -0.56782670574E+01 -0.16131030871E+02  0.30594147545E+02  0.51100000000E-03 0.  1.
         12    1    3    3    0    0  0.95232943510E+01  0.15291793100E+02  0.26656937825E+02  0.32173349308E+02  0.00000000000E+00 0. -1.
</event>
<event>
 7    1  0.1788006E-013  0.7246158E+02  0.7816164E-02  0.1226708E+00
        -11   -1    0    0    0    0  0.00000000000E+00  0.00000000000E+00  0.45593999997E+02  0.45594000000E+02  0.51100000000E-03 0.  1.
         11   -1    0    0    0    0 -0.00000000000E+00 -0.00000000000E+00 -0.45593999997E+02  0.45594000000E+02  0.51100000000E-03 0. -1.
    9900012    2    1    2    0    0  0.37999305331E+01  0.11139152051E+02 -0.14565669633E+02  0.72461577161E+02  0.70000008946E+02 0.  0.
        -12    1    1    2    0    0 -0.37999305331E+01 -0.11139152051E+02  0.14565669633E+02  0.18726422839E+02  0.00000000000E+00 0.  1.
         11    1    3    3    0    0  0.13017748230E+02  0.16881714035E+02  0.17277900667E+02  0.27440479031E+02  0.51100000000E-03 0.  1.
        -11    1    3    3    0    0 -0.10624985324E+02  0.10127692148E+02 -0.91632497500E+01  0.17303918852E+02  0.51100000000E-03 0. -1.
        -12    1    3    3    0    0  0.14071676276E+01 -0.15870254132E+02 -0.22680320550E+02  0.27717179279E+02  0.00000000000E+00 0.  1.
</event>
<event>
 7    1  0.1788006E-013  0.7246159E+02  0.7816164E-02  0.1226708E+00
        -11   -1    0    0    0    0  0.00000000000E+00  0.00000000000E+00  0.45593999997E+02  0.45594000000E+02  0.51100000000E-03 0.  1.
         11   -1    0    0    0    0 -0.00000000000E+00 -0.00000000000E+00 -0.45593999997E+02  0.45594000000E+02  0.51100000000E-03 0. -1.
    9900012    2    1    2    0    0 -0.60857314431E+01  0.11815672462E+02  0.13192125436E+02  0.72461590402E+02  0.70000026193E+02 0.  0.
        -12    1    1    2    0    0  0.60857314431E+01 -0.11815672462E+02 -0.13192125436E+02  0.18726409598E+02  0.00000000000E+00 0.  1.
         11    1    3    3    0    0 -0.12815080378E+01 -0.79707873989E+00 -0.70971248530E+01  0.72558100037E+01  0.51100000000E-03 0. -1.
        -11    1    3    3    0    0  0.76005226503E+01 -0.12679900474E+02  0.31570272281E+02  0.34860147917E+02  0.51100000000E-03 0.  1.
         12    1    3    3    0    0 -0.12404746056E+02  0.25292651676E+02 -0.11281021992E+02  0.30345632481E+02  0.00000000000E+00 0. -1.
</event>
<event>
 7    1  0.1788006E-013  0.7246161E+02  0.7816164E-02  0.1226708E+00
        -11   -1    0    0    0    0  0.00000000000E+00  0.00000000000E+00  0.45593999997E+02  0.45594000000E+02  0.51100000000E-03 0.  1.
         11   -1    0    0    0    0 -0.00000000000E+00 -0.00000000000E+00 -0.45593999997E+02  0.45594000000E+02  0.51100000000E-03 0. -1.
    9900012    2    1    2    0    0 -0.14747617731E+02 -0.21140891486E+01 -0.11345312570E+02  0.72461609024E+02  0.70000050453E+02 0.  0.
        -12    1    1    2    0    0  0.14747617731E+02  0.21140891486E+01  0.11345312570E+02  0.18726390976E+02  0.00000000000E+00 0.  1.
         11    1    3    3    0    0  0.16747475078E+01 -0.14315494583E+02 -0.29180631362E+02  0.32546081351E+02  0.51100000000E-03 0. -1.
        -11    1    3    3    0    0  0.73230378901E+01  0.83172991408E+01  0.24289131547E+01  0.11344777138E+02  0.51100000000E-03 0.  1.
        -12    1    3    3    0    0 -0.23745403129E+02  0.38841062940E+01  0.15406405637E+02  0.28570750535E+02  0.00000000000E+00 0.  1.
</event>
<event>
 7    1  0.1788006E-013  0.7246145E+02  0.7816164E-02  0.1226708E+00
        -11   -1    0    0    0    0  0.00000000000E+00  0.00000000000E+00  0.45593999997E+02  0.45594000000E+02  0.51100000000E-03 0. -1.
         11   -1    0    0    0    0 -0.00000000000E+00 -0.00000000000E+00 -0.45593999997E+02  0.45594000000E+02  0.51100000000E-03 0.  1.
    9900012    2    1    2    0    0 -0.50724414835E+01 -0.56944612203E+01  0.17103422765E+02  0.72461451427E+02  0.69999845153E+02 0.  0.
        -12    1    1    2    0    0  0.50724414835E+01  0.56944612203E+01 -0.17103422765E+02  0.18726548573E+02  0.00000000000E+00 0.  1.
         11    1    3    3    0    0 -0.11547630682E+01 -0.90407463157E+01 -0.98343950136E+01  0.13408351772E+02  0.51100000000E-03 0. -1.
        -11    1    3    3    0    0 -0.44403968288E+01  0.40369531722E+00 -0.15694803909E+02  0.16315850082E+02  0.51100000000E-03 0.  1.
         12    1    3    3    0    0  0.52271841345E+00  0.29425897782E+01  0.42632621687E+02  0.42737249573E+02  0.00000000000E+00 0. -1.
</event>
<event>
 7    1  0.1788006E-013  0.7246157E+02  0.7816164E-02  0.1226708E+00
        -11   -1    0    0    0    0  0.00000000000E+00  0.00000000000E+00  0.45593999997E+02  0.45594000000E+02  0.51100000000E-03 0.  1.
         11   -1    0    0    0    0 -0.00000000000E+00 -0.00000000000E+00 -0.45593999997E+02  0.45594000000E+02  0.51100000000E-03 0. -1.
    9900012    2    1    2    0    0  0.15108641196E+02  0.10524091592E+02 -0.34134333116E+01  0.72461572962E+02  0.70000003475E+02 0.  0.
        -12    1    1    2    0    0 -0.15108641196E+02 -0.10524091592E+02  0.34134333116E+01  0.18726427038E+02  0.00000000000E+00 0.  1.
         11    1    3    3    0    0  0.33675172537E+02  0.59910066359E+01 -0.13741577047E+01  0.34231531014E+02  0.51100000000E-03 0. -1.
        -11    1    3    3    0    0  0.79641636140E+01 -0.27542485369E+01  0.50418591927E+01  0.98200881591E+01  0.51100000000E-03 0.  1.
        -12    1    3    3    0    0 -0.26530694955E+02  0.72873334934E+01 -0.70811347995E+01  0.28409953789E+02  0.00000000000E+00 0.  1.
</event>
<event>
 7    1  0.1788006E-013  0.7246155E+02  0.7816164E-02  0.1226708E+00
        -11   -1    0    0    0    0  0.00000000000E+00  0.00000000000E+00  0.45593999997E+02  0.45594000000E+02  0.51100000000E-03 0. -1.
         11   -1    0    0    0    0 -0.00000000000E+00 -0.00000000000E+00 -0.45593999997E+02  0.45594000000E+02  0.51100000000E-03 0.  1.
    9900012    2    1    2    0    0  0.12968205246E+02 -0.13356113920E+02  0.20296949669E+01  0.72461553781E+02  0.69999978488E+02 0.  0.
        -12    1    1    2    0    0 -0.12968205246E+02  0.13356113920E+02 -0.20296949669E+01  0.18726446219E+02  0.00000000000E+00 0.  1.
         11    1    3    3    0    0 -0.12177565806E+02 -0.36357086374E+01  0.11114217067E+02  0.16883047934E+02  0.51100000000E-03 0. -1.
        -11    1    3    3    0    0  0.22436253489E+02 -0.27196151492E+02 -0.12799610075E+02  0.37507947757E+02  0.51100000000E-03 0.  1.
         12    1    3    3    0    0  0.27095175630E+01  0.17475746210E+02  0.37150879744E+01  0.18070558090E+02  0.00000000000E+00 0. -1.
</event>
<event>
 7    1  0.1788006E-013  0.7246155E+02  0.7816164E-02  0.1226708E+00
        -11   -1    0    0    0    0  0.00000000000E+00  0.00000000000E+00  0.45593999997E+02  0.45594000000E+02  0.51100000000E-03 0. -1.
         11   -1    0    0    0    0 -0.00000000000E+00 -0.00000000000E+00 -0.45593999997E+02  0.45594000000E+02  0.51100000000E-03 0.  1.
    9900012    2    1    2    0    0 -0.70892840413E+01 -0.33652356025E+01 -0.17002855144E+02  0.72461552341E+02  0.69999976612E+02 0.  0.
        -12    1    1    2    0    0  0.70892840413E+01  0.33652356025E+01  0.17002855144E+02  0.18726447659E+02  0.00000000000E+00 0.  1.
         11    1    3    3    0    0 -0.76676443668E+01 -0.18038411495E+01  0.74565325535E+01  0.10846496716E+02  0.51100000000E-03 0. -1.
        -11    1    3    3    0    0  0.98025955725E+01 -0.23404984801E+02 -0.27834270355E+02  0.37664715583E+02  0.51100000000E-03 0.  1.
         12    1    3    3    0    0 -0.92242352470E+01  0.21843590348E+02  0.33748826568E+01  0.23950340042E+02  0.00000000000E+00 0. -1.
</event>
<event>
 7    1  0.1788006E-013  0.7246155E+02  0.7816164E-02  0.1226708E+00
        -11   -1    0    0    0    0  0.00000000000E+00  0.00000000000E+00  0.45593999997E+02  0.45594000000E+02  0.51100000000E-03 0. -1.
         11   -1    0    0    0    0 -0.00000000000E+00 -0.00000000000E+00 -0.45593999997E+02  0.45594000000E+02  0.51100000000E-03 0.  1.
    9900012    2    1    2    0    0  0.40774350302E+01 -0.23986101168E+01  0.18119085424E+02  0.72461546424E+02  0.69999968905E+02 0.  0.
        -12    1    1    2    0    0 -0.40774350302E+01  0.23986101168E+01 -0.18119085424E+02  0.18726453576E+02  0.00000000000E+00 0.  1.
         11    1    3    3    0    0  0.15781877859E+02  0.13937707174E+02  0.16722364685E+02  0.26888005336E+02  0.51100000000E-03 0. -1.
        -11    1    3    3    0    0 -0.81655116723E+01  0.79353122650E+01 -0.12881315576E+02  0.17192238157E+02  0.51100000000E-03 0.  1.
        -12    1    3    3    0    0 -0.35389311562E+01 -0.24271629556E+02  0.14278036315E+02  0.28381302931E+02  0.00000000000E+00 0.  1.
</event>
<event>
 7    1  0.1788006E-013  0.7246155E+02  0.7816164E-02  0.1226708E+00
        -11   -1    0    0    0    0  0.00000000000E+00  0.00000000000E+00  0.45593999997E+02  0.45594000000E+02  0.51100000000E-03 0.  1.
         11   -1    0    0    0    0 -0.00000000000E+00 -0.00000000000E+00 -0.45593999997E+02  0.45594000000E+02  0.51100000000E-03 0. -1.
    9900012    2    1    2    0    0 -0.47900947182E+01 -0.97290175123E+01 -0.15266995186E+02  0.72461549958E+02  0.69999973509E+02 0.  0.
        -12    1    1    2    0    0  0.47900947182E+01  0.97290175123E+01  0.15266995186E+02  0.18726450042E+02  0.00000000000E+00 0.  1.
         11    1    3    3    0    0 -0.15727869061E+02  0.78571368261E+01 -0.56743943382E+01  0.18474285254E+02  0.51100000000E-03 0. -1.
        -11    1    3    3    0    0 -0.84101187856E+01 -0.16572647064E+01  0.16010063700E+02  0.18160362447E+02  0.51100000000E-03 0.  1.
         12    1    3    3    0    0  0.19347893128E+02 -0.15928889632E+02 -0.25602664547E+02  0.35826902257E+02  0.00000000000E+00 0. -1.
</event>
<event>
 7    1  0.1788006E-013  0.7246158E+02  0.7816164E-02  0.1226708E+00
        -11   -1    0    0    0    0  0.00000000000E+00  0.00000000000E+00  0.45593999997E+02  0.45594000000E+02  0.51100000000E-03 0. -1.
         11   -1    0    0    0    0 -0.00000000000E+00 -0.00000000000E+00 -0.45593999997E+02  0.45594000000E+02  0.51100000000E-03 0.  1.
    9900012    2    1    2    0    0 -0.41346585941E+01  0.12972688191E+02  0.12856630689E+02  0.72461575000E+02  0.70000006130E+02 0.  0.
        -12    1    1    2    0    0  0.41346585941E+01 -0.12972688191E+02 -0.12856630689E+02  0.18726425000E+02  0.00000000000E+00 0.  1.
         11    1    3    3    0    0 -0.11426503079E+02  0.18745890498E+02  0.34655293880E+02  0.41023929326E+02  0.51100000000E-03 0. -1.
        -11    1    3    3    0    0 -0.14143320136E+01  0.40708773897E+01 -0.16854435315E+02  0.17396676919E+02  0.51100000000E-03 0.  1.
        -12    1    3    3    0    0  0.87061764982E+01 -0.98440796967E+01 -0.49442278768E+01  0.14040968755E+02  0.00000000000E+00 0.  1.
</event>
<event>
 7    1  0.1788006E-013  0.7246154E+02  0.7816164E-02  0.1226708E+00
        -11   -1    0    0    0    0  0.00000000000E+00  0.00000000000E+00  0.45593999997E+02  0.45594000000E+02  0.51100000000E-03 0.  1.
         11   -1    0    0    0    0 -0.00000000000E+00 -0.00000000000E+00 -0.45593999997E+02  0.45594000000E+02  0.51100000000E-03 0. -1.
    9900012    2    1    2    0    0 -0.33169861287E+01 -0.84093624146E+01 -0.16400018134E+02  0.72461538295E+02  0.69999958315E+02 0.  0.
        -12    1    1    2    0    0  0.33169861287E+01  0.84093624146E+01  0.16400018134E+02  0.18726461705E+02  0.00000000000E+00 0.  1.
         11    1    3    3    0    0  0.10491026765E+02 -0.74051862887E+01 -0.15669996599E+02  0.20259497038E+02  0.51100000000E-03 0. -1.
        -11    1    3    3    0    0  0.93853294283E+01  0.18867198321E+02  0.35244274279E+01  0.21365326347E+02  0.51100000000E-03 0.  1.
         12    1    3    3    0    0 -0.23193342322E+02 -0.19871374447E+02 -0.42544489627E+01  0.30836714910E+02  0.00000000000E+00 0. -1.
</event>
<event>
 7    1  0.1788006E-013  0.7246157E+02  0.7816164E-02  0.1226708E+00
        -11   -1    0    0    0    0  0.00000000000E+00  0.00000000000E+00  0.45593999997E+02  0.45594000000E+02  0.51100000000E-03 0. -1.
         11   -1    0    0    0    0 -0.00000000000E+00 -0.00000000000E+00 -0.45593999997E+02  0.45594000000E+02  0.51100000000E-03 0.  1.
    9900012    2    1    2    0    0  0.45138853262E+01  0.16754535642E+02  0.70419806071E+01  0.72461571718E+02  0.70000001855E+02 0.  0.
        -12    1    1    2    0    0 -0.45138853262E+01 -0.16754535642E+02 -0.70419806071E+01  0.18726428282E+02  0.00000000000E+00 0.  1.
         11    1    3    3    0    0  0.94141551066E+01 -0.20370738164E+02  0.11500179382E+02  0.25216015066E+02  0.51100000000E-03 0. -1.
        -11    1    3    3    0    0  0.53739809967E+01  0.18282424141E+01  0.67437556421E+01  0.88147820449E+01  0.51100000000E-03 0.  1.
        -12    1    3    3    0    0 -0.10274250777E+02  0.35297031392E+02 -0.11201954417E+02  0.38430774607E+02  0.00000000000E+00 0.  1.
</event>
<event>
 7    1  0.1788006E-013  0.7246155E+02  0.7816164E-02  0.1226708E+00
        -11   -1    0    0    0    0  0.00000000000E+00  0.00000000000E+00  0.45593999997E+02  0.45594000000E+02  0.51100000000E-03 0.  1.
         11   -1    0    0    0    0 -0.00000000000E+00 -0.00000000000E+00 -0.45593999997E+02  0.45594000000E+02  0.51100000000E-03 0. -1.
    9900012    2    1    2    0    0  0.17934641895E+02 -0.27568198031E+01  0.46290960893E+01  0.72461549030E+02  0.69999972299E+02 0.  0.
        -12    1    1    2    0    0 -0.17934641895E+02  0.27568198031E+01 -0.46290960893E+01  0.18726450970E+02  0.00000000000E+00 0.  1.
         11    1    3    3    0    0  0.45329959455E+01 -0.86518642859E+01 -0.12887108766E+01  0.98520852538E+01  0.51100000000E-03 0. -1.
        -11    1    3    3    0    0 -0.66289962911E+01 -0.23981943266E+02 -0.42229089919E+01  0.25237078976E+02  0.51100000000E-03 0.  1.
         12    1    3    3    0    0  0.20030642241E+02  0.29876987748E+02  0.10140715958E+02  0.37372384800E+02  0.00000000000E+00 0. -1.
</event>
<event>
 7    1  0.1788006E-013  0.7246157E+02  0.7816164E-02  0.1226708E+00
        -11   -1    0    0    0    0  0.00000000000E+00  0.00000000000E+00  0.45593999997E+02  0.45594000000E+02  0.51100000000E-03 0.  1.
         11   -1    0    0    0    0 -0.00000000000E+00 -0.00000000000E+00 -0.45593999997E+02  0.45594000000E+02  0.51100000000E-03 0. -1.
    9900012    2    1    2    0    0  0.37776300257E+01 -0.10636777424E+02 -0.14942139869E+02  0.72461573046E+02  0.70000003585E+02 0.  0.
        -12    1    1    2    0    0 -0.37776300257E+01  0.10636777424E+02  0.14942139869E+02  0.18726426954E+02  0.00000000000E+00 0.  1.
         11    1    3    3    0    0  0.98851775411E+01 -0.26221451160E+02 -0.17324651268E+02  0.32945785433E+02  0.51100000000E-03 0. -1.
        -11    1    3    3    0    0  0.14461105968E+02  0.38118252153E+01  0.47673423317E+01  0.15696533071E+02  0.51100000000E-03 0.  1.
         12    1    3    3    0    0 -0.20568653483E+02  0.11772848520E+02 -0.23848309330E+01  0.23819254543E+02  0.00000000000E+00 0. -1.
</event>
<event>
 7    1  0.1788006E-013  0.7246157E+02  0.7816164E-02  0.1226708E+00
        -11   -1    0    0    0    0  0.00000000000E+00  0.00000000000E+00  0.45593999997E+02  0.45594000000E+02  0.51100000000E-03 0.  1.
         11   -1    0    0    0    0 -0.00000000000E+00 -0.00000000000E+00 -0.45593999997E+02  0.45594000000E+02  0.51100000000E-03 0. -1.
    9900012    2    1    2    0    0  0.50676632309E+01 -0.16460219516E+02  0.73525018690E+01  0.72461566253E+02  0.69999994735E+02 0.  0.
        -12    1    1    2    0    0 -0.50676632309E+01  0.16460219516E+02 -0.73525018690E+01  0.18726433747E+02  0.00000000000E+00 0.  1.
         11    1    3    3    0    0  0.13319592084E+01  0.44975113386E+01 -0.39673189024E+01  0.61433983354E+01  0.51100000000E-03 0. -1.
        -11    1    3    3    0    0  0.30152970699E+02 -0.28406392548E+00 -0.20110389933E+01  0.30221294022E+02  0.51100000000E-03 0.  1.
        -12    1    3    3    0    0 -0.26417266676E+02 -0.20673666929E+02  0.13330859765E+02  0.36096873895E+02  0.00000000000E+00 0.  1.
</event>
<event>
 7    1  0.1788006E-013  0.7246160E+02  0.7816164E-02  0.1226708E+00
        -11   -1    0    0    0    0  0.00000000000E+00  0.00000000000E+00  0.45593999997E+02  0.45594000000E+02  0.51100000000E-03 0. -1.
         11   -1    0    0    0    0 -0.00000000000E+00 -0.00000000000E+00 -0.45593999997E+02  0.45594000000E+02  0.51100000000E-03 0.  1.
    9900012    2    1    2    0    0  0.35259725685E+01  0.11191569967E+01  0.18357371908E+02  0.72461598896E+02  0.70000037260E+02 0.  0.
        -12    1    1    2    0    0 -0.35259725685E+01 -0.11191569967E+01 -0.18357371908E+02  0.18726401104E+02  0.00000000000E+00 0.  1.
         11    1    3    3    0    0 -0.95093775310E+00 -0.42722849141E+01  0.12954096359E+01  0.45645139263E+01  0.51100000000E-03 0. -1.
        -11    1    3    3    0    0  0.11595807826E+02 -0.19619462623E+02 -0.14492775469E+02  0.27007899100E+02  0.51100000000E-03 0.  1.
         12    1    3    3    0    0 -0.71188975045E+01  0.25010904534E+02  0.31554737740E+02  0.40889185870E+02  0.00000000000E+00 0. -1.
</event>
<event>
 7    1  0.1788006E-013  0.7246159E+02  0.7816164E-02  0.1226708E+00
        -11   -1    0    0    0    0  0.00000000000E+00  0.00000000000E+00  0.45593999997E+02  0.45594000000E+02  0.51100000000E-03 0. -1.
         11   -1    0    0    0    0 -0.00000000000E+00 -0.00000000000E+00 -0.45593999997E+02  0.45594000000E+02  0.51100000000E-03 0.  1.
    9900012    2    1    2    0    0  0.52789711599E+01  0.13698356250E+02  0.11626083972E+02  0.72461592737E+02  0.70000029236E+02 0.  0.
        -12    1    1    2    0    0 -0.52789711599E+01 -0.13698356250E+02 -0.11626083972E+02  0.18726407263E+02  0.00000000000E+00 0.  1.
         11    1    3    3    0    0 -0.34417912665E+00  0.20392258799E+02  0.19250906620E+02  0.28045678529E+02  0.51100000000E-03 0. -1.
        -11    1    3    3    0    0 -0.87603564620E+01  0.84604061461E+00  0.14505190375E+02  0.16966442707E+02  0.51100000000E-03 0.  1.
        -12    1    3    3    0    0  0.14383506749E+02 -0.75399431641E+01 -0.22130013023E+02  0.27449471501E+02  0.00000000000E+00 0.  1.
</event>
<event>
 7    1  0.1788006E-013  0.7246153E+02  0.7816164E-02  0.1226708E+00
        -11   -1    0    0    0    0  0.00000000000E+00  0.00000000000E+00  0.45593999997E+02  0.45594000000E+02  0.51100000000E-03 0.  1.
         11   -1    0    0    0    0 -0.00000000000E+00 -0.00000000000E+00 -0.45593999997E+02  0.45594000000E+02  0.51100000000E-03 0. -1.
    9900012    2    1    2    0    0  0.13926893816E+02 -0.48868979071E+01  0.11525649044E+02  0.72461528672E+02  0.69999945779E+02 0.  0.
        -12    1    1    2    0    0 -0.13926893816E+02  0.48868979071E+01 -0.11525649044E+02  0.18726471328E+02  0.00000000000E+00 0.  1.
         11    1    3    3    0    0  0.13641214622E+02 -0.27011368870E+02  0.45910087838E+01  0.30606766352E+02  0.51100000000E-03 0. -1.
        -11    1    3    3    0    0 -0.11162356646E+02 -0.23338795082E+00 -0.69530533436E+01  0.13152856226E+02  0.51100000000E-03 0.  1.
        -12    1    3    3    0    0  0.11448035840E+02  0.22357858914E+02  0.13887693604E+02  0.28701906094E+02  0.00000000000E+00 0.  1.
</event>
<event>
 7    1  0.1788006E-013  0.7246153E+02  0.7816164E-02  0.1226708E+00
        -11   -1    0    0    0    0  0.00000000000E+00  0.00000000000E+00  0.45593999997E+02  0.45594000000E+02  0.51100000000E-03 0.  1.
         11   -1    0    0    0    0 -0.00000000000E+00 -0.00000000000E+00 -0.45593999997E+02  0.45594000000E+02  0.51100000000E-03 0. -1.
    9900012    2    1    2    0    0 -0.15301457372E+02  0.45049492090E+01  0.98107892558E+01  0.72461528071E+02  0.69999944996E+02 0.  0.
        -12    1    1    2    0    0  0.15301457372E+02 -0.45049492090E+01 -0.98107892558E+01  0.18726471929E+02  0.00000000000E+00 0.  1.
         11    1    3    3    0    0  0.61391118362E+01 -0.14694437846E+02 -0.13149428661E+02  0.20652425332E+02  0.51100000000E-03 0.  1.
        -11    1    3    3    0    0 -0.24024013992E+02 -0.16692327353E-01  0.33926583464E+01  0.24262391841E+02  0.51100000000E-03 0. -1.
        -12    1    3    3    0    0  0.25834447842E+01  0.19216079382E+02  0.19567559570E+02  0.27546710898E+02  0.00000000000E+00 0.  1.
</event>
<event>
 7    1  0.1788006E-013  0.7246200E+02  0.7816164E-02  0.1226707E+00
        -11   -1    0    0    0    0  0.00000000000E+00  0.00000000000E+00  0.45593999997E+02  0.45594000000E+02  0.51100000000E-03 0. -1.
         11   -1    0    0    0    0 -0.00000000000E+00 -0.00000000000E+00 -0.45593999997E+02  0.45594000000E+02  0.51100000000E-03 0.  1.
    9900012    2    1    2    0    0 -0.11290853238E+02 -0.14838018397E+02 -0.17357476095E+01  0.72462002655E+02  0.70000563228E+02 0.  0.
        -12    1    1    2    0    0  0.11290853238E+02  0.14838018397E+02  0.17357476095E+01  0.18725997345E+02  0.00000000000E+00 0.  1.
         11    1    3    3    0    0 -0.14519710296E+02 -0.25415744241E+02 -0.15421070892E+01  0.29311433553E+02  0.51100000000E-03 0. -1.
        -11    1    3    3    0    0 -0.23888569124E+01 -0.11048728458E+02  0.12979840014E+02  0.17212126101E+02  0.51100000000E-03 0.  1.
        -12    1    3    3    0    0  0.56177139701E+01  0.21626454302E+02 -0.13173480534E+02  0.25938443001E+02  0.00000000000E+00 0.  1.
</event>
<event>
 7    1  0.1788006E-013  0.7246156E+02  0.7816164E-02  0.1226708E+00
        -11   -1    0    0    0    0  0.00000000000E+00  0.00000000000E+00  0.45593999997E+02  0.45594000000E+02  0.51100000000E-03 0.  1.
         11   -1    0    0    0    0 -0.00000000000E+00 -0.00000000000E+00 -0.45593999997E+02  0.45594000000E+02  0.51100000000E-03 0. -1.
    9900012    2    1    2    0    0 -0.95052759428E+01  0.45819837313E+01 -0.15470445729E+02  0.72461560490E+02  0.69999987228E+02 0.  0.
        -12    1    1    2    0    0  0.95052759428E+01 -0.45819837313E+01  0.15470445729E+02  0.18726439510E+02  0.00000000000E+00 0.  1.
         11    1    3    3    0    0  0.29603524062E+01 -0.55142532964E+01 -0.30785137379E+02  0.31414890729E+02  0.51100000000E-03 0. -1.
        -11    1    3    3    0    0 -0.91614612445E+01 -0.27395088754E+01 -0.91420499443E+01  0.13229299243E+02  0.51100000000E-03 0.  1.
        -12    1    3    3    0    0 -0.33041671045E+01  0.12835745903E+02  0.24456741594E+02  0.27817370518E+02  0.00000000000E+00 0.  1.
</event>
<event>
 7    1  0.1788006E-013  0.7246204E+02  0.7816164E-02  0.1226707E+00
        -11   -1    0    0    0    0  0.00000000000E+00  0.00000000000E+00  0.45593999997E+02  0.45594000000E+02  0.51100000000E-03 0. -1.
         11   -1    0    0    0    0 -0.00000000000E+00 -0.00000000000E+00 -0.45593999997E+02  0.45594000000E+02  0.51100000000E-03 0.  1.
    9900012    2    1    2    0    0 -0.16955286507E+02 -0.65798942824E+01 -0.44592447132E+01  0.72462039071E+02  0.70000610666E+02 0.  0.
        -12    1    1    2    0    0  0.16955286507E+02  0.65798942824E+01  0.44592447132E+01  0.18725960929E+02  0.00000000000E+00 0.  1.
         11    1    3    3    0    0 -0.20746335761E+02 -0.24787512501E+02  0.18638207835E+02  0.37312384205E+02  0.51100000000E-03 0. -1.
        -11    1    3    3    0    0 -0.31342242635E+01  0.88585456264E+01 -0.12332436350E+00  0.93974678243E+01  0.51100000000E-03 0.  1.
        -12    1    3    3    0    0  0.69252735176E+01  0.93490725919E+01 -0.22974128184E+02  0.25752187042E+02  0.00000000000E+00 0.  1.
</event>
<event>
 7    1  0.1788006E-013  0.7246157E+02  0.7816164E-02  0.1226708E+00
        -11   -1    0    0    0    0  0.00000000000E+00  0.00000000000E+00  0.45593999997E+02  0.45594000000E+02  0.51100000000E-03 0.  1.
         11   -1    0    0    0    0 -0.00000000000E+00 -0.00000000000E+00 -0.45593999997E+02  0.45594000000E+02  0.51100000000E-03 0. -1.
    9900012    2    1    2    0    0 -0.73561090598E+01 -0.15091279340E+02 -0.82957844491E+01  0.72461572358E+02  0.70000002688E+02 0.  0.
        -12    1    1    2    0    0  0.73561090598E+01  0.15091279340E+02  0.82957844491E+01  0.18726427642E+02  0.00000000000E+00 0.  1.
         11    1    3    3    0    0  0.27512475815E+02  0.22939914947E+01 -0.19771147298E+01  0.27678650714E+02  0.51100000000E-03 0. -1.
        -11    1    3    3    0    0 -0.10060678955E+02 -0.10754867413E+01  0.69383761504E+01  0.12268455348E+02  0.51100000000E-03 0.  1.
        -12    1    3    3    0    0 -0.24807905920E+02 -0.16309784093E+02 -0.13257045870E+02  0.32514466296E+02  0.00000000000E+00 0.  1.
</event>
<event>
 7    1  0.1788006E-013  0.7246157E+02  0.7816164E-02  0.1226708E+00
        -11   -1    0    0    0    0  0.00000000000E+00  0.00000000000E+00  0.45593999997E+02  0.45594000000E+02  0.51100000000E-03 0.  1.
         11   -1    0    0    0    0 -0.00000000000E+00 -0.00000000000E+00 -0.45593999997E+02  0.45594000000E+02  0.51100000000E-03 0. -1.
    9900012    2    1    2    0    0 -0.18034417565E+02 -0.13944899987E+01 -0.48470892921E+01  0.72461572314E+02  0.70000002631E+02 0.  0.
        -12    1    1    2    0    0  0.18034417565E+02  0.13944899987E+01  0.48470892921E+01  0.18726427686E+02  0.00000000000E+00 0.  1.
         11    1    3    3    0    0  0.11482941031E+02  0.22854094117E+02 -0.80350208931E+01  0.26809123701E+02  0.51100000000E-03 0. -1.
        -11    1    3    3    0    0  0.32141625584E+01 -0.12099506799E+01 -0.36880714565E+01  0.50395131639E+01  0.51100000000E-03 0.  1.
        -12    1    3    3    0    0 -0.32731521155E+02 -0.23038633436E+02  0.68760030575E+01  0.40612935449E+02  0.00000000000E+00 0.  1.
</event>
<event>
 7    1  0.1788006E-013  0.7246158E+02  0.7816164E-02  0.1226708E+00
        -11   -1    0    0    0    0  0.00000000000E+00  0.00000000000E+00  0.45593999997E+02  0.45594000000E+02  0.51100000000E-03 0. -1.
         11   -1    0    0    0    0 -0.00000000000E+00 -0.00000000000E+00 -0.45593999997E+02  0.45594000000E+02  0.51100000000E-03 0.  1.
    9900012    2    1    2    0    0 -0.30966696457E+01  0.16902018372E+02  0.74438653668E+01  0.72461582309E+02  0.70000015652E+02 0.  0.
        -12    1    1    2    0    0  0.30966696457E+01 -0.16902018372E+02 -0.74438653668E+01  0.18726417691E+02  0.00000000000E+00 0.  1.
         11    1    3    3    0    0 -0.62981415475E+01 -0.44507618952E+01  0.26696694443E+02  0.27788295429E+02  0.51100000000E-03 0. -1.
        -11    1    3    3    0    0  0.16047526593E+01  0.24814220302E+02  0.18343849383E+00  0.24866733003E+02  0.51100000000E-03 0.  1.
        -12    1    3    3    0    0  0.15967192424E+01 -0.34614400354E+01 -0.19436267570E+02  0.19806553877E+02  0.00000000000E+00 0.  1.
</event>
<event>
 7    1  0.1788006E-013  0.7246181E+02  0.7816164E-02  0.1226707E+00
        -11   -1    0    0    0    0  0.00000000000E+00  0.00000000000E+00  0.45593999997E+02  0.45594000000E+02  0.51100000000E-03 0.  1.
         11   -1    0    0    0    0 -0.00000000000E+00 -0.00000000000E+00 -0.45593999997E+02  0.45594000000E+02  0.51100000000E-03 0. -1.
    9900012    2    1    2    0    0  0.83259563883E+01 -0.12113841630E+02 -0.11601874120E+02  0.72461810000E+02  0.70000312261E+02 0.  0.
        -12    1    1    2    0    0 -0.83259563883E+01  0.12113841630E+02  0.11601874120E+02  0.18726190000E+02  0.00000000000E+00 0.  1.
         11    1    3    3    0    0 -0.12456506295E+02 -0.61464738898E+00 -0.26807955448E+02  0.29567022442E+02  0.51100000000E-03 0. -1.
        -11    1    3    3    0    0  0.89328478630E+01 -0.20408906686E+02  0.90618273296E+00  0.22296645723E+02  0.51100000000E-03 0.  1.
        -12    1    3    3    0    0  0.11849614820E+02  0.89097124454E+01  0.14299898596E+02  0.20598141836E+02  0.00000000000E+00 0.  1.
</event>
<event>
 7    1  0.1788006E-013  0.7246160E+02  0.7816164E-02  0.1226708E+00
        -11   -1    0    0    0    0  0.00000000000E+00  0.00000000000E+00  0.45593999997E+02  0.45594000000E+02  0.51100000000E-03 0. -1.
         11   -1    0    0    0    0 -0.00000000000E+00 -0.00000000000E+00 -0.45593999997E+02  0.45594000000E+02  0.51100000000E-03 0.  1.
    9900012    2    1    2    0    0  0.17597209818E+02 -0.25699406930E+01 -0.58661575009E+01  0.72461596385E+02  0.70000033988E+02 0.  0.
        -12    1    1    2    0    0 -0.17597209818E+02  0.25699406930E+01  0.58661575009E+01  0.18726403615E+02  0.00000000000E+00 0.  1.
         11    1    3    3    0    0 -0.12110572560E+02 -0.27438951701E+01 -0.58236547852E+01  0.13715315664E+02  0.51100000000E-03 0. -1.
        -11    1    3    3    0    0  0.21886992019E+01 -0.47305758529E+01  0.22337884621E+02  0.22937956354E+02  0.51100000000E-03 0.  1.
         12    1    3    3    0    0  0.27519083176E+02  0.49045303300E+01 -0.22380387337E+02  0.35808324367E+02  0.00000000000E+00 0. -1.
</event>
<event>
 7    1  0.1788006E-013  0.7246162E+02  0.7816164E-02  0.1226708E+00
        -11   -1    0    0    0    0  0.00000000000E+00  0.00000000000E+00  0.45593999997E+02  0.45594000000E+02  0.51100000000E-03 0.  1.
         11   -1    0    0    0    0 -0.00000000000E+00 -0.00000000000E+00 -0.45593999997E+02  0.45594000000E+02  0.51100000000E-03 0. -1.
    9900012    2    1    2    0    0 -0.95715641176E+01  0.12780246562E+02  0.97840550521E+01  0.72461620876E+02  0.70000065891E+02 0.  0.
        -12    1    1    2    0    0  0.95715641176E+01 -0.12780246562E+02 -0.97840550521E+01  0.18726379124E+02  0.00000000000E+00 0.  1.
         11    1    3    3    0    0  0.52181887699E+01  0.79127519378E+00  0.20874804849E+02  0.21531676392E+02  0.51100000000E-03 0. -1.
        -11    1    3    3    0    0  0.19490359263E+01 -0.11289799341E+02  0.10103046108E+02  0.15275138334E+02  0.51100000000E-03 0.  1.
         12    1    3    3    0    0 -0.16738788814E+02  0.23278770709E+02 -0.21193795905E+02  0.35654806150E+02  0.00000000000E+00 0. -1.
</event>
<event>
 7    1  0.1788006E-013  0.7246157E+02  0.7816164E-02  0.1226708E+00
        -11   -1    0    0    0    0  0.00000000000E+00  0.00000000000E+00  0.45593999997E+02  0.45594000000E+02  0.51100000000E-03 0. -1.
         11   -1    0    0    0    0 -0.00000000000E+00 -0.00000000000E+00 -0.45593999997E+02  0.45594000000E+02  0.51100000000E-03 0.  1.
    9900012    2    1    2    0    0 -0.25557811388E+01 -0.11411959742E+02  0.14625815911E+02  0.72461565918E+02  0.69999994299E+02 0.  0.
        -12    1    1    2    0    0  0.25557811388E+01  0.11411959742E+02 -0.14625815911E+02  0.18726434082E+02  0.00000000000E+00 0.  1.
         11    1    3    3    0    0 -0.73202155816E+01  0.28201310077E+01 -0.12217625716E+02  0.14519265596E+02  0.51100000000E-03 0.  1.
        -11    1    3    3    0    0 -0.20538783230E+02  0.12608645345E+01  0.52202966843E+01  0.21229293292E+02  0.51100000000E-03 0. -1.
         12    1    3    3    0    0  0.25303217672E+02 -0.15492955284E+02  0.21623144942E+02  0.36713007030E+02  0.00000000000E+00 0. -1.
</event>
<event>
 7    1  0.1788006E-013  0.7246159E+02  0.7816164E-02  0.1226708E+00
        -11   -1    0    0    0    0  0.00000000000E+00  0.00000000000E+00  0.45593999997E+02  0.45594000000E+02  0.51100000000E-03 0.  1.
         11   -1    0    0    0    0 -0.00000000000E+00 -0.00000000000E+00 -0.45593999997E+02  0.45594000000E+02  0.51100000000E-03 0. -1.
    9900012    2    1    2    0    0 -0.56011756904E+01 -0.18983060325E+01 -0.17767992080E+02  0.72461594113E+02  0.70000031028E+02 0.  0.
        -12    1    1    2    0    0  0.56011756904E+01  0.18983060325E+01  0.17767992080E+02  0.18726405887E+02  0.00000000000E+00 0.  1.
         11    1    3    3    0    0  0.37096048093E+01  0.20946170802E+02  0.11300585676E+01  0.21302118949E+02  0.51100000000E-03 0. -1.
        -11    1    3    3    0    0 -0.32672994425E-01  0.69968819199E+01  0.74960919383E+01  0.10254209805E+02  0.51100000000E-03 0.  1.
        -12    1    3    3    0    0 -0.92781075053E+01 -0.29841358754E+02 -0.26394142586E+02  0.40905265358E+02  0.00000000000E+00 0.  1.
</event>
<event>
 7    1  0.1788006E-013  0.7246160E+02  0.7816164E-02  0.1226708E+00
        -11   -1    0    0    0    0  0.00000000000E+00  0.00000000000E+00  0.45593999997E+02  0.45594000000E+02  0.51100000000E-03 0.  1.
         11   -1    0    0    0    0 -0.00000000000E+00 -0.00000000000E+00 -0.45593999997E+02  0.45594000000E+02  0.51100000000E-03 0. -1.
    9900012    2    1    2    0    0  0.56263835116E+01 -0.13090179046E+02 -0.12151922833E+02  0.72461595983E+02  0.70000033464E+02 0.  0.
        -12    1    1    2    0    0 -0.56263835116E+01  0.13090179046E+02  0.12151922833E+02  0.18726404017E+02  0.00000000000E+00 0.  1.
         11    1    3    3    0    0 -0.11635428420E+02  0.41249346597E+01  0.31061451221E+01  0.12729745412E+02  0.51100000000E-03 0. -1.
        -11    1    3    3    0    0 -0.36625272603E+01  0.14299965543E+02  0.64585377088E+01  0.16112598489E+02  0.51100000000E-03 0.  1.
         12    1    3    3    0    0  0.20924339192E+02 -0.31515079248E+02 -0.21716605664E+02  0.43619252082E+02  0.00000000000E+00 0. -1.
</event>
<event>
 7    1  0.1788006E-013  0.7246161E+02  0.7816164E-02  0.1226708E+00
        -11   -1    0    0    0    0  0.00000000000E+00  0.00000000000E+00  0.45593999997E+02  0.45594000000E+02  0.51100000000E-03 0.  1.
         11   -1    0    0    0    0 -0.00000000000E+00 -0.00000000000E+00 -0.45593999997E+02  0.45594000000E+02  0.51100000000E-03 0. -1.
    9900012    2    1    2    0    0 -0.71561108472E+01  0.15119445093E+02 -0.84184436144E+01  0.72461608589E+02  0.70000049886E+02 0.  0.
        -12    1    1    2    0    0  0.71561108472E+01 -0.15119445093E+02  0.84184436144E+01  0.18726391411E+02  0.00000000000E+00 0.  1.
         11    1    3    3    0    0  0.69478429803E+01 -0.33362264428E+01 -0.82687759912E+01  0.11303786340E+02  0.51100000000E-03 0. -1.
        -11    1    3    3    0    0  0.13058487010E+02  0.13832832829E+02  0.19556999978E+02  0.27282734384E+02  0.51100000000E-03 0.  1.
         12    1    3    3    0    0 -0.27162440838E+02  0.46228387076E+01 -0.19706667601E+02  0.33875087866E+02  0.00000000000E+00 0. -1.
</event>
<event>
 7    1  0.1788006E-013  0.7246161E+02  0.7816164E-02  0.1226708E+00
        -11   -1    0    0    0    0  0.00000000000E+00  0.00000000000E+00  0.45593999997E+02  0.45594000000E+02  0.51100000000E-03 0. -1.
         11   -1    0    0    0    0 -0.00000000000E+00 -0.00000000000E+00 -0.45593999997E+02  0.45594000000E+02  0.51100000000E-03 0.  1.
    9900012    2    1    2    0    0 -0.15422747180E+02 -0.10575405426E+02 -0.98856710950E+00  0.72461612322E+02  0.70000054749E+02 0.  0.
        -12    1    1    2    0    0  0.15422747180E+02  0.10575405426E+02  0.98856710950E+00  0.18726387678E+02  0.00000000000E+00 0.  1.
         11    1    3    3    0    0 -0.69677099774E+01  0.41598565603E+01  0.22731706850E+02  0.24136774546E+02  0.51100000000E-03 0. -1.
        -11    1    3    3    0    0 -0.72887001619E+01 -0.21256958195E+02  0.12343721950E+01  0.22505712536E+02  0.51100000000E-03 0.  1.
         12    1    3    3    0    0 -0.11663370412E+01  0.65216962086E+01 -0.24954646154E+02  0.25819125241E+02  0.00000000000E+00 0. -1.
</event>
<event>
 7    1  0.1788006E-013  0.7246159E+02  0.7816164E-02  0.1226708E+00
        -11   -1    0    0    0    0  0.00000000000E+00  0.00000000000E+00  0.45593999997E+02  0.45594000000E+02  0.51100000000E-03 0. -1.
         11   -1    0    0    0    0 -0.00000000000E+00 -0.00000000000E+00 -0.45593999997E+02  0.45594000000E+02  0.51100000000E-03 0.  1.
    9900012    2    1    2    0    0  0.46104373753E+01 -0.17975917860E+02 -0.25076954226E+01  0.72461593724E+02  0.70000030521E+02 0.  0.
        -12    1    1    2    0    0 -0.46104373753E+01  0.17975917860E+02  0.25076954226E+01  0.18726406276E+02  0.00000000000E+00 0.  1.
         11    1    3    3    0    0  0.10086964305E+02 -0.34522023155E+02  0.18224649578E+02  0.40319409521E+02  0.51100000000E-03 0. -1.
        -11    1    3    3    0    0 -0.14016465004E+01  0.88787224287E+01  0.70186227616E+00  0.90160376992E+01  0.51100000000E-03 0.  1.
        -12    1    3    3    0    0 -0.40748804295E+01  0.76673828665E+01 -0.21434207277E+02  0.23126146504E+02  0.00000000000E+00 0.  1.
</event>
<event>
 7    1  0.1788006E-013  0.7246144E+02  0.7816164E-02  0.1226708E+00
        -11   -1    0    0    0    0  0.00000000000E+00  0.00000000000E+00  0.45593999997E+02  0.45594000000E+02  0.51100000000E-03 0. -1.
         11   -1    0    0    0    0 -0.00000000000E+00 -0.00000000000E+00 -0.45593999997E+02  0.45594000000E+02  0.51100000000E-03 0.  1.
    9900012    2    1    2    0    0  0.59590391802E+01 -0.11701248586E+02  0.13351199040E+02  0.72461444464E+02  0.69999836083E+02 0.  0.
        -12    1    1    2    0    0 -0.59590391802E+01  0.11701248586E+02 -0.13351199040E+02  0.18726555536E+02  0.00000000000E+00 0.  1.
         11    1    3    3    0    0  0.20302387933E+02  0.22700941879E+02  0.66859233529E+01  0.31180463263E+02  0.51100000000E-03 0. -1.
        -11    1    3    3    0    0  0.80452682344E+00 -0.46242945225E+00  0.39029466494E+01  0.40117449092E+01  0.51100000000E-03 0.  1.
        -12    1    3    3    0    0 -0.15147875576E+02 -0.33939761013E+02  0.27623290377E+01  0.37269236292E+02  0.00000000000E+00 0.  1.
</event>
<event>
 7    1  0.1788006E-013  0.7246155E+02  0.7816164E-02  0.1226708E+00
        -11   -1    0    0    0    0  0.00000000000E+00  0.00000000000E+00  0.45593999997E+02  0.45594000000E+02  0.51100000000E-03 0.  1.
         11   -1    0    0    0    0 -0.00000000000E+00 -0.00000000000E+00 -0.45593999997E+02  0.45594000000E+02  0.51100000000E-03 0. -1.
    9900012    2    1    2    0    0 -0.15570042698E+02 -0.60069518459E+01  0.84953019621E+01  0.72461551978E+02  0.69999976140E+02 0.  0.
        -12    1    1    2    0    0  0.15570042698E+02  0.60069518459E+01 -0.84953019621E+01  0.18726448022E+02  0.00000000000E+00 0.  1.
         11    1    3    3    0    0  0.41005521160E+01 -0.11672559669E+02  0.56367430315E+01  0.13595442219E+02  0.51100000000E-03 0. -1.
        -11    1    3    3    0    0  0.91342810410E+01 -0.18097850467E+02  0.66426700154E+01  0.21332893542E+02  0.51100000000E-03 0.  1.
        -12    1    3    3    0    0 -0.28804875855E+02  0.23763458290E+02 -0.37841110848E+01  0.37533216217E+02  0.00000000000E+00 0.  1.
</event>
<event>
 7    1  0.1788006E-013  0.7246157E+02  0.7816164E-02  0.1226708E+00
        -11   -1    0    0    0    0  0.00000000000E+00  0.00000000000E+00  0.45593999997E+02  0.45594000000E+02  0.51100000000E-03 0.  1.
         11   -1    0    0    0    0 -0.00000000000E+00 -0.00000000000E+00 -0.45593999997E+02  0.45594000000E+02  0.51100000000E-03 0. -1.
    9900012    2    1    2    0    0 -0.35936493924E+00 -0.13648368412E+01 -0.18673171106E+02  0.72461568361E+02  0.69999997482E+02 0.  0.
        -12    1    1    2    0    0  0.35936493924E+00  0.13648368412E+01  0.18673171106E+02  0.18726431639E+02  0.00000000000E+00 0.  1.
         11    1    3    3    0    0 -0.59294854402E+01 -0.25677527834E+01 -0.12110183019E+02  0.13726204317E+02  0.51100000000E-03 0. -1.
        -11    1    3    3    0    0 -0.17573489583E+02  0.16516655122E+02  0.10341576184E+02  0.26240724662E+02  0.51100000000E-03 0.  1.
         12    1    3    3    0    0  0.23143610084E+02 -0.15313739179E+02 -0.16904564271E+02  0.32494639382E+02  0.00000000000E+00 0. -1.
</event>
<event>
 7    1  0.1788006E-013  0.7246163E+02  0.7816164E-02  0.1226708E+00
        -11   -1    0    0    0    0  0.00000000000E+00  0.00000000000E+00  0.45593999997E+02  0.45594000000E+02  0.51100000000E-03 0.  1.
         11   -1    0    0    0    0 -0.00000000000E+00 -0.00000000000E+00 -0.45593999997E+02  0.45594000000E+02  0.51100000000E-03 0. -1.
    9900012    2    1    2    0    0 -0.51600692620E+01  0.73889161907E+01 -0.16415067468E+02  0.72461632566E+02  0.70000081121E+02 0.  0.
        -12    1    1    2    0    0  0.51600692620E+01 -0.73889161907E+01  0.16415067468E+02  0.18726367434E+02  0.00000000000E+00 0.  1.
         11    1    3    3    0    0 -0.43757354415E+01  0.17951424925E+02 -0.29249506331E+02  0.34596738840E+02  0.51100000000E-03 0. -1.
        -11    1    3    3    0    0 -0.52702990087E+01  0.11650220597E+02  0.64499688014E+01  0.14321514913E+02  0.51100000000E-03 0.  1.
        -12    1    3    3    0    0  0.44859651882E+01 -0.22212729331E+02  0.63844700607E+01  0.23543378814E+02  0.00000000000E+00 0.  1.
</event>
<event>
 7    1  0.1788006E-013  0.7246170E+02  0.7816164E-02  0.1226708E+00
        -11   -1    0    0    0    0  0.00000000000E+00  0.00000000000E+00  0.45593999997E+02  0.45594000000E+02  0.51100000000E-03 0.  1.
         11   -1    0    0    0    0 -0.00000000000E+00 -0.00000000000E+00 -0.45593999997E+02  0.45594000000E+02  0.51100000000E-03 0. -1.
    9900012    2    1    2    0    0 -0.18646797003E+02 -0.16341642179E-01 -0.17236165282E+01  0.72461704065E+02  0.70000174260E+02 0.  0.
        -12    1    1    2    0    0  0.18646797003E+02  0.16341642179E-01  0.17236165282E+01  0.18726295935E+02  0.00000000000E+00 0.  1.
         11    1    3    3    0    0 -0.10022904335E+02 -0.13408418988E+02  0.14311553508E+02  0.22024188410E+02  0.51100000000E-03 0. -1.
        -11    1    3    3    0    0 -0.37958249651E+01  0.78034960705E+01  0.15654432376E+02  0.17898717590E+02  0.51100000000E-03 0.  1.
         12    1    3    3    0    0 -0.48280677028E+01  0.55885812749E+01 -0.31689602412E+02  0.32538798064E+02  0.00000000000E+00 0. -1.
</event>
<event>
 7    1  0.1788006E-013  0.7246156E+02  0.7816164E-02  0.1226708E+00
        -11   -1    0    0    0    0  0.00000000000E+00  0.00000000000E+00  0.45593999997E+02  0.45594000000E+02  0.51100000000E-03 0. -1.
         11   -1    0    0    0    0 -0.00000000000E+00 -0.00000000000E+00 -0.45593999997E+02  0.45594000000E+02  0.51100000000E-03 0.  1.
    9900012    2    1    2    0    0  0.87531244489E+01 -0.98451253819E+01  0.13309235773E+02  0.72461563119E+02  0.69999990653E+02 0.  0.
        -12    1    1    2    0    0 -0.87531244489E+01  0.98451253819E+01 -0.13309235773E+02  0.18726436881E+02  0.00000000000E+00 0.  1.
         11    1    3    3    0    0  0.12941897517E+02 -0.69204827630E+01  0.80791021784E+01  0.16752841111E+02  0.51100000000E-03 0. -1.
        -11    1    3    3    0    0 -0.14148764304E+02 -0.25916265367E+02 -0.21021059182E+01  0.29601675483E+02  0.51100000000E-03 0.  1.
         12    1    3    3    0    0  0.99599912355E+01  0.22991622748E+02  0.73322395126E+01  0.26107046525E+02  0.00000000000E+00 0. -1.
</event>
<event>
 7    1  0.1788006E-013  0.7246160E+02  0.7816164E-02  0.1226708E+00
        -11   -1    0    0    0    0  0.00000000000E+00  0.00000000000E+00  0.45593999997E+02  0.45594000000E+02  0.51100000000E-03 0.  1.
         11   -1    0    0    0    0 -0.00000000000E+00 -0.00000000000E+00 -0.45593999997E+02  0.45594000000E+02  0.51100000000E-03 0. -1.
    9900012    2    1    2    0    0 -0.19514164605E+01  0.98875487661E+01 -0.15783109254E+02  0.72461596594E+02  0.70000034260E+02 0.  0.
        -12    1    1    2    0    0  0.19514164605E+01 -0.98875487661E+01  0.15783109254E+02  0.18726403406E+02  0.00000000000E+00 0.  1.
         11    1    3    3    0    0 -0.17980026511E+02  0.10974546685E+02  0.41306371784E+01  0.21465884376E+02  0.51100000000E-03 0. -1.
        -11    1    3    3    0    0 -0.76320906361E+01  0.66352861401E+00  0.10138198821E+02  0.12707169366E+02  0.51100000000E-03 0.  1.
         12    1    3    3    0    0  0.23660700687E+02 -0.17505265329E+01 -0.30051945254E+02  0.38288542851E+02  0.00000000000E+00 0. -1.
</event>
<event>
 7    1  0.1788006E-013  0.7246144E+02  0.7816164E-02  0.1226708E+00
        -11   -1    0    0    0    0  0.00000000000E+00  0.00000000000E+00  0.45593999997E+02  0.45594000000E+02  0.51100000000E-03 0.  1.
         11   -1    0    0    0    0 -0.00000000000E+00 -0.00000000000E+00 -0.45593999997E+02  0.45594000000E+02  0.51100000000E-03 0. -1.
    9900012    2    1    2    0    0  0.65254179187E+01  0.16108962585E+02 -0.69716800166E+01  0.72461439268E+02  0.69999829314E+02 0.  0.
        -12    1    1    2    0    0 -0.65254179187E+01 -0.16108962585E+02  0.69716800166E+01  0.18726560732E+02  0.00000000000E+00 0.  1.
         11    1    3    3    0    0 -0.18030096507E+02 -0.82916600540E+01 -0.12815583086E+02  0.23623614808E+02  0.51100000000E-03 0. -1.
        -11    1    3    3    0    0 -0.36303041354E+00 -0.41377406653E+01  0.98989987765E+01  0.10735123005E+02  0.51100000000E-03 0.  1.
        -12    1    3    3    0    0  0.24918544839E+02  0.28538363304E+02 -0.40550957071E+01  0.38102701455E+02  0.00000000000E+00 0.  1.
</event>
<event>
 7    1  0.1788006E-013  0.7246144E+02  0.7816164E-02  0.1226708E+00
        -11   -1    0    0    0    0  0.00000000000E+00  0.00000000000E+00  0.45593999997E+02  0.45594000000E+02  0.51100000000E-03 0.  1.
         11   -1    0    0    0    0 -0.00000000000E+00 -0.00000000000E+00 -0.45593999997E+02  0.45594000000E+02  0.51100000000E-03 0. -1.
    9900012    2    1    2    0    0 -0.13088779355E+02  0.50562584049E+01 -0.12401693535E+02  0.72461444081E+02  0.69999835583E+02 0.  0.
        -12    1    1    2    0    0  0.13088779355E+02 -0.50562584049E+01  0.12401693535E+02  0.18726555919E+02  0.00000000000E+00 0.  1.
         11    1    3    3    0    0  0.27095076219E+02 -0.76866024482E+00 -0.39195206027E+01  0.27387892141E+02  0.51100000000E-03 0. -1.
        -11    1    3    3    0    0 -0.65196324601E+01  0.75970404825E+01  0.98288522264E+00  0.10059159763E+02  0.51100000000E-03 0.  1.
        -12    1    3    3    0    0 -0.33664223114E+02 -0.17721218328E+01 -0.94650581547E+01  0.35014392177E+02  0.00000000000E+00 0.  1.
</event>
<event>
 7    1  0.1788006E-013  0.7246159E+02  0.7816164E-02  0.1226708E+00
        -11   -1    0    0    0    0  0.00000000000E+00  0.00000000000E+00  0.45593999997E+02  0.45594000000E+02  0.51100000000E-03 0. -1.
         11   -1    0    0    0    0 -0.00000000000E+00 -0.00000000000E+00 -0.45593999997E+02  0.45594000000E+02  0.51100000000E-03 0.  1.
    9900012    2    1    2    0    0 -0.58463913759E+01 -0.14676232062E+02  0.10055163162E+02  0.72461591218E+02  0.70000027257E+02 0.  0.
        -12    1    1    2    0    0  0.58463913759E+01  0.14676232062E+02 -0.10055163162E+02  0.18726408782E+02  0.00000000000E+00 0.  1.
         11    1    3    3    0    0 -0.44059688200E+01 -0.14937975371E+00 -0.15703851921E+02  0.16310911715E+02  0.51100000000E-03 0.  1.
        -11    1    3    3    0    0  0.18173816978E+02 -0.96812100455E+01  0.29124249096E+02  0.35668408111E+02  0.51100000000E-03 0. -1.
         12    1    3    3    0    0 -0.19614239534E+02 -0.48456422623E+01 -0.33652340135E+01  0.20482271392E+02  0.00000000000E+00 0. -1.
</event>
<event>
 7    1  0.1788006E-013  0.7246157E+02  0.7816164E-02  0.1226708E+00
        -11   -1    0    0    0    0  0.00000000000E+00  0.00000000000E+00  0.45593999997E+02  0.45594000000E+02  0.51100000000E-03 0. -1.
         11   -1    0    0    0    0 -0.00000000000E+00 -0.00000000000E+00 -0.45593999997E+02  0.45594000000E+02  0.51100000000E-03 0.  1.
    9900012    2    1    2    0    0  0.62843027276E+01  0.94965885897E+01  0.14866123885E+02  0.72461566945E+02  0.69999995636E+02 0.  0.
        -12    1    1    2    0    0 -0.62843027276E+01 -0.94965885897E+01 -0.14866123885E+02  0.18726433055E+02  0.00000000000E+00 0.  1.
         11    1    3    3    0    0  0.21621973939E+02  0.12781201594E+02  0.10123209292E+02  0.27080403206E+02  0.51100000000E-03 0. -1.
        -11    1    3    3    0    0  0.13456925737E+02  0.45823572359E+01 -0.30316313648E+01  0.14535392569E+02  0.51100000000E-03 0.  1.
         12    1    3    3    0    0 -0.28794596948E+02 -0.78669702405E+01  0.77745459578E+01  0.30845771169E+02  0.00000000000E+00 0. -1.
</event>
<event>
 7    1  0.1788006E-013  0.7246161E+02  0.7816164E-02  0.1226708E+00
        -11   -1    0    0    0    0  0.00000000000E+00  0.00000000000E+00  0.45593999997E+02  0.45594000000E+02  0.51100000000E-03 0. -1.
         11   -1    0    0    0    0 -0.00000000000E+00 -0.00000000000E+00 -0.45593999997E+02  0.45594000000E+02  0.51100000000E-03 0.  1.
    9900012    2    1    2    0    0 -0.15958972121E+02  0.38867256535E+00  0.97896858672E+01  0.72461606677E+02  0.70000047395E+02 0.  0.
        -12    1    1    2    0    0  0.15958972121E+02 -0.38867256535E+00 -0.97896858672E+01  0.18726393323E+02  0.00000000000E+00 0.  1.
         11    1    3    3    0    0 -0.14183691168E+02  0.22435645022E+02  0.13401379969E+02  0.29734361403E+02  0.51100000000E-03 0. -1.
        -11    1    3    3    0    0  0.14283273691E+02  0.75470239841E+00 -0.39415271463E+01  0.14836344548E+02  0.51100000000E-03 0.  1.
         12    1    3    3    0    0 -0.16058554644E+02 -0.22801674855E+02  0.32983304405E+00  0.27890900725E+02  0.00000000000E+00 0. -1.
</event>
<event>
 7    1  0.1788006E-013  0.7246153E+02  0.7816164E-02  0.1226708E+00
        -11   -1    0    0    0    0  0.00000000000E+00  0.00000000000E+00  0.45593999997E+02  0.45594000000E+02  0.51100000000E-03 0. -1.
         11   -1    0    0    0    0 -0.00000000000E+00 -0.00000000000E+00 -0.45593999997E+02  0.45594000000E+02  0.51100000000E-03 0.  1.
    9900012    2    1    2    0    0  0.32716048149E+01  0.63502241405E+01  0.17310454896E+02  0.72461532276E+02  0.69999950474E+02 0.  0.
        -12    1    1    2    0    0 -0.32716048149E+01 -0.63502241405E+01 -0.17310454896E+02  0.18726467724E+02  0.00000000000E+00 0.  1.
         11    1    3    3    0    0  0.66040184657E+01 -0.12578893035E+01 -0.45867474881E+01  0.81384026796E+01  0.51100000000E-03 0. -1.
        -11    1    3    3    0    0  0.95528145977E+01 -0.20679048608E+02 -0.48804464321E+01  0.23295881089E+02  0.51100000000E-03 0.  1.
         12    1    3    3    0    0 -0.12885228249E+02  0.28287162052E+02  0.26777648817E+02  0.41027248508E+02  0.00000000000E+00 0. -1.
</event>
<event>
 7    1  0.1788006E-013  0.7246156E+02  0.7816164E-02  0.1226708E+00
        -11   -1    0    0    0    0  0.00000000000E+00  0.00000000000E+00  0.45593999997E+02  0.45594000000E+02  0.51100000000E-03 0. -1.
         11   -1    0    0    0    0 -0.00000000000E+00 -0.00000000000E+00 -0.45593999997E+02  0.45594000000E+02  0.51100000000E-03 0.  1.
    9900012    2    1    2    0    0  0.89247640019E+01 -0.15239278663E+02  0.62283642794E+01  0.72461560182E+02  0.69999986827E+02 0.  0.
        -12    1    1    2    0    0 -0.89247640019E+01  0.15239278663E+02 -0.62283642794E+01  0.18726439818E+02  0.00000000000E+00 0.  1.
         11    1    3    3    0    0  0.55672956578E+01  0.38253294604E+01  0.15148579654E+02  0.16586361633E+02  0.51100000000E-03 0. -1.
        -11    1    3    3    0    0 -0.16451572168E+02 -0.18525830479E+02  0.11592397488E+02  0.27354054572E+02  0.51100000000E-03 0.  1.
         12    1    3    3    0    0  0.19809040512E+02 -0.53877764364E+00 -0.20512612862E+02  0.28521143978E+02  0.00000000000E+00 0. -1.
</event>
<event>
 7    1  0.1788006E-013  0.7246159E+02  0.7816164E-02  0.1226708E+00
        -11   -1    0    0    0    0  0.00000000000E+00  0.00000000000E+00  0.45593999997E+02  0.45594000000E+02  0.51100000000E-03 0.  1.
         11   -1    0    0    0    0 -0.00000000000E+00 -0.00000000000E+00 -0.45593999997E+02  0.45594000000E+02  0.51100000000E-03 0. -1.
    9900012    2    1    2    0    0 -0.91511030916E+01  0.49907121336E+01  0.15557261469E+02  0.72461594050E+02  0.70000030946E+02 0.  0.
        -12    1    1    2    0    0  0.91511030916E+01 -0.49907121336E+01 -0.15557261469E+02  0.18726405950E+02  0.00000000000E+00 0.  1.
         11    1    3    3    0    0 -0.14060104691E+02  0.44120272519E+01 -0.38353717822E+01  0.15227035344E+02  0.51100000000E-03 0. -1.
        -11    1    3    3    0    0  0.46595175951E+01  0.24704658108E+02  0.21412193014E+02  0.33022920016E+02  0.51100000000E-03 0.  1.
         12    1    3    3    0    0  0.24948400425E+00 -0.24125973227E+02 -0.20195597629E+01  0.24211638689E+02  0.00000000000E+00 0. -1.
</event>
<event>
 7    1  0.1788006E-013  0.7246158E+02  0.7816164E-02  0.1226708E+00
        -11   -1    0    0    0    0  0.00000000000E+00  0.00000000000E+00  0.45593999997E+02  0.45594000000E+02  0.51100000000E-03 0.  1.
         11   -1    0    0    0    0 -0.00000000000E+00 -0.00000000000E+00 -0.45593999997E+02  0.45594000000E+02  0.51100000000E-03 0. -1.
    9900012    2    1    2    0    0 -0.51466291047E+01  0.13437357898E+02 -0.11984513672E+02  0.72461576253E+02  0.70000007762E+02 0.  0.
        -12    1    1    2    0    0  0.51466291047E+01 -0.13437357898E+02  0.11984513672E+02  0.18726423747E+02  0.00000000000E+00 0.  1.
         11    1    3    3    0    0 -0.18777348581E+02  0.60933397096E+01 -0.29927994109E+01  0.19966833928E+02  0.51100000000E-03 0. -1.
        -11    1    3    3    0    0  0.15097230507E+02  0.16752381097E+02  0.14728247280E+02  0.26934919892E+02  0.51100000000E-03 0.  1.
         12    1    3    3    0    0 -0.14665110312E+01 -0.94083629088E+01 -0.23719961542E+02  0.25559822432E+02  0.00000000000E+00 0. -1.
</event>
<event>
 7    1  0.1788006E-013  0.7246161E+02  0.7816164E-02  0.1226708E+00
        -11   -1    0    0    0    0  0.00000000000E+00  0.00000000000E+00  0.45593999997E+02  0.45594000000E+02  0.51100000000E-03 0.  1.
         11   -1    0    0    0    0 -0.00000000000E+00 -0.00000000000E+00 -0.45593999997E+02  0.45594000000E+02  0.51100000000E-03 0. -1.
    9900012    2    1    2    0    0 -0.10459941060E+02  0.14070950046E+02 -0.65784161557E+01  0.72461613234E+02  0.70000055937E+02 0.  0.
        -12    1    1    2    0    0  0.10459941060E+02 -0.14070950046E+02  0.65784161557E+01  0.18726386766E+02  0.00000000000E+00 0.  1.
         11    1    3    3    0    0  0.65081843448E+01 -0.14571912565E+02 -0.16607246391E+02  0.23032536382E+02  0.51100000000E-03 0. -1.
        -11    1    3    3    0    0 -0.12816175679E+02  0.17010272109E+02 -0.11799817054E+02  0.24348293555E+02  0.51100000000E-03 0.  1.
        -12    1    3    3    0    0 -0.41519497252E+01  0.11632590502E+02  0.21828647289E+02  0.25080783297E+02  0.00000000000E+00 0.  1.
</event>
<event>
 7    1  0.1788006E-013  0.7246155E+02  0.7816164E-02  0.1226708E+00
        -11   -1    0    0    0    0  0.00000000000E+00  0.00000000000E+00  0.45593999997E+02  0.45594000000E+02  0.51100000000E-03 0. -1.
         11   -1    0    0    0    0 -0.00000000000E+00 -0.00000000000E+00 -0.45593999997E+02  0.45594000000E+02  0.51100000000E-03 0.  1.
    9900012    2    1    2    0    0 -0.15814403522E+02 -0.66924752261E+01  0.74696230201E+01  0.72461552086E+02  0.69999976281E+02 0.  0.
        -12    1    1    2    0    0  0.15814403522E+02  0.66924752261E+01 -0.74696230201E+01  0.18726447914E+02  0.00000000000E+00 0.  1.
         11    1    3    3    0    0  0.10872004332E+02 -0.10192772640E+02  0.11629849471E+02  0.18903610535E+02  0.51100000000E-03 0. -1.
        -11    1    3    3    0    0 -0.20164172110E+02 -0.37928290515E+01  0.19281733695E+02  0.28156076496E+02  0.51100000000E-03 0.  1.
        -12    1    3    3    0    0 -0.65222357441E+01  0.72931264652E+01 -0.23441960146E+02  0.25401865054E+02  0.00000000000E+00 0.  1.
</event>
<event>
 7    1  0.1788006E-013  0.7246156E+02  0.7816164E-02  0.1226708E+00
        -11   -1    0    0    0    0  0.00000000000E+00  0.00000000000E+00  0.45593999997E+02  0.45594000000E+02  0.51100000000E-03 0.  1.
         11   -1    0    0    0    0 -0.00000000000E+00 -0.00000000000E+00 -0.45593999997E+02  0.45594000000E+02  0.51100000000E-03 0. -1.
    9900012    2    1    2    0    0 -0.55616137863E+01  0.63967310986E+01 -0.16698193565E+02  0.72461564541E+02  0.69999992505E+02 0.  0.
        -12    1    1    2    0    0  0.55616137863E+01 -0.63967310986E+01  0.16698193565E+02  0.18726435459E+02  0.00000000000E+00 0.  1.
         11    1    3    3    0    0 -0.19737849126E+02  0.25589741136E+02 -0.51810902810E+00  0.32321602323E+02  0.51100000000E-03 0. -1.
        -11    1    3    3    0    0  0.13812877020E+02  0.30100751029E+01 -0.34814526651E+01  0.14559417454E+02  0.51100000000E-03 0.  1.
        -12    1    3    3    0    0  0.36335831935E+00 -0.22203085140E+02 -0.12698631872E+02  0.25580544764E+02  0.00000000000E+00 0.  1.
</event>
<event>
 7    1  0.1788006E-013  0.7246156E+02  0.7816164E-02  0.1226708E+00
        -11   -1    0    0    0    0  0.00000000000E+00  0.00000000000E+00  0.45593999997E+02  0.45594000000E+02  0.51100000000E-03 0. -1.
         11   -1    0    0    0    0 -0.00000000000E+00 -0.00000000000E+00 -0.45593999997E+02  0.45594000000E+02  0.51100000000E-03 0.  1.
    9900012    2    1    2    0    0 -0.16236873617E+01 -0.18632520851E+02  0.93401276903E+00  0.72461559501E+02  0.69999985940E+02 0.  0.
        -12    1    1    2    0    0  0.16236873617E+01  0.18632520851E+02 -0.93401276903E+00  0.18726440499E+02  0.00000000000E+00 0.  1.
         11    1    3    3    0    0  0.51603648813E+01 -0.17330760294E+02 -0.23668355282E+02  0.29785494122E+02  0.51100000000E-03 0. -1.
        -11    1    3    3    0    0 -0.61060086745E+01 -0.78201235974E+01 -0.58558413151E+01  0.11520787854E+02  0.51100000000E-03 0.  1.
        -12    1    3    3    0    0 -0.67804356845E+00  0.65183630408E+01  0.30458209367E+02  0.31155277524E+02  0.00000000000E+00 0.  1.
</event>
<event>
 7    1  0.1788006E-013  0.7246156E+02  0.7816164E-02  0.1226708E+00
        -11   -1    0    0    0    0  0.00000000000E+00  0.00000000000E+00  0.45593999997E+02  0.45594000000E+02  0.51100000000E-03 0. -1.
         11   -1    0    0    0    0 -0.00000000000E+00 -0.00000000000E+00 -0.45593999997E+02  0.45594000000E+02  0.51100000000E-03 0.  1.
    9900012    2    1    2    0    0 -0.79128970517E+01  0.95471515331E+00  0.16945620431E+02  0.72461562203E+02  0.69999989460E+02 0.  0.
        -12    1    1    2    0    0  0.79128970517E+01 -0.95471515331E+00 -0.16945620431E+02  0.18726437797E+02  0.00000000000E+00 0.  1.
         11    1    3    3    0    0  0.37476500317E+01 -0.23707154090E+01  0.23209236997E+02  0.23629089160E+02  0.51100000000E-03 0. -1.
        -11    1    3    3    0    0  0.36092069512E+01 -0.19806522163E+02 -0.63651402203E+01  0.21114916653E+02  0.51100000000E-03 0.  1.
        -12    1    3    3    0    0 -0.15269754035E+02  0.23131952725E+02  0.10152365389E+00  0.27717556390E+02  0.00000000000E+00 0.  1.
</event>
<event>
 7    1  0.1788006E-013  0.7246148E+02  0.7816164E-02  0.1226708E+00
        -11   -1    0    0    0    0  0.00000000000E+00  0.00000000000E+00  0.45593999997E+02  0.45594000000E+02  0.51100000000E-03 0.  1.
         11   -1    0    0    0    0 -0.00000000000E+00 -0.00000000000E+00 -0.45593999997E+02  0.45594000000E+02  0.51100000000E-03 0. -1.
    9900012    2    1    2    0    0 -0.18494713370E+02  0.13659495915E+01 -0.26004162207E+01  0.72461483895E+02  0.69999887449E+02 0.  0.
        -12    1    1    2    0    0  0.18494713370E+02 -0.13659495915E+01  0.26004162207E+01  0.18726516105E+02  0.00000000000E+00 0.  1.
         11    1    3    3    0    0 -0.76214748455E+01  0.16725132812E+01  0.20524764709E+01  0.80682612390E+01  0.51100000000E-03 0. -1.
        -11    1    3    3    0    0 -0.26931562291E+02 -0.23109833990E+02  0.25774500628E+01  0.35581128756E+02  0.51100000000E-03 0.  1.
         12    1    3    3    0    0  0.16058323766E+02  0.22803270300E+02 -0.72303427545E+01  0.28812093900E+02  0.00000000000E+00 0. -1.
</event>
<event>
 7    1  0.1788006E-013  0.7246160E+02  0.7816164E-02  0.1226708E+00
        -11   -1    0    0    0    0  0.00000000000E+00  0.00000000000E+00  0.45593999997E+02  0.45594000000E+02  0.51100000000E-03 0. -1.
         11   -1    0    0    0    0 -0.00000000000E+00 -0.00000000000E+00 -0.45593999997E+02  0.45594000000E+02  0.51100000000E-03 0.  1.
    9900012    2    1    2    0    0 -0.13291440283E+02 -0.83389159012E+00  0.13165118324E+02  0.72461598838E+02  0.70000037184E+02 0.  0.
        -12    1    1    2    0    0  0.13291440283E+02  0.83389159012E+00 -0.13165118324E+02  0.18726401162E+02  0.00000000000E+00 0.  1.
         11    1    3    3    0    0  0.25954608099E+01  0.27146370017E+02  0.12465377904E+02  0.29984120272E+02  0.51100000000E-03 0. -1.
        -11    1    3    3    0    0  0.59227606129E+01  0.11506201550E+01 -0.60376128326E+00  0.60636249857E+01  0.51100000000E-03 0.  1.
        -12    1    3    3    0    0 -0.21809661705E+02 -0.29130881762E+02  0.13035017036E+01  0.36413853581E+02  0.00000000000E+00 0.  1.
</event>
<event>
 7    1  0.1788006E-013  0.7246157E+02  0.7816164E-02  0.1226708E+00
        -11   -1    0    0    0    0  0.00000000000E+00  0.00000000000E+00  0.45593999997E+02  0.45594000000E+02  0.51100000000E-03 0. -1.
         11   -1    0    0    0    0 -0.00000000000E+00 -0.00000000000E+00 -0.45593999997E+02  0.45594000000E+02  0.51100000000E-03 0.  1.
    9900012    2    1    2    0    0  0.13551405874E+02 -0.18739042685E+01  0.12787769315E+02  0.72461570484E+02  0.70000000246E+02 0.  0.
        -12    1    1    2    0    0 -0.13551405874E+02  0.18739042685E+01 -0.12787769315E+02  0.18726429516E+02  0.00000000000E+00 0.  1.
         11    1    3    3    0    0 -0.10396794480E+02  0.16002845424E+02  0.17247298353E+02  0.25722630073E+02  0.51100000000E-03 0. -1.
        -11    1    3    3    0    0 -0.54652394048E+01  0.57806828060E+01 -0.41899008109E+01  0.89911292128E+01  0.51100000000E-03 0.  1.
        -12    1    3    3    0    0  0.29413439759E+02 -0.23657432498E+02 -0.26962822670E+00  0.37747811198E+02  0.00000000000E+00 0.  1.
</event>
<event>
 7    1  0.1788006E-013  0.7246161E+02  0.7816164E-02  0.1226708E+00
        -11   -1    0    0    0    0  0.00000000000E+00  0.00000000000E+00  0.45593999997E+02  0.45594000000E+02  0.51100000000E-03 0. -1.
         11   -1    0    0    0    0 -0.00000000000E+00 -0.00000000000E+00 -0.45593999997E+02  0.45594000000E+02  0.51100000000E-03 0.  1.
    9900012    2    1    2    0    0  0.16144635029E+02  0.16564945516E+01 -0.93426115507E+01  0.72461612068E+02  0.70000054417E+02 0.  0.
        -12    1    1    2    0    0 -0.16144635029E+02 -0.16564945516E+01  0.93426115507E+01  0.18726387932E+02  0.00000000000E+00 0.  1.
         11    1    3    3    0    0  0.99743973306E+01  0.22628939545E+02 -0.19161998600E+02  0.31284815768E+02  0.51100000000E-03 0. -1.
        -11    1    3    3    0    0 -0.19559276431E+01  0.78719330171E+01 -0.29108138742E+01  0.86177618928E+01  0.51100000000E-03 0.  1.
        -12    1    3    3    0    0  0.81261653412E+01 -0.28844378010E+02  0.12730200923E+02  0.32559034407E+02  0.00000000000E+00 0.  1.
</event>
<event>
 7    1  0.1788006E-013  0.7246158E+02  0.7816164E-02  0.1226708E+00
        -11   -1    0    0    0    0  0.00000000000E+00  0.00000000000E+00  0.45593999997E+02  0.45594000000E+02  0.51100000000E-03 0.  1.
         11   -1    0    0    0    0 -0.00000000000E+00 -0.00000000000E+00 -0.45593999997E+02  0.45594000000E+02  0.51100000000E-03 0. -1.
    9900012    2    1    2    0    0 -0.51449109010E+01 -0.12053717179E+02 -0.13375977611E+02  0.72461575273E+02  0.70000006485E+02 0.  0.
        -12    1    1    2    0    0  0.51449109010E+01  0.12053717179E+02  0.13375977611E+02  0.18726424727E+02  0.00000000000E+00 0.  1.
         11    1    3    3    0    0 -0.46572027919E+01 -0.23017341487E+02 -0.15247730247E+02  0.27999657586E+02  0.51100000000E-03 0. -1.
        -11    1    3    3    0    0 -0.14851865056E+02 -0.76450578797E+01 -0.85297328692E+01  0.18755829726E+02  0.51100000000E-03 0.  1.
        -12    1    3    3    0    0  0.14364156946E+02  0.18608682188E+02  0.10401485505E+02  0.25706087961E+02  0.00000000000E+00 0.  1.
</event>
<event>
 7    1  0.1788006E-013  0.7246154E+02  0.7816164E-02  0.1226708E+00
        -11   -1    0    0    0    0  0.00000000000E+00  0.00000000000E+00  0.45593999997E+02  0.45594000000E+02  0.51100000000E-03 0.  1.
         11   -1    0    0    0    0 -0.00000000000E+00 -0.00000000000E+00 -0.45593999997E+02  0.45594000000E+02  0.51100000000E-03 0. -1.
    9900012    2    1    2    0    0  0.17361091309E+02 -0.58418014318E+01 -0.38917947015E+01  0.72461542742E+02  0.69999964109E+02 0.  0.
        -12    1    1    2    0    0 -0.17361091309E+02  0.58418014318E+01  0.38917947015E+01  0.18726457258E+02  0.00000000000E+00 0.  1.
         11    1    3    3    0    0  0.82458396975E+01  0.35875653810E+01 -0.51547309896E+01  0.10365121780E+02  0.51100000000E-03 0. -1.
        -11    1    3    3    0    0 -0.17143532840E+02 -0.85602625646E+01 -0.20440922433E+02  0.28018032115E+02  0.51100000000E-03 0.  1.
         12    1    3    3    0    0  0.26258784452E+02 -0.86910424813E+00  0.21703858721E+02  0.34078388848E+02  0.00000000000E+00 0. -1.
</event>
<event>
 7    1  0.1788006E-013  0.7246169E+02  0.7816164E-02  0.1226708E+00
        -11   -1    0    0    0    0  0.00000000000E+00  0.00000000000E+00  0.45593999997E+02  0.45594000000E+02  0.51100000000E-03 0. -1.
         11   -1    0    0    0    0 -0.00000000000E+00 -0.00000000000E+00 -0.45593999997E+02  0.45594000000E+02  0.51100000000E-03 0.  1.
    9900012    2    1    2    0    0 -0.17887693785E+02  0.14506471914E+01 -0.53479604923E+01  0.72461691030E+02  0.70000157280E+02 0.  0.
        -12    1    1    2    0    0  0.17887693785E+02 -0.14506471914E+01  0.53479604923E+01  0.18726308970E+02  0.00000000000E+00 0.  1.
         11    1    3    3    0    0 -0.39015546483E+02 -0.11142525073E+02 -0.15828034248E+01  0.40606329547E+02  0.51100000000E-03 0. -1.
        -11    1    3    3    0    0 -0.13752571972E+01  0.18875585739E+00 -0.59096669684E+01  0.60705127519E+01  0.51100000000E-03 0.  1.
         12    1    3    3    0    0  0.22503109895E+02  0.12404416407E+02  0.21445099009E+01  0.25784848730E+02  0.00000000000E+00 0. -1.
</event>
<event>
 7    1  0.1788006E-013  0.7246154E+02  0.7816164E-02  0.1226708E+00
        -11   -1    0    0    0    0  0.00000000000E+00  0.00000000000E+00  0.45593999997E+02  0.45594000000E+02  0.51100000000E-03 0. -1.
         11   -1    0    0    0    0 -0.00000000000E+00 -0.00000000000E+00 -0.45593999997E+02  0.45594000000E+02  0.51100000000E-03 0.  1.
    9900012    2    1    2    0    0  0.14666587116E+02 -0.11616282699E+02  0.79593285358E+00  0.72461539830E+02  0.69999960315E+02 0.  0.
        -12    1    1    2    0    0 -0.14666587116E+02  0.11616282699E+02 -0.79593285358E+00  0.18726460170E+02  0.00000000000E+00 0.  1.
         11    1    3    3    0    0  0.79174375900E+01 -0.19414089558E+02 -0.81573966417E+01  0.22497462336E+02  0.51100000000E-03 0. -1.
        -11    1    3    3    0    0  0.12787187754E+02  0.24700535298E+02 -0.36210495398E+01  0.28048896854E+02  0.51100000000E-03 0.  1.
         12    1    3    3    0    0 -0.60380382284E+01 -0.16902728440E+02  0.12574379035E+02  0.21915180640E+02  0.00000000000E+00 0. -1.
</event>
<event>
 7    1  0.1788006E-013  0.7246156E+02  0.7816164E-02  0.1226708E+00
        -11   -1    0    0    0    0  0.00000000000E+00  0.00000000000E+00  0.45593999997E+02  0.45594000000E+02  0.51100000000E-03 0.  1.
         11   -1    0    0    0    0 -0.00000000000E+00 -0.00000000000E+00 -0.45593999997E+02  0.45594000000E+02  0.51100000000E-03 0. -1.
    9900012    2    1    2    0    0 -0.46086351323E+01 -0.17022772607E+02 -0.62980336081E+01  0.72461560607E+02  0.69999987381E+02 0.  0.
        -12    1    1    2    0    0  0.46086351323E+01  0.17022772607E+02  0.62980336081E+01  0.18726439393E+02  0.00000000000E+00 0.  1.
         11    1    3    3    0    0  0.88407051571E+01  0.20527528221E+01 -0.32611014833E+01  0.96439952804E+01  0.51100000000E-03 0. -1.
        -11    1    3    3    0    0  0.71080541648E+01  0.14288523590E+02  0.12891515721E+02  0.20515299614E+02  0.51100000000E-03 0.  1.
         12    1    3    3    0    0 -0.20557394454E+02 -0.33364049019E+02 -0.15928447846E+02  0.42302265713E+02  0.00000000000E+00 0. -1.
</event>
<event>
 7    1  0.1788006E-013  0.7246162E+02  0.7816164E-02  0.1226708E+00
        -11   -1    0    0    0    0  0.00000000000E+00  0.00000000000E+00  0.45593999997E+02  0.45594000000E+02  0.51100000000E-03 0.  1.
         11   -1    0    0    0    0 -0.00000000000E+00 -0.00000000000E+00 -0.45593999997E+02  0.45594000000E+02  0.51100000000E-03 0. -1.
    9900012    2    1    2    0    0  0.15090443269E+02 -0.99835348591E+01 -0.48254430721E+01  0.72461618951E+02  0.70000063385E+02 0.  0.
        -12    1    1    2    0    0 -0.15090443269E+02  0.99835348591E+01  0.48254430721E+01  0.18726381049E+02  0.00000000000E+00 0.  1.
         11    1    3    3    0    0  0.12094481531E+02 -0.68096256881E+01  0.19534875041E+01  0.14016547335E+02  0.51100000000E-03 0. -1.
        -11    1    3    3    0    0 -0.12166341000E+02 -0.25650242993E+01  0.22364069796E+02  0.25588099208E+02  0.51100000000E-03 0.  1.
         12    1    3    3    0    0  0.15162302738E+02 -0.60888487163E+00 -0.29143000372E+02  0.32856972408E+02  0.00000000000E+00 0. -1.
</event>
<event>
 7    1  0.1788006E-013  0.7246160E+02  0.7816164E-02  0.1226708E+00
        -11   -1    0    0    0    0  0.00000000000E+00  0.00000000000E+00  0.45593999997E+02  0.45594000000E+02  0.51100000000E-03 0.  1.
         11   -1    0    0    0    0 -0.00000000000E+00 -0.00000000000E+00 -0.45593999997E+02  0.45594000000E+02  0.51100000000E-03 0. -1.
    9900012    2    1    2    0    0 -0.12672113476E+01 -0.18281315921E+02  0.38556332160E+01  0.72461595008E+02  0.70000032195E+02 0.  0.
        -12    1    1    2    0    0  0.12672113476E+01  0.18281315921E+02 -0.38556332160E+01  0.18726404992E+02  0.00000000000E+00 0.  1.
         11    1    3    3    0    0 -0.24240167771E+02  0.18341060993E+00  0.10280099451E+02  0.26330587118E+02  0.51100000000E-03 0. -1.
        -11    1    3    3    0    0  0.20219916486E+01  0.10591067681E+01  0.11910129249E+02  0.12126884858E+02  0.51100000000E-03 0.  1.
        -12    1    3    3    0    0  0.20950964775E+02 -0.19523833299E+02 -0.18334595483E+02  0.34004123033E+02  0.00000000000E+00 0.  1.
</event>
<event>
 7    1  0.1788006E-013  0.7246155E+02  0.7816164E-02  0.1226708E+00
        -11   -1    0    0    0    0  0.00000000000E+00  0.00000000000E+00  0.45593999997E+02  0.45594000000E+02  0.51100000000E-03 0. -1.
         11   -1    0    0    0    0 -0.00000000000E+00 -0.00000000000E+00 -0.45593999997E+02  0.45594000000E+02  0.51100000000E-03 0.  1.
    9900012    2    1    2    0    0 -0.18265103235E+02 -0.38059731002E+01 -0.16063949207E+01  0.72461549934E+02  0.69999973477E+02 0.  0.
        -12    1    1    2    0    0  0.18265103235E+02  0.38059731002E+01  0.16063949207E+01  0.18726450066E+02  0.00000000000E+00 0.  1.
         11    1    3    3    0    0 -0.40555646703E+01  0.17570651653E+01  0.16915173849E+02  0.17483077229E+02  0.51100000000E-03 0. -1.
        -11    1    3    3    0    0 -0.29416117786E+02 -0.27704210756E+01  0.16157980593E+01  0.29590438019E+02  0.51100000000E-03 0.  1.
         12    1    3    3    0    0  0.15206579221E+02 -0.27926171899E+01 -0.20137366829E+02  0.25388034686E+02  0.00000000000E+00 0. -1.
</event>
<event>
 7    1  0.1788006E-013  0.7246157E+02  0.7816164E-02  0.1226708E+00
        -11   -1    0    0    0    0  0.00000000000E+00  0.00000000000E+00  0.45593999997E+02  0.45594000000E+02  0.51100000000E-03 0.  1.
         11   -1    0    0    0    0 -0.00000000000E+00 -0.00000000000E+00 -0.45593999997E+02  0.45594000000E+02  0.51100000000E-03 0. -1.
    9900012    2    1    2    0    0  0.58839277425E+01  0.20642378653E+01 -0.17657792854E+02  0.72461565953E+02  0.69999994345E+02 0.  0.
        -12    1    1    2    0    0 -0.58839277425E+01 -0.20642378653E+01  0.17657792854E+02  0.18726434047E+02  0.00000000000E+00 0.  1.
         11    1    3    3    0    0  0.12579913478E+02  0.21798235798E+01  0.10914124721E+02  0.16796546450E+02  0.51100000000E-03 0. -1.
        -11    1    3    3    0    0  0.34782211009E+01 -0.97536834509E+01  0.10140749834E+02  0.14493694158E+02  0.51100000000E-03 0.  1.
         12    1    3    3    0    0 -0.10174206837E+02  0.96380977364E+01 -0.38712667409E+02  0.41171325345E+02  0.00000000000E+00 0. -1.
</event>
<event>
 7    1  0.1788006E-013  0.7246159E+02  0.7816164E-02  0.1226708E+00
        -11   -1    0    0    0    0  0.00000000000E+00  0.00000000000E+00  0.45593999997E+02  0.45594000000E+02  0.51100000000E-03 0.  1.
         11   -1    0    0    0    0 -0.00000000000E+00 -0.00000000000E+00 -0.45593999997E+02  0.45594000000E+02  0.51100000000E-03 0. -1.
    9900012    2    1    2    0    0  0.55418944897E+01  0.17689765173E+02  0.26529534898E+01  0.72461586872E+02  0.70000021596E+02 0.  0.
        -12    1    1    2    0    0 -0.55418944897E+01 -0.17689765173E+02 -0.26529534898E+01  0.18726413128E+02  0.00000000000E+00 0.  1.
         11    1    3    3    0    0 -0.10187621846E+02  0.24432209049E+02 -0.20336605786E+02  0.33381102634E+02  0.51100000000E-03 0. -1.
        -11    1    3    3    0    0  0.11631496958E+02  0.76993728732E+01  0.33231879910E+01  0.14339304126E+02  0.51100000000E-03 0.  1.
        -12    1    3    3    0    0  0.40980193778E+01 -0.14441816749E+02  0.19666371285E+02  0.24741180112E+02  0.00000000000E+00 0.  1.
</event>
<event>
 7    1  0.1788006E-013  0.7246157E+02  0.7816164E-02  0.1226708E+00
        -11   -1    0    0    0    0  0.00000000000E+00  0.00000000000E+00  0.45593999997E+02  0.45594000000E+02  0.51100000000E-03 0. -1.
         11   -1    0    0    0    0 -0.00000000000E+00 -0.00000000000E+00 -0.45593999997E+02  0.45594000000E+02  0.51100000000E-03 0.  1.
    9900012    2    1    2    0    0 -0.21160660207E+00 -0.98754408832E+01  0.15909436670E+02  0.72461567207E+02  0.69999995978E+02 0.  0.
        -12    1    1    2    0    0  0.21160660207E+00  0.98754408832E+01 -0.15909436670E+02  0.18726432793E+02  0.00000000000E+00 0.  1.
         11    1    3    3    0    0  0.86658991873E+01 -0.10086752434E+02  0.95480972760E+01  0.16370905450E+02  0.51100000000E-03 0. -1.
        -11    1    3    3    0    0 -0.19374641965E+02  0.33844201101E+01  0.26594267812E+02  0.33076972827E+02  0.51100000000E-03 0.  1.
        -12    1    3    3    0    0  0.10497136175E+02 -0.31731085589E+01 -0.20232928418E+02  0.23013688930E+02  0.00000000000E+00 0.  1.
</event>
<event>
 7    1  0.1788006E-013  0.7246156E+02  0.7816164E-02  0.1226708E+00
        -11   -1    0    0    0    0  0.00000000000E+00  0.00000000000E+00  0.45593999997E+02  0.45594000000E+02  0.51100000000E-03 0. -1.
         11   -1    0    0    0    0 -0.00000000000E+00 -0.00000000000E+00 -0.45593999997E+02  0.45594000000E+02  0.51100000000E-03 0.  1.
    9900012    2    1    2    0    0 -0.89517666086E+01 -0.14162707923E+02  0.83643946343E+01  0.72461560971E+02  0.69999987854E+02 0.  0.
        -12    1    1    2    0    0  0.89517666086E+01  0.14162707923E+02 -0.83643946343E+01  0.18726439029E+02  0.00000000000E+00 0.  1.
         11    1    3    3    0    0 -0.18358221401E+01  0.48824495098E+01 -0.29090031821E+01  0.59725083441E+01  0.51100000000E-03 0. -1.
        -11    1    3    3    0    0 -0.65573805681E-01  0.20680107618E+02  0.15610438690E+02  0.25910556679E+02  0.51100000000E-03 0.  1.
         12    1    3    3    0    0 -0.70503706628E+01 -0.39725265051E+02 -0.43370408739E+01  0.40578495948E+02  0.00000000000E+00 0. -1.
</event>
<event>
 7    1  0.1788006E-013  0.7246160E+02  0.7816164E-02  0.1226708E+00
        -11   -1    0    0    0    0  0.00000000000E+00  0.00000000000E+00  0.45593999997E+02  0.45594000000E+02  0.51100000000E-03 0.  1.
         11   -1    0    0    0    0 -0.00000000000E+00 -0.00000000000E+00 -0.45593999997E+02  0.45594000000E+02  0.51100000000E-03 0. -1.
    9900012    2    1    2    0    0 -0.18346084248E+02  0.15653865740E+01 -0.34130389284E+01  0.72461599463E+02  0.70000037998E+02 0.  0.
        -12    1    1    2    0    0  0.18346084248E+02 -0.15653865740E+01  0.34130389284E+01  0.18726400537E+02  0.00000000000E+00 0.  1.
         11    1    3    3    0    0 -0.32586320356E+01 -0.51246097746E+01  0.76648086023E+00  0.61210947760E+01  0.51100000000E-03 0. -1.
        -11    1    3    3    0    0 -0.26230842740E+01 -0.15468557126E+02  0.23818698402E+02  0.28521697434E+02  0.51100000000E-03 0.  1.
         12    1    3    3    0    0 -0.12464367938E+02  0.22158553475E+02 -0.27998218191E+02  0.37818807253E+02  0.00000000000E+00 0. -1.
</event>
<event>
 7    1  0.1788006E-013  0.7246156E+02  0.7816164E-02  0.1226708E+00
        -11   -1    0    0    0    0  0.00000000000E+00  0.00000000000E+00  0.45593999997E+02  0.45594000000E+02  0.51100000000E-03 0. -1.
         11   -1    0    0    0    0 -0.00000000000E+00 -0.00000000000E+00 -0.45593999997E+02  0.45594000000E+02  0.51100000000E-03 0.  1.
    9900012    2    1    2    0    0  0.13277758862E+02  0.94181398227E+01  0.92563099899E+01  0.72461561130E+02  0.69999988062E+02 0.  0.
        -12    1    1    2    0    0 -0.13277758862E+02 -0.94181398227E+01 -0.92563099899E+01  0.18726438870E+02  0.00000000000E+00 0.  1.
         11    1    3    3    0    0 -0.75951285437E+01 -0.21357311932E+02  0.94579112430E+01  0.24561613056E+02  0.51100000000E-03 0. -1.
        -11    1    3    3    0    0  0.52594802062E+01 -0.59325242184E+01 -0.10690648015E+01  0.79999922158E+01  0.51100000000E-03 0.  1.
        -12    1    3    3    0    0  0.15613407200E+02  0.36707975974E+02  0.86746354838E+00  0.39899955858E+02  0.00000000000E+00 0.  1.
</event>
<event>
 7    1  0.1788006E-013  0.7246155E+02  0.7816164E-02  0.1226708E+00
        -11   -1    0    0    0    0  0.00000000000E+00  0.00000000000E+00  0.45593999997E+02  0.45594000000E+02  0.51100000000E-03 0.  1.
         11   -1    0    0    0    0 -0.00000000000E+00 -0.00000000000E+00 -0.45593999997E+02  0.45594000000E+02  0.51100000000E-03 0. -1.
    9900012    2    1    2    0    0 -0.12977240043E+02 -0.42305044420E+01 -0.12820835788E+02  0.72461554601E+02  0.69999979557E+02 0.  0.
        -12    1    1    2    0    0  0.12977240043E+02  0.42305044420E+01  0.12820835788E+02  0.18726445399E+02  0.00000000000E+00 0.  1.
         11    1    3    3    0    0 -0.11776514891E+02  0.10487600165E+02 -0.23595834518E+02  0.28380265451E+02  0.51100000000E-03 0. -1.
        -11    1    3    3    0    0  0.84595054904E+01  0.81353610360E+01 -0.69032098920E+01  0.13616227062E+02  0.51100000000E-03 0.  1.
         12    1    3    3    0    0 -0.96602306423E+01 -0.22853465643E+02  0.17678208622E+02  0.30465062088E+02  0.00000000000E+00 0. -1.
</event>
<event>
 7    1  0.1788006E-013  0.7246167E+02  0.7816164E-02  0.1226708E+00
        -11   -1    0    0    0    0  0.00000000000E+00  0.00000000000E+00  0.45593999997E+02  0.45594000000E+02  0.51100000000E-03 0.  1.
         11   -1    0    0    0    0 -0.00000000000E+00 -0.00000000000E+00 -0.45593999997E+02  0.45594000000E+02  0.51100000000E-03 0. -1.
    9900012    2    1    2    0    0 -0.60382268711E+01  0.40952685190E+01 -0.17246563091E+02  0.72461672372E+02  0.70000132975E+02 0.  0.
        -12    1    1    2    0    0  0.60382268711E+01 -0.40952685190E+01  0.17246563091E+02  0.18726327628E+02  0.00000000000E+00 0.  1.
         11    1    3    3    0    0  0.49556629221E+01 -0.31523525937E+01  0.14075551533E+02  0.15251789177E+02  0.51100000000E-03 0. -1.
        -11    1    3    3    0    0  0.16206712241E+01 -0.13184080656E+02  0.45516464434E+01  0.14041511441E+02  0.51100000000E-03 0.  1.
         12    1    3    3    0    0 -0.12614561017E+02  0.20431701768E+02 -0.35873761067E+02  0.43168371754E+02  0.00000000000E+00 0. -1.
</event>
<event>
 7    1  0.1788006E-013  0.7246158E+02  0.7816164E-02  0.1226708E+00
        -11   -1    0    0    0    0  0.00000000000E+00  0.00000000000E+00  0.45593999997E+02  0.45594000000E+02  0.51100000000E-03 0. -1.
         11   -1    0    0    0    0 -0.00000000000E+00 -0.00000000000E+00 -0.45593999997E+02  0.45594000000E+02  0.51100000000E-03 0.  1.
    9900012    2    1    2    0    0  0.80502485177E+01 -0.14478007908E+02  0.87326693114E+01  0.72461582097E+02  0.70000015375E+02 0.  0.
        -12    1    1    2    0    0 -0.80502485177E+01  0.14478007908E+02 -0.87326693114E+01  0.18726417903E+02  0.00000000000E+00 0.  1.
         11    1    3    3    0    0  0.41782101207E+01  0.95062977948E+01 -0.18647828339E+01  0.10550097291E+02  0.51100000000E-03 0. -1.
        -11    1    3    3    0    0  0.29544606536E+02 -0.99911146358E+01  0.12429254071E+01  0.31212994263E+02  0.51100000000E-03 0.  1.
         12    1    3    3    0    0 -0.25672568139E+02 -0.13993191067E+02  0.93545267382E+01  0.30698490543E+02  0.00000000000E+00 0. -1.
</event>
<event>
 7    1  0.1788006E-013  0.7246154E+02  0.7816164E-02  0.1226708E+00
        -11   -1    0    0    0    0  0.00000000000E+00  0.00000000000E+00  0.45593999997E+02  0.45594000000E+02  0.51100000000E-03 0. -1.
         11   -1    0    0    0    0 -0.00000000000E+00 -0.00000000000E+00 -0.45593999997E+02  0.45594000000E+02  0.51100000000E-03 0.  1.
    9900012    2    1    2    0    0 -0.25660730606E+01  0.65724459974E+01  0.17346422064E+02  0.72461544496E+02  0.69999966392E+02 0.  0.
        -12    1    1    2    0    0  0.25660730606E+01 -0.65724459974E+01 -0.17346422064E+02  0.18726455504E+02  0.00000000000E+00 0.  1.
         11    1    3    3    0    0 -0.21933136165E+02  0.32578446014E+01  0.20024811501E+02  0.29877568331E+02  0.51100000000E-03 0. -1.
        -11    1    3    3    0    0 -0.31787162800E+01  0.27752079650E+01  0.13943539986E+02  0.14568058349E+02  0.51100000000E-03 0.  1.
        -12    1    3    3    0    0  0.22545779384E+02  0.53939343094E+00 -0.16621929423E+02  0.28015917816E+02  0.00000000000E+00 0.  1.
</event>
<event>
 7    1  0.1788006E-013  0.7246158E+02  0.7816164E-02  0.1226708E+00
        -11   -1    0    0    0    0  0.00000000000E+00  0.00000000000E+00  0.45593999997E+02  0.45594000000E+02  0.51100000000E-03 0. -1.
         11   -1    0    0    0    0 -0.00000000000E+00 -0.00000000000E+00 -0.45593999997E+02  0.45594000000E+02  0.51100000000E-03 0.  1.
    9900012    2    1    2    0    0 -0.18455478872E+02 -0.63400346337E+00  0.31099852622E+01  0.72461583655E+02  0.70000017405E+02 0.  0.
        -12    1    1    2    0    0  0.18455478872E+02  0.63400346337E+00 -0.31099852622E+01  0.18726416345E+02  0.00000000000E+00 0.  1.
         11    1    3    3    0    0 -0.11467827305E+02  0.29508715106E+02 -0.55431370201E+01  0.32140343784E+02  0.51100000000E-03 0. -1.
        -11    1    3    3    0    0 -0.97098193673E+01 -0.65641451549E+01 -0.52185648679E+01  0.12829731615E+02  0.51100000000E-03 0.  1.
        -12    1    3    3    0    0  0.27221677999E+01 -0.23578573414E+02  0.13871687150E+02  0.27491508256E+02  0.00000000000E+00 0.  1.
</event>
<event>
 7    1  0.1788006E-013  0.7246149E+02  0.7816164E-02  0.1226708E+00
        -11   -1    0    0    0    0  0.00000000000E+00  0.00000000000E+00  0.45593999997E+02  0.45594000000E+02  0.51100000000E-03 0. -1.
         11   -1    0    0    0    0 -0.00000000000E+00 -0.00000000000E+00 -0.45593999997E+02  0.45594000000E+02  0.51100000000E-03 0.  1.
    9900012    2    1    2    0    0  0.14575319697E+02 -0.11136700860E+02 -0.37704515342E+01  0.72461485239E+02  0.69999889200E+02 0.  0.
        -12    1    1    2    0    0 -0.14575319697E+02  0.11136700860E+02  0.37704515342E+01  0.18726514761E+02  0.00000000000E+00 0.  1.
         11    1    3    3    0    0  0.94951747365E+01 -0.12633091547E+02  0.17579948227E+02  0.23639118538E+02  0.51100000000E-03 0. -1.
        -11    1    3    3    0    0  0.20378721160E+02 -0.13158644544E+01  0.22629187180E+01  0.20546157226E+02  0.51100000000E-03 0.  1.
        -12    1    3    3    0    0 -0.15298576199E+02  0.28122551416E+01 -0.23613318479E+02  0.28276209475E+02  0.00000000000E+00 0.  1.
</event>
